Generated by CHARMM-GUI FF-Converter
68143
    1GLY      N    1   7.540   5.314   4.090
    1GLY    HT1    2   7.621   5.371   4.122
    1GLY    HT2    3   7.468   5.378   4.049
    1GLY    HT3    4   7.569   5.252   4.011
    1GLY     CA    5   7.474   5.240   4.196
    1GLY    HA1    6   7.454   5.312   4.275
    1GLY    HA2    7   7.541   5.163   4.229
    1GLY      C    8   7.337   5.186   4.156
    1GLY    OT1    9   7.297   5.211   4.039
    1GLY    OT2   10   7.272   5.121   4.241
    2PRO      N   11   7.270   5.092   4.229
    2PRO    HN1   12   7.291   5.038   4.138
    2PRO    HN2   13   7.188   5.180   4.235
    2PRO     CD   14   7.344   5.016   4.313
    2PRO    HD1   15   7.380   5.063   4.411
    2PRO    HD2   16   7.436   4.971   4.265
    2PRO     CA   17   7.136   5.042   4.199
    2PRO     HA   18   7.135   5.013   4.095
    2PRO     CB   19   7.119   4.927   4.299
    2PRO    HB1   20   7.073   4.838   4.250
    2PRO    HB2   21   7.053   4.956   4.384
    2PRO     CG   22   7.256   4.900   4.350
    2PRO    HG1   23   7.256   4.883   4.460
    2PRO    HG2   24   7.295   4.807   4.303
    2PRO      C   25   7.028   5.148   4.220
    2PRO      O   26   7.050   5.246   4.293
    3GLY      N   27   6.913   5.129   4.134
    3GLY     HN   28   6.901   5.049   4.077
    3GLY     CA   29   6.800   5.218   4.152
    3GLY    HA1   30   6.722   5.187   4.084
    3GLY    HA2   31   6.832   5.320   4.138
    3GLY      C   32   6.736   5.208   4.289
    3GLY      O   33   6.763   5.113   4.364
    4ASP      N   34   6.659   5.303   4.319
    4ASP     HN   35   6.634   5.373   4.254
    4ASP     CA   36   6.580   5.301   4.442
    4ASP     HA   37   6.650   5.284   4.523
    4ASP     CB   38   6.510   5.435   4.463
    4ASP    HB1   39   6.436   5.431   4.546
    4ASP    HB2   40   6.456   5.465   4.371
    4ASP     CG   41   6.606   5.547   4.499
    4ASP    OD1   42   6.719   5.518   4.544
    4ASP    OD2   43   6.569   5.665   4.483
    4ASP      C   44   6.477   5.188   4.439
    4ASP      O   45   6.425   5.154   4.333
    5PRO      N   46   6.433   5.127   4.552
    5PRO     CD   47   6.495   5.151   4.676
    5PRO    HD1   48   6.465   5.253   4.705
    5PRO    HD2   49   6.606   5.143   4.669
    5PRO     CA   50   6.324   5.029   4.555
    5PRO     HA   51   6.354   4.945   4.493
    5PRO     CB   52   6.312   4.995   4.704
    5PRO    HB1   53   6.297   4.886   4.720
    5PRO    HB2   54   6.225   5.047   4.751
    5PRO     CG   55   6.438   5.046   4.766
    5PRO    HG1   56   6.422   5.083   4.870
    5PRO    HG2   57   6.510   4.961   4.771
    5PRO      C   58   6.193   5.084   4.501
    5PRO      O   59   6.171   5.206   4.504
    6GLY      N   60   6.120   4.996   4.445
    6GLY     HN   61   6.146   4.900   4.444
    6GLY     CA   62   5.988   5.034   4.397
    6GLY    HA1   63   5.942   4.946   4.356
    6GLY    HA2   64   6.000   5.114   4.326
    6GLY      C   65   5.896   5.084   4.508
    6GLY      O   66   5.927   5.069   4.626
    7SER      N   67   5.792   5.126   4.460
    7SER     HN   68   5.774   5.135   4.363
    7SER     CA   69   5.688   5.167   4.554
    7SER     HA   70   5.731   5.227   4.632
    7SER     CB   71   5.581   5.251   4.483
    7SER    HB1   72   5.499   5.279   4.551
    7SER    HB2   73   5.537   5.192   4.399
    7SER     OG   74   5.639   5.368   4.428
    7SER    HG1   75   5.646   5.431   4.500
    7SER      C   76   5.622   5.046   4.620
    7SER      O   77   5.624   4.936   4.565
    8GLY      N   78   5.577   5.068   4.747
    8GLY     HN   79   5.580   5.157   4.790
    8GLY     CA   80   5.505   4.961   4.814
    8GLY    HA1   81   5.490   4.995   4.915
    8GLY    HA2   82   5.566   4.872   4.806
    8GLY      C   83   5.368   4.934   4.754
    8GLY      O   84   5.324   5.006   4.664
    9PRO      N   85   5.310   4.845   4.795
    9PRO     CD   86   5.356   4.763   4.912
    9PRO    HD1   87   5.377   4.827   5.000
    9PRO    HD2   88   5.446   4.703   4.885
    9PRO     CA   89   5.174   4.810   4.752
    9PRO     HA   90   5.171   4.804   4.644
    9PRO     CB   91   5.149   4.675   4.819
    9PRO    HB1   92   5.174   4.593   4.750
    9PRO    HB2   93   5.043   4.664   4.851
    9PRO     CG   94   5.237   4.676   4.940
    9PRO    HG1   95   5.180   4.723   5.023
    9PRO    HG2   96   5.265   4.573   4.973
    9PRO      C   97   5.071   4.914   4.795
    9PRO      O   98   5.095   4.990   4.890
   10GLY      N   99   4.965   4.911   4.727
   10GLY     HN  100   4.950   4.845   4.654
   10GLY     CA  101   4.856   5.001   4.762
   10GLY    HA1  102   4.782   4.993   4.683
   10GLY    HA2  103   4.894   5.102   4.774
   10GLY      C  104   4.785   4.962   4.890
   10GLY      O  105   4.806   4.852   4.942
   11ASP      N  106   4.709   5.054   4.941
   11ASP     HN  107   4.703   5.145   4.903
   11ASP     CA  108   4.625   5.029   5.058
   11ASP     HA  109   4.691   4.994   5.136
   11ASP     CB  110   4.558   5.159   5.103
   11ASP    HB1  111   4.481   5.141   5.181
   11ASP    HB2  112   4.509   5.208   5.017
   11ASP     CG  113   4.656   5.258   5.164
   11ASP    OD1  114   4.764   5.217   5.211
   11ASP    OD2  115   4.624   5.379   5.165
   11ASP      C  116   4.520   4.923   5.028
   11ASP      O  117   4.473   4.911   4.915
   12PRO      N  118   4.470   4.847   5.138
   12PRO     CD  119   4.524   4.847   5.264
   12PRO    HD1  120   4.499   4.942   5.315
   12PRO    HD2  121   4.635   4.835   5.260
   12PRO     CA  122   4.359   4.754   5.116
   12PRO     HA  123   4.386   4.684   5.039
   12PRO     CB  124   4.341   4.688   5.253
   12PRO    HB1  125   4.332   4.577   5.244
   12PRO    HB2  126   4.250   4.725   5.305
   12PRO     CG  127   4.462   4.728   5.331
   12PRO    HG1  128   4.437   4.746   5.437
   12PRO    HG2  129   4.535   4.644   5.328
   12PRO      C  130   4.231   4.824   5.072
   12PRO      O  131   4.211   4.942   5.101
   13GLY      N  132   4.152   4.748   4.995
   13GLY     HN  133   4.171   4.651   4.981
   13GLY     CA  134   4.023   4.801   4.953
   13GLY    HA1  135   3.974   4.723   4.896
   13GLY    HA2  136   4.042   4.890   4.896
   13GLY      C  137   3.931   4.833   5.069
   13GLY      O  138   3.957   4.791   5.183
   14SER      N  139   3.825   4.888   5.034
   14SER     HN  140   3.807   4.918   4.941
   14SER     CA  141   3.721   4.912   5.134
   14SER     HA  142   3.768   4.949   5.224
   14SER     CB  143   3.620   5.015   5.083
   14SER    HB1  144   3.542   5.034   5.160
   14SER    HB2  145   3.569   4.976   4.992
   14SER     OG  146   3.684   5.137   5.051
   14SER    HG1  147   3.727   5.167   5.133
   14SER      C  148   3.650   4.783   5.172
   14SER      O  149   3.645   4.689   5.093
   15GLY      N  150   3.612   4.766   5.304
   15GLY     HN  151   3.631   4.836   5.372
   15GLY     CA  152   3.535   4.650   5.347
   15GLY    HA1  153   3.519   4.662   5.453
   15GLY    HA2  154   3.594   4.564   5.321
   15GLY      C  155   3.399   4.641   5.281
   15GLY      O  156   3.356   4.734   5.211
   16PRO      N  157   3.328   4.549   5.286
   16PRO     CD  158   3.373   4.437   5.372
   16PRO    HD1  159   3.399   4.470   5.476
   16PRO    HD2  160   3.458   4.383   5.326
   16PRO     CA  161   3.191   4.534   5.239
   16PRO     HA  162   3.186   4.559   5.134
   16PRO     CB  163   3.159   4.387   5.268
   16PRO    HB1  164   3.187   4.328   5.177
   16PRO    HB2  165   3.052   4.368   5.289
   16PRO     CG  166   3.251   4.350   5.380
   16PRO    HG1  167   3.198   4.371   5.476
   16PRO    HG2  168   3.277   4.242   5.376
   16PRO      C  169   3.093   4.626   5.312
   16PRO      O  170   3.121   4.670   5.423
   17GLY      N  171   2.974   4.667   5.248
   17GLY     HN  172   2.952   4.627   5.159
   17GLY     CA  173   2.867   4.746   5.308
   17GLY    HA1  174   2.795   4.769   5.231
   17GLY    HA2  175   2.913   4.834   5.351
   17GLY      C  176   2.796   4.674   5.420
   17GLY      O  177   2.809   4.553   5.436
   18ASP      N  178   2.735   4.731   5.498
   18ASP     HN  179   2.737   4.830   5.497
   18ASP     CA  180   2.652   4.677   5.605
   18ASP     HA  181   2.717   4.613   5.661
   18ASP     CB  182   2.605   4.789   5.698
   18ASP    HB1  183   2.529   4.750   5.769
   18ASP    HB2  184   2.559   4.871   5.640
   18ASP     CG  185   2.717   4.847   5.783
   18ASP    OD1  186   2.821   4.780   5.800
   18ASP    OD2  187   2.701   4.960   5.833
   18ASP      C  188   2.532   4.601   5.549
   18ASP      O  189   2.478   4.638   5.444
   19PRO      N  190   2.510   4.464   5.603
   19PRO     CD  191   2.583   4.413   5.709
   19PRO    HD1  192   2.554   4.469   5.801
   19PRO    HD2  193   2.692   4.419   5.692
   19PRO     CA  194   2.397   4.382   5.559
   19PRO     HA  195   2.407   4.363   5.453
   19PRO     CB  196   2.408   4.256   5.646
   19PRO    HB1  197   2.399   4.164   5.585
   19PRO    HB2  198   2.326   4.255   5.722
   19PRO     CG  199   2.540   4.269   5.716
   19PRO    HG1  200   2.536   4.232   5.820
   19PRO    HG2  201   2.615   4.208   5.661
   19PRO      C  202   2.263   4.451   5.579
   19PRO    OT1  203   2.262   4.566   5.630
   19PRO    OT2  204   2.158   4.389   5.544
   20LIT    LIT  205   7.285   8.066   6.376
   21LIT    LIT  206   7.222   4.167   8.769
   22LIT    LIT  207   7.056   8.505   3.649
   23LIT    LIT  208   1.414   4.782   2.726
   24LIT    LIT  209   5.012   0.990   1.866
   25LIT    LIT  210   7.048   8.474   4.812
   26LIT    LIT  211   3.088   3.091   1.204
   27LIT    LIT  212   3.120   7.304   3.382
   28LIT    LIT  213   4.874   4.333   9.869
   29LIT    LIT  214   2.843   0.483   5.339
   30LIT    LIT  215   2.430   6.473   1.044
   31LIT    LIT  216   4.308   7.196   7.225
   32LIT    LIT  217   5.844   4.686   2.566
   33LIT    LIT  218   2.380   9.070   7.464
   34LIT    LIT  219   9.831   4.518   5.265
   35LIT    LIT  220   7.921   5.375   1.090
   36LIT    LIT  221   7.547   8.114   6.975
   37LIT    LIT  222   6.809   7.765   6.971
   38LIT    LIT  223   1.682   9.294   6.268
   39LIT    LIT  224   8.168   4.201   6.079
   40LIT    LIT  225   8.772   6.664   6.081
   41LIT    LIT  226   1.920   7.164   3.623
   42LIT    LIT  227   2.482   5.646   6.303
   43LIT    LIT  228   7.902   7.342   4.603
   44LIT    LIT  229   2.823   5.561   7.694
   45LIT    LIT  230   6.254   7.853   4.372
   46LIT    LIT  231   4.076   0.372   7.919
   47LIT    LIT  232   2.112   7.973   4.913
   48LIT    LIT  233   6.366   4.669   4.037
   49LIT    LIT  234   5.923   4.208   9.091
   50LIT    LIT  235   5.930   0.433   3.245
   51LIT    LIT  236   2.987   2.496   3.896
   52LIT    LIT  237   2.463   3.672   3.437
   53LIT    LIT  238   8.872   7.804   6.050
   54LIT    LIT  239   5.534   1.788   3.065
   55LIT    LIT  240   6.751   3.430   1.278
   56LIT    LIT  241   1.061   6.962   3.612
   57LIT    LIT  242   1.576   3.197   4.520
   58LIT    LIT  243   6.891  -0.011   2.434
   59LIT    LIT  244   5.787   9.835   4.832
   60LIT    LIT  245   4.352   1.215   7.561
   61LIT    LIT  246   8.285   7.330   7.420
   62LIT    LIT  247   8.378   3.632   2.478
   63LIT    LIT  248   9.809   7.765   4.401
   64LIT    LIT  249   0.434   5.669   5.052
   65LIT    LIT  250   2.647   7.269   4.432
   66LIT    LIT  251   8.090   6.020   6.061
   67LIT    LIT  252   4.669   9.337   5.280
   68LIT    LIT  253   6.065   8.965   8.182
   69LIT    LIT  254   8.204   2.836   8.795
   70LIT    LIT  255   1.339   4.956   6.550
   71LIT    LIT  256   8.126   5.306   4.947
   72LIT    LIT  257   6.357   1.850   0.271
   73LIT    LIT  258   6.500   4.730   6.054
   74LIT    LIT  259   4.239   5.884   4.988
   75LIT    LIT  260   8.540   6.468   4.751
   76LIT    LIT  261   7.788   4.890   1.798
   77LIT    LIT  262   3.325   0.892   5.152
   78LIT    LIT  263   8.948   3.621   7.676
   79LIT    LIT  264   7.173   9.493   2.547
   80LIT    LIT  265   0.973   2.624   6.064
   81LIT    LIT  266   7.463   8.521   3.278
   82LIT    LIT  267   6.332   1.485   3.861
   83LIT    LIT  268   3.596   1.067   1.996
   84LIT    LIT  269   5.368   3.083   4.832
   85LIT    LIT  270   9.030   3.629   5.139
   86LIT    LIT  271   8.596   3.300   2.011
   87LIT    LIT  272   4.711   1.704   3.756
   88CLA    CLA  273   4.232   0.108   3.985
   89CLA    CLA  274   7.060   9.758   2.459
   90CLA    CLA  275   2.200   6.788   4.331
   91CLA    CLA  276   7.251   2.441   0.092
   92CLA    CLA  277   8.390   5.776   5.496
   93CLA    CLA  278   7.669   4.548   0.494
   94CLA    CLA  279   4.733   8.400   4.480
   95CLA    CLA  280   7.811   7.980   4.432
   96CLA    CLA  281   7.140   2.036   1.103
   97CLA    CLA  282   9.791   4.560   4.724
   98CLA    CLA  283   3.689   1.181   2.261
   99CLA    CLA  284   2.456   6.182   1.945
  100CLA    CLA  285   3.806   6.235   4.907
  101CLA    CLA  286   6.829   8.783   2.694
  102CLA    CLA  287   4.524   1.262   7.434
  103CLA    CLA  288   8.576   2.957   8.369
  104CLA    CLA  289   1.842   0.478   5.972
  105CLA    CLA  290   7.222   7.888   2.812
  106CLA    CLA  291   3.978   2.298   3.811
  107CLA    CLA  292   9.024   6.955   3.272
  108CLA    CLA  293   3.482   6.487   7.772
  109CLA    CLA  294   8.145   4.998   1.566
  110CLA    CLA  295   3.315   0.530   5.211
  111CLA    CLA  296   4.018   9.108   2.416
  112CLA    CLA  297   2.655   5.740   5.000
  113CLA    CLA  298   5.485   1.023   2.406
  114CLA    CLA  299   6.115   9.355   5.048
  115CLA    CLA  300   8.222   6.592   6.697
  116CLA    CLA  301   1.330   4.343   3.346
  117CLA    CLA  302   6.292   4.692   3.360
  118CLA    CLA  303   6.736   0.907   7.139
  119CLA    CLA  304   8.293   3.242   3.485
  120CLA    CLA  305   1.267   7.525   3.206
  121CLA    CLA  306   4.265   9.326   6.857
  122CLA    CLA  307   7.609   7.387   4.605
  123CLA    CLA  308   1.158   3.647   6.440
  124CLA    CLA  309   1.971   4.821   5.876
  125CLA    CLA  310   5.578   3.048   4.879
  126CLA    CLA  311   1.701   4.076   2.135
  127CLA    CLA  312   6.185   1.957   2.928
  128CLA    CLA  313   7.260   7.579   7.222
  129CLA    CLA  314   2.317   2.695   2.045
  130CLA    CLA  315   1.651   1.683   7.777
  131CLA    CLA  316   4.259   8.774   0.521
  132CLA    CLA  317   1.215   8.305   6.503
  133CLA    CLA  318   7.004   4.495   4.149
  134CLA    CLA  319   7.807   0.434   3.808
  135CLA    CLA  320   4.534   1.434   3.358
  136CLA    CLA  321   4.602   0.175   5.980
  137CLA    CLA  322   0.149   4.662   3.177
  138CLA    CLA  323   0.466   2.535   6.030
  139CLA    CLA  324   5.424   3.739   7.666
  140CLA    CLA  325   8.251   3.382   2.621
  141CLA    CLA  326   2.140   2.184   6.463
  142CLA    CLA  327   4.022   5.721   5.167
  143CLA    CLA  328   6.296   1.323   4.025
  144CLA    CLA  329   4.442   1.436   7.942
  145CLA    CLA  330   7.760   5.253   4.677
  146CLA    CLA  331   6.989   3.708   8.891
  147CLA    CLA  332   4.822   9.986   6.007
  148CLA    CLA  333   9.039   6.831   5.343
  149CLA    CLA  334   7.553   8.712   5.170
  150CLA    CLA  335   5.074   5.077   9.948
  151CLA    CLA  336   6.799   0.461   2.257
  152CLA    CLA  337   6.518   5.592   6.499
  153TIP3   OH2  338   4.578   0.064   1.708
  153TIP3    H1  339   4.489   0.039   1.734
  153TIP3    H2  340   4.560   0.138   1.646
  154TIP3   OH2  341   4.767   0.008   2.021
  154TIP3    H1  342   4.743  -0.068   1.963
  154TIP3    H2  343   4.760   0.082   1.957
  155TIP3   OH2  344   4.946  -0.313   1.910
  155TIP3    H1  345   4.859  -0.269   1.916
  155TIP3    H2  346   4.949  -0.332   1.814
  156TIP3   OH2  347   4.667  -0.509   2.162
  156TIP3    H1  348   4.656  -0.434   2.225
  156TIP3    H2  349   4.577  -0.542   2.154
  157TIP3   OH2  350   5.001   0.321   2.039
  157TIP3    H1  351   5.003   0.226   2.057
  157TIP3    H2  352   4.919   0.346   2.087
  158TIP3   OH2  353   4.127   0.105   2.191
  158TIP3    H1  354   4.125   0.202   2.204
  158TIP3    H2  355   4.052   0.078   2.245
  159TIP3   OH2  356   4.897  -0.556   2.332
  159TIP3    H1  357   4.821  -0.527   2.278
  159TIP3    H2  358   4.918  -0.641   2.292
  160TIP3   OH2  359   4.401  -0.554   2.543
  160TIP3    H1  360   4.387  -0.643   2.581
  160TIP3    H2  361   4.499  -0.547   2.547
  161TIP3   OH2  362   4.685   0.674   2.143
  161TIP3    H1  363   4.687   0.696   2.049
  161TIP3    H2  364   4.766   0.718   2.175
  162TIP3   OH2  365   4.697  -0.198   1.870
  162TIP3    H1  366   4.735  -0.216   1.782
  162TIP3    H2  367   4.622  -0.261   1.873
  163TIP3   OH2  368   4.279  -0.141   2.205
  163TIP3    H1  369   4.246  -0.179   2.288
  163TIP3    H2  370   4.224  -0.061   2.197
  164TIP3   OH2  371   4.393   0.121   2.083
  164TIP3    H1  372   4.300   0.100   2.100
  164TIP3    H2  373   4.420   0.157   2.170
  165TIP3   OH2  374   5.022   0.031   2.098
  165TIP3    H1  375   4.924   0.031   2.087
  165TIP3    H2  376   5.051   0.002   2.009
  166TIP3   OH2  377   4.523   0.369   1.989
  166TIP3    H1  378   4.453   0.302   1.982
  166TIP3    H2  379   4.504   0.428   1.913
  167TIP3   OH2  380   4.548   0.327   1.581
  167TIP3    H1  381   4.507   0.386   1.513
  167TIP3    H2  382   4.642   0.351   1.564
  168TIP3   OH2  383   3.358   0.377   2.508
  168TIP3    H1  384   3.432   0.384   2.572
  168TIP3    H2  385   3.304   0.307   2.553
  169TIP3   OH2  386   3.803   0.332   2.599
  169TIP3    H1  387   3.896   0.320   2.624
  169TIP3    H2  388   3.801   0.285   2.515
  170TIP3   OH2  389   4.442   0.233   2.331
  170TIP3    H1  390   4.431   0.165   2.401
  170TIP3    H2  391   4.518   0.285   2.364
  171TIP3   OH2  392   4.061  -0.144   2.543
  171TIP3    H1  393   4.033  -0.158   2.449
  171TIP3    H2  394   4.130  -0.210   2.554
  172TIP3   OH2  395   4.555  -0.150   2.134
  172TIP3    H1  396   4.610  -0.078   2.098
  172TIP3    H2  397   4.466  -0.108   2.137
  173TIP3   OH2  398   4.409  -0.216   2.533
  173TIP3    H1  399   4.497  -0.218   2.494
  173TIP3    H2  400   4.419  -0.278   2.608
  174TIP3   OH2  401   4.664  -0.536   2.586
  174TIP3    H1  402   4.717  -0.611   2.616
  174TIP3    H2  403   4.730  -0.468   2.567
  175TIP3   OH2  404   4.685  -0.286   2.323
  175TIP3    H1  405   4.626  -0.230   2.266
  175TIP3    H2  406   4.772  -0.260   2.283
  176TIP3   OH2  407   4.799   0.425   1.540
  176TIP3    H1  408   4.828   0.466   1.623
  176TIP3    H2  409   4.849   0.474   1.473
  177TIP3   OH2  410   4.844   0.464   1.811
  177TIP3    H1  411   4.795   0.379   1.815
  177TIP3    H2  412   4.914   0.442   1.874
  178TIP3   OH2  413   4.874   0.126   2.386
  178TIP3    H1  414   4.801   0.135   2.450
  178TIP3    H2  415   4.916   0.215   2.390
  179TIP3   OH2  416   4.909  -0.055   1.682
  179TIP3    H1  417   4.917  -0.120   1.611
  179TIP3    H2  418   4.892   0.027   1.632
  180TIP3   OH2  419   4.724   0.227   1.862
  180TIP3    H1  420   4.653   0.263   1.919
  180TIP3    H2  421   4.675   0.165   1.805
  181TIP3   OH2  422   4.923  -0.215   2.214
  181TIP3    H1  423   4.996  -0.280   2.206
  181TIP3    H2  424   4.952  -0.143   2.156
  182TIP3   OH2  425   5.109  -0.409   2.240
  182TIP3    H1  426   5.044  -0.470   2.281
  182TIP3    H2  427   5.192  -0.456   2.253
  183TIP3   OH2  428   4.876  -0.565   1.994
  183TIP3    H1  429   4.808  -0.520   2.049
  183TIP3    H2  430   4.919  -0.487   1.953
  184TIP3   OH2  431   4.109   0.378   2.259
  184TIP3    H1  432   4.150   0.377   2.349
  184TIP3    H2  433   4.178   0.428   2.209
  185TIP3   OH2  434   4.292   0.523   2.112
  185TIP3    H1  435   4.369   0.471   2.084
  185TIP3    H2  436   4.334   0.584   2.176
  186TIP3   OH2  437   4.277   0.344   1.815
  186TIP3    H1  438   4.184   0.324   1.838
  186TIP3    H2  439   4.283   0.439   1.832
  187TIP3   OH2  440   4.494   0.541   1.772
  187TIP3    H1  441   4.468   0.622   1.723
  187TIP3    H2  442   4.508   0.477   1.699
  188TIP3   OH2  443   4.760   0.410   2.144
  188TIP3    H1  444   4.677   0.375   2.106
  188TIP3    H2  445   4.737   0.505   2.150
  189TIP3   OH2  446   5.489   0.118   1.657
  189TIP3    H1  447   5.460   0.210   1.638
  189TIP3    H2  448   5.422   0.095   1.725
  190TIP3   OH2  449   5.706   0.241   1.808
  190TIP3    H1  450   5.648   0.303   1.858
  190TIP3    H2  451   5.639   0.183   1.768
  191TIP3   OH2  452   5.434  -0.158   1.880
  191TIP3    H1  453   5.448  -0.097   1.955
  191TIP3    H2  454   5.369  -0.221   1.918
  192TIP3   OH2  455   5.499   0.406   1.894
  192TIP3    H1  456   5.460   0.403   1.805
  192TIP3    H2  457   5.422   0.388   1.952
  193TIP3   OH2  458   5.104  -0.059   1.862
  193TIP3    H1  459   5.029  -0.071   1.799
  193TIP3    H2  460   5.127  -0.151   1.887
  194TIP3   OH2  461   4.939   0.164   1.511
  194TIP3    H1  462   5.030   0.186   1.542
  194TIP3    H2  463   4.894   0.245   1.541
  195TIP3   OH2  464   5.894   0.384   1.650
  195TIP3    H1  465   5.895   0.469   1.699
  195TIP3    H2  466   5.847   0.326   1.713
  196TIP3   OH2  467   5.287   0.132   1.837
  196TIP3    H1  468   5.343   0.115   1.917
  196TIP3    H2  469   5.223   0.059   1.846
  197TIP3   OH2  470   6.486   0.934   1.639
  197TIP3    H1  471   6.476   0.950   1.543
  197TIP3    H2  472   6.564   0.988   1.661
  198TIP3   OH2  473   5.445   0.055   2.059
  198TIP3    H1  474   5.526   0.078   2.107
  198TIP3    H2  475   5.382   0.049   2.133
  199TIP3   OH2  476   5.212  -0.277   1.991
  199TIP3    H1  477   5.250  -0.284   2.081
  199TIP3    H2  478   5.127  -0.324   2.001
  200TIP3   OH2  479   6.190   0.397   1.625
  200TIP3    H1  480   6.097   0.422   1.612
  200TIP3    H2  481   6.214   0.457   1.700
  201TIP3   OH2  482   5.662   0.495   1.513
  201TIP3    H1  483   5.700   0.553   1.444
  201TIP3    H2  484   5.744   0.461   1.553
  202TIP3   OH2  485   6.324   0.679   1.520
  202TIP3    H1  486   6.292   0.595   1.480
  202TIP3    H2  487   6.313   0.737   1.442
  203TIP3   OH2  488   5.137   0.308   1.633
  203TIP3    H1  489   5.185   0.239   1.683
  203TIP3    H2  490   5.161   0.386   1.686
  204TIP3   OH2  491   5.115   0.622   2.040
  204TIP3    H1  492   5.200   0.623   2.090
  204TIP3    H2  493   5.095   0.527   2.043
  205TIP3   OH2  494   5.592   0.592   2.086
  205TIP3    H1  495   5.688   0.585   2.099
  205TIP3    H2  496   5.579   0.532   2.011
  206TIP3   OH2  497   6.237   0.516   1.859
  206TIP3    H1  498   6.234   0.439   1.921
  206TIP3    H2  499   6.322   0.559   1.884
  207TIP3   OH2  500   5.248   0.026   2.249
  207TIP3    H1  501   5.266  -0.069   2.251
  207TIP3    H2  502   5.161   0.028   2.203
  208TIP3   OH2  503   5.848   0.107   2.016
  208TIP3    H1  504   5.822   0.130   1.925
  208TIP3    H2  505   5.917   0.040   2.002
  209TIP3   OH2  506   5.367  -0.249   2.224
  209TIP3    H1  507   5.446  -0.304   2.206
  209TIP3    H2  508   5.392  -0.214   2.312
  210TIP3   OH2  509   6.204   0.044   2.013
  210TIP3    H1  510   6.278   0.076   1.958
  210TIP3    H2  511   6.245   0.030   2.102
  211TIP3   OH2  512   5.598  -0.415   2.224
  211TIP3    H1  513   5.569  -0.508   2.224
  211TIP3    H2  514   5.681  -0.419   2.175
  212TIP3   OH2  515   4.859   0.306   1.259
  212TIP3    H1  516   4.887   0.218   1.289
  212TIP3    H2  517   4.928   0.362   1.299
  213TIP3   OH2  518   6.669   0.371   1.953
  213TIP3    H1  519   6.579   0.384   1.987
  213TIP3    H2  520   6.715   0.449   1.989
  214TIP3   OH2  521   5.278   0.361   2.064
  214TIP3    H1  522   5.190   0.323   2.049
  214TIP3    H2  523   5.295   0.339   2.156
  215TIP3   OH2  524   5.440   0.387   1.619
  215TIP3    H1  525   5.396   0.462   1.574
  215TIP3    H2  526   5.532   0.408   1.589
  216TIP3   OH2  527   5.906   0.638   1.752
  216TIP3    H1  528   5.947   0.639   1.842
  216TIP3    H2  529   5.973   0.688   1.701
  217TIP3   OH2  530   6.081   0.785   1.605
  217TIP3    H1  531   6.161   0.743   1.567
  217TIP3    H2  532   6.126   0.845   1.668
  218TIP3   OH2  533   5.135   0.652   1.630
  218TIP3    H1  534   5.044   0.685   1.615
  218TIP3    H2  535   5.142   0.657   1.726
  219TIP3   OH2  536   5.368   0.622   1.486
  219TIP3    H1  537   5.284   0.641   1.533
  219TIP3    H2  538   5.350   0.657   1.397
  220TIP3   OH2  539   5.763   0.656   1.319
  220TIP3    H1  540   5.706   0.683   1.245
  220TIP3    H2  541   5.795   0.743   1.350
  221TIP3   OH2  542   6.016   0.635   1.214
  221TIP3    H1  543   5.944   0.628   1.280
  221TIP3    H2  544   6.087   0.677   1.267
  222TIP3   OH2  545   6.235   0.796   1.287
  222TIP3    H1  546   6.225   0.886   1.248
  222TIP3    H2  547   6.298   0.757   1.223
  223TIP3   OH2  548   5.052   0.451   1.393
  223TIP3    H1  549   5.088   0.424   1.479
  223TIP3    H2  550   5.119   0.409   1.333
  224TIP3   OH2  551   5.232   0.334   1.234
  224TIP3    H1  552   5.261   0.242   1.226
  224TIP3    H2  553   5.318   0.380   1.239
  225TIP3   OH2  554   5.489   0.446   1.265
  225TIP3    H1  555   5.511   0.355   1.293
  225TIP3    H2  556   5.513   0.494   1.346
  226TIP3   OH2  557   6.568   0.668   1.651
  226TIP3    H1  558   6.493   0.636   1.598
  226TIP3    H2  559   6.549   0.764   1.646
  227TIP3   OH2  560   6.902   0.886   1.563
  227TIP3    H1  561   6.985   0.891   1.614
  227TIP3    H2  562   6.880   0.793   1.577
  228TIP3   OH2  563   2.622   1.572   2.162
  228TIP3    H1  564   2.571   1.493   2.134
  228TIP3    H2  565   2.581   1.639   2.105
  229TIP3   OH2  566   2.842   1.875   2.191
  229TIP3    H1  567   2.844   1.782   2.219
  229TIP3    H2  568   2.761   1.906   2.237
  230TIP3   OH2  569   2.531   2.229   2.292
  230TIP3    H1  570   2.528   2.257   2.199
  230TIP3    H2  571   2.604   2.283   2.326
  231TIP3   OH2  572   2.870   1.592   2.255
  231TIP3    H1  573   2.771   1.594   2.248
  231TIP3    H2  574   2.890   1.575   2.161
  232TIP3   OH2  575   2.382   1.915   2.147
  232TIP3    H1  576   2.290   1.881   2.150
  232TIP3    H2  577   2.372   1.994   2.090
  233TIP3   OH2  578   1.651   1.872   2.734
  233TIP3    H1  579   1.740   1.878   2.771
  233TIP3    H2  580   1.669   1.831   2.649
  234TIP3   OH2  581   2.292   1.793   2.473
  234TIP3    H1  582   2.278   1.730   2.547
  234TIP3    H2  583   2.365   1.848   2.508
  235TIP3   OH2  584   2.306   1.384   2.776
  235TIP3    H1  585   2.364   1.356   2.704
  235TIP3    H2  586   2.233   1.321   2.773
  236TIP3   OH2  587   2.526   1.067   2.780
  236TIP3    H1  588   2.535   0.974   2.756
  236TIP3    H2  589   2.598   1.109   2.732
  237TIP3   OH2  590   2.534   1.309   2.467
  237TIP3    H1  591   2.477   1.353   2.401
  237TIP3    H2  592   2.623   1.336   2.434
  238TIP3   OH2  593   2.683   1.925   1.702
  238TIP3    H1  594   2.649   1.999   1.755
  238TIP3    H2  595   2.708   1.975   1.622
  239TIP3   OH2  596   2.666   2.020   1.985
  239TIP3    H1  597   2.637   1.934   1.952
  239TIP3    H2  598   2.751   1.997   2.026
  240TIP3   OH2  599   2.713   1.686   2.533
  240TIP3    H1  600   2.641   1.693   2.599
  240TIP3    H2  601   2.755   1.774   2.538
  241TIP3   OH2  602   2.529   1.744   1.951
  241TIP3    H1  603   2.512   1.805   2.026
  241TIP3    H2  604   2.435   1.721   1.934
  242TIP3   OH2  605   2.780   1.358   2.369
  242TIP3    H1  606   2.856   1.296   2.384
  242TIP3    H2  607   2.822   1.435   2.326
  243TIP3   OH2  608   2.930   1.145   2.423
  243TIP3    H1  609   2.880   1.063   2.418
  243TIP3    H2  610   3.020   1.106   2.415
  244TIP3   OH2  611   3.176   0.566   2.676
  244TIP3    H1  612   3.231   0.489   2.653
  244TIP3    H2  613   3.195   0.626   2.603
  245TIP3   OH2  614   1.952   1.962   2.415
  245TIP3    H1  615   2.004   1.953   2.498
  245TIP3    H2  616   2.020   1.994   2.352
  246TIP3   OH2  617   2.138   2.090   2.257
  246TIP3    H1  618   2.210   2.025   2.251
  246TIP3    H2  619   2.176   2.152   2.322
  247TIP3   OH2  620   2.361   2.086   1.936
  247TIP3    H1  621   2.285   2.147   1.919
  247TIP3    H2  622   2.402   2.086   1.846
  248TIP3   OH2  623   2.605   1.964   2.300
  248TIP3    H1  624   2.523   1.932   2.258
  248TIP3    H2  625   2.588   2.061   2.299
  249TIP3   OH2  626   3.895   1.359   1.120
  249TIP3    H1  627   3.879   1.452   1.096
  249TIP3    H2  628   3.827   1.313   1.070
  250TIP3   OH2  629   3.858   1.340   1.440
  250TIP3    H1  630   3.861   1.313   1.534
  250TIP3    H2  631   3.835   1.256   1.399
  251TIP3   OH2  632   3.173   1.227   1.784
  251TIP3    H1  633   3.186   1.172   1.863
  251TIP3    H2  634   3.245   1.292   1.795
  252TIP3   OH2  635   4.099   1.632   1.127
  252TIP3    H1  636   4.096   1.564   1.196
  252TIP3    H2  637   4.128   1.710   1.177
  253TIP3   OH2  638   3.160   1.644   1.577
  253TIP3    H1  639   3.120   1.569   1.531
  253TIP3    H2  640   3.252   1.643   1.545
  254TIP3   OH2  641   3.747   2.099   1.140
  254TIP3    H1  642   3.798   2.030   1.092
  254TIP3    H2  643   3.751   2.066   1.231
  255TIP3   OH2  644   3.662   1.556   1.483
  255TIP3    H1  645   3.712   1.482   1.446
  255TIP3    H2  646   3.738   1.608   1.515
  256TIP3   OH2  647   4.674   0.888   1.491
  256TIP3    H1  648   4.701   0.974   1.529
  256TIP3    H2  649   4.690   0.904   1.397
  257TIP3   OH2  650   4.071   1.062   1.522
  257TIP3    H1  651   4.119   0.981   1.545
  257TIP3    H2  652   4.025   1.035   1.442
  258TIP3   OH2  653   4.751   1.101   1.676
  258TIP3    H1  654   4.676   1.151   1.639
  258TIP3    H2  655   4.708   1.071   1.759
  259TIP3   OH2  656   3.768   1.612   0.977
  259TIP3    H1  657   3.785   1.575   0.888
  259TIP3    H2  658   3.719   1.694   0.957
  260TIP3   OH2  659   3.492   1.467   1.727
  260TIP3    H1  660   3.433   1.536   1.766
  260TIP3    H2  661   3.554   1.522   1.677
  261TIP3   OH2  662   4.327   0.819   1.284
  261TIP3    H1  663   4.346   0.760   1.357
  261TIP3    H2  664   4.375   0.900   1.309
  262TIP3   OH2  665   3.345   1.676   1.820
  262TIP3    H1  666   3.314   1.756   1.773
  262TIP3    H2  667   3.267   1.663   1.879
  263TIP3   OH2  668   4.176   1.878   1.295
  263TIP3    H1  669   4.086   1.870   1.334
  263TIP3    H2  670   4.168   1.964   1.250
  264TIP3   OH2  671   4.466   0.793   1.659
  264TIP3    H1  672   4.377   0.815   1.627
  264TIP3    H2  673   4.522   0.815   1.582
  265TIP3   OH2  674   3.876   1.929   0.970
  265TIP3    H1  675   3.927   1.847   0.950
  265TIP3    H2  676   3.936   1.994   0.926
  266TIP3   OH2  677   4.030   1.727   0.873
  266TIP3    H1  678   4.039   1.650   0.813
  266TIP3    H2  679   4.059   1.686   0.958
  267TIP3   OH2  680   4.404   1.796   1.636
  267TIP3    H1  681   4.392   1.717   1.579
  267TIP3    H2  682   4.387   1.869   1.573
  268TIP3   OH2  683   4.598   1.429   1.480
  268TIP3    H1  684   4.515   1.481   1.487
  268TIP3    H2  685   4.627   1.455   1.390
  269TIP3   OH2  686   4.045   1.294   0.898
  269TIP3    H1  687   4.038   1.317   0.993
  269TIP3    H2  688   4.133   1.251   0.894
  270TIP3   OH2  689   4.289   1.314   1.775
  270TIP3    H1  690   4.278   1.397   1.826
  270TIP3    H2  691   4.199   1.309   1.734
  271TIP3   OH2  692   3.401   1.675   1.430
  271TIP3    H1  693   3.392   1.621   1.351
  271TIP3    H2  694   3.493   1.654   1.457
  272TIP3   OH2  695   3.429   1.220   1.636
  272TIP3    H1  696   3.457   1.216   1.544
  272TIP3    H2  697   3.443   1.314   1.659
  273TIP3   OH2  698   3.932   1.876   1.412
  273TIP3    H1  699   3.924   1.955   1.468
  273TIP3    H2  700   3.922   1.803   1.476
  274TIP3   OH2  701   3.548   1.797   1.961
  274TIP3    H1  702   3.490   1.860   2.010
  274TIP3    H2  703   3.481   1.745   1.912
  275TIP3   OH2  704   3.289   1.349   2.016
  275TIP3    H1  705   3.319   1.413   2.074
  275TIP3    H2  706   3.201   1.331   2.047
  276TIP3   OH2  707   3.606   1.834   0.966
  276TIP3    H1  708   3.687   1.880   0.992
  276TIP3    H2  709   3.551   1.905   0.930
  277TIP3   OH2  710   3.342   1.967   2.045
  277TIP3    H1  711   3.306   1.961   1.955
  277TIP3    H2  712   3.263   1.944   2.100
  278TIP3   OH2  713   4.209   1.743   0.279
  278TIP3    H1  714   4.212   1.840   0.290
  278TIP3    H2  715   4.300   1.714   0.293
  279TIP3   OH2  716   2.926   1.525   2.002
  279TIP3    H1  717   2.888   1.469   1.932
  279TIP3    H2  718   2.973   1.453   2.050
  280TIP3   OH2  719   4.640   2.136   1.680
  280TIP3    H1  720   4.638   2.039   1.694
  280TIP3    H2  721   4.557   2.162   1.726
  281TIP3   OH2  722   3.738   1.929   1.812
  281TIP3    H1  723   3.746   2.020   1.847
  281TIP3    H2  724   3.672   1.890   1.873
  282TIP3   OH2  725   3.497   2.054   0.780
  282TIP3    H1  726   3.445   2.033   0.702
  282TIP3    H2  727   3.480   2.148   0.795
  283TIP3   OH2  728   3.756   2.019   0.690
  283TIP3    H1  729   3.668   2.012   0.731
  283TIP3    H2  730   3.808   1.957   0.743
  284TIP3   OH2  731   4.532   1.272   1.955
  284TIP3    H1  732   4.449   1.290   1.908
  284TIP3    H2  733   4.539   1.175   1.945
  285TIP3   OH2  734   3.139   1.690   1.990
  285TIP3    H1  735   3.185   1.665   2.073
  285TIP3    H2  736   3.055   1.640   1.996
  286TIP3   OH2  737   4.057   0.629   1.969
  286TIP3    H1  738   4.129   0.593   2.024
  286TIP3    H2  739   3.979   0.581   2.001
  287TIP3   OH2  740   4.304   1.049   1.878
  287TIP3    H1  741   4.254   1.038   1.963
  287TIP3    H2  742   4.275   1.137   1.848
  288TIP3   OH2  743   3.469   1.020   1.820
  288TIP3    H1  744   3.387   1.038   1.866
  288TIP3    H2  745   3.452   1.069   1.734
  289TIP3   OH2  746   4.009   1.240   2.114
  289TIP3    H1  747   3.944   1.246   2.187
  289TIP3    H2  748   4.091   1.272   2.154
  290TIP3   OH2  749   3.275   1.050   1.996
  290TIP3    H1  750   3.296   1.112   2.065
  290TIP3    H2  751   3.220   0.983   2.046
  291TIP3   OH2  752   4.032   1.266   1.701
  291TIP3    H1  753   4.039   1.194   1.635
  291TIP3    H2  754   3.978   1.224   1.770
  292TIP3   OH2  755   4.157   0.792   1.557
  292TIP3    H1  756   4.133   0.805   1.652
  292TIP3    H2  757   4.072   0.765   1.519
  293TIP3   OH2  758   4.326   2.489   1.779
  293TIP3    H1  759   4.326   2.512   1.684
  293TIP3    H2  760   4.404   2.539   1.812
  294TIP3   OH2  761   3.288   1.594   2.205
  294TIP3    H1  762   3.370   1.627   2.249
  294TIP3    H2  763   3.226   1.600   2.281
  295TIP3   OH2  764   3.754   1.176   1.647
  295TIP3    H1  765   3.741   1.154   1.740
  295TIP3    H2  766   3.744   1.086   1.609
  296TIP3   OH2  767   4.369   1.577   1.474
  296TIP3    H1  768   4.391   1.625   1.392
  296TIP3    H2  769   4.282   1.536   1.453
  297TIP3   OH2  770   3.898   1.691   1.842
  297TIP3    H1  771   3.883   1.627   1.913
  297TIP3    H2  772   3.827   1.756   1.854
  298TIP3   OH2  773   3.037   1.297   2.152
  298TIP3    H1  774   3.083   1.304   2.238
  298TIP3    H2  775   3.012   1.202   2.153
  299TIP3   OH2  776   4.028   1.934   1.724
  299TIP3    H1  777   3.936   1.909   1.744
  299TIP3    H2  778   4.055   1.973   1.810
  300TIP3   OH2  779   4.653   1.844   1.726
  300TIP3    H1  780   4.555   1.841   1.718
  300TIP3    H2  781   4.678   1.815   1.636
  301TIP3   OH2  782   4.136   1.804   0.543
  301TIP3    H1  783   4.120   1.737   0.610
  301TIP3    H2  784   4.131   1.751   0.461
  302TIP3   OH2  785   4.132   1.440   1.392
  302TIP3    H1  786   4.040   1.414   1.409
  302TIP3    H2  787   4.166   1.360   1.348
  303TIP3   OH2  788   3.526   2.009   1.614
  303TIP3    H1  789   3.568   2.081   1.564
  303TIP3    H2  790   3.601   1.976   1.666
  304TIP3   OH2  791   3.915   1.641   1.573
  304TIP3    H1  792   3.912   1.644   1.671
  304TIP3    H2  793   3.996   1.590   1.559
  305TIP3   OH2  794   4.166   2.181   1.623
  305TIP3    H1  795   4.089   2.120   1.619
  305TIP3    H2  796   4.146   2.243   1.550
  306TIP3   OH2  797   4.231   2.021   0.258
  306TIP3    H1  798   4.284   2.101   0.237
  306TIP3    H2  799   4.152   2.064   0.298
  307TIP3   OH2  800   4.060   1.507   0.721
  307TIP3    H1  801   4.076   1.422   0.767
  307TIP3    H2  802   4.130   1.502   0.652
  308TIP3   OH2  803   2.973   1.864   1.793
  308TIP3    H1  804   3.040   1.794   1.793
  308TIP3    H2  805   3.015   1.930   1.850
  309TIP3   OH2  806   4.085   0.850   1.813
  309TIP3    H1  807   4.156   0.896   1.861
  309TIP3    H2  808   4.068   0.774   1.874
  310TIP3   OH2  809   3.891   1.108   1.907
  310TIP3    H1  810   3.926   1.156   1.986
  310TIP3    H2  811   3.953   1.034   1.903
  311TIP3   OH2  812   4.569   0.999   1.855
  311TIP3    H1  813   4.474   1.007   1.882
  311TIP3    H2  814   4.555   0.941   1.779
  312TIP3   OH2  815   4.217   1.196   1.264
  312TIP3    H1  816   4.148   1.129   1.272
  312TIP3    H2  817   4.292   1.154   1.311
  313TIP3   OH2  818   4.184   2.150   1.215
  313TIP3    H1  819   4.142   2.198   1.140
  313TIP3    H2  820   4.278   2.169   1.195
  314TIP3   OH2  821   2.954   2.178   2.193
  314TIP3    H1  822   3.040   2.178   2.241
  314TIP3    H2  823   2.935   2.082   2.192
  315TIP3   OH2  824   3.441   2.152   2.235
  315TIP3    H1  825   3.534   2.129   2.248
  315TIP3    H2  826   3.417   2.092   2.161
  316TIP3   OH2  827   4.077   2.050   1.970
  316TIP3    H1  828   4.067   1.980   2.039
  316TIP3    H2  829   4.155   2.100   2.002
  317TIP3   OH2  830   3.098   1.586   2.402
  317TIP3    H1  831   3.113   1.491   2.410
  317TIP3    H2  832   3.009   1.590   2.360
  318TIP3   OH2  833   3.692   1.664   2.169
  318TIP3    H1  834   3.656   1.678   2.079
  318TIP3    H2  835   3.748   1.586   2.159
  319TIP3   OH2  836   4.191   1.671   1.771
  319TIP3    H1  837   4.257   1.728   1.728
  319TIP3    H2  838   4.110   1.726   1.768
  320TIP3   OH2  839   3.198   1.309   2.375
  320TIP3    H1  840   3.271   1.247   2.364
  320TIP3    H2  841   3.224   1.349   2.462
  321TIP3   OH2  842   3.506   1.214   2.033
  321TIP3    H1  843   3.564   1.250   2.134
  321TIP3    H2  844   3.546   1.284   1.970
  322TIP3   OH2  845   4.052   1.606   2.175
  322TIP3    H1  846   4.134   1.587   2.130
  322TIP3    H2  847   4.054   1.542   2.249
  323TIP3   OH2  848   3.755   1.417   1.803
  323TIP3    H1  849   3.799   1.353   1.746
  323TIP3    H2  850   3.662   1.409   1.775
  324TIP3   OH2  851   4.278   1.281   2.225
  324TIP3    H1  852   4.329   1.202   2.247
  324TIP3    H2  853   4.346   1.343   2.196
  325TIP3   OH2  854   4.320   1.535   1.962
  325TIP3    H1  855   4.259   1.585   1.903
  325TIP3    H2  856   4.406   1.556   1.918
  326TIP3   OH2  857   3.786   0.550   2.032
  326TIP3    H1  858   3.760   0.627   1.980
  326TIP3    H2  859   3.734   0.479   1.991
  327TIP3   OH2  860   4.172   0.979   2.102
  327TIP3    H1  861   4.100   1.000   2.163
  327TIP3    H2  862   4.246   0.958   2.163
  328TIP3   OH2  863   4.398   0.934   2.257
  328TIP3    H1  864   4.405   0.840   2.282
  328TIP3    H2  865   4.389   0.979   2.344
  329TIP3   OH2  866   3.372   0.885   2.441
  329TIP3    H1  867   3.385   0.793   2.411
  329TIP3    H2  868   3.424   0.885   2.523
  330TIP3   OH2  869   3.889   0.548   2.295
  330TIP3    H1  870   3.964   0.486   2.287
  330TIP3    H2  871   3.852   0.546   2.205
  331TIP3   OH2  872   3.965   0.769   2.449
  331TIP3    H1  873   3.937   0.698   2.387
  331TIP3    H2  874   3.885   0.826   2.451
  332TIP3   OH2  875   4.433   2.247   1.167
  332TIP3    H1  876   4.462   2.279   1.255
  332TIP3    H2  877   4.495   2.291   1.108
  333TIP3   OH2  878   4.466   2.265   1.449
  333TIP3    H1  879   4.424   2.176   1.446
  333TIP3    H2  880   4.541   2.246   1.507
  334TIP3   OH2  881   4.513   1.940   2.024
  334TIP3    H1  882   4.438   1.948   2.086
  334TIP3    H2  883   4.553   2.029   2.028
  335TIP3   OH2  884   4.337   1.483   0.659
  335TIP3    H1  885   4.421   1.525   0.634
  335TIP3    H2  886   4.368   1.410   0.715
  336TIP3   OH2  887   4.465   1.316   0.843
  336TIP3    H1  888   4.391   1.276   0.894
  336TIP3    H2  889   4.514   1.364   0.912
  337TIP3   OH2  890   4.508   1.711   1.281
  337TIP3    H1  891   4.560   1.650   1.226
  337TIP3    H2  892   4.496   1.788   1.221
  338TIP3   OH2  893   4.343   2.014   1.477
  338TIP3    H1  894   4.272   2.055   1.530
  338TIP3    H2  895   4.292   1.964   1.409
  339TIP3   OH2  896   4.282   1.175   1.000
  339TIP3    H1  897   4.260   1.081   0.994
  339TIP3    H2  898   4.266   1.193   1.095
  340TIP3   OH2  899   4.561   1.601   1.851
  340TIP3    H1  900   4.632   1.536   1.837
  340TIP3    H2  901   4.586   1.674   1.791
  341TIP3   OH2  902   4.748   1.404   1.861
  341TIP3    H1  903   4.674   1.355   1.904
  341TIP3    H2  904   4.824   1.377   1.913
  342TIP3   OH2  905   4.431   1.072   1.385
  342TIP3    H1  906   4.518   1.098   1.347
  342TIP3    H2  907   4.442   1.108   1.475
  343TIP3   OH2  908   4.496   1.209   1.615
  343TIP3    H1  909   4.421   1.243   1.668
  343TIP3    H2  910   4.528   1.292   1.573
  344TIP3   OH2  911   3.119   0.958   2.434
  344TIP3    H1  912   3.215   0.939   2.425
  344TIP3    H2  913   3.085   0.869   2.449
  345TIP3   OH2  914   4.930   0.789   2.165
  345TIP3    H1  915   5.002   0.728   2.137
  345TIP3    H2  916   4.937   0.860   2.100
  346TIP3   OH2  917   4.847   0.950   1.947
  346TIP3    H1  918   4.778   0.997   1.999
  346TIP3    H2  919   4.794   0.871   1.920
  347TIP3   OH2  920   4.022   2.110   0.829
  347TIP3    H1  921   4.070   2.089   0.747
  347TIP3    H2  922   4.080   2.175   0.871
  348TIP3   OH2  923   3.121   1.913   2.216
  348TIP3    H1  924   3.030   1.882   2.198
  348TIP3    H2  925   3.130   1.896   2.310
  349TIP3   OH2  926   3.295   1.945   1.760
  349TIP3    H1  927   3.249   2.022   1.720
  349TIP3    H2  928   3.383   1.958   1.720
  350TIP3   OH2  929   3.747   2.194   1.900
  350TIP3    H1  930   3.789   2.193   1.988
  350TIP3    H2  931   3.815   2.242   1.847
  351TIP3   OH2  932   3.926   2.342   1.753
  351TIP3    H1  933   3.997   2.289   1.715
  351TIP3    H2  934   3.976   2.398   1.816
  352TIP3   OH2  935   4.721   0.709   1.859
  352TIP3    H1  936   4.628   0.700   1.830
  352TIP3    H2  937   4.751   0.616   1.849
  353TIP3   OH2  938   2.980   2.210   1.780
  353TIP3    H1  939   2.888   2.239   1.761
  353TIP3    H2  940   2.984   2.229   1.874
  354TIP3   OH2  941   3.215   2.185   1.642
  354TIP3    H1  942   3.129   2.197   1.688
  354TIP3    H2  943   3.192   2.211   1.551
  355TIP3   OH2  944   3.640   2.213   1.439
  355TIP3    H1  945   3.571   2.235   1.374
  355TIP3    H2  946   3.654   2.299   1.483
  356TIP3   OH2  947   3.907   2.152   1.487
  356TIP3    H1  948   3.813   2.169   1.468
  356TIP3    H2  949   3.950   2.230   1.450
  357TIP3   OH2  950   4.115   2.345   1.407
  357TIP3    H1  951   4.103   2.429   1.359
  357TIP3    H2  952   4.142   2.284   1.335
  358TIP3   OH2  953   2.911   2.007   1.532
  358TIP3    H1  954   2.901   1.972   1.623
  358TIP3    H2  955   2.992   1.957   1.505
  359TIP3   OH2  956   3.103   1.862   1.410
  359TIP3    H1  957   3.123   1.775   1.451
  359TIP3    H2  958   3.193   1.896   1.391
  360TIP3   OH2  959   3.361   1.973   1.383
  360TIP3    H1  960   3.393   1.883   1.366
  360TIP3    H2  961   3.398   1.988   1.472
  361TIP3   OH2  962   4.470   0.511   1.403
  361TIP3    H1  963   4.502   0.549   1.318
  361TIP3    H2  964   4.377   0.491   1.384
  362TIP3   OH2  965   4.568   0.606   1.176
  362TIP3    H1  966   4.597   0.544   1.107
  362TIP3    H2  967   4.609   0.691   1.149
  363TIP3   OH2  968   4.165   2.071   0.593
  363TIP3    H1  969   4.156   1.973   0.580
  363TIP3    H2  970   4.118   2.104   0.514
  364TIP3   OH2  971   3.396   0.618   2.397
  364TIP3    H1  972   3.369   0.530   2.429
  364TIP3    H2  973   3.489   0.619   2.429
  365TIP3   OH2  974   3.642   0.606   2.508
  365TIP3    H1  975   3.728   0.581   2.471
  365TIP3    H2  976   3.628   0.538   2.576
  366TIP3   OH2  977   4.449   0.663   2.292
  366TIP3    H1  978   4.470   0.634   2.383
  366TIP3    H2  979   4.538   0.661   2.250
  367TIP3   OH2  980   4.396   2.222   1.783
  367TIP3    H1  981   4.316   2.188   1.737
  367TIP3    H2  982   4.375   2.318   1.785
  368TIP3   OH2  983   5.644   1.600   0.563
  368TIP3    H1  984   5.616   1.692   0.546
  368TIP3    H2  985   5.565   1.550   0.534
  369TIP3   OH2  986   5.654   1.590   0.928
  369TIP3    H1  987   5.687   1.563   1.015
  369TIP3    H2  988   5.614   1.507   0.896
  370TIP3   OH2  989   4.960   1.493   1.293
  370TIP3    H1  990   4.997   1.428   1.355
  370TIP3    H2  991   5.036   1.552   1.281
  371TIP3   OH2  992   5.900   1.892   0.609
  371TIP3    H1  993   5.889   1.824   0.677
  371TIP3    H2  994   5.929   1.968   0.662
  372TIP3   OH2  995   4.926   1.896   1.023
  372TIP3    H1  996   4.918   1.798   1.027
  372TIP3    H2  997   5.023   1.906   1.020
  373TIP3   OH2  998   4.635   1.099   0.804
  373TIP3    H1  999   4.592   1.187   0.810
  373TIP3    H2 1000   4.560   1.043   0.822
  374TIP3   OH2 1001   4.701   1.393   0.979
  374TIP3    H1 1002   4.749   1.314   1.014
  374TIP3    H2 1003   4.752   1.413   0.899
  375TIP3   OH2 1004   5.544   2.353   0.623
  375TIP3    H1 1005   5.597   2.281   0.583
  375TIP3    H2 1006   5.543   2.327   0.716
  376TIP3   OH2 1007   5.458   1.817   0.975
  376TIP3    H1 1008   5.496   1.738   0.932
  376TIP3    H2 1009   5.542   1.861   1.001
  377TIP3   OH2 1010   6.423   1.171   1.012
  377TIP3    H1 1011   6.480   1.219   1.076
  377TIP3    H2 1012   6.430   1.231   0.937
  378TIP3   OH2 1013   5.869   1.325   1.011
  378TIP3    H1 1014   5.907   1.238   1.036
  378TIP3    H2 1015   5.840   1.305   0.920
  379TIP3   OH2 1016   5.196   0.975   0.981
  379TIP3    H1 1017   5.185   1.050   0.918
  379TIP3    H2 1018   5.149   0.905   0.932
  380TIP3   OH2 1019   4.839   1.180   1.083
  380TIP3    H1 1020   4.923   1.163   1.131
  380TIP3    H2 1021   4.854   1.126   1.003
  381TIP3   OH2 1022   5.283   1.380   0.872
  381TIP3    H1 1023   5.376   1.354   0.887
  381TIP3    H2 1024   5.244   1.295   0.843
  382TIP3   OH2 1025   6.551   1.366   1.150
  382TIP3    H1 1026   6.464   1.409   1.144
  382TIP3    H2 1027   6.567   1.371   1.246
  383TIP3   OH2 1028   5.203   0.960   1.407
  383TIP3    H1 1029   5.147   1.004   1.340
  383TIP3    H2 1030   5.141   0.942   1.478
  384TIP3   OH2 1031   5.569   1.827   0.406
  384TIP3    H1 1032   5.506   1.787   0.343
  384TIP3    H2 1033   5.516   1.903   0.438
  385TIP3   OH2 1034   5.308   1.737   1.209
  385TIP3    H1 1035   5.244   1.800   1.249
  385TIP3    H2 1036   5.351   1.792   1.141
  386TIP3   OH2 1037   5.072   1.078   1.198
  386TIP3    H1 1038   5.135   1.151   1.219
  386TIP3    H2 1039   5.119   1.037   1.122
  387TIP3   OH2 1040   5.133   1.928   1.303
  387TIP3    H1 1041   5.109   2.014   1.264
  387TIP3    H2 1042   5.055   1.915   1.361
  388TIP3   OH2 1043   4.554   1.618   0.557
  388TIP3    H1 1044   4.503   1.626   0.474
  388TIP3    H2 1045   4.564   1.711   0.587
  389TIP3   OH2 1046   5.970   2.132   0.774
  389TIP3    H1 1047   5.882   2.126   0.818
  389TIP3    H2 1048   5.964   2.222   0.735
  390TIP3   OH2 1049   6.233   1.042   1.162
  390TIP3    H1 1050   6.153   1.077   1.120
  390TIP3    H2 1051   6.303   1.070   1.100
  391TIP3   OH2 1052   5.568   0.714   1.131
  391TIP3    H1 1053   5.556   0.617   1.126
  391TIP3    H2 1054   5.487   0.740   1.180
  392TIP3   OH2 1055   5.681   2.180   0.455
  392TIP3    H1 1056   5.737   2.103   0.435
  392TIP3    H2 1057   5.738   2.252   0.417
  393TIP3   OH2 1058   5.829   1.945   0.347
  393TIP3    H1 1059   5.743   1.899   0.349
  393TIP3    H2 1060   5.858   1.931   0.440
  394TIP3   OH2 1061   6.198   2.053   1.124
  394TIP3    H1 1062   6.189   1.974   1.067
  394TIP3    H2 1063   6.185   2.126   1.060
  395TIP3   OH2 1064   5.490   1.454   0.369
  395TIP3    H1 1065   5.405   1.501   0.354
  395TIP3    H2 1066   5.523   1.446   0.278
  396TIP3   OH2 1067   6.388   1.675   0.956
  396TIP3    H1 1068   6.311   1.733   0.974
  396TIP3    H2 1069   6.417   1.712   0.870
  397TIP3   OH2 1070   5.836   1.530   0.391
  397TIP3    H1 1071   5.760   1.553   0.449
  397TIP3    H2 1072   5.909   1.548   0.452
  398TIP3   OH2 1073   6.073   1.569   1.260
  398TIP3    H1 1074   6.071   1.650   1.315
  398TIP3    H2 1075   5.986   1.575   1.217
  399TIP3   OH2 1076   5.070   1.525   0.766
  399TIP3    H1 1077   5.029   1.466   0.699
  399TIP3    H2 1078   5.147   1.472   0.796
  400TIP3   OH2 1079   5.200   1.937   0.917
  400TIP3    H1 1080   5.178   1.885   0.838
  400TIP3    H2 1081   5.290   1.905   0.938
  401TIP3   OH2 1082   5.207   1.496   1.122
  401TIP3    H1 1083   5.241   1.477   1.032
  401TIP3    H2 1084   5.250   1.581   1.144
  402TIP3   OH2 1085   5.731   2.132   0.899
  402TIP3    H1 1086   5.718   2.213   0.952
  402TIP3    H2 1087   5.718   2.060   0.963
  403TIP3   OH2 1088   5.342   2.054   1.445
  403TIP3    H1 1089   5.284   2.116   1.494
  403TIP3    H2 1090   5.275   1.999   1.399
  404TIP3   OH2 1091   5.095   1.610   1.545
  404TIP3    H1 1092   5.101   1.695   1.592
  404TIP3    H2 1093   4.998   1.594   1.552
  405TIP3   OH2 1094   5.420   2.065   0.453
  405TIP3    H1 1095   5.491   2.124   0.482
  405TIP3    H2 1096   5.355   2.126   0.416
  406TIP3   OH2 1097   5.137   2.223   1.532
  406TIP3    H1 1098   5.102   2.219   1.442
  406TIP3    H2 1099   5.059   2.201   1.587
  407TIP3   OH2 1100   4.937   1.363   0.569
  407TIP3    H1 1101   4.879   1.423   0.517
  407TIP3    H2 1102   4.879   1.288   0.585
  408TIP3   OH2 1103   4.717   1.750   1.481
  408TIP3    H1 1104   4.652   1.729   1.411
  408TIP3    H2 1105   4.753   1.662   1.504
  409TIP3   OH2 1106   4.570   1.944   1.116
  409TIP3    H1 1107   4.666   1.938   1.105
  409TIP3    H2 1108   4.562   2.024   1.169
  410TIP3   OH2 1109   6.430   2.391   1.161
  410TIP3    H1 1110   6.435   2.295   1.180
  410TIP3    H2 1111   6.350   2.415   1.213
  411TIP3   OH2 1112   5.542   2.183   1.302
  411TIP3    H1 1113   5.543   2.275   1.336
  411TIP3    H2 1114   5.471   2.144   1.358
  412TIP3   OH2 1115   5.299   2.311   0.252
  412TIP3    H1 1116   5.253   2.294   0.168
  412TIP3    H2 1117   5.270   2.401   0.275
  413TIP3   OH2 1118   4.739   2.161   0.637
  413TIP3    H1 1119   4.788   2.152   0.722
  413TIP3    H2 1120   4.678   2.086   0.644
  414TIP3   OH2 1121   5.487   2.218  -0.080
  414TIP3    H1 1122   5.561   2.170  -0.120
  414TIP3    H2 1123   5.522   2.232   0.010
  415TIP3   OH2 1124   5.554   2.260   0.181
  415TIP3    H1 1125   5.463   2.269   0.217
  415TIP3    H2 1126   5.601   2.222   0.257
  416TIP3   OH2 1127   6.324   1.528   1.444
  416TIP3    H1 1128   6.246   1.539   1.389
  416TIP3    H2 1129   6.344   1.432   1.431
  417TIP3   OH2 1130   4.922   1.934   1.473
  417TIP3    H1 1131   4.972   1.917   1.555
  417TIP3    H2 1132   4.848   1.869   1.481
  418TIP3   OH2 1133   5.320   0.759   1.248
  418TIP3    H1 1134   5.229   0.728   1.227
  418TIP3    H2 1135   5.298   0.844   1.290
  419TIP3   OH2 1136   5.855   0.878   1.448
  419TIP3    H1 1137   5.925   0.850   1.511
  419TIP3    H2 1138   5.773   0.856   1.496
  420TIP3   OH2 1139   6.093   1.301   1.363
  420TIP3    H1 1140   6.048   1.295   1.450
  420TIP3    H2 1141   6.071   1.391   1.334
  421TIP3   OH2 1142   5.253   1.272   1.268
  421TIP3    H1 1143   5.208   1.298   1.351
  421TIP3    H2 1144   5.239   1.353   1.214
  422TIP3   OH2 1145   5.136   1.161   0.792
  422TIP3    H1 1146   5.043   1.135   0.802
  422TIP3    H2 1147   5.154   1.128   0.700
  423TIP3   OH2 1148   5.589   1.274   0.551
  423TIP3    H1 1149   5.532   1.339   0.504
  423TIP3    H2 1150   5.632   1.231   0.475
  424TIP3   OH2 1151   5.802   1.528   1.600
  424TIP3    H1 1152   5.781   1.454   1.661
  424TIP3    H2 1153   5.896   1.541   1.621
  425TIP3   OH2 1154   5.791   1.272   0.746
  425TIP3    H1 1155   5.717   1.304   0.690
  425TIP3    H2 1156   5.803   1.184   0.705
  426TIP3   OH2 1157   5.071   1.311   1.474
  426TIP3    H1 1158   5.101   1.378   1.539
  426TIP3    H2 1159   5.014   1.254   1.526
  427TIP3   OH2 1160   4.674   0.824   1.061
  427TIP3    H1 1161   4.742   0.861   1.122
  427TIP3    H2 1162   4.720   0.824   0.977
  428TIP3   OH2 1163   5.792   1.523   1.176
  428TIP3    H1 1164   5.826   1.450   1.120
  428TIP3    H2 1165   5.768   1.473   1.257
  429TIP3   OH2 1166   5.452   1.002   0.852
  429TIP3    H1 1167   5.377   0.986   0.912
  429TIP3    H2 1168   5.528   0.975   0.907
  430TIP3   OH2 1169   4.896   1.033   0.860
  430TIP3    H1 1170   4.805   1.044   0.824
  430TIP3    H2 1171   4.923   0.945   0.829
  431TIP3   OH2 1172   5.176   1.055   0.545
  431TIP3    H1 1173   5.273   1.035   0.545
  431TIP3    H2 1174   5.156   1.054   0.451
  432TIP3   OH2 1175   5.939   1.058   1.042
  432TIP3    H1 1176   5.917   1.068   1.137
  432TIP3    H2 1177   5.871   0.993   1.015
  433TIP3   OH2 1178   6.120   2.746   1.265
  433TIP3    H1 1179   6.122   2.767   1.170
  433TIP3    H2 1180   6.196   2.797   1.298
  434TIP3   OH2 1181   5.084   1.854   1.691
  434TIP3    H1 1182   5.164   1.884   1.738
  434TIP3    H2 1183   5.019   1.858   1.764
  435TIP3   OH2 1184   5.550   1.313   0.947
  435TIP3    H1 1185   5.608   1.257   0.893
  435TIP3    H2 1186   5.560   1.272   1.035
  436TIP3   OH2 1187   5.068   0.797   0.813
  436TIP3    H1 1188   5.053   0.710   0.855
  436TIP3    H2 1189   5.135   0.776   0.747
  437TIP3   OH2 1190   5.526   1.202   1.235
  437TIP3    H1 1191   5.438   1.243   1.249
  437TIP3    H2 1192   5.586   1.261   1.286
  438TIP3   OH2 1193   5.263   1.603   0.331
  438TIP3    H1 1194   5.196   1.532   0.322
  438TIP3    H2 1195   5.244   1.635   0.423
  439TIP3   OH2 1196   6.165   1.836   0.960
  439TIP3    H1 1197   6.186   1.881   0.875
  439TIP3    H2 1198   6.078   1.794   0.940
  440TIP3   OH2 1199   5.659   1.914   1.326
  440TIP3    H1 1200   5.683   1.889   1.416
  440TIP3    H2 1201   5.622   2.003   1.337
  441TIP3   OH2 1202   4.954   1.618   1.007
  441TIP3    H1 1203   4.989   1.590   0.921
  441TIP3    H2 1204   4.991   1.552   1.067
  442TIP3   OH2 1205   5.417   1.749   0.153
  442TIP3    H1 1206   5.369   1.835   0.159
  442TIP3    H2 1207   5.358   1.692   0.208
  443TIP3   OH2 1208   4.831   1.538   1.617
  443TIP3    H1 1209   4.852   1.525   1.711
  443TIP3    H2 1210   4.758   1.475   1.605
  444TIP3   OH2 1211   5.558   1.652   1.636
  444TIP3    H1 1212   5.505   1.592   1.581
  444TIP3    H2 1213   5.649   1.621   1.614
  445TIP3   OH2 1214   5.821   2.175   1.219
  445TIP3    H1 1215   5.725   2.173   1.234
  445TIP3    H2 1216   5.850   2.225   1.299
  446TIP3   OH2 1217   6.450   2.103   1.213
  446TIP3    H1 1218   6.352   2.098   1.206
  446TIP3    H2 1219   6.476   2.074   1.123
  447TIP3   OH2 1220   5.948   2.032   0.036
  447TIP3    H1 1221   5.898   2.020   0.118
  447TIP3    H2 1222   5.878   2.019  -0.031
  448TIP3   OH2 1223   5.925   1.698   0.877
  448TIP3    H1 1224   5.833   1.670   0.894
  448TIP3    H2 1225   5.960   1.617   0.836
  449TIP3   OH2 1226   5.052   1.919   0.625
  449TIP3    H1 1227   5.054   2.003   0.577
  449TIP3    H2 1228   4.957   1.907   0.639
  450TIP3   OH2 1229   4.661   1.263   0.430
  450TIP3    H1 1230   4.701   1.351   0.413
  450TIP3    H2 1231   4.579   1.268   0.378
  451TIP3   OH2 1232   5.201   1.691   0.578
  451TIP3    H1 1233   5.159   1.779   0.594
  451TIP3    H2 1234   5.162   1.639   0.650
  452TIP3   OH2 1235   5.321   2.267   1.101
  452TIP3    H1 1236   5.362   2.339   1.050
  452TIP3    H2 1237   5.397   2.233   1.151
  453TIP3   OH2 1238   4.975   2.160   0.484
  453TIP3    H1 1239   4.889   2.169   0.529
  453TIP3    H2 1240   5.006   2.253   0.486
  454TIP3   OH2 1241   5.714   1.899   1.058
  454TIP3    H1 1242   5.704   1.898   1.156
  454TIP3    H2 1243   5.796   1.849   1.046
  455TIP3   OH2 1244   5.751   1.822  -0.037
  455TIP3    H1 1245   5.782   1.791   0.050
  455TIP3    H2 1246   5.679   1.883  -0.013
  456TIP3   OH2 1247   5.960   2.437   1.110
  456TIP3    H1 1248   5.883   2.378   1.101
  456TIP3    H2 1249   5.945   2.501   1.037
  457TIP3   OH2 1250   5.991   2.271  -0.191
  457TIP3    H1 1251   6.058   2.335  -0.221
  457TIP3    H2 1252   5.916   2.332  -0.172
  458TIP3   OH2 1253   5.864   1.708   0.185
  458TIP3    H1 1254   5.827   1.651   0.256
  458TIP3    H2 1255   5.913   1.773   0.240
  459TIP3   OH2 1256   4.761   2.131   1.260
  459TIP3    H1 1257   4.812   2.054   1.288
  459TIP3    H2 1258   4.792   2.197   1.325
  460TIP3   OH2 1259   5.040   1.781  -0.066
  460TIP3    H1 1260   5.095   1.703  -0.084
  460TIP3    H2 1261   5.025   1.773   0.030
  461TIP3   OH2 1262   5.003   1.777   0.211
  461TIP3    H1 1263   5.067   1.751   0.279
  461TIP3    H2 1264   5.007   1.875   0.216
  462TIP3   OH2 1265   4.763   1.515   0.420
  462TIP3    H1 1266   4.695   1.549   0.483
  462TIP3    H2 1267   4.758   1.585   0.351
  463TIP3   OH2 1268   5.880   1.110   1.305
  463TIP3    H1 1269   5.961   1.148   1.344
  463TIP3    H2 1270   5.867   1.029   1.359
  464TIP3   OH2 1271   5.267   1.975   0.165
  464TIP3    H1 1272   5.180   2.005   0.198
  464TIP3    H2 1273   5.279   2.035   0.090
  465TIP3   OH2 1274   5.446   1.030   0.575
  465TIP3    H1 1275   5.507   1.106   0.572
  465TIP3    H2 1276   5.453   1.006   0.670
  466TIP3   OH2 1277   5.721   1.361   1.385
  466TIP3    H1 1278   5.739   1.413   1.465
  466TIP3    H2 1279   5.778   1.283   1.399
  467TIP3   OH2 1280   5.003   2.049   0.228
  467TIP3    H1 1281   4.975   2.119   0.164
  467TIP3    H2 1282   4.989   2.094   0.314
  468TIP3   OH2 1283   6.362   1.269   1.352
  468TIP3    H1 1284   6.265   1.261   1.364
  468TIP3    H2 1285   6.373   1.208   1.278
  469TIP3   OH2 1286   6.008   1.460   0.743
  469TIP3    H1 1287   5.935   1.397   0.756
  469TIP3    H2 1288   6.079   1.417   0.797
  470TIP3   OH2 1289   4.726   1.701   0.222
  470TIP3    H1 1290   4.795   1.768   0.231
  470TIP3    H2 1291   4.767   1.642   0.155
  471TIP3   OH2 1292   5.979   2.404   0.700
  471TIP3    H1 1293   5.938   2.453   0.626
  471TIP3    H2 1294   6.074   2.426   0.682
  472TIP3   OH2 1295   5.052   0.681   1.233
  472TIP3    H1 1296   5.025   0.641   1.147
  472TIP3    H2 1297   5.048   0.603   1.292
  473TIP3   OH2 1298   4.601   1.903   0.616
  473TIP3    H1 1299   4.519   1.930   0.659
  473TIP3    H2 1300   4.585   1.935   0.525
  474TIP3   OH2 1301   4.749   2.433   1.681
  474TIP3    H1 1302   4.835   2.432   1.727
  474TIP3    H2 1303   4.728   2.338   1.679
  475TIP3   OH2 1304   5.237   2.407   1.723
  475TIP3    H1 1305   5.331   2.384   1.734
  475TIP3    H2 1306   5.213   2.349   1.648
  476TIP3   OH2 1307   5.218   1.981  -0.125
  476TIP3    H1 1308   5.145   1.917  -0.110
  476TIP3    H2 1309   5.279   1.930  -0.180
  477TIP3   OH2 1310   5.874   2.306   1.457
  477TIP3    H1 1311   5.864   2.237   1.526
  477TIP3    H2 1312   5.952   2.356   1.488
  478TIP3   OH2 1313   5.718   2.087  -0.152
  478TIP3    H1 1314   5.716   2.006  -0.207
  478TIP3    H2 1315   5.738   2.152  -0.220
  479TIP3   OH2 1316   4.883   1.844   1.880
  479TIP3    H1 1317   4.897   1.748   1.887
  479TIP3    H2 1318   4.794   1.847   1.839
  480TIP3   OH2 1319   4.857   1.496   0.070
  480TIP3    H1 1320   4.921   1.465   0.137
  480TIP3    H2 1321   4.915   1.524  -0.002
  481TIP3   OH2 1322   5.491   1.926   1.654
  481TIP3    H1 1323   5.451   1.938   1.566
  481TIP3    H2 1324   5.524   1.834   1.650
  482TIP3   OH2 1325   5.265   1.624  -0.077
  482TIP3    H1 1326   5.298   1.701  -0.027
  482TIP3    H2 1327   5.348   1.602  -0.123
  483TIP3   OH2 1328   5.982   1.931   1.255
  483TIP3    H1 1329   6.057   1.978   1.215
  483TIP3    H2 1330   5.912   1.998   1.247
  484TIP3   OH2 1331   5.004   1.563   1.864
  484TIP3    H1 1332   5.091   1.524   1.848
  484TIP3    H2 1333   5.019   1.603   1.952
  485TIP3   OH2 1334   5.087   1.398   0.311
  485TIP3    H1 1335   5.047   1.359   0.391
  485TIP3    H2 1336   5.071   1.329   0.243
  486TIP3   OH2 1337   5.336   1.459   1.520
  486TIP3    H1 1338   5.263   1.524   1.528
  486TIP3    H2 1339   5.386   1.494   1.443
  487TIP3   OH2 1340   5.853   1.864   1.658
  487TIP3    H1 1341   5.937   1.847   1.614
  487TIP3    H2 1342   5.853   1.796   1.728
  488TIP3   OH2 1343   5.445   1.241   1.657
  488TIP3    H1 1344   5.460   1.165   1.597
  488TIP3    H2 1345   5.414   1.310   1.595
  489TIP3   OH2 1346   5.461   1.039   1.456
  489TIP3    H1 1347   5.493   1.078   1.373
  489TIP3    H2 1348   5.368   1.017   1.435
  490TIP3   OH2 1349   5.492   1.571   1.329
  490TIP3    H1 1350   5.575   1.575   1.280
  490TIP3    H2 1351   5.439   1.641   1.286
  491TIP3   OH2 1352   6.073   1.541   1.711
  491TIP3    H1 1353   6.119   1.457   1.731
  491TIP3    H2 1354   6.146   1.596   1.681
  492TIP3   OH2 1355   6.114   1.791   1.445
  492TIP3    H1 1356   6.057   1.844   1.385
  492TIP3    H2 1357   6.203   1.811   1.406
  493TIP3   OH2 1358   5.324   1.381   1.870
  493TIP3    H1 1359   5.274   1.307   1.907
  493TIP3    H2 1360   5.370   1.341   1.793
  494TIP3   OH2 1361   5.595   0.807   1.524
  494TIP3    H1 1362   5.542   0.886   1.502
  494TIP3    H2 1363   5.531   0.734   1.511
  495TIP3   OH2 1364   5.717   1.311   1.740
  495TIP3    H1 1365   5.727   1.298   1.836
  495TIP3    H2 1366   5.627   1.277   1.727
  496TIP3   OH2 1367   5.960   1.254   1.594
  496TIP3    H1 1368   5.887   1.253   1.659
  496TIP3    H2 1369   6.036   1.223   1.650
  497TIP3   OH2 1370   6.186   1.193   1.744
  497TIP3    H1 1371   6.201   1.098   1.765
  497TIP3    H2 1372   6.183   1.234   1.833
  498TIP3   OH2 1373   5.688   0.810   1.781
  498TIP3    H1 1374   5.758   0.742   1.779
  498TIP3    H2 1375   5.652   0.801   1.690
  499TIP3   OH2 1376   5.759   1.030   1.932
  499TIP3    H1 1377   5.735   0.953   1.875
  499TIP3    H2 1378   5.678   1.084   1.930
  500TIP3   OH2 1379   4.963   2.248   0.041
  500TIP3    H1 1380   5.058   2.251   0.018
  500TIP3    H2 1381   4.923   2.297  -0.032
  501TIP3   OH2 1382   4.471   1.601   0.289
  501TIP3    H1 1383   4.553   1.649   0.263
  501TIP3    H2 1384   4.431   1.594   0.201
  502TIP3   OH2 1385   4.367   2.247   0.667
  502TIP3    H1 1386   4.299   2.184   0.636
  502TIP3    H2 1387   4.412   2.194   0.736
  503TIP3   OH2 1388   4.503   2.107   0.856
  503TIP3    H1 1389   4.495   2.028   0.912
  503TIP3    H2 1390   4.555   2.164   0.916
  504TIP3   OH2 1391   6.227   2.505   0.656
  504TIP3    H1 1392   6.261   2.534   0.742
  504TIP3    H2 1393   6.292   2.541   0.594
  505TIP3   OH2 1394   6.264   2.522   0.938
  505TIP3    H1 1395   6.221   2.434   0.932
  505TIP3    H2 1396   6.339   2.499   0.994
  506TIP3   OH2 1397   6.305   2.199   1.506
  506TIP3    H1 1398   6.234   2.205   1.574
  506TIP3    H2 1399   6.348   2.286   1.515
  507TIP3   OH2 1400   6.294   1.962   0.756
  507TIP3    H1 1401   6.366   1.912   0.712
  507TIP3    H2 1402   6.294   2.046   0.707
  508TIP3   OH2 1403   6.138   2.270   0.961
  508TIP3    H1 1404   6.070   2.311   1.017
  508TIP3    H2 1405   6.085   2.220   0.895
  509TIP3   OH2 1406   6.206   1.456   0.542
  509TIP3    H1 1407   6.167   1.389   0.485
  509TIP3    H2 1408   6.142   1.461   0.616
  510TIP3   OH2 1409   4.694   1.505   1.230
  510TIP3    H1 1410   4.693   1.479   1.135
  510TIP3    H2 1411   4.792   1.509   1.245
  511TIP3   OH2 1412   6.355   1.859   1.335
  511TIP3    H1 1413   6.428   1.792   1.331
  511TIP3    H2 1414   6.390   1.930   1.279
  512TIP3   OH2 1415   6.540   1.667   1.365
  512TIP3    H1 1416   6.468   1.613   1.403
  512TIP3    H2 1417   6.615   1.605   1.377
  513TIP3   OH2 1418   6.218   1.346   0.869
  513TIP3    H1 1419   6.303   1.373   0.832
  513TIP3    H2 1420   6.233   1.360   0.965
  514TIP3   OH2 1421   6.292   1.467   1.109
  514TIP3    H1 1422   6.213   1.499   1.157
  514TIP3    H2 1423   6.322   1.547   1.062
  515TIP3   OH2 1424   6.734   1.069   1.670
  515TIP3    H1 1425   6.797   1.002   1.635
  515TIP3    H2 1426   6.714   1.122   1.590
  516TIP3   OH2 1427   4.872   0.889   1.238
  516TIP3    H1 1428   4.932   0.812   1.244
  516TIP3    H2 1429   4.936   0.962   1.228
  517TIP3   OH2 1430   4.681   1.161   1.313
  517TIP3    H1 1431   4.728   1.153   1.227
  517TIP3    H2 1432   4.699   1.253   1.335
  518TIP3   OH2 1433   6.618   1.205   1.467
  518TIP3    H1 1434   6.529   1.236   1.493
  518TIP3    H2 1435   6.593   1.131   1.408
  519TIP3   OH2 1436   5.819   2.363   0.321
  519TIP3    H1 1437   5.866   2.352   0.235
  519TIP3    H2 1438   5.868   2.436   0.361
  520TIP3   OH2 1439   4.881   0.759   1.631
  520TIP3    H1 1440   4.825   0.737   1.708
  520TIP3    H2 1441   4.813   0.788   1.567
  521TIP3   OH2 1442   4.918   2.168   1.702
  521TIP3    H1 1443   4.827   2.139   1.685
  521TIP3    H2 1444   4.927   2.152   1.796
  522TIP3   OH2 1445   5.093   2.198   1.247
  522TIP3    H1 1446   5.046   2.275   1.209
  522TIP3    H2 1447   5.180   2.213   1.204
  523TIP3   OH2 1448   5.544   2.449   1.386
  523TIP3    H1 1449   5.585   2.450   1.475
  523TIP3    H2 1450   5.611   2.498   1.334
  524TIP3   OH2 1451   5.723   2.597   1.241
  524TIP3    H1 1452   5.796   2.546   1.203
  524TIP3    H2 1453   5.772   2.655   1.304
  525TIP3   OH2 1454   6.488   0.977   1.363
  525TIP3    H1 1455   6.416   0.968   1.298
  525TIP3    H2 1456   6.551   0.911   1.331
  526TIP3   OH2 1457   4.773   2.460   1.270
  526TIP3    H1 1458   4.685   2.496   1.246
  526TIP3    H2 1459   4.780   2.489   1.361
  527TIP3   OH2 1460   5.010   2.437   1.127
  527TIP3    H1 1461   4.924   2.451   1.173
  527TIP3    H2 1462   4.989   2.472   1.038
  528TIP3   OH2 1463   5.436   2.470   0.924
  528TIP3    H1 1464   5.366   2.492   0.860
  528TIP3    H2 1465   5.449   2.557   0.968
  529TIP3   OH2 1466   5.703   2.408   0.973
  529TIP3    H1 1467   5.608   2.425   0.955
  529TIP3    H2 1468   5.745   2.487   0.937
  530TIP3   OH2 1469   5.913   2.602   0.894
  530TIP3    H1 1470   5.899   2.687   0.846
  530TIP3    H2 1471   5.938   2.541   0.821
  531TIP3   OH2 1472   4.684   2.254   1.017
  531TIP3    H1 1473   4.711   2.231   1.108
  531TIP3    H2 1474   4.756   2.210   0.967
  532TIP3   OH2 1475   4.876   2.125   0.870
  532TIP3    H1 1476   4.893   2.041   0.919
  532TIP3    H2 1477   4.966   2.163   0.865
  533TIP3   OH2 1478   5.142   2.222   0.872
  533TIP3    H1 1479   5.174   2.130   0.861
  533TIP3    H2 1480   5.182   2.243   0.958
  534TIP3   OH2 1481   5.728   0.881   0.966
  534TIP3    H1 1482   5.676   0.827   1.029
  534TIP3    H2 1483   5.760   0.811   0.905
  535TIP3   OH2 1484   4.979   0.570   0.988
  535TIP3    H1 1485   4.895   0.531   0.963
  535TIP3    H2 1486   5.038   0.494   0.974
  536TIP3   OH2 1487   4.472   2.021   0.409
  536TIP3    H1 1488   4.389   1.986   0.373
  536TIP3    H2 1489   4.456   2.116   0.403
  537TIP3   OH2 1490   5.228   2.227  -0.012
  537TIP3    H1 1491   5.320   2.246  -0.043
  537TIP3    H2 1492   5.214   2.145  -0.065
  538TIP3   OH2 1493   5.955   2.327   0.089
  538TIP3    H1 1494   5.969   2.237   0.055
  538TIP3    H2 1495   5.910   2.369   0.013
  539TIP3   OH2 1496   5.164   0.879   1.886
  539TIP3    H1 1497   5.155   0.793   1.930
  539TIP3    H2 1498   5.261   0.890   1.900
  540TIP3   OH2 1499   5.418   0.855   1.979
  540TIP3    H1 1500   5.509   0.838   1.949
  540TIP3    H2 1501   5.413   0.794   2.056
  541TIP3   OH2 1502   4.554   2.060   0.063
  541TIP3    H1 1503   4.537   2.099   0.149
  541TIP3    H2 1504   4.641   2.020   0.074
  542TIP3   OH2 1505   6.245   0.924   1.778
  542TIP3    H1 1506   6.267   0.891   1.868
  542TIP3    H2 1507   6.332   0.915   1.733
  543TIP3   OH2 1508   6.190   2.479   1.272
  543TIP3    H1 1509   6.111   2.444   1.225
  543TIP3    H2 1510   6.169   2.574   1.272
  544TIP3   OH2 1511   6.756   1.760   0.791
  544TIP3    H1 1512   6.774   1.686   0.853
  544TIP3    H2 1513   6.824   1.822   0.827
  545TIP3   OH2 1514   6.716   2.169   0.513
  545TIP3    H1 1515   6.710   2.077   0.545
  545TIP3    H2 1516   6.813   2.178   0.503
  546TIP3   OH2 1517   7.095   1.992   0.693
  546TIP3    H1 1518   7.025   2.048   0.733
  546TIP3    H2 1519   7.154   2.060   0.657
  547TIP3   OH2 1520   6.914   2.177   0.779
  547TIP3    H1 1521   6.908   2.271   0.755
  547TIP3    H2 1522   6.846   2.173   0.849
  548TIP3   OH2 1523   7.938   2.311   0.616
  548TIP3    H1 1524   7.871   2.270   0.559
  548TIP3    H2 1525   7.929   2.404   0.588
  549TIP3   OH2 1526   6.986   2.169   0.409
  549TIP3    H1 1527   6.980   2.136   0.319
  549TIP3    H2 1528   7.079   2.195   0.417
  550TIP3   OH2 1529   7.490   2.397   0.384
  550TIP3    H1 1530   7.503   2.488   0.416
  550TIP3    H2 1531   7.517   2.344   0.461
  551TIP3   OH2 1532   7.131   2.337   0.911
  551TIP3    H1 1533   7.075   2.380   0.978
  551TIP3    H2 1534   7.103   2.244   0.917
  552TIP3   OH2 1535   6.874   1.861   1.019
  552TIP3    H1 1536   6.925   1.936   1.057
  552TIP3    H2 1537   6.787   1.872   1.060
  553TIP3   OH2 1538   6.926   2.493   1.023
  553TIP3    H1 1539   6.901   2.476   0.930
  553TIP3    H2 1540   6.848   2.462   1.073
  554TIP3   OH2 1541   6.512   2.008   0.967
  554TIP3    H1 1542   6.449   1.975   0.901
  554TIP3    H2 1543   6.549   1.926   1.007
  555TIP3   OH2 1544   6.373   2.194   0.601
  555TIP3    H1 1545   6.469   2.199   0.592
  555TIP3    H2 1546   6.356   2.274   0.655
  556TIP3   OH2 1547   8.233   2.659   0.657
  556TIP3    H1 1548   8.233   2.561   0.667
  556TIP3    H2 1549   8.146   2.680   0.698
  557TIP3   OH2 1550   7.345   2.438   0.791
  557TIP3    H1 1551   7.343   2.531   0.821
  557TIP3    H2 1552   7.265   2.403   0.836
  558TIP3   OH2 1553   6.516   2.423   0.145
  558TIP3    H1 1554   6.575   2.410   0.224
  558TIP3    H2 1555   6.464   2.342   0.149
  559TIP3   OH2 1556   6.710   2.200   0.958
  559TIP3    H1 1557   6.764   2.181   1.038
  559TIP3    H2 1558   6.642   2.130   0.964
  560TIP3   OH2 1559   7.612   1.805   1.099
  560TIP3    H1 1560   7.573   1.726   1.140
  560TIP3    H2 1561   7.706   1.793   1.120
  561TIP3   OH2 1562   6.834   1.556   0.972
  561TIP3    H1 1563   6.896   1.624   1.006
  561TIP3    H2 1564   6.850   1.482   1.034
  562TIP3   OH2 1565   7.919   3.002   0.755
  562TIP3    H1 1566   7.915   3.020   0.659
  562TIP3    H2 1567   7.995   3.056   0.782
  563TIP3   OH2 1568   6.852   2.128   1.175
  563TIP3    H1 1569   6.949   2.109   1.178
  563TIP3    H2 1570   6.826   2.122   1.268
  564TIP3   OH2 1571   7.450   2.166   0.825
  564TIP3    H1 1572   7.436   2.126   0.912
  564TIP3    H2 1573   7.405   2.252   0.834
  565TIP3   OH2 1574   6.707   1.901   0.563
  565TIP3    H1 1575   6.773   1.874   0.497
  565TIP3    H2 1576   6.738   1.853   0.643
  566TIP3   OH2 1577   6.612   1.806   1.115
  566TIP3    H1 1578   6.655   1.792   1.202
  566TIP3    H2 1579   6.566   1.721   1.104
  567TIP3   OH2 1580   7.637   2.503   0.706
  567TIP3    H1 1581   7.566   2.438   0.692
  567TIP3    H2 1582   7.632   2.521   0.802
  568TIP3   OH2 1583   8.243   2.384   0.697
  568TIP3    H1 1584   8.156   2.364   0.735
  568TIP3    H2 1585   8.243   2.327   0.616
  569TIP3   OH2 1586   6.763   2.210   0.139
  569TIP3    H1 1587   6.815   2.271   0.085
  569TIP3    H2 1588   6.676   2.218   0.099
  570TIP3   OH2 1589   7.116   2.523   0.585
  570TIP3    H1 1590   7.162   2.591   0.531
  570TIP3    H2 1591   7.192   2.486   0.634
  571TIP3   OH2 1592   6.693   2.410  -0.072
  571TIP3    H1 1593   6.650   2.444   0.009
  571TIP3    H2 1594   6.785   2.444  -0.063
  572TIP3   OH2 1595   7.570   2.249   0.601
  572TIP3    H1 1596   7.510   2.210   0.667
  572TIP3    H2 1597   7.592   2.170   0.549
  573TIP3   OH2 1598   7.771   2.703   0.592
  573TIP3    H1 1599   7.702   2.635   0.610
  573TIP3    H2 1600   7.730   2.756   0.520
  574TIP3   OH2 1601   6.853   1.317   1.125
  574TIP3    H1 1602   6.756   1.321   1.130
  574TIP3    H2 1603   6.869   1.238   1.179
  575TIP3   OH2 1604   6.555   2.387   0.752
  575TIP3    H1 1605   6.612   2.310   0.772
  575TIP3    H2 1606   6.595   2.452   0.812
  576TIP3   OH2 1607   7.783   2.688   0.197
  576TIP3    H1 1608   7.736   2.737   0.126
  576TIP3    H2 1609   7.875   2.700   0.167
  577TIP3   OH2 1610   6.398   2.155   0.124
  577TIP3    H1 1611   6.311   2.197   0.133
  577TIP3    H2 1612   6.411   2.173   0.029
  578TIP3   OH2 1613   6.544   2.689   1.169
  578TIP3    H1 1614   6.632   2.683   1.210
  578TIP3    H2 1615   6.523   2.594   1.162
  579TIP3   OH2 1616   7.033   2.668   1.209
  579TIP3    H1 1617   7.125   2.638   1.220
  579TIP3    H2 1618   7.004   2.610   1.136
  580TIP3   OH2 1619   7.662   2.578   0.967
  580TIP3    H1 1620   7.656   2.500   1.027
  580TIP3    H2 1621   7.748   2.617   0.990
  581TIP3   OH2 1622   6.670   2.097   1.384
  581TIP3    H1 1623   6.696   2.003   1.375
  581TIP3    H2 1624   6.589   2.099   1.329
  582TIP3   OH2 1625   7.766   2.195   0.801
  582TIP3    H1 1626   7.827   2.259   0.759
  582TIP3    H2 1627   7.681   2.225   0.766
  583TIP3   OH2 1628   6.794   1.832   1.344
  583TIP3    H1 1629   6.872   1.779   1.323
  583TIP3    H2 1630   6.818   1.863   1.434
  584TIP3   OH2 1631   7.119   1.690   1.018
  584TIP3    H1 1632   7.081   1.773   1.051
  584TIP3    H2 1633   7.179   1.730   0.950
  585TIP3   OH2 1634   7.663   2.127   1.155
  585TIP3    H1 1635   7.726   2.093   1.090
  585TIP3    H2 1636   7.636   2.045   1.199
  586TIP3   OH2 1637   7.275   1.536   1.171
  586TIP3    H1 1638   7.263   1.453   1.122
  586TIP3    H2 1639   7.230   1.600   1.110
  587TIP3   OH2 1640   7.256   1.811   0.826
  587TIP3    H1 1641   7.335   1.847   0.783
  587TIP3    H2 1642   7.193   1.885   0.810
  588TIP3   OH2 1643   7.872   1.793   1.191
  588TIP3    H1 1644   7.916   1.726   1.248
  588TIP3    H2 1645   7.938   1.864   1.186
  589TIP3   OH2 1646   7.904   2.037   0.972
  589TIP3    H1 1647   7.835   2.080   0.916
  589TIP3    H2 1648   7.975   2.036   0.905
  590TIP3   OH2 1649   7.123   1.635   1.379
  590TIP3    H1 1650   7.059   1.561   1.386
  590TIP3    H2 1651   7.168   1.615   1.295
  591TIP3   OH2 1652   7.525   1.592   1.260
  591TIP3    H1 1653   7.495   1.576   1.350
  591TIP3    H2 1654   7.442   1.573   1.212
  592TIP3   OH2 1655   6.975   1.410   1.419
  592TIP3    H1 1656   6.964   1.315   1.397
  592TIP3    H2 1657   7.006   1.402   1.511
  593TIP3   OH2 1658   7.560   1.298   1.437
  593TIP3    H1 1659   7.576   1.266   1.347
  593TIP3    H2 1660   7.482   1.357   1.428
  594TIP3   OH2 1661   6.160   2.506   0.156
  594TIP3    H1 1662   6.096   2.441   0.123
  594TIP3    H2 1663   6.208   2.453   0.223
  595TIP3   OH2 1664   6.293   2.365   0.348
  595TIP3    H1 1665   6.296   2.287   0.405
  595TIP3    H2 1666   6.351   2.425   0.398
  596TIP3   OH2 1667   8.055   2.779   0.154
  596TIP3    H1 1668   8.059   2.813   0.246
  596TIP3    H2 1669   8.101   2.852   0.108
  597TIP3   OH2 1670   8.062   2.787   0.434
  597TIP3    H1 1671   8.019   2.699   0.427
  597TIP3    H2 1672   8.142   2.760   0.482
  598TIP3   OH2 1673   8.105   2.454   0.996
  598TIP3    H1 1674   8.031   2.460   1.059
  598TIP3    H2 1675   8.144   2.543   1.003
  599TIP3   OH2 1676   7.948   2.541   0.468
  599TIP3    H1 1677   7.878   2.594   0.511
  599TIP3    H2 1678   7.896   2.497   0.396
  600TIP3   OH2 1679   6.494   1.765   0.716
  600TIP3    H1 1680   6.528   1.729   0.631
  600TIP3    H2 1681   6.581   1.778   0.760
  601TIP3   OH2 1682   6.707   1.457   1.396
  601TIP3    H1 1683   6.804   1.448   1.390
  601TIP3    H2 1684   6.683   1.369   1.433
  602TIP3   OH2 1685   6.470   1.420   0.785
  602TIP3    H1 1686   6.480   1.456   0.695
  602TIP3    H2 1687   6.484   1.500   0.840
  603TIP3   OH2 1688   6.707   2.441   1.194
  603TIP3    H1 1689   6.625   2.393   1.170
  603TIP3    H2 1690   6.730   2.400   1.278
  604TIP3   OH2 1691   6.886   2.456   0.736
  604TIP3    H1 1692   6.847   2.535   0.692
  604TIP3    H2 1693   6.976   2.463   0.700
  605TIP3   OH2 1694   7.338   2.708   0.876
  605TIP3    H1 1695   7.384   2.707   0.963
  605TIP3    H2 1696   7.405   2.754   0.820
  606TIP3   OH2 1697   7.514   2.856   0.728
  606TIP3    H1 1698   7.579   2.800   0.683
  606TIP3    H2 1699   7.572   2.909   0.787
  607TIP3   OH2 1700   6.568   2.720   0.753
  607TIP3    H1 1701   6.479   2.757   0.734
  607TIP3    H2 1702   6.571   2.729   0.849
  608TIP3   OH2 1703   6.807   2.697   0.616
  608TIP3    H1 1704   6.720   2.711   0.659
  608TIP3    H2 1705   6.789   2.726   0.524
  609TIP3   OH2 1706   7.229   2.728   0.420
  609TIP3    H1 1707   7.167   2.746   0.347
  609TIP3    H2 1708   7.244   2.817   0.456
  610TIP3   OH2 1709   7.501   2.670   0.460
  610TIP3    H1 1710   7.406   2.671   0.438
  610TIP3    H2 1711   7.535   2.749   0.415
  611TIP3   OH2 1712   7.705   2.870   0.383
  611TIP3    H1 1713   7.697   2.952   0.329
  611TIP3    H2 1714   7.734   2.805   0.315
  612TIP3   OH2 1715   6.476   2.510   0.507
  612TIP3    H1 1716   6.507   2.487   0.597
  612TIP3    H2 1717   6.550   2.470   0.455
  613TIP3   OH2 1718   6.669   2.392   0.363
  613TIP3    H1 1719   6.689   2.303   0.400
  613TIP3    H2 1720   6.760   2.428   0.355
  614TIP3   OH2 1721   6.931   2.486   0.363
  614TIP3    H1 1722   6.987   2.418   0.322
  614TIP3    H2 1723   6.979   2.500   0.446
  615TIP3   OH2 1724   6.266   2.276  -0.084
  615TIP3    H1 1725   6.196   2.233  -0.136
  615TIP3    H2 1726   6.260   2.367  -0.119
  616TIP3   OH2 1727   6.950   1.142   1.405
  616TIP3    H1 1728   6.927   1.058   1.448
  616TIP3    H2 1729   7.037   1.119   1.367
  617TIP3   OH2 1730   7.235   1.124   1.482
  617TIP3    H1 1731   7.301   1.066   1.444
  617TIP3    H2 1732   7.207   1.072   1.560
  618TIP3   OH2 1733   7.987   2.734   0.761
  618TIP3    H1 1734   7.909   2.703   0.709
  618TIP3    H2 1735   7.968   2.830   0.759
  619TIP3   OH2 1736   8.339   2.944   0.658
  619TIP3    H1 1737   8.428   2.934   0.695
  619TIP3    H2 1738   8.311   2.851   0.647
  620TIP3   OH2 1739   8.459   2.354   0.864
  620TIP3    H1 1740   8.453   2.258   0.853
  620TIP3    H2 1741   8.378   2.379   0.814
  621TIP3   OH2 1742   8.506   2.643   0.685
  621TIP3    H1 1743   8.411   2.647   0.664
  621TIP3    H2 1744   8.507   2.658   0.780
  622TIP3   OH2 1745   8.354   2.974   0.223
  622TIP3    H1 1746   8.271   3.024   0.217
  622TIP3    H2 1747   8.378   2.987   0.315
  623TIP3   OH2 1748   0.699   3.425   2.363
  623TIP3    H1 1749   0.678   3.355   2.299
  623TIP3    H2 1750   0.613   3.467   2.377
  624TIP3   OH2 1751   0.383   3.768   2.443
  624TIP3    H1 1752   0.372   3.801   2.352
  624TIP3    H2 1753   0.449   3.831   2.477
  625TIP3   OH2 1754   0.529   3.264   2.662
  625TIP3    H1 1755   0.483   3.252   2.750
  625TIP3    H2 1756   0.594   3.335   2.688
  626TIP3   OH2 1757   0.424   3.484   2.440
  626TIP3    H1 1758   0.334   3.517   2.421
  626TIP3    H2 1759   0.462   3.573   2.457
  627TIP3   OH2 1760   1.949   3.175   1.280
  627TIP3    H1 1761   1.944   3.126   1.363
  627TIP3    H2 1762   1.970   3.264   1.314
  628TIP3   OH2 1763   1.592   3.659   1.286
  628TIP3    H1 1764   1.636   3.581   1.248
  628TIP3    H2 1765   1.576   3.632   1.377
  629TIP3   OH2 1766   1.548   3.147   1.634
  629TIP3    H1 1767   1.574   3.099   1.555
  629TIP3    H2 1768   1.634   3.179   1.666
  630TIP3   OH2 1769   2.522   2.441   1.638
  630TIP3    H1 1770   2.541   2.517   1.696
  630TIP3    H2 1771   2.522   2.483   1.551
  631TIP3   OH2 1772   2.575   2.643   1.814
  631TIP3    H1 1773   2.487   2.684   1.798
  631TIP3    H2 1774   2.582   2.660   1.910
  632TIP3   OH2 1775   1.388   3.052   1.968
  632TIP3    H1 1776   1.298   3.089   1.975
  632TIP3    H2 1777   1.442   3.131   1.953
  633TIP3   OH2 1778   1.180   3.232   1.956
  633TIP3    H1 1779   1.155   3.322   1.923
  633TIP3    H2 1780   1.109   3.220   2.022
  634TIP3   OH2 1781   2.018   3.434   1.436
  634TIP3    H1 1782   1.931   3.426   1.482
  634TIP3    H2 1783   2.010   3.524   1.399
  635TIP3   OH2 1784   2.313   2.324   1.782
  635TIP3    H1 1785   2.248   2.384   1.821
  635TIP3    H2 1786   2.368   2.383   1.728
  636TIP3   OH2 1787   1.734   3.479   1.130
  636TIP3    H1 1788   1.812   3.424   1.130
  636TIP3    H2 1789   1.765   3.554   1.074
  637TIP3   OH2 1790   2.246   3.356   1.790
  637TIP3    H1 1791   2.235   3.277   1.733
  637TIP3    H2 1792   2.225   3.429   1.728
  638TIP3   OH2 1793   2.448   2.995   1.630
  638TIP3    H1 1794   2.362   3.041   1.641
  638TIP3    H2 1795   2.469   3.018   1.537
  639TIP3   OH2 1796   1.781   3.430   1.564
  639TIP3    H1 1797   1.762   3.515   1.608
  639TIP3    H2 1798   1.767   3.364   1.634
  640TIP3   OH2 1799   1.386   3.349   2.110
  640TIP3    H1 1800   1.334   3.417   2.159
  640TIP3    H2 1801   1.315   3.305   2.061
  641TIP3   OH2 1802   1.139   2.942   2.217
  641TIP3    H1 1803   1.140   3.025   2.267
  641TIP3    H2 1804   1.049   2.909   2.234
  642TIP3   OH2 1805   1.185   3.522   2.195
  642TIP3    H1 1806   1.150   3.524   2.104
  642TIP3    H2 1807   1.106   3.498   2.248
  643TIP3   OH2 1808   2.484   3.694   1.832
  643TIP3    H1 1809   2.478   3.598   1.847
  643TIP3    H2 1810   2.399   3.722   1.875
  644TIP3   OH2 1811   1.589   3.486   1.967
  644TIP3    H1 1812   1.596   3.578   2.001
  644TIP3    H2 1813   1.518   3.449   2.024
  645TIP3   OH2 1814   0.988   3.236   2.144
  645TIP3    H1 1815   1.033   3.228   2.230
  645TIP3    H2 1816   0.904   3.190   2.158
  646TIP3   OH2 1817   1.848   2.832   2.264
  646TIP3    H1 1818   1.829   2.758   2.326
  646TIP3    H2 1819   1.944   2.839   2.272
  647TIP3   OH2 1820   1.906   2.846   1.826
  647TIP3    H1 1821   1.861   2.765   1.799
  647TIP3    H2 1822   1.875   2.853   1.917
  648TIP3   OH2 1823   2.188   4.033   1.916
  648TIP3    H1 1824   2.167   4.077   1.832
  648TIP3    H2 1825   2.228   4.105   1.968
  649TIP3   OH2 1826   1.125   3.170   2.372
  649TIP3    H1 1827   1.212   3.196   2.410
  649TIP3    H2 1828   1.069   3.182   2.450
  650TIP3   OH2 1829   2.219   3.141   1.626
  650TIP3    H1 1830   2.242   3.189   1.544
  650TIP3    H2 1831   2.129   3.108   1.605
  651TIP3   OH2 1832   1.687   3.213   1.989
  651TIP3    H1 1833   1.726   3.192   2.075
  651TIP3    H2 1834   1.670   3.309   1.997
  652TIP3   OH2 1835   1.607   2.955   2.311
  652TIP3    H1 1836   1.559   2.901   2.246
  652TIP3    H2 1837   1.698   2.929   2.285
  653TIP3   OH2 1838   1.864   3.464   1.888
  653TIP3    H1 1839   1.769   3.478   1.896
  653TIP3    H2 1840   1.897   3.521   1.961
  654TIP3   OH2 1841   2.497   3.400   1.876
  654TIP3    H1 1842   2.398   3.399   1.871
  654TIP3    H2 1843   2.519   3.374   1.784
  655TIP3   OH2 1844   1.987   3.023   1.543
  655TIP3    H1 1845   1.927   3.006   1.617
  655TIP3    H2 1846   2.034   2.937   1.535
  656TIP3   OH2 1847   1.370   3.561   1.773
  656TIP3    H1 1848   1.401   3.637   1.719
  656TIP3    H2 1849   1.451   3.538   1.821
  657TIP3   OH2 1850   1.792   3.194   1.732
  657TIP3    H1 1851   1.759   3.198   1.824
  657TIP3    H2 1852   1.886   3.175   1.748
  658TIP3   OH2 1853   2.009   3.730   1.766
  658TIP3    H1 1854   1.924   3.683   1.763
  658TIP3    H2 1855   1.993   3.802   1.702
  659TIP3   OH2 1856   0.802   3.426   1.940
  659TIP3    H1 1857   0.859   3.349   1.941
  659TIP3    H2 1858   0.852   3.491   1.990
  660TIP3   OH2 1859   1.934   2.429   1.958
  660TIP3    H1 1860   1.996   2.467   2.022
  660TIP3    H2 1861   1.904   2.350   2.004
  661TIP3   OH2 1862   1.746   2.635   2.077
  661TIP3    H1 1863   1.768   2.716   2.127
  661TIP3    H2 1864   1.832   2.590   2.074
  662TIP3   OH2 1865   2.075   2.768   1.503
  662TIP3    H1 1866   2.027   2.692   1.466
  662TIP3    H2 1867   2.159   2.724   1.526
  663TIP3   OH2 1868   2.026   3.703   1.362
  663TIP3    H1 1869   1.983   3.753   1.290
  663TIP3    H2 1870   2.120   3.727   1.343
  664TIP3   OH2 1871   0.796   3.735   2.347
  664TIP3    H1 1872   0.882   3.740   2.394
  664TIP3    H2 1873   0.786   3.639   2.335
  665TIP3   OH2 1874   1.279   3.706   2.393
  665TIP3    H1 1875   1.375   3.697   2.398
  665TIP3    H2 1876   1.260   3.653   2.313
  666TIP3   OH2 1877   1.921   3.602   2.115
  666TIP3    H1 1878   1.910   3.540   2.190
  666TIP3    H2 1879   1.993   3.661   2.148
  667TIP3   OH2 1880   0.915   3.131   2.557
  667TIP3    H1 1881   0.961   3.045   2.555
  667TIP3    H2 1882   0.850   3.120   2.487
  668TIP3   OH2 1883   1.535   3.227   2.319
  668TIP3    H1 1884   1.497   3.242   2.230
  668TIP3    H2 1885   1.569   3.136   2.313
  669TIP3   OH2 1886   2.022   3.233   1.910
  669TIP3    H1 1887   2.103   3.280   1.883
  669TIP3    H2 1888   1.959   3.308   1.912
  670TIP3   OH2 1889   1.051   2.868   2.549
  670TIP3    H1 1890   1.130   2.815   2.529
  670TIP3    H2 1891   1.079   2.910   2.633
  671TIP3   OH2 1892   1.402   2.766   2.203
  671TIP3    H1 1893   1.348   2.844   2.227
  671TIP3    H2 1894   1.448   2.797   2.122
  672TIP3   OH2 1895   1.899   3.165   2.322
  672TIP3    H1 1896   1.977   3.147   2.268
  672TIP3    H2 1897   1.900   3.093   2.387
  673TIP3   OH2 1898   1.524   2.558   2.327
  673TIP3    H1 1899   1.524   2.482   2.268
  673TIP3    H2 1900   1.489   2.629   2.268
  674TIP3   OH2 1901   1.581   2.880   2.034
  674TIP3    H1 1902   1.635   2.863   1.955
  674TIP3    H2 1903   1.515   2.944   1.999
  675TIP3   OH2 1904   2.126   2.838   2.383
  675TIP3    H1 1905   2.170   2.755   2.358
  675TIP3    H2 1906   2.180   2.902   2.334
  676TIP3   OH2 1907   2.153   3.108   2.125
  676TIP3    H1 1908   2.092   3.133   2.052
  676TIP3    H2 1909   2.237   3.107   2.075
  677TIP3   OH2 1910   1.371   2.695   2.531
  677TIP3    H1 1911   1.323   2.618   2.568
  677TIP3    H2 1912   1.414   2.657   2.452
  678TIP3   OH2 1913   1.778   2.616   2.413
  678TIP3    H1 1914   1.763   2.603   2.509
  678TIP3    H2 1915   1.689   2.592   2.380
  679TIP3   OH2 1916   1.981   2.513   2.247
  679TIP3    H1 1917   1.924   2.546   2.319
  679TIP3    H2 1918   2.070   2.525   2.282
  680TIP3   OH2 1919   2.255   2.496   2.419
  680TIP3    H1 1920   2.245   2.401   2.438
  680TIP3    H2 1921   2.238   2.538   2.506
  681TIP3   OH2 1922   1.270   2.472   2.643
  681TIP3    H1 1923   1.229   2.395   2.602
  681TIP3    H2 1924   1.280   2.440   2.735
  682TIP3   OH2 1925   1.745   2.124   2.459
  682TIP3    H1 1926   1.823   2.064   2.453
  682TIP3    H2 1927   1.711   2.118   2.370
  683TIP3   OH2 1928   1.802   2.336   2.614
  683TIP3    H1 1929   1.782   2.265   2.549
  683TIP3    H2 1930   1.724   2.394   2.603
  684TIP3   OH2 1931   2.277   3.799   1.318
  684TIP3    H1 1932   2.300   3.833   1.406
  684TIP3    H2 1933   2.332   3.854   1.260
  685TIP3   OH2 1934   2.308   3.822   1.596
  685TIP3    H1 1935   2.265   3.734   1.597
  685TIP3    H2 1936   2.379   3.806   1.661
  686TIP3   OH2 1937   2.357   3.496   2.175
  686TIP3    H1 1938   2.278   3.505   2.232
  686TIP3    H2 1939   2.393   3.587   2.177
  687TIP3   OH2 1940   2.351   3.270   1.429
  687TIP3    H1 1941   2.402   3.214   1.368
  687TIP3    H2 1942   2.335   3.350   1.375
  688TIP3   OH2 1943   2.184   3.569   1.627
  688TIP3    H1 1944   2.116   3.617   1.679
  688TIP3    H2 1945   2.129   3.524   1.559
  689TIP3   OH2 1946   2.399   3.159   2.001
  689TIP3    H1 1947   2.471   3.092   1.995
  689TIP3    H2 1948   2.430   3.230   1.943
  690TIP3   OH2 1949   2.571   2.954   2.028
  690TIP3    H1 1950   2.500   2.892   2.054
  690TIP3    H2 1951   2.649   2.896   2.041
  691TIP3   OH2 1952   2.291   2.611   1.533
  691TIP3    H1 1953   2.376   2.646   1.498
  691TIP3    H2 1954   2.297   2.652   1.623
  692TIP3   OH2 1955   2.326   2.763   1.750
  692TIP3    H1 1956   2.296   2.755   1.844
  692TIP3    H2 1957   2.350   2.857   1.743
  693TIP3   OH2 1958   2.789   2.361   2.323
  693TIP3    H1 1959   2.846   2.294   2.280
  693TIP3    H2 1960   2.762   2.417   2.248
  694TIP3   OH2 1961   2.658   2.509   2.132
  694TIP3    H1 1962   2.576   2.545   2.172
  694TIP3    H2 1963   2.622   2.437   2.076
  695TIP3   OH2 1964   1.862   3.666   0.982
  695TIP3    H1 1965   1.909   3.657   0.897
  695TIP3    H2 1966   1.911   3.737   1.027
  696TIP3   OH2 1967   0.969   3.460   2.367
  696TIP3    H1 1968   0.873   3.441   2.361
  696TIP3    H2 1969   0.982   3.469   2.462
  697TIP3   OH2 1970   1.139   3.499   1.915
  697TIP3    H1 1971   1.088   3.566   1.866
  697TIP3    H2 1972   1.227   3.518   1.874
  698TIP3   OH2 1973   1.599   3.749   2.058
  698TIP3    H1 1974   1.630   3.779   2.146
  698TIP3    H2 1975   1.655   3.805   2.000
  699TIP3   OH2 1976   1.768   3.894   1.894
  699TIP3    H1 1977   1.858   3.860   1.890
  699TIP3    H2 1978   1.773   3.956   1.971
  700TIP3   OH2 1979   2.563   2.277   2.010
  700TIP3    H1 1980   2.473   2.273   1.972
  700TIP3    H2 1981   2.589   2.182   2.002
  701TIP3   OH2 1982   0.814   3.769   1.918
  701TIP3    H1 1983   0.722   3.801   1.913
  701TIP3    H2 1984   0.835   3.789   2.010
  702TIP3   OH2 1985   1.065   3.745   1.795
  702TIP3    H1 1986   0.979   3.762   1.838
  702TIP3    H2 1987   1.049   3.772   1.703
  703TIP3   OH2 1988   1.484   3.770   1.591
  703TIP3    H1 1989   1.412   3.790   1.527
  703TIP3    H2 1990   1.496   3.858   1.633
  704TIP3   OH2 1991   1.749   3.703   1.630
  704TIP3    H1 1992   1.654   3.723   1.619
  704TIP3    H2 1993   1.789   3.789   1.609
  705TIP3   OH2 1994   1.962   3.905   1.559
  705TIP3    H1 1995   1.945   3.989   1.511
  705TIP3    H2 1996   1.980   3.843   1.485
  706TIP3   OH2 1997   1.223   3.568   1.531
  706TIP3    H1 1998   1.231   3.492   1.468
  706TIP3    H2 1999   1.267   3.535   1.612
  707TIP3   OH2 2000   1.993   3.629   0.735
  707TIP3    H1 2001   1.992   3.537   0.704
  707TIP3    H2 2002   1.955   3.674   0.657
  708TIP3   OH2 2003   1.463   2.187   2.660
  708TIP3    H1 2004   1.551   2.157   2.633
  708TIP3    H2 2005   1.438   2.117   2.725
  709TIP3   OH2 2006   2.291   2.218   2.444
  709TIP3    H1 2007   2.314   2.191   2.535
  709TIP3    H2 2008   2.379   2.222   2.401
  710TIP3   OH2 2009   2.241   3.772   1.931
  710TIP3    H1 2010   2.158   3.742   1.889
  710TIP3    H2 2011   2.224   3.869   1.932
  711TIP3   OH2 2012   3.499   3.150   0.710
  711TIP3    H1 2013   3.474   3.242   0.689
  711TIP3    H2 2014   3.427   3.104   0.662
  712TIP3   OH2 2015   3.487   3.149   1.081
  712TIP3    H1 2016   3.530   3.122   1.164
  712TIP3    H2 2017   3.470   3.064   1.037
  713TIP3   OH2 2018   2.855   3.047   1.421
  713TIP3    H1 2019   2.859   2.981   1.494
  713TIP3    H2 2020   2.855   3.130   1.472
  714TIP3   OH2 2021   3.739   3.449   0.761
  714TIP3    H1 2022   3.731   3.382   0.830
  714TIP3    H2 2023   3.768   3.527   0.811
  715TIP3   OH2 2024   2.768   3.454   1.172
  715TIP3    H1 2025   2.768   3.358   1.182
  715TIP3    H2 2026   2.864   3.471   1.168
  716TIP3   OH2 2027   2.569   2.963   1.130
  716TIP3    H1 2028   2.596   2.874   1.161
  716TIP3    H2 2029   2.575   2.954   1.034
  717TIP3   OH2 2030   3.385   3.913   0.775
  717TIP3    H1 2031   3.436   3.842   0.730
  717TIP3    H2 2032   3.385   3.882   0.867
  718TIP3   OH2 2033   3.295   3.356   1.117
  718TIP3    H1 2034   3.354   3.293   1.072
  718TIP3    H2 2035   3.364   3.413   1.156
  719TIP3   OH2 2036   4.306   2.697   1.125
  719TIP3    H1 2037   4.336   2.778   1.171
  719TIP3    H2 2038   4.331   2.718   1.033
  720TIP3   OH2 2039   3.701   2.874   1.165
  720TIP3    H1 2040   3.752   2.792   1.184
  720TIP3    H2 2041   3.680   2.861   1.071
  721TIP3   OH2 2042   3.039   2.539   1.131
  721TIP3    H1 2043   3.021   2.604   1.060
  721TIP3    H2 2044   3.009   2.457   1.091
  722TIP3   OH2 2045   3.737   2.625   0.752
  722TIP3    H1 2046   3.810   2.609   0.816
  722TIP3    H2 2047   3.788   2.662   0.678
  723TIP3   OH2 2048   2.685   2.738   1.229
  723TIP3    H1 2049   2.761   2.715   1.286
  723TIP3    H2 2050   2.702   2.676   1.155
  724TIP3   OH2 2051   3.119   2.938   1.068
  724TIP3    H1 2052   3.215   2.913   1.056
  724TIP3    H2 2053   3.079   2.862   1.020
  725TIP3   OH2 2054   4.381   2.900   1.297
  725TIP3    H1 2055   4.299   2.952   1.278
  725TIP3    H2 2056   4.398   2.928   1.389
  726TIP3   OH2 2057   3.045   2.521   1.559
  726TIP3    H1 2058   2.977   2.556   1.499
  726TIP3    H2 2059   2.999   2.533   1.645
  727TIP3   OH2 2060   3.391   3.367   0.574
  727TIP3    H1 2061   3.355   3.348   0.486
  727TIP3    H2 2062   3.354   3.455   0.592
  728TIP3   OH2 2063   3.952   2.628   0.919
  728TIP3    H1 2064   3.954   2.574   0.999
  728TIP3    H2 2065   4.010   2.702   0.943
  729TIP3   OH2 2066   2.910   2.641   1.351
  729TIP3    H1 2067   2.962   2.719   1.372
  729TIP3    H2 2068   2.961   2.600   1.277
  730TIP3   OH2 2069   2.978   3.478   1.452
  730TIP3    H1 2070   2.957   3.563   1.409
  730TIP3    H2 2071   2.900   3.470   1.512
  731TIP3   OH2 2072   2.366   3.184   0.703
  731TIP3    H1 2073   2.383   3.189   0.608
  731TIP3    H2 2074   2.410   3.265   0.735
  732TIP3   OH2 2075   3.813   3.691   0.931
  732TIP3    H1 2076   3.723   3.685   0.970
  732TIP3    H2 2077   3.807   3.778   0.885
  733TIP3   OH2 2078   4.101   2.597   1.292
  733TIP3    H1 2079   4.015   2.631   1.263
  733TIP3    H2 2080   4.162   2.628   1.221
  734TIP3   OH2 2081   3.405   2.242   1.273
  734TIP3    H1 2082   3.397   2.146   1.294
  734TIP3    H2 2083   3.325   2.276   1.318
  735TIP3   OH2 2084   3.519   3.741   0.608
  735TIP3    H1 2085   3.568   3.660   0.584
  735TIP3    H2 2086   3.578   3.808   0.566
  736TIP3   OH2 2087   3.656   3.526   0.509
  736TIP3    H1 2088   3.625   3.447   0.463
  736TIP3    H2 2089   3.690   3.488   0.593
  737TIP3   OH2 2090   4.039   3.609   1.275
  737TIP3    H1 2091   4.030   3.532   1.215
  737TIP3    H2 2092   4.023   3.684   1.213
  738TIP3   OH2 2093   3.335   3.016   0.538
  738TIP3    H1 2094   3.251   3.058   0.512
  738TIP3    H2 2095   3.374   2.996   0.452
  739TIP3   OH2 2096   3.302   2.789   0.359
  739TIP3    H1 2097   3.384   2.839   0.344
  739TIP3    H2 2098   3.309   2.723   0.289
  740TIP3   OH2 2099   4.234   3.241   1.116
  740TIP3    H1 2100   4.153   3.296   1.123
  740TIP3    H2 2101   4.265   3.266   1.027
  741TIP3   OH2 2102   3.677   3.085   0.509
  741TIP3    H1 2103   3.624   3.111   0.587
  741TIP3    H2 2104   3.762   3.058   0.552
  742TIP3   OH2 2105   3.914   3.126   1.411
  742TIP3    H1 2106   3.913   3.209   1.463
  742TIP3    H2 2107   3.829   3.133   1.365
  743TIP3   OH2 2108   2.905   3.072   0.922
  743TIP3    H1 2109   2.871   3.022   0.846
  743TIP3    H2 2110   2.988   3.026   0.941
  744TIP3   OH2 2111   3.035   3.487   1.071
  744TIP3    H1 2112   3.025   3.452   0.981
  744TIP3    H2 2113   3.127   3.461   1.093
  745TIP3   OH2 2114   3.571   3.690   1.050
  745TIP3    H1 2115   3.557   3.771   1.101
  745TIP3    H2 2116   3.557   3.619   1.115
  746TIP3   OH2 2117   3.183   3.607   1.598
  746TIP3    H1 2118   3.122   3.670   1.643
  746TIP3    H2 2119   3.119   3.553   1.547
  747TIP3   OH2 2120   3.530   2.940   0.331
  747TIP3    H1 2121   3.584   3.004   0.383
  747TIP3    H2 2122   3.555   2.964   0.239
  748TIP3   OH2 2123   2.930   3.172   1.685
  748TIP3    H1 2124   2.941   3.258   1.731
  748TIP3    H2 2125   2.839   3.150   1.714
  749TIP3   OH2 2126   3.257   3.626   0.607
  749TIP3    H1 2127   3.335   3.680   0.628
  749TIP3    H2 2128   3.198   3.690   0.566
  750TIP3   OH2 2129   2.979   3.780   1.682
  750TIP3    H1 2130   2.943   3.777   1.592
  750TIP3    H2 2131   2.901   3.758   1.737
  751TIP3   OH2 2132   4.038   2.186   0.372
  751TIP3    H1 2133   3.958   2.200   0.427
  751TIP3    H2 2134   4.046   2.272   0.328
  752TIP3   OH2 2135   2.771   2.918   0.709
  752TIP3    H1 2136   2.703   2.986   0.697
  752TIP3    H2 2137   2.719   2.844   0.745
  753TIP3   OH2 2138   3.832   3.555  -0.078
  753TIP3    H1 2139   3.841   3.651  -0.093
  753TIP3    H2 2140   3.923   3.524  -0.088
  754TIP3   OH2 2141   2.560   3.305   1.630
  754TIP3    H1 2142   2.489   3.286   1.565
  754TIP3    H2 2143   2.588   3.217   1.659
  755TIP3   OH2 2144   2.413   3.500   1.267
  755TIP3    H1 2145   2.509   3.505   1.257
  755TIP3    H2 2146   2.394   3.581   1.317
  756TIP3   OH2 2147   4.278   3.950   1.318
  756TIP3    H1 2148   4.275   3.854   1.331
  756TIP3    H2 2149   4.194   3.977   1.363
  757TIP3   OH2 2150   3.384   3.739   1.453
  757TIP3    H1 2151   3.385   3.832   1.485
  757TIP3    H2 2152   3.313   3.701   1.509
  758TIP3   OH2 2153   3.137   3.866   0.404
  758TIP3    H1 2154   3.097   3.851   0.316
  758TIP3    H2 2155   3.111   3.957   0.425
  759TIP3   OH2 2156   2.581   3.720   0.786
  759TIP3    H1 2157   2.628   3.709   0.871
  759TIP3    H2 2158   2.515   3.648   0.793
  760TIP3   OH2 2159   3.336   3.762   0.060
  760TIP3    H1 2160   3.397   3.707   0.006
  760TIP3    H2 2161   3.385   3.770   0.144
  761TIP3   OH2 2162   3.395   3.821   0.326
  761TIP3    H1 2163   3.306   3.827   0.366
  761TIP3    H2 2164   3.445   3.775   0.396
  762TIP3   OH2 2165   4.168   3.084   1.594
  762TIP3    H1 2166   4.089   3.100   1.540
  762TIP3    H2 2167   4.182   2.988   1.582
  763TIP3   OH2 2168   2.765   3.489   1.621
  763TIP3    H1 2169   2.813   3.478   1.705
  763TIP3    H2 2170   2.689   3.428   1.631
  764TIP3   OH2 2171   3.159   2.319   1.399
  764TIP3    H1 2172   3.071   2.284   1.376
  764TIP3    H2 2173   3.133   2.397   1.451
  765TIP3   OH2 2174   3.695   2.432   1.596
  765TIP3    H1 2175   3.765   2.405   1.659
  765TIP3    H2 2176   3.613   2.410   1.643
  766TIP3   OH2 2177   3.932   2.858   1.511
  766TIP3    H1 2178   3.889   2.854   1.599
  766TIP3    H2 2179   3.915   2.949   1.482
  767TIP3   OH2 2180   3.600   2.991   0.076
  767TIP3    H1 2181   3.545   2.987  -0.003
  767TIP3    H2 2182   3.671   3.052   0.048
  768TIP3   OH2 2183   2.976   2.719   0.932
  768TIP3    H1 2184   2.881   2.695   0.941
  768TIP3    H2 2185   2.998   2.674   0.847
  769TIP3   OH2 2186   3.468   2.805   0.659
  769TIP3    H1 2187   3.414   2.878   0.621
  769TIP3    H2 2188   3.519   2.776   0.581
  770TIP3   OH2 2189   3.640   3.082   1.747
  770TIP3    H1 2190   3.622   3.010   1.812
  770TIP3    H2 2191   3.733   3.102   1.768
  771TIP3   OH2 2192   3.623   2.833   0.903
  771TIP3    H1 2193   3.570   2.866   0.827
  771TIP3    H2 2194   3.656   2.750   0.863
  772TIP3   OH2 2195   2.909   2.860   1.631
  772TIP3    H1 2196   2.921   2.923   1.704
  772TIP3    H2 2197   2.899   2.776   1.680
  773TIP3   OH2 2198   3.642   3.082   1.322
  773TIP3    H1 2199   3.671   3.003   1.271
  773TIP3    H2 2200   3.607   3.041   1.403
  774TIP3   OH2 2201   3.304   2.552   0.998
  774TIP3    H1 2202   3.226   2.534   1.052
  774TIP3    H2 2203   3.376   2.537   1.061
  775TIP3   OH2 2204   2.734   2.586   1.008
  775TIP3    H1 2205   2.644   2.603   0.977
  775TIP3    H2 2206   2.751   2.500   0.963
  776TIP3   OH2 2207   3.041   2.601   0.689
  776TIP3    H1 2208   3.139   2.614   0.686
  776TIP3    H2 2209   3.009   2.655   0.617
  777TIP3   OH2 2210   3.796   2.617   1.200
  777TIP3    H1 2211   3.759   2.625   1.291
  777TIP3    H2 2212   3.737   2.551   1.161
  778TIP3   OH2 2213   3.964   4.303   1.416
  778TIP3    H1 2214   3.962   4.327   1.321
  778TIP3    H2 2215   4.040   4.354   1.448
  779TIP3   OH2 2216   2.927   3.408   1.840
  779TIP3    H1 2217   3.005   3.443   1.888
  779TIP3    H2 2218   2.860   3.412   1.912
  780TIP3   OH2 2219   3.387   2.864   1.093
  780TIP3    H1 2220   3.460   2.831   1.038
  780TIP3    H2 2221   3.408   2.826   1.180
  781TIP3   OH2 2222   3.359   2.778   1.385
  781TIP3    H1 2223   3.296   2.796   1.455
  781TIP3    H2 2224   3.441   2.812   1.426
  782TIP3   OH2 2225   3.102   3.172   0.482
  782TIP3    H1 2226   3.049   3.089   0.481
  782TIP3    H2 2227   3.089   3.201   0.576
  783TIP3   OH2 2228   4.005   3.391   1.111
  783TIP3    H1 2229   4.030   3.440   1.029
  783TIP3    H2 2230   3.919   3.352   1.087
  784TIP3   OH2 2231   3.592   2.466   0.321
  784TIP3    H1 2232   3.495   2.481   0.312
  784TIP3    H2 2233   3.622   2.556   0.342
  785TIP3   OH2 2234   3.498   3.470   1.481
  785TIP3    H1 2235   3.525   3.457   1.573
  785TIP3    H2 2236   3.463   3.560   1.482
  786TIP3   OH2 2237   3.639   2.709   0.438
  786TIP3    H1 2238   3.733   2.723   0.460
  786TIP3    H2 2239   3.616   2.791   0.389
  787TIP3   OH2 2240   2.838   3.171   1.166
  787TIP3    H1 2241   2.829   3.148   1.071
  787TIP3    H2 2242   2.791   3.099   1.210
  788TIP3   OH2 2243   3.254   3.312   0.312
  788TIP3    H1 2244   3.205   3.398   0.313
  788TIP3    H2 2245   3.197   3.259   0.371
  789TIP3   OH2 2246   2.679   3.091   1.767
  789TIP3    H1 2247   2.697   3.083   1.862
  789TIP3    H2 2248   2.603   3.031   1.754
  790TIP3   OH2 2249   3.398   3.209   1.790
  790TIP3    H1 2250   3.342   3.138   1.754
  790TIP3    H2 2251   3.487   3.179   1.763
  791TIP3   OH2 2252   3.663   3.726   1.374
  791TIP3    H1 2253   3.566   3.731   1.384
  791TIP3    H2 2254   3.692   3.781   1.450
  792TIP3   OH2 2255   4.073   2.802   0.284
  792TIP3    H1 2256   4.011   2.757   0.222
  792TIP3    H2 2257   4.072   2.890   0.241
  793TIP3   OH2 2258   4.290   3.658   1.364
  793TIP3    H1 2259   4.192   3.655   1.355
  793TIP3    H2 2260   4.315   3.629   1.273
  794TIP3   OH2 2261   3.778   3.621   0.188
  794TIP3    H1 2262   3.745   3.551   0.245
  794TIP3    H2 2263   3.779   3.579   0.099
  795TIP3   OH2 2264   3.769   3.253   1.033
  795TIP3    H1 2265   3.676   3.229   1.044
  795TIP3    H2 2266   3.804   3.174   0.985
  796TIP3   OH2 2267   2.892   3.475   0.778
  796TIP3    H1 2268   2.900   3.559   0.728
  796TIP3    H2 2269   2.796   3.469   0.786
  797TIP3   OH2 2270   3.037   3.244   0.734
  797TIP3    H1 2271   3.006   3.337   0.740
  797TIP3    H2 2272   2.992   3.205   0.810
  798TIP3   OH2 2273   3.162   3.824   1.250
  798TIP3    H1 2274   3.201   3.898   1.200
  798TIP3    H2 2275   3.239   3.792   1.300
  799TIP3   OH2 2276   2.818   3.717   0.636
  799TIP3    H1 2277   2.730   3.726   0.678
  799TIP3    H2 2278   2.848   3.810   0.636
  800TIP3   OH2 2279   3.553   3.456   1.209
  800TIP3    H1 2280   3.546   3.454   1.307
  800TIP3    H2 2281   3.637   3.410   1.196
  801TIP3   OH2 2282   3.525   3.346   0.091
  801TIP3    H1 2283   3.571   3.325   0.175
  801TIP3    H2 2284   3.433   3.330   0.114
  802TIP3   OH2 2285   3.801   3.994   1.258
  802TIP3    H1 2286   3.722   3.939   1.248
  802TIP3    H2 2287   3.788   4.060   1.187
  803TIP3   OH2 2288   3.867   3.832  -0.094
  803TIP3    H1 2289   3.916   3.906  -0.133
  803TIP3    H2 2290   3.788   3.879  -0.060
  804TIP3   OH2 2291   2.887   2.600   1.777
  804TIP3    H1 2292   2.793   2.611   1.797
  804TIP3    H2 2293   2.915   2.541   1.849
  805TIP3   OH2 2294   3.684   3.286   0.315
  805TIP3    H1 2295   3.678   3.217   0.385
  805TIP3    H2 2296   3.780   3.285   0.297
  806TIP3   OH2 2297   2.605   3.687   1.409
  806TIP3    H1 2298   2.657   3.613   1.443
  806TIP3    H2 2299   2.626   3.756   1.473
  807TIP3   OH2 2300   2.886   3.337   0.092
  807TIP3    H1 2301   2.915   3.254   0.052
  807TIP3    H2 2302   2.877   3.316   0.187
  808TIP3   OH2 2303   2.848   3.333   0.367
  808TIP3    H1 2304   2.920   3.311   0.428
  808TIP3    H2 2305   2.853   3.431   0.365
  809TIP3   OH2 2306   3.712   2.670   1.459
  809TIP3    H1 2307   3.795   2.710   1.492
  809TIP3    H2 2308   3.705   2.589   1.514
  810TIP3   OH2 2309   3.589   2.431   0.611
  810TIP3    H1 2310   3.597   2.458   0.517
  810TIP3    H2 2311   3.636   2.505   0.656
  811TIP3   OH2 2312   3.102   3.534   0.311
  811TIP3    H1 2313   3.017   3.568   0.345
  811TIP3    H2 2314   3.125   3.603   0.247
  812TIP3   OH2 2315   3.309   2.590   0.721
  812TIP3    H1 2316   3.371   2.665   0.702
  812TIP3    H2 2317   3.312   2.588   0.819
  813TIP3   OH2 2318   3.553   2.917   1.537
  813TIP3    H1 2319   3.578   2.973   1.614
  813TIP3    H2 2320   3.615   2.843   1.547
  814TIP3   OH2 2321   3.446   2.330   0.830
  814TIP3    H1 2322   3.444   2.404   0.893
  814TIP3    H2 2323   3.499   2.370   0.757
  815TIP3   OH2 2324   2.842   3.606   0.378
  815TIP3    H1 2325   2.815   3.676   0.314
  815TIP3    H2 2326   2.827   3.652   0.464
  816TIP3   OH2 2327   4.202   2.818   1.513
  816TIP3    H1 2328   4.104   2.813   1.518
  816TIP3    H2 2329   4.217   2.782   1.424
  817TIP3   OH2 2330   3.853   3.012   0.902
  817TIP3    H1 2331   3.780   2.949   0.914
  817TIP3    H2 2332   3.927   2.967   0.948
  818TIP3   OH2 2333   2.573   3.310   0.387
  818TIP3    H1 2334   2.661   3.351   0.390
  818TIP3    H2 2335   2.595   3.223   0.351
  819TIP3   OH2 2336   3.821   3.963   0.852
  819TIP3    H1 2337   3.778   4.011   0.777
  819TIP3    H2 2338   3.915   3.983   0.831
  820TIP3   OH2 2339   2.895   2.230   1.377
  820TIP3    H1 2340   2.833   2.180   1.321
  820TIP3    H2 2341   2.908   2.165   1.450
  821TIP3   OH2 2342   2.444   3.455   0.765
  821TIP3    H1 2343   2.362   3.489   0.804
  821TIP3    H2 2344   2.433   3.488   0.674
  822TIP3   OH2 2345   2.590   3.989   1.827
  822TIP3    H1 2346   2.675   3.990   1.877
  822TIP3    H2 2347   2.567   3.895   1.830
  823TIP3   OH2 2348   3.079   3.963   1.875
  823TIP3    H1 2349   3.173   3.943   1.882
  823TIP3    H2 2350   3.054   3.907   1.799
  824TIP3   OH2 2351   3.060   3.535   0.011
  824TIP3    H1 2352   2.997   3.471   0.049
  824TIP3    H2 2353   3.140   3.482   0.001
  825TIP3   OH2 2354   3.716   3.864   1.607
  825TIP3    H1 2355   3.706   3.796   1.677
  825TIP3    H2 2356   3.792   3.917   1.638
  826TIP3   OH2 2357   3.506   3.593  -0.074
  826TIP3    H1 2358   3.530   3.509  -0.032
  826TIP3    H2 2359   3.565   3.596  -0.150
  827TIP3   OH2 2360   2.725   3.402   2.030
  827TIP3    H1 2361   2.738   3.306   2.038
  827TIP3    H2 2362   2.636   3.406   1.990
  828TIP3   OH2 2363   3.334   3.487   1.804
  828TIP3    H1 2364   3.291   3.503   1.718
  828TIP3    H2 2365   3.364   3.394   1.797
  829TIP3   OH2 2366   3.222   3.270   0.048
  829TIP3    H1 2367   3.234   3.282   0.144
  829TIP3    H2 2368   3.193   3.178   0.042
  830TIP3   OH2 2369   3.824   3.490   1.408
  830TIP3    H1 2370   3.898   3.535   1.365
  830TIP3    H2 2371   3.754   3.557   1.398
  831TIP3   OH2 2372   2.840   3.125   2.011
  831TIP3    H1 2373   2.913   3.063   2.004
  831TIP3    H2 2374   2.859   3.166   2.098
  832TIP3   OH2 2375   2.976   2.936   0.499
  832TIP3    H1 2376   2.927   2.902   0.575
  832TIP3    H2 2377   2.958   2.874   0.426
  833TIP3   OH2 2378   3.189   3.030   1.675
  833TIP3    H1 2379   3.109   3.071   1.714
  833TIP3    H2 2380   3.188   3.072   1.589
  834TIP3   OH2 2381   3.691   3.419   1.808
  834TIP3    H1 2382   3.776   3.408   1.763
  834TIP3    H2 2383   3.697   3.353   1.880
  835TIP3   OH2 2384   3.826   3.089  -0.064
  835TIP3    H1 2385   3.834   3.046  -0.150
  835TIP3    H2 2386   3.829   3.183  -0.087
  836TIP3   OH2 2387   3.299   2.805   1.807
  836TIP3    H1 2388   3.301   2.724   1.753
  836TIP3    H2 2389   3.260   2.871   1.746
  837TIP3   OH2 2390   3.301   2.599   1.607
  837TIP3    H1 2391   3.335   2.609   1.516
  837TIP3    H2 2392   3.209   2.569   1.592
  838TIP3   OH2 2393   3.914   3.098   1.863
  838TIP3    H1 2394   3.965   3.016   1.875
  838TIP3    H2 2395   3.983   3.159   1.832
  839TIP3   OH2 2396   3.955   3.348   1.596
  839TIP3    H1 2397   3.897   3.401   1.537
  839TIP3    H2 2398   4.043   3.369   1.556
  840TIP3   OH2 2399   3.170   2.929   2.022
  840TIP3    H1 2400   3.105   2.859   2.043
  840TIP3    H2 2401   3.214   2.891   1.944
  841TIP3   OH2 2402   3.435   2.360   1.669
  841TIP3    H1 2403   3.384   2.442   1.657
  841TIP3    H2 2404   3.365   2.292   1.662
  842TIP3   OH2 2405   3.562   2.866   1.892
  842TIP3    H1 2406   3.559   2.856   1.989
  842TIP3    H2 2407   3.471   2.838   1.870
  843TIP3   OH2 2408   3.801   2.810   1.744
  843TIP3    H1 2409   3.727   2.813   1.808
  843TIP3    H2 2410   3.875   2.781   1.801
  844TIP3   OH2 2411   4.028   2.750   1.896
  844TIP3    H1 2412   4.041   2.655   1.918
  844TIP3    H2 2413   4.025   2.792   1.985
  845TIP3   OH2 2414   3.022   2.703   2.079
  845TIP3    H1 2415   3.026   2.612   2.047
  845TIP3    H2 2416   3.054   2.692   2.171
  846TIP3   OH2 2417   3.531   2.369   1.927
  846TIP3    H1 2418   3.600   2.300   1.926
  846TIP3    H2 2419   3.493   2.357   1.838
  847TIP3   OH2 2420   3.596   2.583   2.089
  847TIP3    H1 2421   3.573   2.512   2.025
  847TIP3    H2 2422   3.518   2.643   2.083
  848TIP3   OH2 2423   2.811   3.806   0.191
  848TIP3    H1 2424   2.906   3.808   0.165
  848TIP3    H2 2425   2.769   3.853   0.119
  849TIP3   OH2 2426   2.202   3.802   0.820
  849TIP3    H1 2427   2.140   3.736   0.785
  849TIP3    H2 2428   2.251   3.750   0.886
  850TIP3   OH2 2429   2.345   3.663   1.006
  850TIP3    H1 2430   2.337   3.587   1.065
  850TIP3    H2 2431   2.394   3.725   1.063
  851TIP3   OH2 2432   4.071   4.059   0.805
  851TIP3    H1 2433   4.100   4.095   0.891
  851TIP3    H2 2434   4.130   4.105   0.744
  852TIP3   OH2 2435   4.102   4.080   1.088
  852TIP3    H1 2436   4.063   3.990   1.082
  852TIP3    H2 2437   4.179   4.060   1.143
  853TIP3   OH2 2438   4.149   3.754   1.661
  853TIP3    H1 2439   4.075   3.763   1.723
  853TIP3    H2 2440   4.189   3.844   1.664
  854TIP3   OH2 2441   3.965   3.267   0.281
  854TIP3    H1 2442   4.032   3.334   0.254
  854TIP3    H2 2443   4.008   3.230   0.361
  855TIP3   OH2 2444   4.093   3.136   0.484
  855TIP3    H1 2445   4.028   3.095   0.545
  855TIP3    H2 2446   4.158   3.176   0.546
  856TIP3   OH2 2447   4.143   3.524   0.917
  856TIP3    H1 2448   4.198   3.464   0.863
  856TIP3    H2 2449   4.135   3.602   0.859
  857TIP3   OH2 2450   3.980   3.827   1.115
  857TIP3    H1 2451   3.910   3.871   1.165
  857TIP3    H2 2452   3.930   3.779   1.046
  858TIP3   OH2 2453   4.026   3.042   0.133
  858TIP3    H1 2454   3.952   3.048   0.070
  858TIP3    H2 2455   4.006   3.119   0.190
  859TIP3   OH2 2456   3.906   2.712   0.094
  859TIP3    H1 2457   3.868   2.758   0.018
  859TIP3    H2 2458   3.876   2.620   0.078
  860TIP3   OH2 2459   3.908   2.990   0.635
  860TIP3    H1 2460   3.919   2.894   0.631
  860TIP3    H2 2461   3.896   3.006   0.731
  861TIP3   OH2 2462   2.546   3.062   1.379
  861TIP3    H1 2463   2.532   3.034   1.286
  861TIP3    H2 2464   2.642   3.070   1.382
  862TIP3   OH2 2465   4.196   3.416   1.488
  862TIP3    H1 2466   4.270   3.352   1.480
  862TIP3    H2 2467   4.224   3.487   1.428
  863TIP3   OH2 2468   4.383   3.225   1.512
  863TIP3    H1 2469   4.309   3.174   1.552
  863TIP3    H2 2470   4.456   3.161   1.524
  864TIP3   OH2 2471   3.840   2.449   0.091
  864TIP3    H1 2472   3.930   2.423   0.122
  864TIP3    H2 2473   3.781   2.404   0.152
  865TIP3   OH2 2474   3.904   2.706   0.531
  865TIP3    H1 2475   3.945   2.618   0.545
  865TIP3    H2 2476   3.962   2.741   0.462
  866TIP3   OH2 2477   4.066   2.887   1.022
  866TIP3    H1 2478   4.153   2.912   0.983
  866TIP3    H2 2479   4.081   2.922   1.113
  867TIP3   OH2 2480   4.131   3.025   1.257
  867TIP3    H1 2481   4.054   3.061   1.304
  867TIP3    H2 2482   4.165   3.105   1.210
  868TIP3   OH2 2483   2.755   2.757   2.053
  868TIP3    H1 2484   2.852   2.745   2.057
  868TIP3    H2 2485   2.724   2.673   2.093
  869TIP3   OH2 2486   4.585   2.614   1.812
  869TIP3    H1 2487   4.644   2.548   1.769
  869TIP3    H2 2488   4.559   2.672   1.738
  870TIP3   OH2 2489   4.013   2.456   0.565
  870TIP3    H1 2490   4.062   2.441   0.649
  870TIP3    H2 2491   3.953   2.378   0.566
  871TIP3   OH2 2492   2.714   2.441   1.383
  871TIP3    H1 2493   2.784   2.373   1.395
  871TIP3    H2 2494   2.766   2.522   1.387
  872TIP3   OH2 2495   2.527   2.719   1.455
  872TIP3    H1 2496   2.576   2.726   1.371
  872TIP3    H2 2497   2.540   2.806   1.495
  873TIP3   OH2 2498   4.460   2.759   1.620
  873TIP3    H1 2499   4.372   2.796   1.643
  873TIP3    H2 2500   4.433   2.688   1.559
  874TIP3   OH2 2501   4.102   2.395   0.183
  874TIP3    H1 2502   4.169   2.334   0.149
  874TIP3    H2 2503   4.155   2.477   0.188
  875TIP3   OH2 2504   3.660   3.921   0.467
  875TIP3    H1 2505   3.707   3.906   0.382
  875TIP3    H2 2506   3.713   3.992   0.506
  876TIP3   OH2 2507   2.721   2.302   1.773
  876TIP3    H1 2508   2.673   2.297   1.858
  876TIP3    H2 2509   2.653   2.344   1.717
  877TIP3   OH2 2510   2.761   3.719   1.851
  877TIP3    H1 2511   2.667   3.697   1.834
  877TIP3    H2 2512   2.765   3.712   1.948
  878TIP3   OH2 2513   2.936   3.753   1.397
  878TIP3    H1 2514   2.886   3.828   1.361
  878TIP3    H2 2515   3.022   3.771   1.354
  879TIP3   OH2 2516   3.385   4.005   1.536
  879TIP3    H1 2517   3.426   4.009   1.625
  879TIP3    H2 2518   3.451   4.056   1.484
  880TIP3   OH2 2519   3.563   4.154   1.392
  880TIP3    H1 2520   3.636   4.105   1.352
  880TIP3    H2 2521   3.613   4.213   1.454
  881TIP3   OH2 2522   4.355   2.521   1.494
  881TIP3    H1 2523   4.264   2.516   1.463
  881TIP3    H2 2524   4.384   2.427   1.482
  882TIP3   OH2 2525   2.614   4.017   1.421
  882TIP3    H1 2526   2.527   4.053   1.396
  882TIP3    H2 2527   2.620   4.047   1.512
  883TIP3   OH2 2528   2.850   3.994   1.277
  883TIP3    H1 2529   2.765   4.008   1.324
  883TIP3    H2 2530   2.830   4.030   1.189
  884TIP3   OH2 2531   3.277   4.027   1.075
  884TIP3    H1 2532   3.208   4.049   1.010
  884TIP3    H2 2533   3.290   4.114   1.119
  885TIP3   OH2 2534   3.544   3.965   1.125
  885TIP3    H1 2535   3.449   3.983   1.106
  885TIP3    H2 2536   3.586   4.043   1.087
  886TIP3   OH2 2537   3.754   4.159   1.045
  886TIP3    H1 2538   3.740   4.244   0.998
  886TIP3    H2 2539   3.778   4.099   0.971
  887TIP3   OH2 2540   2.525   3.813   1.166
  887TIP3    H1 2541   2.551   3.789   1.258
  887TIP3    H2 2542   2.598   3.768   1.116
  888TIP3   OH2 2543   2.717   3.682   1.019
  888TIP3    H1 2544   2.735   3.600   1.070
  888TIP3    H2 2545   2.806   3.723   1.015
  889TIP3   OH2 2546   2.981   3.780   1.023
  889TIP3    H1 2547   3.017   3.691   1.010
  889TIP3    H2 2548   3.022   3.803   1.109
  890TIP3   OH2 2549   3.552   2.433   1.105
  890TIP3    H1 2550   3.515   2.364   1.164
  890TIP3    H2 2551   3.630   2.388   1.067
  891TIP3   OH2 2552   4.086   2.317   1.022
  891TIP3    H1 2553   4.123   2.367   0.946
  891TIP3    H2 2554   3.991   2.332   1.012
  892TIP3   OH2 2555   4.179   2.417   0.783
  892TIP3    H1 2556   4.252   2.365   0.742
  892TIP3    H2 2557   4.213   2.508   0.768
  893TIP3   OH2 2558   3.240   2.216   0.999
  893TIP3    H1 2559   3.323   2.240   0.955
  893TIP3    H2 2560   3.270   2.192   1.087
  894TIP3   OH2 2561   3.799   2.322   0.995
  894TIP3    H1 2562   3.802   2.284   0.906
  894TIP3    H2 2563   3.786   2.240   1.049
  895TIP3   OH2 2564   3.833   2.241   0.552
  895TIP3    H1 2565   3.742   2.274   0.553
  895TIP3    H2 2566   3.820   2.156   0.601
  896TIP3   OH2 2567   2.300   3.581   0.566
  896TIP3    H1 2568   2.226   3.542   0.516
  896TIP3    H2 2569   2.297   3.673   0.532
  897TIP3   OH2 2570   3.256   2.337   0.619
  897TIP3    H1 2571   3.286   2.291   0.700
  897TIP3    H2 2572   3.270   2.428   0.652
  898TIP3   OH2 2573   3.079   3.780   0.133
  898TIP3    H1 2574   3.172   3.796   0.105
  898TIP3    H2 2575   3.062   3.702   0.077
  899TIP3   OH2 2576   3.802   3.889   0.232
  899TIP3    H1 2577   3.795   3.791   0.218
  899TIP3    H2 2578   3.757   3.922   0.151
  900TIP3   OH2 2579   3.019   2.427   2.020
  900TIP3    H1 2580   2.983   2.357   2.077
  900TIP3    H2 2581   3.113   2.426   2.049
  901TIP3   OH2 2582   3.267   2.420   2.140
  901TIP3    H1 2583   3.352   2.394   2.103
  901TIP3    H2 2584   3.254   2.351   2.208
  902TIP3   OH2 2585   2.419   3.644   0.221
  902TIP3    H1 2586   2.371   3.661   0.303
  902TIP3    H2 2587   2.472   3.567   0.243
  903TIP3   OH2 2588   4.089   2.480   1.929
  903TIP3    H1 2589   4.109   2.449   2.019
  903TIP3    H2 2590   4.177   2.476   1.886
  904TIP3   OH2 2591   4.032   4.036   1.420
  904TIP3    H1 2592   3.953   4.003   1.374
  904TIP3    H2 2593   4.013   4.132   1.421
  905TIP3   OH2 2594   5.295   3.405   0.192
  905TIP3    H1 2595   5.270   3.498   0.171
  905TIP3    H2 2596   5.217   3.359   0.156
  906TIP3   OH2 2597   5.296   3.406   0.563
  906TIP3    H1 2598   5.322   3.373   0.651
  906TIP3    H2 2599   5.252   3.329   0.524
  907TIP3   OH2 2600   4.596   3.305   0.933
  907TIP3    H1 2601   4.629   3.239   0.996
  907TIP3    H2 2602   4.673   3.363   0.924
  908TIP3   OH2 2603   5.539   3.703   0.246
  908TIP3    H1 2604   5.523   3.638   0.314
  908TIP3    H2 2605   5.559   3.783   0.297
  909TIP3   OH2 2606   4.564   3.710   0.662
  909TIP3    H1 2607   4.557   3.612   0.665
  909TIP3    H2 2608   4.660   3.720   0.653
  910TIP3   OH2 2609   4.272   2.915   0.448
  910TIP3    H1 2610   4.226   3.000   0.459
  910TIP3    H2 2611   4.200   2.861   0.410
  911TIP3   OH2 2612   4.332   3.202   0.610
  911TIP3    H1 2613   4.382   3.127   0.650
  911TIP3    H2 2614   4.392   3.231   0.540
  912TIP3   OH2 2615   5.187   4.174   0.267
  912TIP3    H1 2616   5.235   4.102   0.220
  912TIP3    H2 2617   5.177   4.133   0.354
  913TIP3   OH2 2618   5.094   3.631   0.617
  913TIP3    H1 2619   5.130   3.557   0.564
  913TIP3    H2 2620   5.179   3.675   0.639
  914TIP3   OH2 2621   6.103   2.954   0.612
  914TIP3    H1 2622   6.133   3.036   0.655
  914TIP3    H2 2623   6.126   2.973   0.519
  915TIP3   OH2 2624   5.504   3.135   0.652
  915TIP3    H1 2625   5.548   3.049   0.670
  915TIP3    H2 2626   5.476   3.122   0.559
  916TIP3   OH2 2627   4.840   2.793   0.616
  916TIP3    H1 2628   4.821   2.866   0.553
  916TIP3    H2 2629   4.793   2.720   0.570
  917TIP3   OH2 2630   5.535   2.883   0.240
  917TIP3    H1 2631   5.609   2.867   0.303
  917TIP3    H2 2632   5.584   2.920   0.164
  918TIP3   OH2 2633   4.476   2.996   0.720
  918TIP3    H1 2634   4.560   2.977   0.768
  918TIP3    H2 2635   4.489   2.940   0.641
  919TIP3   OH2 2636   4.919   3.194   0.511
  919TIP3    H1 2637   5.012   3.168   0.525
  919TIP3    H2 2638   4.880   3.110   0.479
  920TIP3   OH2 2639   6.180   3.161   0.783
  920TIP3    H1 2640   6.098   3.209   0.759
  920TIP3    H2 2641   6.182   3.177   0.878
  921TIP3   OH2 2642   4.840   2.777   1.047
  921TIP3    H1 2643   4.779   2.815   0.981
  921TIP3    H2 2644   4.790   2.795   1.130
  922TIP3   OH2 2645   5.186   3.621   0.062
  922TIP3    H1 2646   5.154   3.609  -0.029
  922TIP3    H2 2647   5.149   3.709   0.084
  923TIP3   OH2 2648   4.947   3.551   0.848
  923TIP3    H1 2649   4.882   3.615   0.886
  923TIP3    H2 2650   4.987   3.603   0.776
  924TIP3   OH2 2651   5.752   2.882   0.405
  924TIP3    H1 2652   5.744   2.834   0.488
  924TIP3    H2 2653   5.805   2.960   0.432
  925TIP3   OH2 2654   4.709   2.892   0.834
  925TIP3    H1 2655   4.771   2.964   0.857
  925TIP3    H2 2656   4.758   2.851   0.759
  926TIP3   OH2 2657   4.772   3.742   0.942
  926TIP3    H1 2658   4.747   3.827   0.899
  926TIP3    H2 2659   4.693   3.730   0.999
  927TIP3   OH2 2660   4.171   3.433   0.181
  927TIP3    H1 2661   4.132   3.456   0.094
  927TIP3    H2 2662   4.199   3.520   0.215
  928TIP3   OH2 2663   5.612   3.949   0.420
  928TIP3    H1 2664   5.521   3.941   0.458
  928TIP3    H2 2665   5.602   4.033   0.371
  929TIP3   OH2 2666   5.898   2.856   0.780
  929TIP3    H1 2667   5.810   2.884   0.750
  929TIP3    H2 2668   5.956   2.885   0.707
  930TIP3   OH2 2669   5.200   2.499   0.760
  930TIP3    H1 2670   5.188   2.403   0.777
  930TIP3    H2 2671   5.122   2.535   0.807
  931TIP3   OH2 2672   5.337   3.996   0.128
  931TIP3    H1 2673   5.372   3.915   0.084
  931TIP3    H2 2674   5.354   4.060   0.055
  932TIP3   OH2 2675   5.456   3.787  -0.007
  932TIP3    H1 2676   5.434   3.709  -0.061
  932TIP3    H2 2677   5.486   3.745   0.076
  933TIP3   OH2 2678   5.837   3.865   0.761
  933TIP3    H1 2679   5.825   3.788   0.701
  933TIP3    H2 2680   5.818   3.940   0.700
  934TIP3   OH2 2681   5.126   3.257   0.015
  934TIP3    H1 2682   5.045   3.309  -0.003
  934TIP3    H2 2683   5.168   3.257  -0.072
  935TIP3   OH2 2684   5.081   3.029  -0.237
  935TIP3    H1 2685   5.160   3.081  -0.212
  935TIP3    H2 2686   5.116   2.972  -0.306
  936TIP3   OH2 2687   6.031   3.500   0.604
  936TIP3    H1 2688   5.949   3.553   0.610
  936TIP3    H2 2689   6.060   3.523   0.514
  937TIP3   OH2 2690   5.470   3.330  -0.005
  937TIP3    H1 2691   5.418   3.363   0.072
  937TIP3    H2 2692   5.557   3.312   0.037
  938TIP3   OH2 2693   5.710   3.383   0.897
  938TIP3    H1 2694   5.706   3.467   0.946
  938TIP3    H2 2695   5.623   3.385   0.852
  939TIP3   OH2 2696   4.704   3.339   0.407
  939TIP3    H1 2697   4.664   3.283   0.338
  939TIP3    H2 2698   4.783   3.287   0.433
  940TIP3   OH2 2699   4.833   3.745   0.558
  940TIP3    H1 2700   4.814   3.706   0.472
  940TIP3    H2 2701   4.925   3.717   0.574
  941TIP3   OH2 2702   4.845   3.310   0.760
  941TIP3    H1 2703   4.876   3.292   0.669
  941TIP3    H2 2704   4.886   3.396   0.781
  942TIP3   OH2 2705   5.370   3.947   0.538
  942TIP3    H1 2706   5.353   4.028   0.590
  942TIP3    H2 2707   5.354   3.875   0.602
  943TIP3   OH2 2708   4.979   3.867   1.085
  943TIP3    H1 2709   4.919   3.930   1.131
  943TIP3    H2 2710   4.913   3.813   1.036
  944TIP3   OH2 2711   5.324   3.198  -0.192
  944TIP3    H1 2712   5.375   3.249  -0.124
  944TIP3    H2 2713   5.340   3.252  -0.270
  945TIP3   OH2 2714   4.733   3.425   1.182
  945TIP3    H1 2715   4.737   3.511   1.229
  945TIP3    H2 2716   4.637   3.407   1.188
  946TIP3   OH2 2717   5.047   3.886   0.118
  946TIP3    H1 2718   5.133   3.931   0.115
  946TIP3    H2 2719   5.003   3.928   0.043
  947TIP3   OH2 2720   4.775   4.038   1.170
  947TIP3    H1 2721   4.740   4.035   1.079
  947TIP3    H2 2722   4.696   4.015   1.223
  948TIP3   OH2 2723   5.810   2.450  -0.121
  948TIP3    H1 2724   5.730   2.470  -0.067
  948TIP3    H2 2725   5.819   2.532  -0.173
  949TIP3   OH2 2726   4.572   3.179   0.211
  949TIP3    H1 2727   4.511   3.229   0.153
  949TIP3    H2 2728   4.524   3.097   0.224
  950TIP3   OH2 2729   4.354   3.565   1.118
  950TIP3    H1 2730   4.292   3.542   1.047
  950TIP3    H2 2731   4.390   3.478   1.145
  951TIP3   OH2 2732   4.208   3.755   0.757
  951TIP3    H1 2733   4.303   3.752   0.741
  951TIP3    H2 2734   4.198   3.839   0.805
  952TIP3   OH2 2735   6.075   4.208   0.806
  952TIP3    H1 2736   6.070   4.111   0.817
  952TIP3    H2 2737   5.991   4.234   0.850
  953TIP3   OH2 2738   5.180   3.996   0.941
  953TIP3    H1 2739   5.181   4.089   0.972
  953TIP3    H2 2740   5.108   3.958   0.996
  954TIP3   OH2 2741   4.903   4.137  -0.110
  954TIP3    H1 2742   4.884   4.125  -0.204
  954TIP3    H2 2743   4.897   4.233  -0.098
  955TIP3   OH2 2744   4.374   3.977   0.275
  955TIP3    H1 2745   4.425   3.966   0.359
  955TIP3    H2 2746   4.313   3.902   0.282
  956TIP3   OH2 2747   5.174   4.031  -0.104
  956TIP3    H1 2748   5.092   4.076  -0.129
  956TIP3    H2 2749   5.239   4.065  -0.167
  957TIP3   OH2 2750   5.964   3.341   1.080
  957TIP3    H1 2751   5.884   3.359   1.028
  957TIP3    H2 2752   5.976   3.245   1.066
  958TIP3   OH2 2753   4.559   3.748   1.110
  958TIP3    H1 2754   4.609   3.731   1.192
  958TIP3    H2 2755   4.485   3.684   1.117
  959TIP3   OH2 2756   4.959   2.572   0.887
  959TIP3    H1 2757   4.868   2.542   0.864
  959TIP3    H2 2758   4.936   2.656   0.931
  960TIP3   OH2 2759   5.491   2.688   1.083
  960TIP3    H1 2760   5.558   2.661   1.149
  960TIP3    H2 2761   5.406   2.668   1.128
  961TIP3   OH2 2762   5.736   3.118   1.004
  961TIP3    H1 2763   5.685   3.113   1.088
  961TIP3    H2 2764   5.709   3.204   0.967
  962TIP3   OH2 2765   5.120   2.633  -0.133
  962TIP3    H1 2766   5.077   2.632  -0.045
  962TIP3    H2 2767   5.075   2.561  -0.177
  963TIP3   OH2 2768   4.889   3.087   0.909
  963TIP3    H1 2769   4.839   3.111   0.989
  963TIP3    H2 2770   4.875   3.167   0.854
  964TIP3   OH2 2771   4.775   2.972   0.423
  964TIP3    H1 2772   4.681   2.949   0.438
  964TIP3    H2 2773   4.789   2.933   0.334
  965TIP3   OH2 2774   5.263   3.059   0.149
  965TIP3    H1 2775   5.209   3.131   0.110
  965TIP3    H2 2776   5.317   3.031   0.072
  966TIP3   OH2 2777   5.438   3.341   1.238
  966TIP3    H1 2778   5.417   3.267   1.299
  966TIP3    H2 2779   5.533   3.355   1.259
  967TIP3   OH2 2780   5.423   3.090   0.391
  967TIP3    H1 2781   5.366   3.124   0.319
  967TIP3    H2 2782   5.453   3.007   0.348
  968TIP3   OH2 2783   4.708   3.117   1.118
  968TIP3    H1 2784   4.735   3.182   1.185
  968TIP3    H2 2785   4.698   3.036   1.170
  969TIP3   OH2 2786   4.763   2.568  -0.167
  969TIP3    H1 2787   4.760   2.583  -0.071
  969TIP3    H2 2788   4.692   2.625  -0.198
  970TIP3   OH2 2789   4.302   2.640   0.697
  970TIP3    H1 2790   4.377   2.672   0.751
  970TIP3    H2 2791   4.344   2.608   0.616
  971TIP3   OH2 2792   4.277   2.622   0.217
  971TIP3    H1 2793   4.327   2.659   0.141
  971TIP3    H2 2794   4.219   2.699   0.238
  972TIP3   OH2 2795   5.435   3.337   0.816
  972TIP3    H1 2796   5.466   3.263   0.757
  972TIP3    H2 2797   5.404   3.285   0.893
  973TIP3   OH2 2798   5.098   2.795   0.486
  973TIP3    H1 2799   5.014   2.794   0.537
  973TIP3    H2 2800   5.164   2.801   0.556
  974TIP3   OH2 2801   4.535   2.850   0.495
  974TIP3    H1 2802   4.441   2.857   0.467
  974TIP3    H2 2803   4.559   2.759   0.469
  975TIP3   OH2 2804   4.810   2.850   0.181
  975TIP3    H1 2805   4.905   2.864   0.161
  975TIP3    H2 2806   4.765   2.871   0.096
  976TIP3   OH2 2807   5.593   2.871   0.685
  976TIP3    H1 2808   5.557   2.883   0.775
  976TIP3    H2 2809   5.528   2.809   0.647
  977TIP3   OH2 2810   4.648   2.871  -0.039
  977TIP3    H1 2811   4.557   2.855  -0.066
  977TIP3    H2 2812   4.689   2.914  -0.117
  978TIP3   OH2 2813   5.760   4.559   0.903
  978TIP3    H1 2814   5.758   4.583   0.808
  978TIP3    H2 2815   5.836   4.612   0.934
  979TIP3   OH2 2816   4.720   3.669   1.328
  979TIP3    H1 2817   4.800   3.701   1.375
  979TIP3    H2 2818   4.656   3.671   1.401
  980TIP3   OH2 2819   5.184   3.120   0.581
  980TIP3    H1 2820   5.258   3.085   0.529
  980TIP3    H2 2821   5.200   3.082   0.669
  981TIP3   OH2 2822   4.711   2.614   0.455
  981TIP3    H1 2823   4.680   2.532   0.499
  981TIP3    H2 2824   4.765   2.580   0.383
  982TIP3   OH2 2825   5.162   3.015   0.876
  982TIP3    H1 2826   5.073   3.055   0.885
  982TIP3    H2 2827   5.220   3.077   0.924
  983TIP3   OH2 2828   4.896   3.409  -0.029
  983TIP3    H1 2829   4.822   3.346  -0.041
  983TIP3    H2 2830   4.879   3.443   0.062
  984TIP3   OH2 2831   5.801   3.647   0.598
  984TIP3    H1 2832   5.824   3.696   0.516
  984TIP3    H2 2833   5.715   3.607   0.575
  985TIP3   OH2 2834   5.375   2.723  -0.186
  985TIP3    H1 2835   5.280   2.698  -0.184
  985TIP3    H2 2836   5.373   2.817  -0.159
  986TIP3   OH2 2837   5.299   3.729   0.964
  986TIP3    H1 2838   5.315   3.706   1.057
  986TIP3    H2 2839   5.260   3.818   0.970
  987TIP3   OH2 2840   5.427   2.970  -0.069
  987TIP3    H1 2841   5.523   2.976  -0.050
  987TIP3    H2 2842   5.411   3.050  -0.122
  988TIP3   OH2 2843   4.587   3.430   0.645
  988TIP3    H1 2844   4.625   3.404   0.558
  988TIP3    H2 2845   4.629   3.366   0.705
  989TIP3   OH2 2846   5.045   3.567  -0.194
  989TIP3    H1 2847   4.998   3.654  -0.190
  989TIP3    H2 2848   4.986   3.511  -0.140
  990TIP3   OH2 2849   4.468   3.355   1.256
  990TIP3    H1 2850   4.492   3.342   1.350
  990TIP3    H2 2851   4.400   3.286   1.243
  991TIP3   OH2 2852   5.194   3.465   1.276
  991TIP3    H1 2853   5.136   3.408   1.222
  991TIP3    H2 2854   5.283   3.434   1.248
  992TIP3   OH2 2855   5.461   3.986   0.860
  992TIP3    H1 2856   5.364   3.986   0.869
  992TIP3    H2 2857   5.487   4.040   0.937
  993TIP3   OH2 2858   5.830   3.080  -0.192
  993TIP3    H1 2859   5.858   3.008  -0.251
  993TIP3    H2 2860   5.840   3.158  -0.251
  994TIP3   OH2 2861   6.087   3.915   0.850
  994TIP3    H1 2862   5.989   3.912   0.842
  994TIP3    H2 2863   6.112   3.886   0.760
  995TIP3   OH2 2864   5.565   3.507   0.523
  995TIP3    H1 2865   5.471   3.483   0.532
  995TIP3    H2 2866   5.599   3.431   0.472
  996TIP3   OH2 2867   4.690   3.734   0.269
  996TIP3    H1 2868   4.700   3.815   0.216
  996TIP3    H2 2869   4.594   3.725   0.270
  997TIP3   OH2 2870   4.259   3.041  -0.025
  997TIP3    H1 2871   4.302   3.127  -0.011
  997TIP3    H2 2872   4.179   3.050   0.031
  998TIP3   OH2 2873   4.833   3.503   0.215
  998TIP3    H1 2874   4.801   3.594   0.231
  998TIP3    H2 2875   4.794   3.455   0.290
  999TIP3   OH2 2876   4.958   4.081   0.739
  999TIP3    H1 2877   4.998   4.153   0.686
  999TIP3    H2 2878   5.036   4.048   0.786
 1000TIP3   OH2 2879   4.611   3.973   0.122
 1000TIP3    H1 2880   4.524   3.984   0.166
 1000TIP3    H2 2881   4.643   4.065   0.122
 1001TIP3   OH2 2882   5.351   3.714   0.695
 1001TIP3    H1 2883   5.344   3.711   0.793
 1001TIP3    H2 2884   5.431   3.662   0.680
 1002TIP3   OH2 2885   5.598   4.251   0.746
 1002TIP3    H1 2886   5.519   4.195   0.736
 1002TIP3    H2 2887   5.584   4.317   0.674
 1003TIP3   OH2 2888   4.685   2.859   1.266
 1003TIP3    H1 2889   4.589   2.865   1.283
 1003TIP3    H2 2890   4.713   2.797   1.336
 1004TIP3   OH2 2891   5.473   3.553  -0.176
 1004TIP3    H1 2892   5.470   3.477  -0.116
 1004TIP3    H2 2893   5.568   3.550  -0.204
 1005TIP3   OH2 2894   4.398   3.946   0.898
 1005TIP3    H1 2895   4.449   3.868   0.924
 1005TIP3    H2 2896   4.430   4.011   0.961
 1006TIP3   OH2 2897   4.663   3.564  -0.430
 1006TIP3    H1 2898   4.721   3.488  -0.443
 1006TIP3    H2 2899   4.656   3.569  -0.332
 1007TIP3   OH2 2900   4.639   3.592  -0.148
 1007TIP3    H1 2901   4.709   3.568  -0.086
 1007TIP3    H2 2902   4.642   3.690  -0.145
 1008TIP3   OH2 2903   4.374   3.290   0.054
 1008TIP3    H1 2904   4.308   3.337   0.109
 1008TIP3    H2 2905   4.390   3.356  -0.016
 1009TIP3   OH2 2906   5.517   2.924   0.943
 1009TIP3    H1 2907   5.596   2.961   0.985
 1009TIP3    H2 2908   5.501   2.843   0.998
 1010TIP3   OH2 2909   5.393   2.679   0.103
 1010TIP3    H1 2910   5.381   2.701   0.009
 1010TIP3    H2 2911   5.432   2.761   0.138
 1011TIP3   OH2 2912   4.898   3.794  -0.206
 1011TIP3    H1 2913   4.812   3.824  -0.170
 1011TIP3    H2 2914   4.893   3.831  -0.295
 1012TIP3   OH2 2915   5.091   2.851   0.210
 1012TIP3    H1 2916   5.155   2.922   0.190
 1012TIP3    H2 2917   5.095   2.847   0.308
 1013TIP3   OH2 2918   5.357   3.175   1.021
 1013TIP3    H1 2919   5.373   3.230   1.100
 1013TIP3    H2 2920   5.414   3.098   1.037
 1014TIP3   OH2 2921   5.237   2.587   0.316
 1014TIP3    H1 2922   5.228   2.664   0.375
 1014TIP3    H2 2923   5.294   2.625   0.245
 1015TIP3   OH2 2924   4.638   3.861  -0.132
 1015TIP3    H1 2925   4.613   3.932  -0.195
 1015TIP3    H2 2926   4.627   3.907  -0.046
 1016TIP3   OH2 2927   4.745   2.580   0.109
 1016TIP3    H1 2928   4.743   2.672   0.141
 1016TIP3    H2 2929   4.841   2.562   0.117
 1017TIP3   OH2 2930   6.003   3.074   0.997
 1017TIP3    H1 2931   5.905   3.072   1.008
 1017TIP3    H2 2932   6.009   3.033   0.909
 1018TIP3   OH2 2933   5.650   3.268   0.388
 1018TIP3    H1 2934   5.574   3.209   0.400
 1018TIP3    H2 2935   5.722   3.221   0.435
 1019TIP3   OH2 2936   4.361   3.507  -0.140
 1019TIP3    H1 2937   4.431   3.574  -0.130
 1019TIP3    H2 2938   4.406   3.447  -0.204
 1020TIP3   OH2 2939   4.318   2.777  -0.012
 1020TIP3    H1 2940   4.306   2.875  -0.022
 1020TIP3    H2 2941   4.238   2.745  -0.055
 1021TIP3   OH2 2942   5.615   4.219   0.342
 1021TIP3    H1 2943   5.569   4.265   0.268
 1021TIP3    H2 2944   5.708   4.244   0.320
 1022TIP3   OH2 2945   4.693   2.493   0.868
 1022TIP3    H1 2946   4.662   2.460   0.781
 1022TIP3    H2 2947   4.683   2.414   0.925
 1023TIP3   OH2 2948   4.236   3.713   0.253
 1023TIP3    H1 2949   4.154   3.744   0.293
 1023TIP3    H2 2950   4.226   3.747   0.162
 1024TIP3   OH2 2951   4.386   4.247   1.318
 1024TIP3    H1 2952   4.473   4.246   1.364
 1024TIP3    H2 2953   4.366   4.152   1.316
 1025TIP3   OH2 2954   4.875   4.220   1.362
 1025TIP3    H1 2955   4.969   4.199   1.369
 1025TIP3    H2 2956   4.849   4.164   1.286
 1026TIP3   OH2 2957   5.510   4.123   1.095
 1026TIP3    H1 2958   5.501   4.053   1.164
 1026TIP3    H2 2959   5.587   4.173   1.126
 1027TIP3   OH2 2960   4.520   3.657   1.518
 1027TIP3    H1 2961   4.537   3.561   1.521
 1027TIP3    H2 2962   4.431   3.659   1.475
 1028TIP3   OH2 2963   4.500   3.318  -0.275
 1028TIP3    H1 2964   4.565   3.277  -0.216
 1028TIP3    H2 2965   4.541   3.310  -0.362
 1029TIP3   OH2 2966   5.129   3.741   1.291
 1029TIP3    H1 2967   5.086   3.755   1.204
 1029TIP3    H2 2968   5.159   3.647   1.285
 1030TIP3   OH2 2969   5.043   3.528  -0.468
 1030TIP3    H1 2970   5.047   3.555  -0.374
 1030TIP3    H2 2971   5.044   3.432  -0.460
 1031TIP3   OH2 2972   5.621   3.746   0.897
 1031TIP3    H1 2973   5.693   3.794   0.852
 1031TIP3    H2 2974   5.548   3.810   0.886
 1032TIP3   OH2 2975   4.637   3.387   1.498
 1032TIP3    H1 2976   4.713   3.330   1.482
 1032TIP3    H2 2977   4.660   3.423   1.587
 1033TIP3   OH2 2978   4.705   3.210  -0.066
 1033TIP3    H1 2979   4.681   3.167   0.018
 1033TIP3    H2 2980   4.742   3.136  -0.118
 1034TIP3   OH2 2981   4.973   3.275   1.161
 1034TIP3    H1 2982   4.896   3.337   1.166
 1034TIP3    H2 2983   5.020   3.309   1.081
 1035TIP3   OH2 2984   4.800   3.001  -0.229
 1035TIP3    H1 2985   4.789   2.987  -0.324
 1035TIP3    H2 2986   4.897   3.016  -0.224
 1036TIP3   OH2 2987   5.489   3.679   1.297
 1036TIP3    H1 2988   5.570   3.661   1.247
 1036TIP3    H2 2989   5.491   3.609   1.365
 1037TIP3   OH2 2990   5.097   3.063   1.290
 1037TIP3    H1 2991   5.096   2.982   1.234
 1037TIP3    H2 2992   5.053   3.128   1.231
 1038TIP3   OH2 2993   5.099   2.848   1.094
 1038TIP3    H1 2994   5.126   2.891   1.011
 1038TIP3    H2 2995   5.005   2.827   1.076
 1039TIP3   OH2 2996   5.132   3.388   0.966
 1039TIP3    H1 2997   5.212   3.395   0.913
 1039TIP3    H2 2998   5.074   3.456   0.925
 1040TIP3   OH2 2999   5.711   3.355   1.351
 1040TIP3    H1 3000   5.760   3.272   1.360
 1040TIP3    H2 3001   5.779   3.415   1.317
 1041TIP3   OH2 3002   5.752   3.606   1.086
 1041TIP3    H1 3003   5.693   3.658   1.027
 1041TIP3    H2 3004   5.839   3.626   1.044
 1042TIP3   OH2 3005   4.972   3.182   1.515
 1042TIP3    H1 3006   4.903   3.113   1.529
 1042TIP3    H2 3007   5.008   3.155   1.429
 1043TIP3   OH2 3008   5.232   2.615   1.158
 1043TIP3    H1 3009   5.183   2.698   1.137
 1043TIP3    H2 3010   5.161   2.548   1.147
 1044TIP3   OH2 3011   5.358   3.122   1.377
 1044TIP3    H1 3012   5.349   3.111   1.473
 1044TIP3    H2 3013   5.267   3.096   1.349
 1045TIP3   OH2 3014   5.598   3.068   1.232
 1045TIP3    H1 3015   5.521   3.071   1.292
 1045TIP3    H2 3016   5.669   3.036   1.290
 1046TIP3   OH2 3017   5.833   3.009   1.384
 1046TIP3    H1 3018   5.840   2.913   1.405
 1046TIP3    H2 3019   5.824   3.049   1.473
 1047TIP3   OH2 3020   4.813   2.961   1.567
 1047TIP3    H1 3021   4.822   2.871   1.531
 1047TIP3    H2 3022   4.848   2.948   1.658
 1048TIP3   OH2 3023   5.327   2.625   1.415
 1048TIP3    H1 3024   5.395   2.555   1.411
 1048TIP3    H2 3025   5.288   2.616   1.326
 1049TIP3   OH2 3026   5.392   2.840   1.576
 1049TIP3    H1 3027   5.369   2.769   1.512
 1049TIP3    H2 3028   5.315   2.900   1.570
 1050TIP3   OH2 3029   4.594   4.063  -0.310
 1050TIP3    H1 3030   4.679   4.087  -0.350
 1050TIP3    H2 3031   4.535   4.084  -0.384
 1051TIP3   OH2 3032   4.099   3.444  -0.091
 1051TIP3    H1 3033   4.187   3.482  -0.111
 1051TIP3    H2 3034   4.097   3.371  -0.154
 1052TIP3   OH2 3035   4.004   4.063   0.305
 1052TIP3    H1 3036   3.936   4.000   0.272
 1052TIP3    H2 3037   4.049   4.008   0.373
 1053TIP3   OH2 3038   4.141   3.921   0.493
 1053TIP3    H1 3039   4.132   3.842   0.549
 1053TIP3    H2 3040   4.193   3.979   0.552
 1054TIP3   OH2 3041   5.859   4.324   0.296
 1054TIP3    H1 3042   5.890   4.356   0.382
 1054TIP3    H2 3043   5.932   4.350   0.237
 1055TIP3   OH2 3044   5.900   4.336   0.575
 1055TIP3    H1 3045   5.857   4.248   0.570
 1055TIP3    H2 3046   5.976   4.315   0.630
 1056TIP3   OH2 3047   5.947   4.010   1.149
 1056TIP3    H1 3048   5.871   4.019   1.210
 1056TIP3    H2 3049   5.986   4.100   1.151
 1057TIP3   OH2 3050   5.740   3.534  -0.222
 1057TIP3    H1 3051   5.808   3.590  -0.261
 1057TIP3    H2 3052   5.792   3.479  -0.161
 1058TIP3   OH2 3053   5.892   3.393  -0.033
 1058TIP3    H1 3054   5.823   3.352   0.024
 1058TIP3    H2 3055   5.952   3.433   0.033
 1059TIP3   OH2 3056   5.943   3.782   0.407
 1059TIP3    H1 3057   5.994   3.721   0.351
 1059TIP3    H2 3058   5.929   3.858   0.347
 1060TIP3   OH2 3059   5.777   4.084   0.602
 1060TIP3    H1 3060   5.705   4.128   0.652
 1060TIP3    H2 3061   5.726   4.036   0.532
 1061TIP3   OH2 3062   5.707   3.249   0.121
 1061TIP3    H1 3063   5.712   3.152   0.116
 1061TIP3    H2 3064   5.693   3.264   0.217
 1062TIP3   OH2 3065   4.332   3.320   0.865
 1062TIP3    H1 3066   4.331   3.295   0.771
 1062TIP3    H2 3067   4.429   3.323   0.882
 1063TIP3   OH2 3068   5.992   3.673   0.976
 1063TIP3    H1 3069   6.067   3.609   0.966
 1063TIP3    H2 3070   6.017   3.743   0.914
 1064TIP3   OH2 3071   6.180   3.481   0.999
 1064TIP3    H1 3072   6.104   3.432   1.038
 1064TIP3    H2 3073   6.252   3.417   1.015
 1065TIP3   OH2 3074   5.621   2.701  -0.414
 1065TIP3    H1 3075   5.708   2.677  -0.377
 1065TIP3    H2 3076   5.560   2.659  -0.351
 1066TIP3   OH2 3077   5.695   2.965   0.022
 1066TIP3    H1 3078   5.742   2.879   0.029
 1066TIP3    H2 3079   5.747   3.009  -0.049
 1067TIP3   OH2 3080   5.864   3.141   0.510
 1067TIP3    H1 3081   5.950   3.168   0.470
 1067TIP3    H2 3082   5.876   3.178   0.600
 1068TIP3   OH2 3083   5.929   3.282   0.744
 1068TIP3    H1 3084   5.850   3.316   0.790
 1068TIP3    H2 3085   5.961   3.362   0.698
 1069TIP3   OH2 3086   4.546   3.010   1.538
 1069TIP3    H1 3087   4.644   3.003   1.540
 1069TIP3    H2 3088   4.522   2.926   1.583
 1070TIP3   OH2 3089   6.393   2.883   1.299
 1070TIP3    H1 3090   6.445   2.808   1.261
 1070TIP3    H2 3091   6.358   2.926   1.218
 1071TIP3   OH2 3092   5.812   2.714   0.050
 1071TIP3    H1 3093   5.859   2.701   0.136
 1071TIP3    H2 3094   5.746   2.642   0.054
 1072TIP3   OH2 3095   4.508   2.701   0.873
 1072TIP3    H1 3096   4.571   2.626   0.883
 1072TIP3    H2 3097   4.570   2.776   0.867
 1073TIP3   OH2 3098   4.313   2.976   0.945
 1073TIP3    H1 3099   4.363   2.967   0.861
 1073TIP3    H2 3100   4.342   3.063   0.975
 1074TIP3   OH2 3101   6.256   3.017   1.105
 1074TIP3    H1 3102   6.167   3.052   1.127
 1074TIP3    H2 3103   6.231   2.945   1.044
 1075TIP3   OH2 3104   5.867   2.649  -0.295
 1075TIP3    H1 3105   5.940   2.606  -0.345
 1075TIP3    H2 3106   5.894   2.742  -0.299
 1076TIP3   OH2 3107   4.294   2.478   0.444
 1076TIP3    H1 3108   4.201   2.480   0.471
 1076TIP3    H2 3109   4.295   2.538   0.366
 1077TIP3   OH2 3110   5.443   4.186  -0.050
 1077TIP3    H1 3111   5.503   4.139  -0.109
 1077TIP3    H2 3112   5.502   4.247  -0.004
 1078TIP3   OH2 3113   4.514   2.559   1.261
 1078TIP3    H1 3114   4.465   2.553   1.344
 1078TIP3    H2 3115   4.447   2.597   1.201
 1079TIP3   OH2 3116   4.555   3.983   1.339
 1079TIP3    H1 3117   4.464   3.953   1.321
 1079TIP3    H2 3118   4.562   3.967   1.434
 1080TIP3   OH2 3119   4.731   4.014   0.885
 1080TIP3    H1 3120   4.683   4.089   0.846
 1080TIP3    H2 3121   4.817   4.028   0.841
 1081TIP3   OH2 3122   5.181   4.262   1.024
 1081TIP3    H1 3123   5.223   4.266   1.112
 1081TIP3    H2 3124   5.247   4.312   0.970
 1082TIP3   OH2 3125   5.358   4.411   0.880
 1082TIP3    H1 3126   5.430   4.362   0.837
 1082TIP3    H2 3127   5.410   4.469   0.940
 1083TIP3   OH2 3128   6.152   2.777   0.982
 1083TIP3    H1 3129   6.060   2.773   0.949
 1083TIP3    H2 3130   6.181   2.683   0.971
 1084TIP3   OH2 3131   4.410   4.274   0.907
 1084TIP3    H1 3132   4.323   4.310   0.882
 1084TIP3    H2 3133   4.416   4.304   0.999
 1085TIP3   OH2 3134   4.647   4.252   0.765
 1085TIP3    H1 3135   4.561   4.266   0.810
 1085TIP3    H2 3136   4.627   4.286   0.675
 1086TIP3   OH2 3137   5.072   4.283   0.564
 1086TIP3    H1 3138   5.005   4.305   0.496
 1086TIP3    H2 3139   5.086   4.371   0.606
 1087TIP3   OH2 3140   5.340   4.224   0.616
 1087TIP3    H1 3141   5.246   4.238   0.593
 1087TIP3    H2 3142   5.382   4.299   0.571
 1088TIP3   OH2 3143   5.552   4.416   0.532
 1088TIP3    H1 3144   5.536   4.501   0.484
 1088TIP3    H2 3145   5.574   4.355   0.459
 1089TIP3   OH2 3146   4.321   4.069   0.654
 1089TIP3    H1 3147   4.348   4.045   0.745
 1089TIP3    H2 3148   4.393   4.025   0.604
 1090TIP3   OH2 3149   4.512   3.939   0.508
 1090TIP3    H1 3150   4.531   3.855   0.555
 1090TIP3    H2 3151   4.602   3.978   0.502
 1091TIP3   OH2 3152   4.777   4.038   0.510
 1091TIP3    H1 3153   4.813   3.950   0.491
 1091TIP3    H2 3154   4.819   4.056   0.596
 1092TIP3   OH2 3155   5.357   2.693   0.600
 1092TIP3    H1 3156   5.312   2.625   0.653
 1092TIP3    H2 3157   5.426   2.642   0.553
 1093TIP3   OH2 3158   5.883   2.570   0.507
 1093TIP3    H1 3159   5.920   2.624   0.433
 1093TIP3    H2 3160   5.788   2.589   0.501
 1094TIP3   OH2 3161   5.975   2.675   0.271
 1094TIP3    H1 3162   6.048   2.623   0.231
 1094TIP3    H2 3163   6.009   2.766   0.256
 1095TIP3   OH2 3164   4.606   2.400   0.619
 1095TIP3    H1 3165   4.514   2.367   0.619
 1095TIP3    H2 3166   4.656   2.316   0.615
 1096TIP3   OH2 3167   4.372   2.267   0.257
 1096TIP3    H1 3168   4.422   2.320   0.191
 1096TIP3    H2 3169   4.358   2.333   0.328
 1097TIP3   OH2 3170   5.048   2.433   0.497
 1097TIP3    H1 3171   5.106   2.486   0.440
 1097TIP3    H2 3172   5.065   2.471   0.584
 1098TIP3   OH2 3173   5.602   2.577   0.482
 1098TIP3    H1 3174   5.590   2.548   0.391
 1098TIP3    H2 3175   5.583   2.495   0.533
 1099TIP3   OH2 3176   5.616   2.506   0.057
 1099TIP3    H1 3177   5.526   2.544   0.055
 1099TIP3    H2 3178   5.600   2.420   0.103
 1100TIP3   OH2 3179   4.109   3.836   0.046
 1100TIP3    H1 3180   4.025   3.800   0.011
 1100TIP3    H2 3181   4.092   3.931   0.036
 1101TIP3   OH2 3182   4.512   2.416   0.069
 1101TIP3    H1 3183   4.541   2.377  -0.014
 1101TIP3    H2 3184   4.581   2.483   0.085
 1102TIP3   OH2 3185   5.021   2.600   0.130
 1102TIP3    H1 3186   5.085   2.557   0.189
 1102TIP3    H2 3187   5.042   2.694   0.152
 1103TIP3   OH2 3188   4.813   2.681   1.507
 1103TIP3    H1 3189   4.781   2.610   1.565
 1103TIP3    H2 3190   4.908   2.682   1.533
 1104TIP3   OH2 3191   5.062   2.678   1.627
 1104TIP3    H1 3192   5.147   2.653   1.588
 1104TIP3    H2 3193   5.050   2.608   1.694
 1105TIP3   OH2 3194   4.217   3.894  -0.293
 1105TIP3    H1 3195   4.178   3.902  -0.206
 1105TIP3    H2 3196   4.277   3.819  -0.283
 1106TIP3   OH2 3197   5.884   2.737   1.416
 1106TIP3    H1 3198   5.904   2.705   1.507
 1106TIP3    H2 3199   5.972   2.731   1.373
 1107TIP3   OH2 3200   5.828   4.292   0.908
 1107TIP3    H1 3201   5.749   4.259   0.860
 1107TIP3    H2 3202   5.809   4.388   0.908
 1108TIP3   OH2 3203   7.084   3.646   0.062
 1108TIP3    H1 3204   7.127   3.634   0.149
 1108TIP3    H2 3205   7.040   3.559   0.052
 1109TIP3   OH2 3206   6.391   3.564   0.423
 1109TIP3    H1 3207   6.426   3.495   0.482
 1109TIP3    H2 3208   6.471   3.613   0.402
 1110TIP3   OH2 3209   6.356   3.957   0.162
 1110TIP3    H1 3210   6.351   3.859   0.159
 1110TIP3    H2 3211   6.451   3.970   0.160
 1111TIP3   OH2 3212   6.059   3.167  -0.067
 1111TIP3    H1 3213   6.028   3.259  -0.056
 1111TIP3    H2 3214   5.974   3.125  -0.090
 1112TIP3   OH2 3215   6.135   3.461   0.096
 1112TIP3    H1 3216   6.180   3.384   0.136
 1112TIP3    H2 3217   6.198   3.486   0.027
 1113TIP3   OH2 3218   6.888   3.894   0.098
 1113TIP3    H1 3219   6.912   3.808   0.059
 1113TIP3    H2 3220   6.976   3.924   0.128
 1114TIP3   OH2 3221   7.303   3.391   0.139
 1114TIP3    H1 3222   7.345   3.309   0.172
 1114TIP3    H2 3223   7.296   3.368   0.045
 1115TIP3   OH2 3224   6.622   3.045   0.115
 1115TIP3    H1 3225   6.603   3.122   0.057
 1115TIP3    H2 3226   6.587   2.973   0.058
 1116TIP3   OH2 3227   6.272   3.250   0.204
 1116TIP3    H1 3228   6.356   3.233   0.251
 1116TIP3    H2 3229   6.285   3.195   0.124
 1117TIP3   OH2 3230   6.734   3.457   0.019
 1117TIP3    H1 3231   6.826   3.426   0.021
 1117TIP3    H2 3232   6.690   3.381  -0.023
 1118TIP3   OH2 3233   7.953   3.417   0.260
 1118TIP3    H1 3234   7.873   3.473   0.258
 1118TIP3    H2 3235   7.986   3.429   0.350
 1119TIP3   OH2 3236   6.636   3.036   0.537
 1119TIP3    H1 3237   6.576   3.071   0.468
 1119TIP3    H2 3238   6.585   3.054   0.617
 1120TIP3   OH2 3239   6.744   3.809   0.333
 1120TIP3    H1 3240   6.678   3.868   0.376
 1120TIP3    H2 3241   6.788   3.870   0.271
 1121TIP3   OH2 3242   6.502   3.152   0.327
 1121TIP3    H1 3243   6.567   3.222   0.345
 1121TIP3    H2 3244   6.547   3.107   0.251
 1122TIP3   OH2 3245   6.568   3.998   0.426
 1122TIP3    H1 3246   6.542   4.085   0.389
 1122TIP3    H2 3247   6.490   3.983   0.485
 1123TIP3   OH2 3248   7.693   3.121   0.258
 1123TIP3    H1 3249   7.600   3.142   0.242
 1123TIP3    H2 3250   7.731   3.132   0.170
 1124TIP3   OH2 3251   6.999   2.760   0.244
 1124TIP3    H1 3252   6.997   2.663   0.256
 1124TIP3    H2 3253   6.917   2.786   0.292
 1125TIP3   OH2 3254   7.616   4.130   0.246
 1125TIP3    H1 3255   7.640   4.073   0.172
 1125TIP3    H2 3256   7.604   4.215   0.201
 1126TIP3   OH2 3257   7.499   3.636   0.389
 1126TIP3    H1 3258   7.502   3.721   0.437
 1126TIP3    H2 3259   7.415   3.647   0.339
 1127TIP3   OH2 3260   6.475   3.540  -0.072
 1127TIP3    H1 3261   6.462   3.593  -0.154
 1127TIP3    H2 3262   6.571   3.524  -0.070
 1128TIP3   OH2 3263   6.641   4.010   0.024
 1128TIP3    H1 3264   6.596   3.931  -0.008
 1128TIP3    H2 3265   6.725   3.973   0.058
 1129TIP3   OH2 3266   6.637   3.566   0.256
 1129TIP3    H1 3267   6.668   3.540   0.166
 1129TIP3    H2 3268   6.682   3.652   0.269
 1130TIP3   OH2 3269   6.776   4.125   0.570
 1130TIP3    H1 3270   6.717   4.187   0.618
 1130TIP3    H2 3271   6.709   4.071   0.523
 1131TIP3   OH2 3272   6.531   3.681   0.673
 1131TIP3    H1 3273   6.532   3.768   0.718
 1131TIP3    H2 3274   6.435   3.664   0.671
 1132TIP3   OH2 3275   6.572   4.294   0.657
 1132TIP3    H1 3276   6.536   4.290   0.566
 1132TIP3    H2 3277   6.493   4.271   0.711
 1133TIP3   OH2 3278   6.151   3.822   0.605
 1133TIP3    H1 3279   6.086   3.801   0.534
 1133TIP3    H2 3280   6.186   3.734   0.629
 1134TIP3   OH2 3281   6.006   4.013   0.240
 1134TIP3    H1 3282   6.101   4.008   0.226
 1134TIP3    H2 3283   5.997   4.093   0.294
 1135TIP3   OH2 3284   6.971   4.256   0.423
 1135TIP3    H1 3285   6.974   4.347   0.461
 1135TIP3    H2 3286   6.904   4.214   0.480
 1136TIP3   OH2 3287   7.754   3.595   0.572
 1136TIP3    H1 3288   7.687   3.611   0.505
 1136TIP3    H2 3289   7.775   3.501   0.556
 1137TIP3   OH2 3290   6.357   4.004   0.596
 1137TIP3    H1 3291   6.405   3.987   0.680
 1137TIP3    H2 3292   6.282   3.941   0.603
 1138TIP3   OH2 3293   6.754   2.828   0.375
 1138TIP3    H1 3294   6.664   2.797   0.351
 1138TIP3    H2 3295   6.731   2.913   0.416
 1139TIP3   OH2 3296   7.287   2.952   0.574
 1139TIP3    H1 3297   7.356   2.915   0.632
 1139TIP3    H2 3298   7.204   2.922   0.616
 1140TIP3   OH2 3299   7.528   3.372   0.486
 1140TIP3    H1 3300   7.483   3.368   0.573
 1140TIP3    H2 3301   7.506   3.462   0.456
 1141TIP3   OH2 3302   6.688   3.343   0.398
 1141TIP3    H1 3303   6.634   3.365   0.477
 1141TIP3    H2 3304   6.672   3.422   0.342
 1142TIP3   OH2 3305   6.546   3.239  -0.047
 1142TIP3    H1 3306   6.463   3.192  -0.067
 1142TIP3    H2 3307   6.591   3.247  -0.134
 1143TIP3   OH2 3308   7.236   3.601   0.726
 1143TIP3    H1 3309   7.215   3.525   0.784
 1143TIP3    H2 3310   7.331   3.611   0.742
 1144TIP3   OH2 3311   6.505   3.375   0.604
 1144TIP3    H1 3312   6.528   3.441   0.671
 1144TIP3    H2 3313   6.493   3.294   0.657
 1145TIP3   OH2 3314   6.100   2.898   0.183
 1145TIP3    H1 3315   6.173   2.929   0.239
 1145TIP3    H2 3316   6.145   2.859   0.107
 1146TIP3   OH2 3317   6.226   2.948  -0.310
 1146TIP3    H1 3318   6.242   3.041  -0.338
 1146TIP3    H2 3319   6.130   2.946  -0.299
 1147TIP3   OH2 3320   7.225   3.595   0.295
 1147TIP3    H1 3321   7.259   3.518   0.244
 1147TIP3    H2 3322   7.201   3.549   0.378
 1148TIP3   OH2 3323   6.878   3.006   0.012
 1148TIP3    H1 3324   6.801   3.035   0.063
 1148TIP3    H2 3325   6.953   3.045   0.056
 1149TIP3   OH2 3326   6.315   3.087  -0.030
 1149TIP3    H1 3327   6.217   3.095  -0.041
 1149TIP3    H2 3328   6.333   2.993  -0.045
 1150TIP3   OH2 3329   7.380   3.129   0.178
 1150TIP3    H1 3330   7.346   3.141   0.269
 1150TIP3    H2 3331   7.322   3.058   0.146
 1151TIP3   OH2 3332   7.544   4.849   0.398
 1151TIP3    H1 3333   7.550   4.839   0.302
 1151TIP3    H2 3334   7.626   4.807   0.428
 1152TIP3   OH2 3335   6.517   3.926   0.815
 1152TIP3    H1 3336   6.596   3.958   0.862
 1152TIP3    H2 3337   6.451   3.929   0.888
 1153TIP3   OH2 3338   6.996   3.379   0.066
 1153TIP3    H1 3339   7.026   3.306   0.009
 1153TIP3    H2 3340   7.004   3.340   0.155
 1154TIP3   OH2 3341   6.510   2.864  -0.068
 1154TIP3    H1 3342   6.480   2.788  -0.015
 1154TIP3    H2 3343   6.598   2.836  -0.098
 1155TIP3   OH2 3344   6.959   3.276   0.354
 1155TIP3    H1 3345   6.869   3.311   0.372
 1155TIP3    H2 3346   7.016   3.332   0.409
 1156TIP3   OH2 3347   7.085   3.983   0.450
 1156TIP3    H1 3348   7.118   3.959   0.538
 1156TIP3    H2 3349   7.059   4.076   0.462
 1157TIP3   OH2 3350   6.389   3.687   0.137
 1157TIP3    H1 3351   6.409   3.645   0.050
 1157TIP3    H2 3352   6.421   3.618   0.196
 1158TIP3   OH2 3353   6.264   3.610   0.742
 1158TIP3    H1 3354   6.282   3.596   0.837
 1158TIP3    H2 3355   6.194   3.545   0.725
 1159TIP3   OH2 3356   6.989   3.718   0.768
 1159TIP3    H1 3357   6.934   3.666   0.707
 1159TIP3    H2 3358   7.079   3.690   0.739
 1160TIP3   OH2 3359   7.247   4.232   0.352
 1160TIP3    H1 3360   7.152   4.245   0.368
 1160TIP3    H2 3361   7.286   4.292   0.419
 1161TIP3   OH2 3362   7.876   4.169   0.373
 1161TIP3    H1 3363   7.787   4.208   0.371
 1161TIP3    H2 3364   7.901   4.176   0.280
 1162TIP3   OH2 3365   6.756   4.319   0.232
 1162TIP3    H1 3366   6.790   4.383   0.166
 1162TIP3    H2 3367   6.836   4.300   0.283
 1163TIP3   OH2 3368   7.135   3.980   0.177
 1163TIP3    H1 3369   7.133   3.976   0.275
 1163TIP3    H2 3370   7.230   3.969   0.160
 1164TIP3   OH2 3371   6.480   3.122   0.767
 1164TIP3    H1 3372   6.382   3.120   0.765
 1164TIP3    H2 3373   6.500   3.041   0.817
 1165TIP3   OH2 3374   6.193   4.202   0.394
 1165TIP3    H1 3375   6.245   4.123   0.412
 1165TIP3    H2 3376   6.229   4.263   0.459
 1166TIP3   OH2 3377   7.309   3.187   0.436
 1166TIP3    H1 3378   7.394   3.218   0.469
 1166TIP3    H2 3379   7.296   3.104   0.487
 1167TIP3   OH2 3380   7.154   3.434   0.507
 1167TIP3    H1 3381   7.175   3.484   0.588
 1167TIP3    H2 3382   7.210   3.354   0.516
 1168TIP3   OH2 3383   7.798   3.332   0.487
 1168TIP3    H1 3384   7.700   3.325   0.490
 1168TIP3    H2 3385   7.815   3.295   0.399
 1169TIP3   OH2 3386   6.486   2.750   0.356
 1169TIP3    H1 3387   6.459   2.717   0.268
 1169TIP3    H2 3388   6.480   2.670   0.412
 1170TIP3   OH2 3389   6.183   4.503   0.805
 1170TIP3    H1 3390   6.269   4.502   0.852
 1170TIP3    H2 3391   6.161   4.408   0.803
 1171TIP3   OH2 3392   6.671   4.476   0.850
 1171TIP3    H1 3393   6.765   4.456   0.856
 1171TIP3    H2 3394   6.645   4.420   0.774
 1172TIP3   OH2 3395   7.306   4.380   0.582
 1172TIP3    H1 3396   7.299   4.310   0.651
 1172TIP3    H2 3397   7.399   4.408   0.590
 1173TIP3   OH2 3398   6.316   3.912   1.006
 1173TIP3    H1 3399   6.331   3.816   1.003
 1173TIP3    H2 3400   6.228   3.918   0.963
 1174TIP3   OH2 3401   6.923   3.996   0.778
 1174TIP3    H1 3402   6.884   4.011   0.690
 1174TIP3    H2 3403   6.956   3.904   0.772
 1175TIP3   OH2 3404   7.414   4.004   0.385
 1175TIP3    H1 3405   7.488   4.045   0.337
 1175TIP3    H2 3406   7.346   4.074   0.375
 1176TIP3   OH2 3407   6.431   3.648   0.988
 1176TIP3    H1 3408   6.505   3.591   0.964
 1176TIP3    H2 3409   6.457   3.678   1.077
 1177TIP3   OH2 3410   6.768   3.534   0.653
 1177TIP3    H1 3411   6.690   3.594   0.653
 1177TIP3    H2 3412   6.815   3.563   0.571
 1178TIP3   OH2 3413   7.285   3.934   0.783
 1178TIP3    H1 3414   7.368   3.921   0.734
 1178TIP3    H2 3415   7.289   3.864   0.850
 1179TIP3   OH2 3416   6.887   3.318   0.781
 1179TIP3    H1 3417   6.894   3.238   0.724
 1179TIP3    H2 3418   6.850   3.384   0.717
 1180TIP3   OH2 3419   6.893   3.113   0.583
 1180TIP3    H1 3420   6.923   3.145   0.496
 1180TIP3    H2 3421   6.801   3.084   0.563
 1181TIP3   OH2 3422   6.926   3.646   0.458
 1181TIP3    H1 3423   7.006   3.645   0.403
 1181TIP3    H2 3424   6.871   3.713   0.413
 1182TIP3   OH2 3425   7.509   3.613   0.841
 1182TIP3    H1 3426   7.555   3.527   0.842
 1182TIP3    H2 3427   7.578   3.670   0.803
 1183TIP3   OH2 3428   7.549   3.865   0.572
 1183TIP3    H1 3429   7.491   3.917   0.512
 1183TIP3    H2 3430   7.635   3.879   0.526
 1184TIP3   OH2 3431   6.761   3.432   1.003
 1184TIP3    H1 3432   6.697   3.357   0.999
 1184TIP3    H2 3433   6.807   3.419   0.917
 1185TIP3   OH2 3434   7.028   2.875   0.646
 1185TIP3    H1 3435   6.976   2.955   0.624
 1185TIP3    H2 3436   6.962   2.804   0.633
 1186TIP3   OH2 3437   7.153   3.382   0.861
 1186TIP3    H1 3438   7.152   3.365   0.957
 1186TIP3    H2 3439   7.064   3.350   0.837
 1187TIP3   OH2 3440   7.397   3.332   0.720
 1187TIP3    H1 3441   7.320   3.324   0.780
 1187TIP3    H2 3442   7.469   3.295   0.775
 1188TIP3   OH2 3443   7.622   3.265   0.872
 1188TIP3    H1 3444   7.635   3.170   0.890
 1188TIP3    H2 3445   7.620   3.304   0.962
 1189TIP3   OH2 3446   6.616   3.206   1.063
 1189TIP3    H1 3447   6.627   3.155   0.981
 1189TIP3    H2 3448   6.612   3.131   1.124
 1190TIP3   OH2 3449   7.123   2.882   0.903
 1190TIP3    H1 3450   7.191   2.812   0.900
 1190TIP3    H2 3451   7.085   2.873   0.813
 1191TIP3   OH2 3452   7.190   3.092   1.062
 1191TIP3    H1 3453   7.170   3.018   1.000
 1191TIP3    H2 3454   7.114   3.152   1.047
 1192TIP3   OH2 3455   5.928   4.179  -0.001
 1192TIP3    H1 3456   5.915   4.099   0.052
 1192TIP3    H2 3457   5.977   4.235   0.062
 1193TIP3   OH2 3458   7.750   4.277   0.647
 1193TIP3    H1 3459   7.671   4.294   0.701
 1193TIP3    H2 3460   7.749   4.356   0.589
 1194TIP3   OH2 3461   6.127   3.575   0.352
 1194TIP3    H1 3462   6.127   3.551   0.257
 1194TIP3    H2 3463   6.224   3.580   0.369
 1195TIP3   OH2 3464   7.784   3.925   0.449
 1195TIP3    H1 3465   7.863   3.867   0.455
 1195TIP3    H2 3466   7.820   4.013   0.423
 1196TIP3   OH2 3467   7.969   3.738   0.500
 1196TIP3    H1 3468   7.895   3.682   0.531
 1196TIP3    H2 3469   8.044   3.675   0.508
 1197TIP3   OH2 3470   7.732   3.574   0.245
 1197TIP3    H1 3471   7.645   3.574   0.290
 1197TIP3    H2 3472   7.707   3.608   0.158
 1198TIP3   OH2 3473   6.346   3.271   1.038
 1198TIP3    H1 3474   6.440   3.252   1.022
 1198TIP3    H2 3475   6.315   3.183   1.069
 1199TIP3   OH2 3476   8.184   3.132   0.788
 1199TIP3    H1 3477   8.236   3.063   0.742
 1199TIP3    H2 3478   8.151   3.186   0.713
 1200TIP3   OH2 3479   6.303   2.958   0.360
 1200TIP3    H1 3480   6.365   2.883   0.368
 1200TIP3    H2 3481   6.366   3.032   0.354
 1201TIP3   OH2 3482   6.111   3.232   0.434
 1201TIP3    H1 3483   6.159   3.222   0.349
 1201TIP3    H2 3484   6.138   3.322   0.459
 1202TIP3   OH2 3485   8.051   3.275   0.599
 1202TIP3    H1 3486   7.959   3.308   0.608
 1202TIP3    H2 3487   8.037   3.207   0.531
 1203TIP3   OH2 3488   6.086   2.736  -0.075
 1203TIP3    H1 3489   5.994   2.736  -0.043
 1203TIP3    H2 3490   6.086   2.804  -0.143
 1204TIP3   OH2 3491   6.312   2.825   0.752
 1204TIP3    H1 3492   6.259   2.810   0.831
 1204TIP3    H2 3493   6.244   2.854   0.688
 1205TIP3   OH2 3494   6.352   4.236   0.826
 1205TIP3    H1 3495   6.260   4.210   0.807
 1205TIP3    H2 3496   6.357   4.225   0.922
 1206TIP3   OH2 3497   6.524   4.270   0.374
 1206TIP3    H1 3498   6.470   4.337   0.330
 1206TIP3    H2 3499   6.611   4.287   0.332
 1207TIP3   OH2 3500   6.977   4.519   0.513
 1207TIP3    H1 3501   7.015   4.519   0.603
 1207TIP3    H2 3502   7.046   4.568   0.464
 1208TIP3   OH2 3503   7.161   4.652   0.365
 1208TIP3    H1 3504   7.245   4.609   0.346
 1208TIP3    H2 3505   7.194   4.729   0.416
 1209TIP3   OH2 3506   7.945   3.034   0.480
 1209TIP3    H1 3507   7.857   3.031   0.438
 1209TIP3    H2 3508   7.976   2.942   0.462
 1210TIP3   OH2 3509   6.211   4.529   0.397
 1210TIP3    H1 3510   6.125   4.564   0.367
 1210TIP3    H2 3511   6.211   4.561   0.488
 1211TIP3   OH2 3512   6.436   4.526   0.242
 1211TIP3    H1 3513   6.357   4.533   0.300
 1211TIP3    H2 3514   6.394   4.525   0.155
 1212TIP3   OH2 3515   6.100   4.324   0.166
 1212TIP3    H1 3516   6.130   4.299   0.256
 1212TIP3    H2 3517   6.173   4.283   0.114
 1213TIP3   OH2 3518   6.302   4.213   0.035
 1213TIP3    H1 3519   6.318   4.118   0.051
 1213TIP3    H2 3520   6.393   4.247   0.023
 1214TIP3   OH2 3521   6.564   4.285   0.028
 1214TIP3    H1 3522   6.589   4.191   0.017
 1214TIP3    H2 3523   6.620   4.310   0.104
 1215TIP3   OH2 3524   7.165   2.952   0.101
 1215TIP3    H1 3525   7.097   2.896   0.145
 1215TIP3    H2 3526   7.226   2.883   0.068
 1216TIP3   OH2 3527   7.670   2.864   0.032
 1216TIP3    H1 3528   7.715   2.931  -0.022
 1216TIP3    H2 3529   7.580   2.866  -0.003
 1217TIP3   OH2 3530   6.399   2.664   0.104
 1217TIP3    H1 3531   6.308   2.628   0.102
 1217TIP3    H2 3532   6.449   2.580   0.107
 1218TIP3   OH2 3533   6.187   2.506  -0.211
 1218TIP3    H1 3534   6.179   2.546  -0.300
 1218TIP3    H2 3535   6.167   2.582  -0.153
 1219TIP3   OH2 3536   6.822   2.710  -0.015
 1219TIP3    H1 3537   6.879   2.763  -0.071
 1219TIP3    H2 3538   6.864   2.724   0.071
 1220TIP3   OH2 3539   7.361   2.789   0.004
 1220TIP3    H1 3540   7.329   2.743  -0.076
 1220TIP3    H2 3541   7.367   2.715   0.066
 1221TIP3   OH2 3542   6.604   2.937   1.004
 1221TIP3    H1 3543   6.578   2.858   1.054
 1221TIP3    H2 3544   6.701   2.936   1.022
 1222TIP3   OH2 3545   6.858   2.935   1.104
 1222TIP3    H1 3546   6.944   2.907   1.069
 1222TIP3    H2 3547   6.850   2.875   1.182
 1223TIP3   OH2 3548   7.682   2.996   0.903
 1223TIP3    H1 3549   7.702   2.962   0.992
 1223TIP3    H2 3550   7.770   2.989   0.858
 1224TIP3   OH2 3551   8.356   4.116   0.340
 1224TIP3    H1 3552   8.394   4.198   0.374
 1224TIP3    H2 3553   8.282   4.105   0.403
 1225TIP3   OH2 3554   8.069   3.825   0.250
 1225TIP3    H1 3555   8.117   3.845   0.333
 1225TIP3    H2 3556   8.016   3.749   0.280
 1226TIP3   OH2 3557   8.213   3.288   0.272
 1226TIP3    H1 3558   8.199   3.381   0.251
 1226TIP3    H2 3559   8.295   3.288   0.325
 1227TIP3   OH2 3560   8.121   4.171   0.482
 1227TIP3    H1 3561   8.120   4.076   0.503
 1227TIP3    H2 3562   8.026   4.184   0.458
 1228TIP3   OH2 3563   8.225   3.889   0.478
 1228TIP3    H1 3564   8.301   3.833   0.458
 1228TIP3    H2 3565   8.251   3.928   0.565
 1229TIP3   OH2 3566   8.551   3.703   0.471
 1229TIP3    H1 3567   8.485   3.632   0.487
 1229TIP3    H2 3568   8.586   3.676   0.384
 1230TIP3   OH2 3569   8.406   3.482   0.552
 1230TIP3    H1 3570   8.415   3.404   0.495
 1230TIP3    H2 3571   8.436   3.448   0.638
 1231TIP3   OH2 3572   8.139   3.528   0.520
 1231TIP3    H1 3573   8.236   3.518   0.515
 1231TIP3    H2 3574   8.114   3.441   0.555
 1232TIP3   OH2 3575   8.067   3.059   0.226
 1232TIP3    H1 3576   8.050   3.069   0.321
 1232TIP3    H2 3577   8.091   3.151   0.203
 1233TIP3   OH2 3578   8.377   3.192   0.476
 1233TIP3    H1 3579   8.346   3.119   0.532
 1233TIP3    H2 3580   8.471   3.197   0.502
 1234TIP3   OH2 3581   8.613   3.198   0.596
 1234TIP3    H1 3582   8.710   3.201   0.583
 1234TIP3    H2 3583   8.608   3.124   0.659
 1235TIP3   OH2 3584   0.429   4.180   1.975
 1235TIP3    H1 3585   0.361   4.230   1.926
 1235TIP3    H2 3586   0.445   4.238   2.051
 1236TIP3   OH2 3587  -0.130   4.986   1.632
 1236TIP3    H1 3588  -0.225   4.973   1.635
 1236TIP3    H2 3589  -0.118   5.041   1.550
 1237TIP3   OH2 3590   0.085   4.913   1.937
 1237TIP3    H1 3591   0.076   4.834   1.879
 1237TIP3    H2 3592   0.072   4.986   1.873
 1238TIP3   OH2 3593   0.279   4.543   1.783
 1238TIP3    H1 3594   0.196   4.596   1.789
 1238TIP3    H2 3595   0.305   4.563   1.691
 1239TIP3   OH2 3596  -0.032   4.429   2.083
 1239TIP3    H1 3597  -0.045   4.511   2.135
 1239TIP3    H2 3598  -0.112   4.426   2.029
 1240TIP3   OH2 3599   0.322   5.252   1.979
 1240TIP3    H1 3600   0.321   5.155   1.992
 1240TIP3    H2 3601   0.240   5.277   2.027
 1241TIP3   OH2 3602  -0.555   5.028   2.126
 1241TIP3    H1 3603  -0.546   5.123   2.154
 1241TIP3    H2 3604  -0.650   5.017   2.133
 1242TIP3   OH2 3605   0.215   4.385   2.255
 1242TIP3    H1 3606   0.134   4.402   2.205
 1242TIP3    H2 3607   0.223   4.288   2.250
 1243TIP3   OH2 3608  -0.021   4.161   2.167
 1243TIP3    H1 3609  -0.055   4.157   2.259
 1243TIP3    H2 3610  -0.037   4.255   2.145
 1244TIP3   OH2 3611  -0.313   4.403   2.420
 1244TIP3    H1 3612  -0.340   4.323   2.470
 1244TIP3    H2 3613  -0.217   4.405   2.438
 1245TIP3   OH2 3614   0.007   5.601   2.101
 1245TIP3    H1 3615   0.004   5.619   2.005
 1245TIP3    H2 3616   0.084   5.653   2.130
 1246TIP3   OH2 3617   0.052   4.695   1.774
 1246TIP3    H1 3618   0.083   4.743   1.693
 1246TIP3    H2 3619  -0.040   4.675   1.751
 1247TIP3   OH2 3620  -0.431   4.784   2.131
 1247TIP3    H1 3621  -0.433   4.750   2.222
 1247TIP3    H2 3622  -0.485   4.865   2.140
 1248TIP3   OH2 3623  -0.555   4.520   2.478
 1248TIP3    H1 3624  -0.614   4.500   2.403
 1248TIP3    H2 3625  -0.469   4.486   2.445
 1249TIP3   OH2 3626  -0.296   5.085   2.019
 1249TIP3    H1 3627  -0.380   5.040   2.040
 1249TIP3    H2 3628  -0.265   5.105   2.111
 1250TIP3   OH2 3629   0.335   4.961   2.027
 1250TIP3    H1 3630   0.237   4.957   2.020
 1250TIP3    H2 3631   0.360   4.931   1.937
 1251TIP3   OH2 3632  -0.318   4.804   1.859
 1251TIP3    H1 3633  -0.358   4.812   1.948
 1251TIP3    H2 3634  -0.347   4.715   1.835
 1252TIP3   OH2 3635  -0.140   5.292   1.929
 1252TIP3    H1 3636  -0.202   5.220   1.956
 1252TIP3    H2 3637  -0.192   5.337   1.860
 1253TIP3   OH2 3638   0.245   4.101   2.177
 1253TIP3    H1 3639   0.147   4.108   2.172
 1253TIP3    H2 3640   0.270   4.112   2.083
 1254TIP3   OH2 3641  -0.231   5.164   2.271
 1254TIP3    H1 3642  -0.243   5.093   2.339
 1254TIP3    H2 3643  -0.158   5.216   2.308
 1255TIP3   OH2 3644  -0.612   4.793   2.452
 1255TIP3    H1 3645  -0.675   4.763   2.386
 1255TIP3    H2 3646  -0.576   4.707   2.483
 1256TIP3   OH2 3647  -0.121   4.787   2.079
 1256TIP3    H1 3648  -0.054   4.840   2.031
 1256TIP3    H2 3649  -0.202   4.832   2.054
 1257TIP3   OH2 3650  -0.263   4.720   2.475
 1257TIP3    H1 3651  -0.179   4.703   2.430
 1257TIP3    H2 3652  -0.263   4.649   2.543
 1258TIP3   OH2 3653  -0.041   4.410   2.530
 1258TIP3    H1 3654  -0.001   4.322   2.530
 1258TIP3    H2 3655   0.034   4.466   2.505
 1259TIP3   OH2 3656   0.005   4.647   2.265
 1259TIP3    H1 3657  -0.054   4.702   2.208
 1259TIP3    H2 3658   0.091   4.668   2.223
 1260TIP3   OH2 3659  -0.411   4.185   2.560
 1260TIP3    H1 3660  -0.396   4.168   2.656
 1260TIP3    H2 3661  -0.508   4.189   2.562
 1261TIP3   OH2 3662  -0.104   4.151   2.424
 1261TIP3    H1 3663  -0.182   4.135   2.479
 1261TIP3    H2 3664  -0.034   4.101   2.472
 1262TIP3   OH2 3665   0.098   4.038   2.567
 1262TIP3    H1 3666   0.088   3.946   2.595
 1262TIP3    H2 3667   0.082   4.089   2.649
 1263TIP3   OH2 3668   0.138   5.406   1.480
 1263TIP3    H1 3669   0.186   5.380   1.561
 1263TIP3    H2 3670   0.203   5.381   1.411
 1264TIP3   OH2 3671   0.161   5.389   1.763
 1264TIP3    H1 3672   0.109   5.307   1.749
 1264TIP3    H2 3673   0.230   5.354   1.821
 1265TIP3   OH2 3674   0.194   5.056   2.323
 1265TIP3    H1 3675   0.119   5.063   2.387
 1265TIP3    H2 3676   0.233   5.145   2.329
 1266TIP3   OH2 3677   0.187   4.822   1.580
 1266TIP3    H1 3678   0.246   4.763   1.530
 1266TIP3    H2 3679   0.186   4.902   1.524
 1267TIP3   OH2 3680   0.038   5.137   1.782
 1267TIP3    H1 3681  -0.033   5.174   1.838
 1267TIP3    H2 3682  -0.014   5.085   1.717
 1268TIP3   OH2 3683   0.242   4.717   2.151
 1268TIP3    H1 3684   0.315   4.652   2.143
 1268TIP3    H2 3685   0.271   4.788   2.091
 1269TIP3   OH2 3686   0.430   4.528   2.175
 1269TIP3    H1 3687   0.355   4.477   2.214
 1269TIP3    H2 3688   0.502   4.463   2.188
 1270TIP3   OH2 3689   0.182   4.326   1.932
 1270TIP3    H1 3690   0.111   4.373   1.979
 1270TIP3    H2 3691   0.216   4.396   1.873
 1271TIP3   OH2 3692   0.626   3.910   2.476
 1271TIP3    H1 3693   0.690   3.852   2.429
 1271TIP3    H2 3694   0.600   3.973   2.405
 1272TIP3   OH2 3695   0.505   4.061   2.287
 1272TIP3    H1 3696   0.419   4.100   2.314
 1272TIP3    H2 3697   0.475   3.999   2.219
 1273TIP3   OH2 3698  -0.552   5.286   2.208
 1273TIP3    H1 3699  -0.530   5.323   2.295
 1273TIP3    H2 3700  -0.519   5.355   2.148
 1274TIP3   OH2 3701  -0.370   5.432   2.050
 1274TIP3    H1 3702  -0.281   5.394   2.047
 1274TIP3    H2 3703  -0.353   5.506   2.113
 1275TIP3   OH2 3704   0.397   3.816   2.153
 1275TIP3    H1 3705   0.309   3.843   2.121
 1275TIP3    H2 3706   0.398   3.722   2.128
 1276TIP3   OH2 3707   0.133   3.759   2.589
 1276TIP3    H1 3708   0.160   3.747   2.683
 1276TIP3    H2 3709   0.218   3.778   2.546
 1277TIP3   OH2 3710   0.083   5.338   2.088
 1277TIP3    H1 3711   0.006   5.305   2.039
 1277TIP3    H2 3712   0.060   5.433   2.095
 1278TIP3   OH2 3713   1.360   4.725   0.874
 1278TIP3    H1 3714   1.327   4.813   0.847
 1278TIP3    H2 3715   1.286   4.670   0.840
 1279TIP3   OH2 3716   1.334   4.709   1.230
 1279TIP3    H1 3717   1.368   4.676   1.315
 1279TIP3    H2 3718   1.301   4.627   1.190
 1280TIP3   OH2 3719   0.641   4.610   1.597
 1280TIP3    H1 3720   0.668   4.534   1.653
 1280TIP3    H2 3721   0.720   4.664   1.599
 1281TIP3   OH2 3722   1.580   5.008   0.910
 1281TIP3    H1 3723   1.568   4.937   0.975
 1281TIP3    H2 3724   1.609   5.082   0.966
 1282TIP3   OH2 3725   0.608   5.010   1.325
 1282TIP3    H1 3726   0.598   4.913   1.331
 1282TIP3    H2 3727   0.705   5.019   1.323
 1283TIP3   OH2 3728   1.222   5.469   0.919
 1283TIP3    H1 3729   1.281   5.400   0.883
 1283TIP3    H2 3730   1.220   5.448   1.014
 1284TIP3   OH2 3731   1.140   4.932   1.276
 1284TIP3    H1 3732   1.179   4.855   1.232
 1284TIP3    H2 3733   1.223   4.977   1.301
 1285TIP3   OH2 3734   2.149   4.255   1.275
 1285TIP3    H1 3735   2.178   4.337   1.321
 1285TIP3    H2 3736   2.169   4.279   1.183
 1286TIP3   OH2 3737   1.551   4.438   1.314
 1286TIP3    H1 3738   1.592   4.351   1.335
 1286TIP3    H2 3739   1.520   4.423   1.223
 1287TIP3   OH2 3740   1.572   4.176   0.920
 1287TIP3    H1 3741   1.658   4.167   0.967
 1287TIP3    H2 3742   1.598   4.209   0.833
 1288TIP3   OH2 3743   0.974   4.487   1.174
 1288TIP3    H1 3744   1.069   4.472   1.194
 1288TIP3    H2 3745   0.946   4.396   1.156
 1289TIP3   OH2 3746   2.224   4.461   1.445
 1289TIP3    H1 3747   2.140   4.509   1.426
 1289TIP3    H2 3748   2.233   4.480   1.540
 1290TIP3   OH2 3749   0.877   4.069   1.713
 1290TIP3    H1 3750   0.818   4.114   1.648
 1290TIP3    H2 3751   0.832   4.096   1.796
 1291TIP3   OH2 3752   1.240   4.930   0.733
 1291TIP3    H1 3753   1.201   4.912   0.645
 1291TIP3    H2 3754   1.203   5.018   0.749
 1292TIP3   OH2 3755   0.990   4.851   1.510
 1292TIP3    H1 3756   0.926   4.914   1.551
 1292TIP3    H2 3757   1.033   4.907   1.443
 1293TIP3   OH2 3758   1.803   4.183   1.067
 1293TIP3    H1 3759   1.783   4.136   1.149
 1293TIP3    H2 3760   1.851   4.261   1.098
 1294TIP3   OH2 3761   0.754   4.195   1.513
 1294TIP3    H1 3762   0.820   4.267   1.508
 1294TIP3    H2 3763   0.777   4.134   1.441
 1295TIP3   OH2 3764   0.816   5.043   1.604
 1295TIP3    H1 3765   0.791   5.130   1.565
 1295TIP3    H2 3766   0.738   5.029   1.662
 1296TIP3   OH2 3767   1.655   5.250   1.082
 1296TIP3    H1 3768   1.565   5.242   1.121
 1296TIP3    H2 3769   1.647   5.336   1.036
 1297TIP3   OH2 3770   1.942   4.156   1.443
 1297TIP3    H1 3771   1.854   4.187   1.414
 1297TIP3    H2 3772   2.000   4.187   1.370
 1298TIP3   OH2 3773   1.265   3.816   1.423
 1298TIP3    H1 3774   1.248   3.721   1.441
 1298TIP3    H2 3775   1.182   3.855   1.459
 1299TIP3   OH2 3776   1.368   5.299   0.763
 1299TIP3    H1 3777   1.417   5.217   0.738
 1299TIP3    H2 3778   1.427   5.366   0.723
 1300TIP3   OH2 3779   1.497   5.084   0.658
 1300TIP3    H1 3780   1.465   5.006   0.612
 1300TIP3    H2 3781   1.532   5.045   0.742
 1301TIP3   OH2 3782   1.881   5.168   1.424
 1301TIP3    H1 3783   1.870   5.089   1.366
 1301TIP3    H2 3784   1.864   5.241   1.362
 1302TIP3   OH2 3785   1.196   4.591   0.705
 1302TIP3    H1 3786   1.108   4.628   0.683
 1302TIP3    H2 3787   1.248   4.623   0.630
 1303TIP3   OH2 3788   2.075   4.801   1.267
 1303TIP3    H1 3789   1.993   4.854   1.274
 1303TIP3    H2 3790   2.104   4.825   1.177
 1304TIP3   OH2 3791   1.522   4.648   0.664
 1304TIP3    H1 3792   1.474   4.677   0.745
 1304TIP3    H2 3793   1.604   4.613   0.704
 1305TIP3   OH2 3794   1.755   4.684   1.560
 1305TIP3    H1 3795   1.751   4.768   1.610
 1305TIP3    H2 3796   1.668   4.687   1.516
 1306TIP3   OH2 3797   0.781   4.641   1.062
 1306TIP3    H1 3798   0.730   4.561   1.039
 1306TIP3    H2 3799   0.859   4.600   1.105
 1307TIP3   OH2 3800   0.885   5.047   1.212
 1307TIP3    H1 3801   0.868   4.982   1.143
 1307TIP3    H2 3802   0.976   5.022   1.239
 1308TIP3   OH2 3803   0.887   4.614   1.419
 1308TIP3    H1 3804   0.930   4.596   1.333
 1308TIP3    H2 3805   0.930   4.698   1.447
 1309TIP3   OH2 3806   1.412   5.248   1.199
 1309TIP3    H1 3807   1.400   5.328   1.252
 1309TIP3    H2 3808   1.399   5.176   1.264
 1310TIP3   OH2 3809   1.024   5.169   1.748
 1310TIP3    H1 3810   0.964   5.231   1.794
 1310TIP3    H2 3811   0.958   5.115   1.700
 1311TIP3   OH2 3812   1.362   4.518   0.486
 1311TIP3    H1 3813   1.431   4.556   0.544
 1311TIP3    H2 3814   1.389   4.546   0.398
 1312TIP3   OH2 3815   0.778   4.729   1.843
 1312TIP3    H1 3816   0.780   4.813   1.893
 1312TIP3    H2 3817   0.683   4.707   1.851
 1313TIP3   OH2 3818   1.101   5.194   0.738
 1313TIP3    H1 3819   1.178   5.235   0.780
 1313TIP3    H2 3820   1.030   5.257   0.755
 1314TIP3   OH2 3821   0.820   5.340   1.833
 1314TIP3    H1 3822   0.785   5.336   1.742
 1314TIP3    H2 3823   0.741   5.316   1.887
 1315TIP3   OH2 3824   1.680   5.111   0.081
 1315TIP3    H1 3825   1.683   5.205   0.056
 1315TIP3    H2 3826   1.771   5.081   0.064
 1316TIP3   OH2 3827   0.399   4.867   1.782
 1316TIP3    H1 3828   0.338   4.842   1.711
 1316TIP3    H2 3829   0.436   4.780   1.810
 1317TIP3   OH2 3830   0.255   5.041   1.420
 1317TIP3    H1 3831   0.348   5.056   1.399
 1317TIP3    H2 3832   0.227   5.129   1.448
 1318TIP3   OH2 3833   2.118   5.508   1.467
 1318TIP3    H1 3834   2.116   5.412   1.481
 1318TIP3    H2 3835   2.035   5.534   1.513
 1319TIP3   OH2 3836   1.225   5.298   1.604
 1319TIP3    H1 3837   1.225   5.390   1.636
 1319TIP3    H2 3838   1.153   5.259   1.659
 1320TIP3   OH2 3839   1.261   5.372   0.510
 1320TIP3    H1 3840   1.186   5.395   0.566
 1320TIP3    H2 3841   1.309   5.311   0.568
 1321TIP3   OH2 3842   2.008   4.644   1.742
 1321TIP3    H1 3843   1.928   4.657   1.689
 1321TIP3    H2 3844   2.023   4.548   1.733
 1322TIP3   OH2 3845   0.604   5.050   1.774
 1322TIP3    H1 3846   0.655   5.031   1.856
 1322TIP3    H2 3847   0.530   4.985   1.780
 1323TIP3   OH2 3848   1.028   3.905   1.539
 1323TIP3    H1 3849   0.955   3.846   1.512
 1323TIP3    H2 3850   0.979   3.970   1.593
 1324TIP3   OH2 3851   1.538   3.992   1.745
 1324TIP3    H1 3852   1.606   3.968   1.811
 1324TIP3    H2 3853   1.454   3.971   1.792
 1325TIP3   OH2 3854   1.779   4.418   1.668
 1325TIP3    H1 3855   1.732   4.413   1.754
 1325TIP3    H2 3856   1.752   4.505   1.633
 1326TIP3   OH2 3857   0.941   4.394   1.571
 1326TIP3    H1 3858   0.884   4.407   1.650
 1326TIP3    H2 3859   0.918   4.474   1.518
 1327TIP3   OH2 3860   1.298   4.372   0.828
 1327TIP3    H1 3861   1.257   4.449   0.783
 1327TIP3    H2 3862   1.366   4.347   0.761
 1328TIP3   OH2 3863   1.484   4.645   1.905
 1328TIP3    H1 3864   1.462   4.569   1.963
 1328TIP3    H2 3865   1.579   4.653   1.922
 1329TIP3   OH2 3866   1.470   4.393   1.054
 1329TIP3    H1 3867   1.408   4.420   0.983
 1329TIP3    H2 3868   1.498   4.306   1.017
 1330TIP3   OH2 3869   0.761   4.424   1.777
 1330TIP3    H1 3870   0.777   4.480   1.854
 1330TIP3    H2 3871   0.733   4.340   1.819
 1331TIP3   OH2 3872   1.478   4.638   1.478
 1331TIP3    H1 3873   1.510   4.565   1.420
 1331TIP3    H2 3874   1.450   4.587   1.556
 1332TIP3   OH2 3875   1.156   4.126   1.167
 1332TIP3    H1 3876   1.080   4.095   1.217
 1332TIP3    H2 3877   1.230   4.109   1.229
 1333TIP3   OH2 3878   1.636   4.173   1.347
 1333TIP3    H1 3879   1.602   4.184   1.439
 1333TIP3    H2 3880   1.572   4.109   1.311
 1334TIP3   OH2 3881   1.804   5.861   1.567
 1334TIP3    H1 3882   1.805   5.884   1.472
 1334TIP3    H2 3883   1.883   5.909   1.599
 1335TIP3   OH2 3884   0.765   4.972   1.991
 1335TIP3    H1 3885   0.844   5.003   2.039
 1335TIP3    H2 3886   0.700   4.970   2.064
 1336TIP3   OH2 3887   1.231   4.429   1.247
 1336TIP3    H1 3888   1.293   4.378   1.192
 1336TIP3    H2 3889   1.243   4.386   1.334
 1337TIP3   OH2 3890   1.207   4.318   1.535
 1337TIP3    H1 3891   1.118   4.357   1.550
 1337TIP3    H2 3892   1.266   4.377   1.587
 1338TIP3   OH2 3893   0.955   4.697   0.649
 1338TIP3    H1 3894   0.876   4.642   0.643
 1338TIP3    H2 3895   0.939   4.748   0.732
 1339TIP3   OH2 3896   1.846   4.949   1.262
 1339TIP3    H1 3897   1.869   4.997   1.179
 1339TIP3    H2 3898   1.760   4.907   1.239
 1340TIP3   OH2 3899   1.343   5.031   1.627
 1340TIP3    H1 3900   1.360   5.005   1.718
 1340TIP3    H2 3901   1.305   5.120   1.635
 1341TIP3   OH2 3902   1.489   4.304   0.650
 1341TIP3    H1 3903   1.585   4.293   0.639
 1341TIP3    H2 3904   1.458   4.316   0.558
 1342TIP3   OH2 3905   0.634   4.732   1.315
 1342TIP3    H1 3906   0.669   4.708   1.228
 1342TIP3    H2 3907   0.678   4.669   1.374
 1343TIP3   OH2 3908   1.099   4.895   0.502
 1343TIP3    H1 3909   1.047   4.967   0.462
 1343TIP3    H2 3910   1.032   4.833   0.535
 1344TIP3   OH2 3911   0.513   4.657   1.919
 1344TIP3    H1 3912   0.534   4.641   2.013
 1344TIP3    H2 3913   0.446   4.588   1.901
 1345TIP3   OH2 3914   1.238   4.767   1.939
 1345TIP3    H1 3915   1.179   4.707   1.889
 1345TIP3    H2 3916   1.326   4.734   1.912
 1346TIP3   OH2 3917   1.505   5.289   1.522
 1346TIP3    H1 3918   1.408   5.288   1.533
 1346TIP3    H2 3919   1.532   5.342   1.600
 1347TIP3   OH2 3920   1.912   4.357   0.429
 1347TIP3    H1 3921   1.849   4.309   0.373
 1347TIP3    H2 3922   1.907   4.447   0.388
 1348TIP3   OH2 3923   2.131   5.216   1.513
 1348TIP3    H1 3924   2.033   5.213   1.506
 1348TIP3    H2 3925   2.156   5.187   1.423
 1349TIP3   OH2 3926   1.620   5.180   0.341
 1349TIP3    H1 3927   1.580   5.111   0.395
 1349TIP3    H2 3928   1.622   5.139   0.252
 1350TIP3   OH2 3929   1.609   4.809   1.184
 1350TIP3    H1 3930   1.516   4.784   1.194
 1350TIP3    H2 3931   1.644   4.731   1.136
 1351TIP3   OH2 3932   0.723   5.043   0.905
 1351TIP3    H1 3933   0.749   5.130   0.937
 1351TIP3    H2 3934   0.638   5.030   0.949
 1352TIP3   OH2 3935   0.882   4.815   0.874
 1352TIP3    H1 3936   0.834   4.899   0.885
 1352TIP3    H2 3937   0.847   4.760   0.947
 1353TIP3   OH2 3938   1.004   5.381   1.403
 1353TIP3    H1 3939   1.041   5.454   1.350
 1353TIP3    H2 3940   1.083   5.351   1.451
 1354TIP3   OH2 3941   1.396   5.015   1.358
 1354TIP3    H1 3942   1.388   5.013   1.456
 1354TIP3    H2 3943   1.476   4.963   1.344
 1355TIP3   OH2 3944   1.358   4.896   0.249
 1355TIP3    H1 3945   1.407   4.881   0.332
 1355TIP3    H2 3946   1.272   4.855   0.267
 1356TIP3   OH2 3947   1.643   5.552   1.410
 1356TIP3    H1 3948   1.564   5.496   1.400
 1356TIP3    H2 3949   1.628   5.617   1.338
 1357TIP3   OH2 3950   1.706   5.389   0.059
 1357TIP3    H1 3951   1.757   5.461   0.018
 1357TIP3    H2 3952   1.615   5.422   0.048
 1358TIP3   OH2 3953   0.729   4.158   1.932
 1358TIP3    H1 3954   0.633   4.165   1.943
 1358TIP3    H2 3955   0.754   4.100   2.005
 1359TIP3   OH2 3956   1.525   4.844   0.468
 1359TIP3    H1 3957   1.520   4.777   0.539
 1359TIP3    H2 3958   1.621   4.842   0.447
 1360TIP3   OH2 3959   0.442   5.248   1.568
 1360TIP3    H1 3960   0.488   5.166   1.589
 1360TIP3    H2 3961   0.483   5.309   1.630
 1361TIP3   OH2 3962   1.561   4.226   1.608
 1361TIP3    H1 3963   1.642   4.261   1.648
 1361TIP3    H2 3964   1.545   4.145   1.660
 1362TIP3   OH2 3965   1.214   4.120   0.879
 1362TIP3    H1 3966   1.241   4.211   0.853
 1362TIP3    H2 3967   1.161   4.142   0.957
 1363TIP3   OH2 3968   1.404   4.477   1.684
 1363TIP3    H1 3969   1.418   4.529   1.765
 1363TIP3    H2 3970   1.458   4.398   1.699
 1364TIP3   OH2 3971   1.334   3.898   0.997
 1364TIP3    H1 3972   1.300   3.938   1.078
 1364TIP3    H2 3973   1.335   3.977   0.941
 1365TIP3   OH2 3974   2.047   4.376   1.661
 1365TIP3    H1 3975   1.949   4.374   1.672
 1365TIP3    H2 3976   2.054   4.333   1.574
 1366TIP3   OH2 3977   1.695   4.570   1.050
 1366TIP3    H1 3978   1.619   4.511   1.063
 1366TIP3    H2 3979   1.766   4.523   1.098
 1367TIP3   OH2 3980   1.662   5.522   1.002
 1367TIP3    H1 3981   1.619   5.570   0.929
 1367TIP3    H2 3982   1.756   5.541   0.982
 1368TIP3   OH2 3983   0.431   5.549   1.981
 1368TIP3    H1 3984   0.517   5.546   2.027
 1368TIP3    H2 3985   0.409   5.454   1.978
 1369TIP3   OH2 3986   0.920   5.522   2.024
 1369TIP3    H1 3987   1.014   5.500   2.032
 1369TIP3    H2 3988   0.893   5.465   1.950
 1370TIP3   OH2 3989   1.555   5.424   1.758
 1370TIP3    H1 3990   1.546   5.354   1.827
 1370TIP3    H2 3991   1.633   5.474   1.788
 1371TIP3   OH2 3992   0.565   4.958   2.182
 1371TIP3    H1 3993   0.582   4.862   2.185
 1371TIP3    H2 3994   0.476   4.961   2.139
 1372TIP3   OH2 3995   1.173   5.042   1.954
 1372TIP3    H1 3996   1.131   5.055   1.867
 1372TIP3    H2 3997   1.204   4.948   1.949
 1373TIP3   OH2 3998   1.666   5.047   1.560
 1373TIP3    H1 3999   1.739   5.095   1.516
 1373TIP3    H2 4000   1.593   5.111   1.549
 1374TIP3   OH2 4001   0.684   4.691   2.161
 1374TIP3    H1 4002   0.756   4.629   2.146
 1374TIP3    H2 4003   0.705   4.724   2.251
 1375TIP3   OH2 4004   1.022   4.582   1.830
 1375TIP3    H1 4005   0.941   4.637   1.830
 1375TIP3    H2 4006   1.065   4.610   1.746
 1376TIP3   OH2 4007   1.536   4.981   1.961
 1376TIP3    H1 4008   1.615   4.962   1.910
 1376TIP3    H2 4009   1.535   4.908   2.026
 1377TIP3   OH2 4010   1.690   4.652   0.070
 1377TIP3    H1 4011   1.639   4.629  -0.009
 1377TIP3    H2 4012   1.661   4.743   0.085
 1378TIP3   OH2 4013   1.139   4.363   1.955
 1378TIP3    H1 4014   1.140   4.283   1.898
 1378TIP3    H2 4015   1.097   4.429   1.896
 1379TIP3   OH2 4016   1.138   4.152   1.758
 1379TIP3    H1 4017   1.169   4.189   1.673
 1379TIP3    H2 4018   1.046   4.127   1.738
 1380TIP3   OH2 4019   1.177   4.689   1.628
 1380TIP3    H1 4020   1.258   4.694   1.575
 1380TIP3    H2 4021   1.121   4.758   1.587
 1381TIP3   OH2 4022   1.758   4.658   2.017
 1381TIP3    H1 4023   1.800   4.572   2.023
 1381TIP3    H2 4024   1.828   4.713   1.980
 1382TIP3   OH2 4025   1.796   4.908   1.750
 1382TIP3    H1 4026   1.738   4.960   1.690
 1382TIP3    H2 4027   1.884   4.927   1.709
 1383TIP3   OH2 4028   1.013   4.486   2.178
 1383TIP3    H1 4029   0.945   4.416   2.191
 1383TIP3    H2 4030   1.052   4.458   2.093
 1384TIP3   OH2 4031   1.281   3.921   1.820
 1384TIP3    H1 4032   1.230   4.002   1.800
 1384TIP3    H2 4033   1.212   3.852   1.812
 1385TIP3   OH2 4034   1.401   4.425   2.039
 1385TIP3    H1 4035   1.395   4.415   2.136
 1385TIP3    H2 4036   1.310   4.399   2.015
 1386TIP3   OH2 4037   1.649   4.374   1.902
 1386TIP3    H1 4038   1.568   4.368   1.957
 1386TIP3    H2 4039   1.712   4.321   1.955
 1387TIP3   OH2 4040   1.899   4.299   2.061
 1387TIP3    H1 4041   1.855   4.213   2.083
 1387TIP3    H2 4042   1.879   4.349   2.142
 1388TIP3   OH2 4043   0.858   4.263   2.231
 1388TIP3    H1 4044   0.870   4.174   2.192
 1388TIP3    H2 4045   0.893   4.248   2.322
 1389TIP3   OH2 4046   1.363   3.916   2.082
 1389TIP3    H1 4047   1.447   3.867   2.079
 1389TIP3    H2 4048   1.335   3.912   1.988
 1390TIP3   OH2 4049   1.385   4.122   2.267
 1390TIP3    H1 4050   1.413   4.071   2.189
 1390TIP3    H2 4051   1.347   4.203   2.227
 1391TIP3   OH2 4052   1.912   5.618   0.955
 1391TIP3    H1 4053   1.939   5.649   1.043
 1391TIP3    H2 4054   1.973   5.665   0.896
 1392TIP3   OH2 4055   1.945   5.637   1.236
 1392TIP3    H1 4056   1.903   5.548   1.233
 1392TIP3    H2 4057   2.019   5.617   1.295
 1393TIP3   OH2 4058   1.991   5.313   1.810
 1393TIP3    H1 4059   1.916   5.321   1.873
 1393TIP3    H2 4060   2.031   5.402   1.815
 1394TIP3   OH2 4061   1.808   4.822   0.430
 1394TIP3    H1 4062   1.874   4.890   0.405
 1394TIP3    H2 4063   1.849   4.786   0.512
 1395TIP3   OH2 4064   1.934   4.693   0.636
 1395TIP3    H1 4065   1.868   4.651   0.695
 1395TIP3    H2 4066   1.997   4.734   0.699
 1396TIP3   OH2 4067   1.985   5.083   1.068
 1396TIP3    H1 4068   2.039   5.022   1.015
 1396TIP3    H2 4069   1.974   5.159   1.008
 1397TIP3   OH2 4070   1.821   5.386   1.264
 1397TIP3    H1 4071   1.750   5.428   1.317
 1397TIP3    H2 4072   1.771   5.337   1.196
 1398TIP3   OH2 4073   1.866   4.594   0.284
 1398TIP3    H1 4074   1.801   4.608   0.212
 1398TIP3    H2 4075   1.845   4.671   0.341
 1399TIP3   OH2 4076   1.751   4.546   0.784
 1399TIP3    H1 4077   1.755   4.449   0.781
 1399TIP3    H2 4078   1.737   4.563   0.880
 1400TIP3   OH2 4079   0.381   4.625   1.524
 1400TIP3    H1 4080   0.391   4.591   1.434
 1400TIP3    H2 4081   0.476   4.628   1.551
 1401TIP3   OH2 4082   2.037   4.974   1.639
 1401TIP3    H1 4083   2.111   4.909   1.631
 1401TIP3    H2 4084   2.065   5.044   1.579
 1402TIP3   OH2 4085   2.225   4.783   1.662
 1402TIP3    H1 4086   2.150   4.732   1.701
 1402TIP3    H2 4087   2.297   4.718   1.674
 1403TIP3   OH2 4088   1.761   4.264   0.677
 1403TIP3    H1 4089   1.798   4.175   0.696
 1403TIP3    H2 4090   1.826   4.297   0.612
 1404TIP3   OH2 4091   1.908   4.442   1.173
 1404TIP3    H1 4092   1.994   4.469   1.134
 1404TIP3    H2 4093   1.920   4.478   1.263
 1405TIP3   OH2 4094   1.973   4.583   1.406
 1405TIP3    H1 4095   1.895   4.617   1.454
 1405TIP3    H2 4096   2.006   4.663   1.361
 1406TIP3   OH2 4097   0.591   4.312   2.201
 1406TIP3    H1 4098   0.689   4.305   2.203
 1406TIP3    H2 4099   0.567   4.229   2.247
 1407TIP3   OH2 4100   2.444   4.184   1.965
 1407TIP3    H1 4101   2.484   4.107   1.919
 1407TIP3    H2 4102   2.402   4.232   1.890
 1408TIP3   OH2 4103   1.855   4.005   0.712
 1408TIP3    H1 4104   1.906   4.005   0.797
 1408TIP3    H2 4105   1.811   3.920   0.720
 1409TIP3   OH2 4106   0.442   4.308   1.631
 1409TIP3    H1 4107   0.388   4.244   1.582
 1409TIP3    H2 4108   0.393   4.390   1.619
 1410TIP3   OH2 4109   2.300   4.315   1.773
 1410TIP3    H1 4110   2.212   4.353   1.793
 1410TIP3    H2 4111   2.273   4.245   1.710
 1411TIP3   OH2 4112   2.007   3.935   0.349
 1411TIP3    H1 4113   2.023   3.890   0.265
 1411TIP3    H2 4114   2.061   4.017   0.337
 1412TIP3   OH2 4115   1.520   5.480   0.632
 1412TIP3    H1 4116   1.556   5.463   0.543
 1412TIP3    H2 4117   1.577   5.552   0.664
 1413TIP3   OH2 4118   0.552   3.876   1.921
 1413TIP3    H1 4119   0.516   3.856   2.009
 1413TIP3    H2 4120   0.490   3.943   1.891
 1414TIP3   OH2 4121   0.599   5.287   2.004
 1414TIP3    H1 4122   0.510   5.254   1.983
 1414TIP3    H2 4123   0.607   5.265   2.098
 1415TIP3   OH2 4124   0.776   5.314   1.549
 1415TIP3    H1 4125   0.729   5.389   1.509
 1415TIP3    H2 4126   0.863   5.328   1.505
 1416TIP3   OH2 4127   1.226   5.564   1.688
 1416TIP3    H1 4128   1.268   5.566   1.776
 1416TIP3    H2 4129   1.292   5.614   1.634
 1417TIP3   OH2 4130   1.404   5.712   1.543
 1417TIP3    H1 4131   1.475   5.662   1.502
 1417TIP3    H2 4132   1.455   5.770   1.604
 1418TIP3   OH2 4133   2.197   4.083   1.635
 1418TIP3    H1 4134   2.103   4.077   1.611
 1418TIP3    H2 4135   2.223   3.988   1.632
 1419TIP3   OH2 4136   0.468   5.572   1.579
 1419TIP3    H1 4137   0.392   5.627   1.554
 1419TIP3    H2 4138   0.478   5.594   1.672
 1420TIP3   OH2 4139   0.699   5.552   1.428
 1420TIP3    H1 4140   0.612   5.562   1.473
 1420TIP3    H2 4141   0.677   5.583   1.337
 1421TIP3   OH2 4142   1.131   5.584   1.234
 1421TIP3    H1 4143   1.051   5.597   1.177
 1421TIP3    H2 4144   1.141   5.674   1.270
 1422TIP3   OH2 4145   1.393   5.523   1.277
 1422TIP3    H1 4146   1.297   5.537   1.261
 1422TIP3    H2 4147   1.431   5.602   1.236
 1423TIP3   OH2 4148   1.598   5.719   1.195
 1423TIP3    H1 4149   1.582   5.803   1.146
 1423TIP3    H2 4150   1.620   5.657   1.123
 1424TIP3   OH2 4151   0.363   5.369   1.331
 1424TIP3    H1 4152   0.407   5.338   1.414
 1424TIP3    H2 4153   0.427   5.335   1.265
 1425TIP3   OH2 4154   0.551   5.242   1.176
 1425TIP3    H1 4155   0.573   5.160   1.225
 1425TIP3    H2 4156   0.639   5.282   1.165
 1426TIP3   OH2 4157   0.816   5.319   1.177
 1426TIP3    H1 4158   0.860   5.232   1.180
 1426TIP3    H2 4159   0.860   5.365   1.250
 1427TIP3   OH2 4160   1.397   3.997   1.265
 1427TIP3    H1 4161   1.356   3.929   1.323
 1427TIP3    H2 4162   1.462   3.944   1.215
 1428TIP3   OH2 4163   1.932   3.871   1.169
 1428TIP3    H1 4164   1.964   3.929   1.096
 1428TIP3    H2 4165   1.836   3.887   1.166
 1429TIP3   OH2 4166   2.019   3.976   0.929
 1429TIP3    H1 4167   2.094   3.926   0.891
 1429TIP3    H2 4168   2.053   4.069   0.920
 1430TIP3   OH2 4169   1.656   3.881   1.146
 1430TIP3    H1 4170   1.625   3.853   1.060
 1430TIP3    H2 4171   1.634   3.803   1.202
 1431TIP3   OH2 4172   1.639   5.448   0.380
 1431TIP3    H1 4173   1.639   5.349   0.378
 1431TIP3    H2 4174   1.595   5.465   0.296
 1432TIP3   OH2 4175   0.858   3.979   2.168
 1432TIP3    H1 4176   0.826   3.913   2.230
 1432TIP3    H2 4177   0.953   3.983   2.193
 1433TIP3   OH2 4178   1.104   3.978   2.289
 1433TIP3    H1 4179   1.194   3.971   2.250
 1433TIP3    H2 4180   1.105   3.904   2.352
 1434TIP3   OH2 4181   1.874   5.594   1.570
 1434TIP3    H1 4182   1.794   5.561   1.524
 1434TIP3    H2 4183   1.853   5.690   1.572
 1435TIP3   OH2 4184   3.137   4.964   0.339
 1435TIP3    H1 4185   3.111   5.056   0.322
 1435TIP3    H2 4186   3.058   4.917   0.307
 1436TIP3   OH2 4187   3.135   4.963   0.714
 1436TIP3    H1 4188   3.163   4.933   0.801
 1436TIP3    H2 4189   3.092   4.884   0.677
 1437TIP3   OH2 4190   2.437   4.862   1.081
 1437TIP3    H1 4191   2.469   4.796   1.145
 1437TIP3    H2 4192   2.513   4.922   1.077
 1438TIP3   OH2 4193   3.376   5.265   0.397
 1438TIP3    H1 4194   3.366   5.196   0.463
 1438TIP3    H2 4195   3.405   5.341   0.451
 1439TIP3   OH2 4196   2.404   5.268   0.810
 1439TIP3    H1 4197   2.396   5.171   0.815
 1439TIP3    H2 4198   2.501   5.278   0.806
 1440TIP3   OH2 4199   2.115   4.477   0.595
 1440TIP3    H1 4200   2.067   4.560   0.609
 1440TIP3    H2 4201   2.042   4.418   0.570
 1441TIP3   OH2 4202   2.174   4.761   0.761
 1441TIP3    H1 4203   2.222   4.685   0.801
 1441TIP3    H2 4204   2.234   4.786   0.689
 1442TIP3   OH2 4205   3.023   5.727   0.413
 1442TIP3    H1 4206   3.073   5.656   0.367
 1442TIP3    H2 4207   3.022   5.695   0.504
 1443TIP3   OH2 4208   2.935   5.189   0.764
 1443TIP3    H1 4209   2.972   5.113   0.716
 1443TIP3    H2 4210   3.020   5.233   0.788
 1444TIP3   OH2 4211   3.944   4.511   0.762
 1444TIP3    H1 4212   3.973   4.593   0.808
 1444TIP3    H2 4213   3.966   4.532   0.670
 1445TIP3   OH2 4214   3.346   4.693   0.802
 1445TIP3    H1 4215   3.389   4.608   0.821
 1445TIP3    H2 4216   3.317   4.679   0.709
 1446TIP3   OH2 4217   2.682   4.351   0.766
 1446TIP3    H1 4218   2.661   4.424   0.704
 1446TIP3    H2 4219   2.634   4.277   0.721
 1447TIP3   OH2 4220   3.376   4.441   0.390
 1447TIP3    H1 4221   3.449   4.424   0.453
 1447TIP3    H2 4222   3.426   4.477   0.315
 1448TIP3   OH2 4223   2.318   4.555   0.870
 1448TIP3    H1 4224   2.400   4.534   0.918
 1448TIP3    H2 4225   2.330   4.497   0.791
 1449TIP3   OH2 4226   2.760   4.752   0.659
 1449TIP3    H1 4227   2.853   4.725   0.675
 1449TIP3    H2 4228   2.720   4.668   0.630
 1450TIP3   OH2 4229   4.019   4.716   0.934
 1450TIP3    H1 4230   3.937   4.766   0.914
 1450TIP3    H2 4231   4.033   4.742   1.026
 1451TIP3   OH2 4232   2.681   4.335   1.198
 1451TIP3    H1 4233   2.620   4.372   1.132
 1451TIP3    H2 4234   2.631   4.352   1.280
 1452TIP3   OH2 4235   3.034   5.187   0.207
 1452TIP3    H1 4236   2.986   5.162   0.128
 1452TIP3    H2 4237   2.990   5.272   0.230
 1453TIP3   OH2 4238   2.788   5.108   0.998
 1453TIP3    H1 4239   2.722   5.171   1.037
 1453TIP3    H2 4240   2.829   5.163   0.928
 1454TIP3   OH2 4241   3.592   4.441   0.555
 1454TIP3    H1 4242   3.585   4.391   0.637
 1454TIP3    H2 4243   3.646   4.517   0.582
 1455TIP3   OH2 4244   2.550   4.450   0.984
 1455TIP3    H1 4245   2.613   4.522   1.007
 1455TIP3    H2 4246   2.599   4.409   0.909
 1456TIP3   OH2 4247   2.612   5.299   1.091
 1456TIP3    H1 4248   2.588   5.386   1.051
 1456TIP3    H2 4249   2.534   5.286   1.149
 1457TIP3   OH2 4250   2.014   4.990   0.331
 1457TIP3    H1 4251   1.971   5.014   0.246
 1457TIP3    H2 4252   2.040   5.078   0.366
 1458TIP3   OH2 4253   3.450   5.506   0.568
 1458TIP3    H1 4254   3.360   5.499   0.607
 1458TIP3    H2 4255   3.444   5.593   0.523
 1459TIP3   OH2 4256   3.739   4.411   0.930
 1459TIP3    H1 4257   3.651   4.443   0.901
 1459TIP3    H2 4258   3.797   4.442   0.858
 1460TIP3   OH2 4259   3.042   4.057   0.911
 1460TIP3    H1 4260   3.028   3.962   0.927
 1460TIP3    H2 4261   2.963   4.094   0.957
 1461TIP3   OH2 4262   3.156   5.555   0.245
 1461TIP3    H1 4263   3.206   5.473   0.223
 1461TIP3    H2 4264   3.217   5.621   0.204
 1462TIP3   OH2 4265   3.299   5.341   0.142
 1462TIP3    H1 4266   3.255   5.263   0.106
 1462TIP3    H2 4267   3.331   5.306   0.229
 1463TIP3   OH2 4268   3.677   5.424   0.911
 1463TIP3    H1 4269   3.667   5.346   0.852
 1463TIP3    H2 4270   3.661   5.498   0.849
 1464TIP3   OH2 4271   2.967   4.816   0.167
 1464TIP3    H1 4272   2.887   4.867   0.143
 1464TIP3    H2 4273   3.014   4.812   0.082
 1465TIP3   OH2 4274   2.920   4.591  -0.098
 1465TIP3    H1 4275   2.994   4.645  -0.065
 1465TIP3    H2 4276   2.967   4.519  -0.142
 1466TIP3   OH2 4277   3.871   5.056   0.754
 1466TIP3    H1 4278   3.790   5.110   0.761
 1466TIP3    H2 4279   3.901   5.081   0.664
 1467TIP3   OH2 4280   3.314   4.896   0.141
 1467TIP3    H1 4281   3.260   4.923   0.219
 1467TIP3    H2 4282   3.397   4.870   0.186
 1468TIP3   OH2 4283   3.551   4.940   1.048
 1468TIP3    H1 4284   3.548   5.024   1.098
 1468TIP3    H2 4285   3.464   4.944   1.003
 1469TIP3   OH2 4286   2.547   4.898   0.555
 1469TIP3    H1 4287   2.506   4.840   0.488
 1469TIP3    H2 4288   2.625   4.845   0.583
 1470TIP3   OH2 4289   2.677   5.308   0.705
 1470TIP3    H1 4290   2.656   5.260   0.624
 1470TIP3    H2 4291   2.768   5.277   0.724
 1471TIP3   OH2 4292   2.688   4.867   0.910
 1471TIP3    H1 4293   2.719   4.851   0.819
 1471TIP3    H2 4294   2.728   4.954   0.932
 1472TIP3   OH2 4295   3.208   5.505   0.687
 1472TIP3    H1 4296   3.195   5.585   0.741
 1472TIP3    H2 4297   3.195   5.432   0.750
 1473TIP3   OH2 4298   2.820   5.425   1.233
 1473TIP3    H1 4299   2.761   5.487   1.281
 1473TIP3    H2 4300   2.754   5.371   1.186
 1474TIP3   OH2 4301   3.155   4.755  -0.035
 1474TIP3    H1 4302   3.214   4.814   0.019
 1474TIP3    H2 4303   3.182   4.779  -0.127
 1475TIP3   OH2 4304   2.573   4.984   1.331
 1475TIP3    H1 4305   2.578   5.069   1.379
 1475TIP3    H2 4306   2.478   4.965   1.340
 1476TIP3   OH2 4307   2.896   5.438   0.245
 1476TIP3    H1 4308   2.971   5.495   0.267
 1476TIP3    H2 4309   2.835   5.499   0.201
 1477TIP3   OH2 4310   2.616   5.595   1.320
 1477TIP3    H1 4311   2.580   5.591   1.230
 1477TIP3    H2 4312   2.538   5.573   1.375
 1478TIP3   OH2 4313   3.675   4.003   0.012
 1478TIP3    H1 4314   3.592   4.016   0.063
 1478TIP3    H2 4315   3.681   4.086  -0.038
 1479TIP3   OH2 4316   2.415   4.738   0.358
 1479TIP3    H1 4317   2.349   4.785   0.302
 1479TIP3    H2 4318   2.368   4.656   0.378
 1480TIP3   OH2 4319   2.195   5.123   1.268
 1480TIP3    H1 4320   2.131   5.099   1.198
 1480TIP3    H2 4321   2.231   5.036   1.295
 1481TIP3   OH2 4322   2.049   5.316   0.902
 1481TIP3    H1 4323   2.145   5.310   0.893
 1481TIP3    H2 4324   2.039   5.396   0.956
 1482TIP3   OH2 4325   3.915   5.765   0.955
 1482TIP3    H1 4326   3.912   5.668   0.968
 1482TIP3    H2 4327   3.831   5.791   1.000
 1483TIP3   OH2 4328   3.020   5.555   1.090
 1483TIP3    H1 4329   3.021   5.647   1.123
 1483TIP3    H2 4330   2.949   5.516   1.146
 1484TIP3   OH2 4331   2.777   5.683   0.041
 1484TIP3    H1 4332   2.733   5.665  -0.045
 1484TIP3    H2 4333   2.749   5.775   0.060
 1485TIP3   OH2 4334   2.217   5.535   0.425
 1485TIP3    H1 4335   2.265   5.523   0.509
 1485TIP3    H2 4336   2.156   5.459   0.429
 1486TIP3   OH2 4337   2.979   5.591  -0.304
 1486TIP3    H1 4338   3.023   5.515  -0.343
 1486TIP3    H2 4339   3.012   5.590  -0.212
 1487TIP3   OH2 4340   3.031   5.621  -0.038
 1487TIP3    H1 4341   2.941   5.634   0.000
 1487TIP3    H2 4342   3.077   5.583   0.039
 1488TIP3   OH2 4343   3.805   4.899   1.230
 1488TIP3    H1 4344   3.725   4.914   1.177
 1488TIP3    H2 4345   3.818   4.803   1.218
 1489TIP3   OH2 4346   2.400   5.306   1.260
 1489TIP3    H1 4347   2.450   5.290   1.342
 1489TIP3    H2 4348   2.326   5.241   1.267
 1490TIP3   OH2 4349   2.800   4.130   1.038
 1490TIP3    H1 4350   2.710   4.099   1.015
 1490TIP3    H2 4351   2.777   4.214   1.082
 1491TIP3   OH2 4352   3.332   4.246   1.233
 1491TIP3    H1 4353   3.399   4.220   1.299
 1491TIP3    H2 4354   3.247   4.226   1.278
 1492TIP3   OH2 4355   3.575   4.675   1.153
 1492TIP3    H1 4356   3.526   4.670   1.238
 1492TIP3    H2 4357   3.549   4.762   1.118
 1493TIP3   OH2 4358   3.229   4.804  -0.290
 1493TIP3    H1 4359   3.199   4.798  -0.381
 1493TIP3    H2 4360   3.310   4.858  -0.302
 1494TIP3   OH2 4361   2.955   4.197   0.016
 1494TIP3    H1 4362   2.918   4.190   0.106
 1494TIP3    H2 4363   2.921   4.117  -0.025
 1495TIP3   OH2 4364   2.730   4.645   1.059
 1495TIP3    H1 4365   2.680   4.668   1.140
 1495TIP3    H2 4366   2.716   4.725   1.004
 1496TIP3   OH2 4367   2.615   4.531   0.573
 1496TIP3    H1 4368   2.522   4.505   0.590
 1496TIP3    H2 4369   2.629   4.490   0.485
 1497TIP3   OH2 4370   3.105   4.617   0.299
 1497TIP3    H1 4371   3.051   4.689   0.259
 1497TIP3    H2 4372   3.159   4.589   0.223
 1498TIP3   OH2 4373   3.279   4.899   1.388
 1498TIP3    H1 4374   3.258   4.825   1.450
 1498TIP3    H2 4375   3.373   4.913   1.409
 1499TIP3   OH2 4376   3.264   4.648   0.541
 1499TIP3    H1 4377   3.206   4.679   0.469
 1499TIP3    H2 4378   3.295   4.565   0.499
 1500TIP3   OH2 4379   2.550   4.675   1.268
 1500TIP3    H1 4380   2.574   4.739   1.337
 1500TIP3    H2 4381   2.538   4.593   1.320
 1501TIP3   OH2 4382   2.598   4.133  -0.020
 1501TIP3    H1 4383   2.603   4.139   0.077
 1501TIP3    H2 4384   2.522   4.188  -0.039
 1502TIP3   OH2 4385   2.140   4.204   0.850
 1502TIP3    H1 4386   2.221   4.229   0.900
 1502TIP3    H2 4387   2.175   4.166   0.768
 1503TIP3   OH2 4388   2.129   4.187   0.368
 1503TIP3    H1 4389   2.177   4.225   0.291
 1503TIP3    H2 4390   2.074   4.263   0.393
 1504TIP3   OH2 4391   3.274   4.895   0.964
 1504TIP3    H1 4392   3.306   4.821   0.908
 1504TIP3    H2 4393   3.245   4.844   1.043
 1505TIP3   OH2 4394   2.938   4.355   0.635
 1505TIP3    H1 4395   2.855   4.352   0.687
 1505TIP3    H2 4396   3.005   4.358   0.706
 1506TIP3   OH2 4397   2.377   4.408   0.643
 1506TIP3    H1 4398   2.282   4.415   0.617
 1506TIP3    H2 4399   2.399   4.315   0.621
 1507TIP3   OH2 4400   2.651   4.407   0.332
 1507TIP3    H1 4401   2.746   4.421   0.313
 1507TIP3    H2 4402   2.606   4.430   0.248
 1508TIP3   OH2 4403   3.433   4.429   0.834
 1508TIP3    H1 4404   3.398   4.441   0.926
 1508TIP3    H2 4405   3.369   4.366   0.798
 1509TIP3   OH2 4406   2.489   4.432   0.113
 1509TIP3    H1 4407   2.397   4.410   0.091
 1509TIP3    H2 4408   2.524   4.473   0.032
 1510TIP3   OH2 4409   3.600   6.118   1.053
 1510TIP3    H1 4410   3.600   6.140   0.958
 1510TIP3    H2 4411   3.678   6.168   1.085
 1511TIP3   OH2 4412   2.562   5.228   1.478
 1511TIP3    H1 4413   2.641   5.259   1.526
 1511TIP3    H2 4414   2.497   5.228   1.551
 1512TIP3   OH2 4415   3.026   4.679   0.731
 1512TIP3    H1 4416   3.099   4.641   0.680
 1512TIP3    H2 4417   3.040   4.641   0.820
 1513TIP3   OH2 4418   2.553   4.171   0.606
 1513TIP3    H1 4419   2.519   4.090   0.650
 1513TIP3    H2 4420   2.606   4.135   0.534
 1514TIP3   OH2 4421   3.003   4.574   1.025
 1514TIP3    H1 4422   2.914   4.613   1.035
 1514TIP3    H2 4423   3.060   4.635   1.074
 1515TIP3   OH2 4424   2.740   4.970   0.117
 1515TIP3    H1 4425   2.666   4.907   0.108
 1515TIP3    H2 4426   2.723   5.005   0.208
 1516TIP3   OH2 4427   3.642   5.206   0.749
 1516TIP3    H1 4428   3.666   5.254   0.666
 1516TIP3    H2 4429   3.556   5.165   0.725
 1517TIP3   OH2 4430   3.211   4.282  -0.034
 1517TIP3    H1 4431   3.116   4.259  -0.030
 1517TIP3    H2 4432   3.214   4.376  -0.007
 1518TIP3   OH2 4433   3.140   5.287   1.114
 1518TIP3    H1 4434   3.157   5.262   1.206
 1518TIP3    H2 4435   3.100   5.376   1.122
 1519TIP3   OH2 4436   3.268   4.528   0.081
 1519TIP3    H1 4437   3.364   4.531   0.097
 1519TIP3    H2 4438   3.252   4.608   0.027
 1520TIP3   OH2 4439   2.430   4.990   0.795
 1520TIP3    H1 4440   2.468   4.961   0.709
 1520TIP3    H2 4441   2.467   4.924   0.856
 1521TIP3   OH2 4442   2.882   5.120  -0.069
 1521TIP3    H1 4443   2.840   5.208  -0.056
 1521TIP3    H2 4444   2.830   5.066  -0.006
 1522TIP3   OH2 4445   2.309   4.912   1.406
 1522TIP3    H1 4446   2.332   4.899   1.500
 1522TIP3    H2 4447   2.241   4.845   1.392
 1523TIP3   OH2 4448   3.035   5.023   1.426
 1523TIP3    H1 4449   2.977   4.965   1.374
 1523TIP3    H2 4450   3.123   4.992   1.398
 1524TIP3   OH2 4451   3.300   5.546   1.008
 1524TIP3    H1 4452   3.204   5.545   1.020
 1524TIP3    H2 4453   3.328   5.598   1.086
 1525TIP3   OH2 4454   3.710   4.614  -0.078
 1525TIP3    H1 4455   3.652   4.569  -0.143
 1525TIP3    H2 4456   3.709   4.703  -0.118
 1526TIP3   OH2 4457   3.927   5.473   1.001
 1526TIP3    H1 4458   3.829   5.470   0.992
 1526TIP3    H2 4459   3.952   5.444   0.910
 1527TIP3   OH2 4460   3.415   5.433  -0.185
 1527TIP3    H1 4461   3.381   5.379  -0.112
 1527TIP3    H2 4462   3.407   5.374  -0.261
 1528TIP3   OH2 4463   3.405   5.066   0.670
 1528TIP3    H1 4464   3.312   5.040   0.681
 1528TIP3    H2 4465   3.440   4.988   0.623
 1529TIP3   OH2 4466   2.530   5.291   0.415
 1529TIP3    H1 4467   2.534   5.374   0.364
 1529TIP3    H2 4468   2.434   5.280   0.425
 1530TIP3   OH2 4469   2.095   4.601   0.122
 1530TIP3    H1 4470   2.141   4.686   0.140
 1530TIP3    H2 4471   2.017   4.608   0.179
 1531TIP3   OH2 4472   2.675   5.062   0.363
 1531TIP3    H1 4473   2.639   5.151   0.380
 1531TIP3    H2 4474   2.638   5.012   0.438
 1532TIP3   OH2 4475   2.799   5.639   0.889
 1532TIP3    H1 4476   2.841   5.711   0.837
 1532TIP3    H2 4477   2.876   5.605   0.938
 1533TIP3   OH2 4478   2.453   5.532   0.272
 1533TIP3    H1 4479   2.366   5.541   0.316
 1533TIP3    H2 4480   2.483   5.626   0.273
 1534TIP3   OH2 4481   3.192   5.272   0.845
 1534TIP3    H1 4482   3.184   5.270   0.943
 1534TIP3    H2 4483   3.273   5.220   0.831
 1535TIP3   OH2 4484   3.154   5.142  -0.268
 1535TIP3    H1 4485   3.210   5.130  -0.189
 1535TIP3    H2 4486   3.066   5.143  -0.228
 1536TIP3   OH2 4487   3.439   5.809   0.897
 1536TIP3    H1 4488   3.360   5.751   0.888
 1536TIP3    H2 4489   3.423   5.874   0.825
 1537TIP3   OH2 4490   2.525   4.417   1.416
 1537TIP3    H1 4491   2.429   4.424   1.432
 1537TIP3    H2 4492   2.552   4.355   1.487
 1538TIP3   OH2 4493   3.321   5.100  -0.051
 1538TIP3    H1 4494   3.311   5.032   0.020
 1538TIP3    H2 4495   3.418   5.098  -0.064
 1539TIP3   OH2 4496   2.240   5.504   1.048
 1539TIP3    H1 4497   2.289   5.425   1.075
 1539TIP3    H2 4498   2.269   5.568   1.114
 1540TIP3   OH2 4499   2.524   5.149  -0.276
 1540TIP3    H1 4500   2.574   5.071  -0.303
 1540TIP3    H2 4501   2.508   5.134  -0.180
 1541TIP3   OH2 4502   2.480   5.149   0.002
 1541TIP3    H1 4503   2.548   5.127   0.067
 1541TIP3    H2 4504   2.483   5.247   0.003
 1542TIP3   OH2 4505   2.215   4.848   0.203
 1542TIP3    H1 4506   2.148   4.893   0.260
 1542TIP3    H2 4507   2.229   4.917   0.136
 1543TIP3   OH2 4508   3.358   4.481   1.093
 1543TIP3    H1 4509   3.437   4.520   1.134
 1543TIP3    H2 4510   3.342   4.401   1.148
 1544TIP3   OH2 4511   3.232   4.238   0.254
 1544TIP3    H1 4512   3.225   4.258   0.159
 1544TIP3    H2 4513   3.274   4.319   0.289
 1545TIP3   OH2 4514   2.746   5.352  -0.039
 1545TIP3    H1 4515   2.658   5.383  -0.012
 1545TIP3    H2 4516   2.749   5.383  -0.131
 1546TIP3   OH2 4517   2.931   4.410   0.360
 1546TIP3    H1 4518   2.997   4.480   0.342
 1546TIP3    H2 4519   2.935   4.404   0.458
 1547TIP3   OH2 4520   3.199   4.733   1.171
 1547TIP3    H1 4521   3.214   4.788   1.250
 1547TIP3    H2 4522   3.255   4.656   1.188
 1548TIP3   OH2 4523   3.077   4.145   0.466
 1548TIP3    H1 4524   3.071   4.221   0.527
 1548TIP3    H2 4525   3.135   4.182   0.395
 1549TIP3   OH2 4526   2.480   5.421   0.016
 1549TIP3    H1 4527   2.455   5.492  -0.048
 1549TIP3    H2 4528   2.467   5.466   0.102
 1550TIP3   OH2 4529   2.589   4.136   0.257
 1550TIP3    H1 4530   2.584   4.227   0.293
 1550TIP3    H2 4531   2.685   4.120   0.268
 1551TIP3   OH2 4532   3.842   4.631   1.150
 1551TIP3    H1 4533   3.744   4.629   1.157
 1551TIP3    H2 4534   3.852   4.595   1.060
 1552TIP3   OH2 4535   3.491   4.826   0.537
 1552TIP3    H1 4536   3.415   4.766   0.551
 1552TIP3    H2 4537   3.563   4.780   0.585
 1553TIP3   OH2 4538   2.202   5.065   0.010
 1553TIP3    H1 4539   2.270   5.134   0.021
 1553TIP3    H2 4540   2.250   5.007  -0.053
 1554TIP3   OH2 4541   2.164   4.340   0.135
 1554TIP3    H1 4542   2.144   4.436   0.125
 1554TIP3    H2 4543   2.090   4.299   0.090
 1555TIP3   OH2 4544   3.458   5.777   0.490
 1555TIP3    H1 4545   3.415   5.825   0.416
 1555TIP3    H2 4546   3.552   5.798   0.469
 1556TIP3   OH2 4547   2.536   4.051   1.018
 1556TIP3    H1 4548   2.503   4.019   0.931
 1556TIP3    H2 4549   2.524   3.972   1.075
 1557TIP3   OH2 4550   2.082   5.273   0.407
 1557TIP3    H1 4551   1.999   5.299   0.449
 1557TIP3    H2 4552   2.064   5.304   0.315
 1558TIP3   OH2 4553   2.228   5.803   1.469
 1558TIP3    H1 4554   2.314   5.804   1.514
 1558TIP3    H2 4555   2.208   5.708   1.467
 1559TIP3   OH2 4556   2.716   5.781   1.507
 1559TIP3    H1 4557   2.809   5.757   1.520
 1559TIP3    H2 4558   2.691   5.720   1.434
 1560TIP3   OH2 4559   2.713   5.345  -0.317
 1560TIP3    H1 4560   2.634   5.287  -0.310
 1560TIP3    H2 4561   2.749   5.313  -0.401
 1561TIP3   OH2 4562   3.352   5.679   1.244
 1561TIP3    H1 4563   3.342   5.610   1.314
 1561TIP3    H2 4564   3.429   5.730   1.275
 1562TIP3   OH2 4565   2.361   5.214   1.668
 1562TIP3    H1 4566   2.378   5.118   1.671
 1562TIP3    H2 4567   2.272   5.217   1.626
 1563TIP3   OH2 4568   2.341   4.877  -0.127
 1563TIP3    H1 4569   2.402   4.838  -0.062
 1563TIP3    H2 4570   2.388   4.867  -0.210
 1564TIP3   OH2 4571   2.971   5.299   1.440
 1564TIP3    H1 4572   2.927   5.312   1.354
 1564TIP3    H2 4573   3.001   5.205   1.436
 1565TIP3   OH2 4574   2.808   5.039  -0.328
 1565TIP3    H1 4575   2.835   5.088  -0.248
 1565TIP3    H2 4576   2.852   4.955  -0.314
 1566TIP3   OH2 4577   3.462   5.303   1.046
 1566TIP3    H1 4578   3.535   5.351   1.002
 1566TIP3    H2 4579   3.389   5.368   1.036
 1567TIP3   OH2 4580   2.479   4.946   1.648
 1567TIP3    H1 4581   2.552   4.886   1.633
 1567TIP3    H2 4582   2.501   4.981   1.737
 1568TIP3   OH2 4583   2.546   4.770   0.084
 1568TIP3    H1 4584   2.520   4.732   0.169
 1568TIP3    H2 4585   2.582   4.692   0.036
 1569TIP3   OH2 4586   2.814   4.834   1.312
 1569TIP3    H1 4587   2.737   4.894   1.317
 1569TIP3    H2 4588   2.860   4.867   1.232
 1570TIP3   OH2 4589   2.643   4.561  -0.081
 1570TIP3    H1 4590   2.638   4.523  -0.169
 1570TIP3    H2 4591   2.740   4.576  -0.072
 1571TIP3   OH2 4592   3.330   5.236   1.446
 1571TIP3    H1 4593   3.413   5.219   1.399
 1571TIP3    H2 4594   3.331   5.167   1.515
 1572TIP3   OH2 4595   3.470   4.914  -0.371
 1572TIP3    H1 4596   3.480   4.871  -0.458
 1572TIP3    H2 4597   3.478   5.006  -0.399
 1573TIP3   OH2 4598   2.938   4.621   1.440
 1573TIP3    H1 4599   2.937   4.540   1.385
 1573TIP3    H2 4600   2.894   4.686   1.381
 1574TIP3   OH2 4601   2.940   4.406   1.244
 1574TIP3    H1 4602   2.966   4.449   1.160
 1574TIP3    H2 4603   2.846   4.385   1.226
 1575TIP3   OH2 4604   2.972   4.945   1.116
 1575TIP3    H1 4605   3.053   4.952   1.063
 1575TIP3    H2 4606   2.915   5.014   1.075
 1576TIP3   OH2 4607   3.553   4.913   1.501
 1576TIP3    H1 4608   3.603   4.830   1.510
 1576TIP3    H2 4609   3.620   4.973   1.468
 1577TIP3   OH2 4610   3.593   5.163   1.235
 1577TIP3    H1 4611   3.534   5.215   1.176
 1577TIP3    H2 4612   3.680   5.184   1.194
 1578TIP3   OH2 4613   2.813   4.740   1.665
 1578TIP3    H1 4614   2.745   4.671   1.680
 1578TIP3    H2 4615   2.849   4.713   1.579
 1579TIP3   OH2 4616   3.073   4.173   1.309
 1579TIP3    H1 4617   3.024   4.256   1.288
 1579TIP3    H2 4618   3.002   4.106   1.298
 1580TIP3   OH2 4619   3.199   4.680   1.527
 1580TIP3    H1 4620   3.190   4.670   1.624
 1580TIP3    H2 4621   3.108   4.654   1.500
 1581TIP3   OH2 4622   3.438   4.625   1.381
 1581TIP3    H1 4623   3.362   4.629   1.443
 1581TIP3    H2 4624   3.511   4.595   1.440
 1582TIP3   OH2 4625   3.668   4.565   1.534
 1582TIP3    H1 4626   3.679   4.470   1.556
 1582TIP3    H2 4627   3.664   4.607   1.623
 1583TIP3   OH2 4628   2.655   4.518   1.717
 1583TIP3    H1 4629   2.662   4.428   1.681
 1583TIP3    H2 4630   2.689   4.505   1.808
 1584TIP3   OH2 4631   3.169   4.182   1.566
 1584TIP3    H1 4632   3.236   4.112   1.560
 1584TIP3    H2 4633   3.128   4.175   1.477
 1585TIP3   OH2 4634   3.233   4.397   1.728
 1585TIP3    H1 4635   3.209   4.327   1.663
 1585TIP3    H2 4636   3.156   4.458   1.721
 1586TIP3   OH2 4637   2.450   5.623  -0.168
 1586TIP3    H1 4638   2.543   5.624  -0.197
 1586TIP3    H2 4639   2.404   5.661  -0.244
 1587TIP3   OH2 4640   1.941   5.004   0.059
 1587TIP3    H1 4641   2.030   5.037   0.037
 1587TIP3    H2 4642   1.936   4.925   0.003
 1588TIP3   OH2 4643   1.842   5.622   0.456
 1588TIP3    H1 4644   1.777   5.556   0.423
 1588TIP3    H2 4645   1.890   5.569   0.523
 1589TIP3   OH2 4646   1.981   5.481   0.644
 1589TIP3    H1 4647   1.972   5.401   0.697
 1589TIP3    H2 4648   2.033   5.537   0.704
 1590TIP3   OH2 4649   3.707   5.876   0.443
 1590TIP3    H1 4650   3.737   5.910   0.529
 1590TIP3    H2 4651   3.769   5.917   0.381
 1591TIP3   OH2 4652   3.740   5.894   0.725
 1591TIP3    H1 4653   3.699   5.805   0.719
 1591TIP3    H2 4654   3.816   5.874   0.780
 1592TIP3   OH2 4655   3.787   5.569   1.298
 1592TIP3    H1 4656   3.712   5.577   1.360
 1592TIP3    H2 4657   3.827   5.658   1.302
 1593TIP3   OH2 4658   3.603   5.087  -0.076
 1593TIP3    H1 4659   3.681   5.142  -0.096
 1593TIP3    H2 4660   3.636   5.041   0.005
 1594TIP3   OH2 4661   3.728   4.952   0.122
 1594TIP3    H1 4662   3.665   4.907   0.183
 1594TIP3    H2 4663   3.795   4.988   0.184
 1595TIP3   OH2 4664   3.781   5.339   0.554
 1595TIP3    H1 4665   3.836   5.279   0.501
 1595TIP3    H2 4666   3.772   5.417   0.496
 1596TIP3   OH2 4667   3.617   5.641   0.752
 1596TIP3    H1 4668   3.546   5.684   0.803
 1596TIP3    H2 4669   3.567   5.593   0.683
 1597TIP3   OH2 4670   3.673   4.854  -0.209
 1597TIP3    H1 4671   3.595   4.856  -0.269
 1597TIP3    H2 4672   3.651   4.932  -0.154
 1598TIP3   OH2 4673   3.550   4.535  -0.283
 1598TIP3    H1 4674   3.480   4.573  -0.336
 1598TIP3    H2 4675   3.520   4.441  -0.276
 1599TIP3   OH2 4676   3.546   4.805   0.270
 1599TIP3    H1 4677   3.553   4.708   0.266
 1599TIP3    H2 4678   3.533   4.820   0.367
 1600TIP3   OH2 4679   2.173   4.880   1.015
 1600TIP3    H1 4680   2.171   4.853   0.921
 1600TIP3    H2 4681   2.270   4.881   1.032
 1601TIP3   OH2 4682   3.833   5.230   1.125
 1601TIP3    H1 4683   3.907   5.166   1.117
 1601TIP3    H2 4684   3.861   5.301   1.065
 1602TIP3   OH2 4685   4.020   5.039   1.149
 1602TIP3    H1 4686   3.946   4.988   1.188
 1602TIP3    H2 4687   4.093   4.975   1.161
 1603TIP3   OH2 4688   3.481   4.278  -0.263
 1603TIP3    H1 4689   3.566   4.236  -0.237
 1603TIP3    H2 4690   3.416   4.210  -0.238
 1604TIP3   OH2 4691   3.540   4.521   0.167
 1604TIP3    H1 4692   3.579   4.432   0.183
 1604TIP3    H2 4693   3.600   4.553   0.098
 1605TIP3   OH2 4694   3.704   4.700   0.660
 1605TIP3    H1 4695   3.790   4.726   0.621
 1605TIP3    H2 4696   3.717   4.735   0.750
 1606TIP3   OH2 4697   3.769   4.839   0.894
 1606TIP3    H1 4698   3.691   4.874   0.941
 1606TIP3    H2 4699   3.802   4.920   0.848
 1607TIP3   OH2 4700   2.388   4.568   1.691
 1607TIP3    H1 4701   2.486   4.560   1.692
 1607TIP3    H2 4702   2.363   4.484   1.734
 1608TIP3   OH2 4703   4.224   4.429   1.450
 1608TIP3    H1 4704   4.281   4.363   1.405
 1608TIP3    H2 4705   4.196   4.486   1.375
 1609TIP3   OH2 4706   3.650   4.271   0.203
 1609TIP3    H1 4707   3.698   4.256   0.287
 1609TIP3    H2 4708   3.590   4.194   0.201
 1610TIP3   OH2 4709   2.351   4.258   1.021
 1610TIP3    H1 4710   2.413   4.184   1.033
 1610TIP3    H2 4711   2.412   4.333   1.018
 1611TIP3   OH2 4712   2.155   4.533   1.096
 1611TIP3    H1 4713   2.203   4.525   1.012
 1611TIP3    H2 4714   2.183   4.621   1.126
 1612TIP3   OH2 4715   4.097   4.573   1.258
 1612TIP3    H1 4716   4.009   4.611   1.279
 1612TIP3    H2 4717   4.070   4.503   1.196
 1613TIP3   OH2 4718   3.739   4.208  -0.179
 1613TIP3    H1 4719   3.795   4.145  -0.227
 1613TIP3    H2 4720   3.798   4.286  -0.176
 1614TIP3   OH2 4721   2.138   4.057   0.609
 1614TIP3    H1 4722   2.044   4.038   0.620
 1614TIP3    H2 4723   2.142   4.099   0.521
 1615TIP3   OH2 4724   3.304   5.730   0.106
 1615TIP3    H1 4725   3.351   5.721   0.021
 1615TIP3    H2 4726   3.345   5.808   0.144
 1616TIP3   OH2 4727   2.356   4.116   1.408
 1616TIP3    H1 4728   2.307   4.110   1.492
 1616TIP3    H2 4729   2.288   4.156   1.350
 1617TIP3   OH2 4730   2.396   5.541   1.489
 1617TIP3    H1 4731   2.305   5.510   1.472
 1617TIP3    H2 4732   2.405   5.525   1.584
 1618TIP3   OH2 4733   2.572   5.570   1.035
 1618TIP3    H1 4734   2.523   5.646   0.997
 1618TIP3    H2 4735   2.658   5.586   0.992
 1619TIP3   OH2 4736   3.022   5.821   1.174
 1619TIP3    H1 4737   3.063   5.822   1.263
 1619TIP3    H2 4738   3.088   5.871   1.122
 1620TIP3   OH2 4739   3.200   5.970   1.029
 1620TIP3    H1 4740   3.272   5.919   0.989
 1620TIP3    H2 4741   3.251   6.027   1.091
 1621TIP3   OH2 4742   3.992   4.335   1.132
 1621TIP3    H1 4743   3.901   4.334   1.098
 1621TIP3    H2 4744   4.020   4.242   1.119
 1622TIP3   OH2 4745   2.252   5.834   1.056
 1622TIP3    H1 4746   2.162   5.868   1.036
 1622TIP3    H2 4747   2.261   5.864   1.148
 1623TIP3   OH2 4748   2.489   5.812   0.915
 1623TIP3    H1 4749   2.403   5.824   0.961
 1623TIP3    H2 4750   2.467   5.843   0.825
 1624TIP3   OH2 4751   2.914   5.842   0.713
 1624TIP3    H1 4752   2.845   5.864   0.647
 1624TIP3    H2 4753   2.927   5.929   0.756
 1625TIP3   OH2 4754   3.181   5.781   0.763
 1625TIP3    H1 4755   3.087   5.797   0.743
 1625TIP3    H2 4756   3.224   5.858   0.723
 1626TIP3   OH2 4757   3.390   5.974   0.682
 1626TIP3    H1 4758   3.377   6.059   0.634
 1626TIP3    H2 4759   3.416   5.913   0.609
 1627TIP3   OH2 4760   2.163   5.628   0.805
 1627TIP3    H1 4761   2.190   5.603   0.896
 1627TIP3    H2 4762   2.234   5.582   0.754
 1628TIP3   OH2 4763   2.353   5.497   0.658
 1628TIP3    H1 4764   2.371   5.413   0.706
 1628TIP3    H2 4765   2.444   5.535   0.653
 1629TIP3   OH2 4766   2.620   5.595   0.660
 1629TIP3    H1 4767   2.652   5.504   0.646
 1629TIP3    H2 4768   2.661   5.614   0.746
 1630TIP3   OH2 4769   3.197   4.250   0.748
 1630TIP3    H1 4770   3.153   4.182   0.802
 1630TIP3    H2 4771   3.268   4.199   0.704
 1631TIP3   OH2 4772   3.725   4.130   0.659
 1631TIP3    H1 4773   3.761   4.181   0.584
 1631TIP3    H2 4774   3.629   4.146   0.651
 1632TIP3   OH2 4775   3.817   4.231   0.421
 1632TIP3    H1 4776   3.890   4.181   0.379
 1632TIP3    H2 4777   3.850   4.323   0.405
 1633TIP3   OH2 4778   2.448   3.959   0.770
 1633TIP3    H1 4779   2.355   3.928   0.762
 1633TIP3    H2 4780   2.496   3.874   0.764
 1634TIP3   OH2 4781   2.264   3.816   0.425
 1634TIP3    H1 4782   2.284   3.870   0.346
 1634TIP3    H2 4783   2.197   3.871   0.469
 1635TIP3   OH2 4784   2.888   3.990   0.646
 1635TIP3    H1 4785   2.948   4.043   0.590
 1635TIP3    H2 4786   2.904   4.029   0.733
 1636TIP3   OH2 4787   3.442   4.135   0.632
 1636TIP3    H1 4788   3.434   4.103   0.541
 1636TIP3    H2 4789   3.424   4.053   0.684
 1637TIP3   OH2 4790   3.469   4.056   0.194
 1637TIP3    H1 4791   3.379   4.094   0.191
 1637TIP3    H2 4792   3.453   3.973   0.242
 1638TIP3   OH2 4793   1.951   5.382   0.202
 1638TIP3    H1 4794   1.866   5.349   0.170
 1638TIP3    H2 4795   1.945   5.476   0.172
 1639TIP3   OH2 4796   2.348   3.989   0.202
 1639TIP3    H1 4797   2.387   3.918   0.150
 1639TIP3    H2 4798   2.426   4.044   0.225
 1640TIP3   OH2 4799   2.864   4.158   0.279
 1640TIP3    H1 4800   2.926   4.114   0.340
 1640TIP3    H2 4801   2.885   4.252   0.302
 1641TIP3   OH2 4802   2.715   5.605  -0.235
 1641TIP3    H1 4803   2.808   5.617  -0.263
 1641TIP3    H2 4804   2.700   5.519  -0.280
 1642TIP3   OH2 4805   3.441   5.703  -0.139
 1642TIP3    H1 4806   3.430   5.605  -0.150
 1642TIP3    H2 4807   3.370   5.738  -0.195
 1643TIP3   OH2 4808   2.655   4.239   1.656
 1643TIP3    H1 4809   2.619   4.170   1.715
 1643TIP3    H2 4810   2.749   4.240   1.685
 1644TIP3   OH2 4811   2.903   4.236   1.778
 1644TIP3    H1 4812   2.988   4.210   1.739
 1644TIP3    H2 4813   2.890   4.165   1.845
 1645TIP3   OH2 4814   2.035   5.448  -0.147
 1645TIP3    H1 4815   2.015   5.466  -0.055
 1645TIP3    H2 4816   2.113   5.392  -0.142
 1646TIP3   OH2 4817   3.726   4.294   1.566
 1646TIP3    H1 4818   3.747   4.264   1.657
 1646TIP3    H2 4819   3.814   4.291   1.523
 1647TIP3   OH2 4820   3.669   5.850   1.058
 1647TIP3    H1 4821   3.590   5.817   1.011
 1647TIP3    H2 4822   3.650   5.946   1.059
 1648TIP3   OH2 4823   4.915   5.223   0.207
 1648TIP3    H1 4824   4.960   5.193   0.288
 1648TIP3    H2 4825   4.890   5.139   0.165
 1649TIP3   OH2 4826   4.233   5.119   0.570
 1649TIP3    H1 4827   4.266   5.053   0.633
 1649TIP3    H2 4828   4.310   5.177   0.562
 1650TIP3   OH2 4829   4.201   5.523   0.302
 1650TIP3    H1 4830   4.194   5.425   0.303
 1650TIP3    H2 4831   4.297   5.534   0.290
 1651TIP3   OH2 4832   3.910   4.732   0.082
 1651TIP3    H1 4833   3.861   4.816   0.095
 1651TIP3    H2 4834   3.839   4.675   0.051
 1652TIP3   OH2 4835   3.969   5.016   0.245
 1652TIP3    H1 4836   4.017   4.941   0.287
 1652TIP3    H2 4837   4.033   5.046   0.179
 1653TIP3   OH2 4838   4.733   5.446   0.250
 1653TIP3    H1 4839   4.770   5.364   0.211
 1653TIP3    H2 4840   4.817   5.489   0.273
 1654TIP3   OH2 4841   5.738   4.765   0.253
 1654TIP3    H1 4842   5.763   4.846   0.303
 1654TIP3    H2 4843   5.781   4.783   0.168
 1655TIP3   OH2 4844   5.139   4.948   0.297
 1655TIP3    H1 4845   5.185   4.863   0.308
 1655TIP3    H2 4846   5.117   4.947   0.202
 1656TIP3   OH2 4847   4.477   4.607   0.253
 1656TIP3    H1 4848   4.458   4.680   0.190
 1656TIP3    H2 4849   4.430   4.534   0.207
 1657TIP3   OH2 4850   5.125   4.686  -0.060
 1657TIP3    H1 4851   5.198   4.658  -0.000
 1657TIP3    H2 4852   5.183   4.697  -0.138
 1658TIP3   OH2 4853   4.114   4.811   0.357
 1658TIP3    H1 4854   4.196   4.791   0.405
 1658TIP3    H2 4855   4.126   4.755   0.278
 1659TIP3   OH2 4856   4.556   5.008   0.147
 1659TIP3    H1 4857   4.649   4.982   0.163
 1659TIP3    H2 4858   4.517   4.924   0.116
 1660TIP3   OH2 4859   5.812   4.969   0.421
 1660TIP3    H1 4860   5.730   5.020   0.404
 1660TIP3    H2 4861   5.833   5.000   0.511
 1661TIP3   OH2 4862   4.477   4.591   0.685
 1661TIP3    H1 4863   4.416   4.629   0.618
 1661TIP3    H2 4864   4.427   4.610   0.767
 1662TIP3   OH2 4865   4.584   5.365   0.484
 1662TIP3    H1 4866   4.519   5.428   0.524
 1662TIP3    H2 4867   4.623   5.420   0.413
 1663TIP3   OH2 4868   5.391   4.712   0.061
 1663TIP3    H1 4869   5.390   4.652   0.136
 1663TIP3    H2 4870   5.439   4.790   0.096
 1664TIP3   OH2 4871   4.346   4.706   0.471
 1664TIP3    H1 4872   4.409   4.779   0.494
 1664TIP3    H2 4873   4.395   4.665   0.396
 1665TIP3   OH2 4874   4.409   5.556   0.579
 1665TIP3    H1 4875   4.384   5.640   0.536
 1665TIP3    H2 4876   4.330   5.544   0.636
 1666TIP3   OH2 4877   3.810   5.249  -0.181
 1666TIP3    H1 4878   3.732   5.272  -0.234
 1666TIP3    H2 4879   3.815   5.322  -0.117
 1667TIP3   OH2 4880   5.225   5.786   0.087
 1667TIP3    H1 4881   5.135   5.758   0.117
 1667TIP3    H2 4882   5.200   5.842   0.012
 1668TIP3   OH2 4883   5.533   4.668   0.418
 1668TIP3    H1 4884   5.445   4.698   0.389
 1668TIP3    H2 4885   5.591   4.700   0.346
 1669TIP3   OH2 4886   4.837   4.313   0.397
 1669TIP3    H1 4887   4.827   4.218   0.413
 1669TIP3    H2 4888   4.759   4.349   0.444
 1670TIP3   OH2 4889   5.470   5.679   0.403
 1670TIP3    H1 4890   5.469   5.604   0.340
 1670TIP3    H2 4891   5.449   5.755   0.345
 1671TIP3   OH2 4892   5.668   5.308   0.270
 1671TIP3    H1 4893   5.591   5.370   0.273
 1671TIP3    H2 4894   5.685   5.306   0.175
 1672TIP3   OH2 4895   5.346   5.197   0.534
 1672TIP3    H1 4896   5.341   5.280   0.585
 1672TIP3    H2 4897   5.262   5.203   0.484
 1673TIP3   OH2 4898   4.342   5.155   0.045
 1673TIP3    H1 4899   4.301   5.096  -0.022
 1673TIP3    H2 4900   4.422   5.103   0.070
 1674TIP3   OH2 4901   4.470   5.562   0.198
 1674TIP3    H1 4902   4.445   5.527   0.110
 1674TIP3    H2 4903   4.561   5.527   0.209
 1675TIP3   OH2 4904   4.482   5.124   0.397
 1675TIP3    H1 4905   4.514   5.106   0.306
 1675TIP3    H2 4906   4.524   5.211   0.418
 1676TIP3   OH2 4907   4.975   5.760   0.183
 1676TIP3    H1 4908   4.974   5.838   0.240
 1676TIP3    H2 4909   4.974   5.686   0.247
 1677TIP3   OH2 4910   4.617   5.681   0.721
 1677TIP3    H1 4911   4.558   5.744   0.768
 1677TIP3    H2 4912   4.550   5.628   0.673
 1678TIP3   OH2 4913   4.370   5.240   0.819
 1678TIP3    H1 4914   4.374   5.326   0.866
 1678TIP3    H2 4915   4.274   5.221   0.825
 1679TIP3   OH2 4916   4.412   5.852   0.807
 1679TIP3    H1 4917   4.377   5.848   0.716
 1679TIP3    H2 4918   4.334   5.829   0.861
 1680TIP3   OH2 4919   4.205   4.993  -0.136
 1680TIP3    H1 4920   4.152   5.037  -0.205
 1680TIP3    H2 4921   4.152   4.916  -0.116
 1681TIP3   OH2 4922   3.991   5.380   0.756
 1681TIP3    H1 4923   3.928   5.356   0.684
 1681TIP3    H2 4924   4.028   5.293   0.782
 1682TIP3   OH2 4925   3.846   5.570   0.392
 1682TIP3    H1 4926   3.941   5.566   0.378
 1682TIP3    H2 4927   3.836   5.652   0.442
 1683TIP3   OH2 4928   5.709   6.018   0.445
 1683TIP3    H1 4929   5.709   5.923   0.463
 1683TIP3    H2 4930   5.626   6.045   0.490
 1684TIP3   OH2 4931   4.818   5.810   0.577
 1684TIP3    H1 4932   4.819   5.903   0.610
 1684TIP3    H2 4933   4.745   5.772   0.632
 1685TIP3   OH2 4934   4.005   5.787  -0.087
 1685TIP3    H1 4935   4.073   5.783  -0.016
 1685TIP3    H2 4936   3.949   5.712  -0.059
 1686TIP3   OH2 4937   5.598   5.154   0.718
 1686TIP3    H1 4938   5.520   5.169   0.664
 1686TIP3    H2 4939   5.613   5.058   0.705
 1687TIP3   OH2 4940   4.196   5.563   0.747
 1687TIP3    H1 4941   4.246   5.545   0.829
 1687TIP3    H2 4942   4.122   5.498   0.754
 1688TIP3   OH2 4943   4.596   4.386   0.525
 1688TIP3    H1 4944   4.506   4.356   0.501
 1688TIP3    H2 4945   4.573   4.470   0.568
 1689TIP3   OH2 4946   5.128   4.503   0.720
 1689TIP3    H1 4947   5.195   4.475   0.786
 1689TIP3    H2 4948   5.043   4.482   0.765
 1690TIP3   OH2 4949   5.371   4.932   0.640
 1690TIP3    H1 4950   5.322   4.927   0.724
 1690TIP3    H2 4951   5.344   5.018   0.604
 1691TIP3   OH2 4952   4.526   4.901   0.546
 1691TIP3    H1 4953   4.476   4.925   0.627
 1691TIP3    H2 4954   4.512   4.982   0.491
 1692TIP3   OH2 4955   4.413   4.784   0.058
 1692TIP3    H1 4956   4.319   4.761   0.076
 1692TIP3    H2 4957   4.423   4.745  -0.031
 1693TIP3   OH2 4958   5.076   5.156   0.876
 1693TIP3    H1 4959   5.054   5.082   0.937
 1693TIP3    H2 4960   5.170   5.169   0.895
 1694TIP3   OH2 4961   5.049   4.931   0.036
 1694TIP3    H1 4962   5.023   4.976  -0.047
 1694TIP3    H2 4963   5.071   4.841   0.003
 1695TIP3   OH2 4964   4.345   4.932   0.755
 1695TIP3    H1 4965   4.372   4.996   0.823
 1695TIP3    H2 4966   4.335   4.850   0.807
 1696TIP3   OH2 4967   3.939   4.457   0.334
 1696TIP3    H1 4968   4.016   4.485   0.387
 1696TIP3    H2 4969   3.978   4.419   0.254
 1697TIP3   OH2 4970   3.915   4.436  -0.144
 1697TIP3    H1 4971   3.966   4.473  -0.219
 1697TIP3    H2 4972   3.856   4.512  -0.123
 1698TIP3   OH2 4973   5.065   5.152   0.452
 1698TIP3    H1 4974   5.100   5.080   0.396
 1698TIP3    H2 4975   5.039   5.100   0.531
 1699TIP3   OH2 4976   4.737   4.607   0.129
 1699TIP3    H1 4977   4.654   4.606   0.181
 1699TIP3    H2 4978   4.804   4.613   0.199
 1700TIP3   OH2 4979   4.173   4.664   0.130
 1700TIP3    H1 4980   4.078   4.671   0.104
 1700TIP3    H2 4981   4.196   4.572   0.108
 1701TIP3   OH2 4982   4.443   4.664  -0.196
 1701TIP3    H1 4983   4.540   4.674  -0.182
 1701TIP3    H2 4984   4.427   4.723  -0.271
 1702TIP3   OH2 4985   5.231   4.685   0.325
 1702TIP3    H1 4986   5.192   4.698   0.415
 1702TIP3    H2 4987   5.167   4.624   0.285
 1703TIP3   OH2 4988   5.397   6.371   0.571
 1703TIP3    H1 4989   5.395   6.383   0.473
 1703TIP3    H2 4990   5.467   6.434   0.594
 1704TIP3   OH2 4991   4.357   5.484   0.965
 1704TIP3    H1 4992   4.437   5.515   1.012
 1704TIP3    H2 4993   4.293   5.485   1.038
 1705TIP3   OH2 4994   4.818   4.932   0.218
 1705TIP3    H1 4995   4.898   4.909   0.167
 1705TIP3    H2 4996   4.838   4.896   0.306
 1706TIP3   OH2 4997   4.349   4.428   0.091
 1706TIP3    H1 4998   4.317   4.348   0.137
 1706TIP3    H2 4999   4.411   4.391   0.027
 1707TIP3   OH2 5000   4.799   4.828   0.514
 1707TIP3    H1 5001   4.710   4.869   0.522
 1707TIP3    H2 5002   4.857   4.891   0.561
 1708TIP3   OH2 5003   5.444   5.458   0.227
 1708TIP3    H1 5004   5.430   5.527   0.159
 1708TIP3    H2 5005   5.358   5.411   0.227
 1709TIP3   OH2 5006   4.940   5.547   0.600
 1709TIP3    H1 5007   4.952   5.518   0.691
 1709TIP3    H2 5008   4.895   5.632   0.610
 1710TIP3   OH2 5009   4.223   5.242   0.282
 1710TIP3    H1 5010   4.263   5.219   0.196
 1710TIP3    H2 5011   4.267   5.180   0.342
 1711TIP3   OH2 5012   4.105   5.169   0.893
 1711TIP3    H1 5013   4.129   5.156   0.987
 1711TIP3    H2 5014   4.037   5.101   0.879
 1712TIP3   OH2 5015   4.831   5.279   0.913
 1712TIP3    H1 5016   4.774   5.222   0.859
 1712TIP3    H2 5017   4.920   5.248   0.885
 1713TIP3   OH2 5018   5.095   5.810   0.489
 1713TIP3    H1 5019   5.000   5.801   0.508
 1713TIP3    H2 5020   5.125   5.856   0.571
 1714TIP3   OH2 5021   5.721   5.733   0.493
 1714TIP3    H1 5022   5.623   5.728   0.489
 1714TIP3    H2 5023   5.742   5.702   0.402
 1715TIP3   OH2 5024   5.212   5.315   0.201
 1715TIP3    H1 5025   5.116   5.305   0.185
 1715TIP3    H2 5026   5.244   5.246   0.139
 1716TIP3   OH2 5027   4.338   5.560  -0.075
 1716TIP3    H1 5028   4.349   5.649  -0.114
 1716TIP3    H2 5029   4.262   5.526  -0.127
 1717TIP3   OH2 5030   3.876   4.855  -0.395
 1717TIP3    H1 5031   3.920   4.938  -0.367
 1717TIP3    H2 5032   3.800   4.853  -0.333
 1718TIP3   OH2 5033   4.487   5.329  -0.126
 1718TIP3    H1 5034   4.440   5.414  -0.119
 1718TIP3    H2 5035   4.434   5.273  -0.066
 1719TIP3   OH2 5036   4.595   5.895   0.376
 1719TIP3    H1 5037   4.634   5.967   0.324
 1719TIP3    H2 5038   4.672   5.863   0.425
 1720TIP3   OH2 5039   4.994   5.526   0.333
 1720TIP3    H1 5040   4.983   5.525   0.431
 1720TIP3    H2 5041   5.071   5.469   0.322
 1721TIP3   OH2 5042   5.234   6.062   0.387
 1721TIP3    H1 5043   5.155   6.004   0.382
 1721TIP3    H2 5044   5.210   6.130   0.322
 1722TIP3   OH2 5045   4.321   4.674   0.904
 1722TIP3    H1 5046   4.225   4.680   0.919
 1722TIP3    H2 5047   4.349   4.611   0.973
 1723TIP3   OH2 5048   4.034   5.760   0.536
 1723TIP3    H1 5049   4.086   5.682   0.560
 1723TIP3    H2 5050   4.067   5.825   0.599
 1724TIP3   OH2 5051   3.998   5.079  -0.301
 1724TIP3    H1 5052   3.944   5.138  -0.246
 1724TIP3    H2 5053   4.040   5.143  -0.364
 1725TIP3   OH2 5054   5.152   4.739   0.583
 1725TIP3    H1 5055   5.233   4.776   0.620
 1725TIP3    H2 5056   5.138   4.658   0.637
 1726TIP3   OH2 5057   4.707   4.683  -0.135
 1726TIP3    H1 5058   4.786   4.725  -0.171
 1726TIP3    H2 5059   4.728   4.673  -0.040
 1727TIP3   OH2 5060   4.993   4.989   0.659
 1727TIP3    H1 5061   5.011   5.043   0.738
 1727TIP3    H2 5062   5.051   4.912   0.673
 1728TIP3   OH2 5063   4.885   4.422  -0.055
 1728TIP3    H1 5064   4.860   4.476   0.022
 1728TIP3    H2 5065   4.969   4.464  -0.077
 1729TIP3   OH2 5066   4.373   4.389  -0.245
 1729TIP3    H1 5067   4.373   4.481  -0.213
 1729TIP3    H2 5068   4.462   4.361  -0.216
 1730TIP3   OH2 5069   5.638   4.886   0.638
 1730TIP3    H1 5070   5.540   4.885   0.644
 1730TIP3    H2 5071   5.649   4.852   0.548
 1731TIP3   OH2 5072   5.296   5.096   0.054
 1731TIP3    H1 5073   5.219   5.042   0.031
 1731TIP3    H2 5074   5.364   5.030   0.075
 1732TIP3   OH2 5075   3.946   4.591  -0.378
 1732TIP3    H1 5076   3.919   4.685  -0.387
 1732TIP3    H2 5077   3.872   4.546  -0.419
 1733TIP3   OH2 5078   4.330   4.308   0.505
 1733TIP3    H1 5079   4.299   4.275   0.418
 1733TIP3    H2 5080   4.320   4.228   0.562
 1734TIP3   OH2 5081   3.859   5.541  -0.070
 1734TIP3    H1 5082   3.776   5.589  -0.060
 1734TIP3    H2 5083   3.873   5.539  -0.167
 1735TIP3   OH2 5084   4.023   6.061   0.956
 1735TIP3    H1 5085   4.110   6.060   1.001
 1735TIP3    H2 5086   4.003   5.966   0.953
 1736TIP3   OH2 5087   4.511   6.035   0.999
 1736TIP3    H1 5088   4.605   6.015   1.007
 1736TIP3    H2 5089   4.486   5.978   0.923
 1737TIP3   OH2 5090   5.151   5.933   0.729
 1737TIP3    H1 5091   5.140   5.866   0.800
 1737TIP3    H2 5092   5.226   5.987   0.762
 1738TIP3   OH2 5093   4.157   5.471   1.155
 1738TIP3    H1 5094   4.174   5.375   1.158
 1738TIP3    H2 5095   4.069   5.474   1.112
 1739TIP3   OH2 5096   4.766   5.555   0.928
 1739TIP3    H1 5097   4.723   5.569   0.841
 1739TIP3    H2 5098   4.796   5.462   0.922
 1740TIP3   OH2 5099   5.258   5.558   0.534
 1740TIP3    H1 5100   5.330   5.610   0.494
 1740TIP3    H2 5101   5.182   5.618   0.523
 1741TIP3   OH2 5102   4.274   5.202   1.135
 1741TIP3    H1 5103   4.350   5.144   1.119
 1741TIP3    H2 5104   4.297   5.238   1.224
 1742TIP3   OH2 5105   4.610   5.090   0.798
 1742TIP3    H1 5106   4.533   5.151   0.804
 1742TIP3    H2 5107   4.657   5.123   0.719
 1743TIP3   OH2 5108   5.126   5.493   0.933
 1743TIP3    H1 5109   5.209   5.477   0.886
 1743TIP3    H2 5110   5.127   5.424   1.002
 1744TIP3   OH2 5111   4.734   4.877   0.927
 1744TIP3    H1 5112   4.734   4.797   0.871
 1744TIP3    H2 5113   4.691   4.943   0.868
 1745TIP3   OH2 5114   4.736   4.663   0.732
 1745TIP3    H1 5115   4.763   4.706   0.648
 1745TIP3    H2 5116   4.642   4.641   0.713
 1746TIP3   OH2 5117   4.769   5.203   0.604
 1746TIP3    H1 5118   4.849   5.206   0.549
 1746TIP3    H2 5119   4.712   5.270   0.561
 1747TIP3   OH2 5120   5.349   5.169   0.990
 1747TIP3    H1 5121   5.399   5.086   0.994
 1747TIP3    H2 5122   5.417   5.230   0.955
 1748TIP3   OH2 5123   5.390   5.420   0.723
 1748TIP3    H1 5124   5.331   5.471   0.663
 1748TIP3    H2 5125   5.477   5.439   0.681
 1749TIP3   OH2 5126   4.609   4.996   1.153
 1749TIP3    H1 5127   4.541   4.928   1.166
 1749TIP3    H2 5128   4.646   4.970   1.066
 1750TIP3   OH2 5129   4.869   4.430   0.796
 1750TIP3    H1 5130   4.820   4.513   0.774
 1750TIP3    H2 5131   4.799   4.362   0.784
 1751TIP3   OH2 5132   4.995   4.936   1.014
 1751TIP3    H1 5133   4.985   4.926   1.110
 1751TIP3    H2 5134   4.904   4.911   0.986
 1752TIP3   OH2 5135   5.235   4.883   0.869
 1752TIP3    H1 5136   5.159   4.885   0.930
 1752TIP3    H2 5137   5.307   4.852   0.927
 1753TIP3   OH2 5138   5.465   4.822   1.022
 1753TIP3    H1 5139   5.475   4.727   1.043
 1753TIP3    H2 5140   5.460   4.864   1.111
 1754TIP3   OH2 5141   4.450   4.775   1.204
 1754TIP3    H1 5142   4.459   4.686   1.167
 1754TIP3    H2 5143   4.485   4.762   1.295
 1755TIP3   OH2 5144   4.964   4.438   1.053
 1755TIP3    H1 5145   5.032   4.369   1.047
 1755TIP3    H2 5146   4.924   4.432   0.964
 1756TIP3   OH2 5147   5.029   4.653   1.215
 1756TIP3    H1 5148   5.006   4.583   1.150
 1756TIP3    H2 5149   4.953   4.714   1.207
 1757TIP3   OH2 5150   3.636   5.882  -0.057
 1757TIP3    H1 5151   3.574   5.815  -0.092
 1757TIP3    H2 5152   3.682   5.831   0.013
 1758TIP3   OH2 5153   3.768   5.743   0.136
 1758TIP3    H1 5154   3.772   5.660   0.185
 1758TIP3    H2 5155   3.827   5.798   0.191
 1759TIP3   OH2 5156   5.557   6.128   0.216
 1759TIP3    H1 5157   5.516   6.040   0.227
 1759TIP3    H2 5158   5.623   6.125   0.287
 1760TIP3   OH2 5159   5.582   5.826   0.783
 1760TIP3    H1 5160   5.508   5.834   0.847
 1760TIP3    H2 5161   5.623   5.915   0.788
 1761TIP3   OH2 5162   5.406   5.897   0.250
 1761TIP3    H1 5163   5.354   5.952   0.312
 1761TIP3    H2 5164   5.333   5.861   0.194
 1762TIP3   OH2 5165   3.969   5.135   0.502
 1762TIP3    H1 5166   3.968   5.110   0.407
 1762TIP3    H2 5167   4.066   5.138   0.519
 1763TIP3   OH2 5168   5.629   5.487   0.610
 1763TIP3    H1 5169   5.702   5.421   0.605
 1763TIP3    H2 5170   5.662   5.558   0.553
 1764TIP3   OH2 5171   5.813   5.296   0.641
 1764TIP3    H1 5172   5.741   5.241   0.678
 1764TIP3    H2 5173   5.888   5.233   0.649
 1765TIP3   OH2 5174   5.509   4.949   0.149
 1765TIP3    H1 5175   5.590   4.985   0.106
 1765TIP3    H2 5176   5.517   4.989   0.238
 1766TIP3   OH2 5177   5.561   5.088   0.385
 1766TIP3    H1 5178   5.481   5.123   0.431
 1766TIP3    H2 5179   5.599   5.171   0.349
 1767TIP3   OH2 5180   4.183   4.824   1.176
 1767TIP3    H1 5181   4.281   4.817   1.177
 1767TIP3    H2 5182   4.159   4.741   1.220
 1768TIP3   OH2 5183   6.021   4.686   0.937
 1768TIP3    H1 5184   6.077   4.620   0.892
 1768TIP3    H2 5185   5.991   4.742   0.863
 1769TIP3   OH2 5186   4.146   4.515   0.509
 1769TIP3    H1 5187   4.208   4.440   0.519
 1769TIP3    H2 5188   4.208   4.590   0.504
 1770TIP3   OH2 5189   3.951   4.790   0.583
 1770TIP3    H1 5190   4.000   4.781   0.499
 1770TIP3    H2 5191   3.980   4.878   0.612
 1771TIP3   OH2 5192   5.892   4.828   0.746
 1771TIP3    H1 5193   5.805   4.868   0.765
 1771TIP3    H2 5194   5.867   4.759   0.683
 1772TIP3   OH2 5195   3.932   4.296   0.086
 1772TIP3    H1 5196   3.837   4.292   0.109
 1772TIP3    H2 5197   3.931   4.352   0.005
 1773TIP3   OH2 5198   4.151   4.373   0.898
 1773TIP3    H1 5199   4.101   4.368   0.981
 1773TIP3    H2 5200   4.085   4.411   0.838
 1774TIP3   OH2 5201   4.192   5.798   0.976
 1774TIP3    H1 5202   4.101   5.767   0.958
 1774TIP3    H2 5203   4.200   5.781   1.071
 1775TIP3   OH2 5204   4.367   5.828   0.522
 1775TIP3    H1 5205   4.320   5.904   0.483
 1775TIP3    H2 5206   4.454   5.842   0.479
 1776TIP3   OH2 5207   4.818   6.076   0.660
 1776TIP3    H1 5208   4.859   6.080   0.749
 1776TIP3    H2 5209   4.884   6.128   0.608
 1777TIP3   OH2 5210   4.996   6.226   0.518
 1777TIP3    H1 5211   5.070   6.173   0.486
 1777TIP3    H2 5212   5.044   6.287   0.580
 1778TIP3   OH2 5213   5.789   4.591   0.618
 1778TIP3    H1 5214   5.697   4.590   0.585
 1778TIP3    H2 5215   5.815   4.497   0.606
 1779TIP3   OH2 5216   4.048   6.089   0.544
 1779TIP3    H1 5217   3.960   6.125   0.520
 1779TIP3    H2 5218   4.054   6.118   0.636
 1780TIP3   OH2 5219   4.284   6.066   0.401
 1780TIP3    H1 5220   4.198   6.080   0.446
 1780TIP3    H2 5221   4.265   6.100   0.311
 1781TIP3   OH2 5222   4.717   6.099   0.196
 1781TIP3    H1 5223   4.638   6.116   0.141
 1781TIP3    H2 5224   4.727   6.185   0.242
 1782TIP3   OH2 5225   4.986   6.051   0.243
 1782TIP3    H1 5226   4.889   6.052   0.230
 1782TIP3    H2 5227   5.013   6.120   0.182
 1783TIP3   OH2 5228   3.957   5.883   0.292
 1783TIP3    H1 5229   3.986   5.859   0.383
 1783TIP3    H2 5230   4.029   5.839   0.241
 1784TIP3   OH2 5231   4.150   5.757   0.146
 1784TIP3    H1 5232   4.168   5.670   0.187
 1784TIP3    H2 5233   4.241   5.793   0.137
 1785TIP3   OH2 5234   4.417   5.855   0.144
 1785TIP3    H1 5235   4.446   5.763   0.127
 1785TIP3    H2 5236   4.456   5.869   0.232
 1786TIP3   OH2 5237   4.992   4.501   0.230
 1786TIP3    H1 5238   4.950   4.434   0.287
 1786TIP3    H2 5239   5.069   4.453   0.194
 1787TIP3   OH2 5240   5.514   4.387   0.152
 1787TIP3    H1 5241   5.553   4.429   0.072
 1787TIP3    H2 5242   5.419   4.402   0.140
 1788TIP3   OH2 5243   5.630   4.459  -0.088
 1788TIP3    H1 5244   5.724   4.436  -0.088
 1788TIP3    H2 5245   5.638   4.555  -0.100
 1789TIP3   OH2 5246   4.243   4.216   0.256
 1789TIP3    H1 5247   4.151   4.183   0.255
 1789TIP3    H2 5248   4.293   4.131   0.252
 1790TIP3   OH2 5249   4.017   4.082  -0.103
 1790TIP3    H1 5250   4.057   4.141  -0.170
 1790TIP3    H2 5251   3.996   4.146  -0.033
 1791TIP3   OH2 5252   4.675   4.251   0.139
 1791TIP3    H1 5253   4.741   4.292   0.082
 1791TIP3    H2 5254   4.702   4.283   0.226
 1792TIP3   OH2 5255   5.233   4.393   0.116
 1792TIP3    H1 5256   5.243   4.353   0.028
 1792TIP3    H2 5257   5.219   4.312   0.171
 1793TIP3   OH2 5258   4.138   4.260  -0.308
 1793TIP3    H1 5259   4.172   4.185  -0.358
 1793TIP3    H2 5260   4.220   4.310  -0.287
 1794TIP3   OH2 5261   4.633   4.403  -0.178
 1794TIP3    H1 5262   4.709   4.366  -0.132
 1794TIP3    H2 5263   4.659   4.497  -0.182
 1795TIP3   OH2 5264   4.450   4.495   1.144
 1795TIP3    H1 5265   4.418   4.425   1.203
 1795TIP3    H2 5266   4.545   4.497   1.170
 1796TIP3   OH2 5267   4.699   4.493   1.265
 1796TIP3    H1 5268   4.783   4.468   1.224
 1796TIP3    H2 5269   4.688   4.422   1.331
 1797TIP3   OH2 5270   5.523   4.551   1.052
 1797TIP3    H1 5271   5.543   4.520   1.143
 1797TIP3    H2 5272   5.611   4.548   1.009
 1798TIP3   OH2 5273   5.468   6.107   0.543
 1798TIP3    H1 5274   5.383   6.079   0.504
 1798TIP3    H2 5275   5.453   6.203   0.550
 1799TIP3   OH2 5276   6.252   4.839   0.171
 1799TIP3    H1 5277   6.279   4.920   0.123
 1799TIP3    H2 5278   6.204   4.874   0.249
 1800TIP3   OH2 5279   6.175   5.484   0.321
 1800TIP3    H1 5280   6.182   5.576   0.353
 1800TIP3    H2 5281   6.079   5.475   0.309
 1801TIP3   OH2 5282   5.770   5.637   0.249
 1801TIP3    H1 5283   5.756   5.628   0.153
 1801TIP3    H2 5284   5.811   5.551   0.275
 1802TIP3   OH2 5285   6.020   5.755   0.254
 1802TIP3    H1 5286   6.072   5.757   0.337
 1802TIP3    H2 5287   5.937   5.711   0.280
 1803TIP3   OH2 5288   6.915   4.776   0.228
 1803TIP3    H1 5289   6.991   4.749   0.282
 1803TIP3    H2 5290   6.839   4.750   0.281
 1804TIP3   OH2 5291   6.888   5.414   0.420
 1804TIP3    H1 5292   6.865   5.321   0.438
 1804TIP3    H2 5293   6.971   5.404   0.371
 1805TIP3   OH2 5294   6.104   5.186   0.258
 1805TIP3    H1 5295   6.164   5.255   0.286
 1805TIP3    H2 5296   6.133   5.108   0.308
 1806TIP3   OH2 5297   6.167   5.735   0.480
 1806TIP3    H1 5298   6.242   5.773   0.530
 1806TIP3    H2 5299   6.097   5.742   0.548
 1807TIP3   OH2 5300   5.897   5.438   0.382
 1807TIP3    H1 5301   5.936   5.421   0.471
 1807TIP3    H2 5302   5.837   5.361   0.372
 1808TIP3   OH2 5303   6.625   5.506   0.439
 1808TIP3    H1 5304   6.567   5.481   0.365
 1808TIP3    H2 5305   6.714   5.484   0.404
 1809TIP3   OH2 5306   6.122   4.930   0.396
 1809TIP3    H1 5307   6.026   4.942   0.406
 1809TIP3    H2 5308   6.142   4.865   0.465
 1810TIP3   OH2 5309   6.103   4.535  -0.016
 1810TIP3    H1 5310   6.081   4.488  -0.098
 1810TIP3    H2 5311   6.106   4.462   0.049
 1811TIP3   OH2 5312   5.816   6.297   0.435
 1811TIP3    H1 5313   5.901   6.314   0.482
 1811TIP3    H2 5314   5.798   6.205   0.458
 1812TIP3   OH2 5315   6.318   6.289   0.480
 1812TIP3    H1 5316   6.396   6.246   0.516
 1812TIP3    H2 5317   6.319   6.258   0.388
 1813TIP3   OH2 5318   5.950   5.725   0.649
 1813TIP3    H1 5319   5.968   5.629   0.645
 1813TIP3    H2 5320   5.864   5.731   0.603
 1814TIP3   OH2 5321   6.567   5.773   0.466
 1814TIP3    H1 5322   6.553   5.789   0.370
 1814TIP3    H2 5323   6.592   5.678   0.466
 1815TIP3   OH2 5324   6.065   5.457   0.624
 1815TIP3    H1 5325   6.144   5.408   0.596
 1815TIP3    H2 5326   6.093   5.492   0.711
 1816TIP3   OH2 5327   6.398   5.333   0.283
 1816TIP3    H1 5328   6.327   5.397   0.309
 1816TIP3    H2 5329   6.425   5.375   0.200
 1817TIP3   OH2 5330   6.928   5.715   0.432
 1817TIP3    H1 5331   7.017   5.727   0.398
 1817TIP3    H2 5332   6.939   5.651   0.504
 1818TIP3   OH2 5333   6.529   5.145   0.426
 1818TIP3    H1 5334   6.521   5.059   0.379
 1818TIP3    H2 5335   6.484   5.207   0.363
 1819TIP3   OH2 5336   6.516   4.915   0.273
 1819TIP3    H1 5337   6.547   4.956   0.190
 1819TIP3    H2 5338   6.424   4.895   0.247
 1820TIP3   OH2 5339   7.180   5.431   0.499
 1820TIP3    H1 5340   7.184   5.336   0.478
 1820TIP3    H2 5341   7.216   5.470   0.419
 1821TIP3   OH2 5342   6.404   5.254   0.646
 1821TIP3    H1 5343   6.335   5.186   0.654
 1821TIP3    H2 5344   6.443   5.233   0.559
 1822TIP3   OH2 5345   6.654   4.682   0.297
 1822TIP3    H1 5346   6.610   4.770   0.298
 1822TIP3    H2 5347   6.575   4.624   0.289
 1823TIP3   OH2 5348   6.793   5.170   0.500
 1823TIP3    H1 5349   6.779   5.176   0.596
 1823TIP3    H2 5350   6.699   5.162   0.471
 1824TIP3   OH2 5351   7.035   5.159   0.360
 1824TIP3    H1 5352   6.957   5.137   0.414
 1824TIP3    H2 5353   7.103   5.099   0.393
 1825TIP3   OH2 5354   7.286   5.093   0.514
 1825TIP3    H1 5355   7.279   4.995   0.515
 1825TIP3    H2 5356   7.264   5.117   0.606
 1826TIP3   OH2 5357   6.245   5.032   0.692
 1826TIP3    H1 5358   6.255   4.944   0.652
 1826TIP3    H2 5359   6.280   5.018   0.782
 1827TIP3   OH2 5360   6.762   4.694   0.546
 1827TIP3    H1 5361   6.831   4.625   0.540
 1827TIP3    H2 5362   6.718   4.684   0.460
 1828TIP3   OH2 5363   6.824   4.910   0.705
 1828TIP3    H1 5364   6.802   4.841   0.639
 1828TIP3    H2 5365   6.750   4.973   0.695
 1829TIP3   OH2 5366   5.977   5.080   0.662
 1829TIP3    H1 5367   6.075   5.075   0.662
 1829TIP3    H2 5368   5.955   4.997   0.708
 1830TIP3   OH2 5369   5.940   4.801   0.057
 1830TIP3    H1 5370   6.012   4.743   0.089
 1830TIP3    H2 5371   5.989   4.880   0.026
 1831TIP3   OH2 5372   5.753   5.054   0.059
 1831TIP3    H1 5373   5.826   4.994   0.040
 1831TIP3    H2 5374   5.802   5.136   0.077
 1832TIP3   OH2 5375   5.949   4.631   0.385
 1832TIP3    H1 5376   5.900   4.623   0.469
 1832TIP3    H2 5377   5.880   4.667   0.327
 1833TIP3   OH2 5378   5.984   6.030   0.461
 1833TIP3    H1 5379   5.888   6.015   0.454
 1833TIP3    H2 5380   5.998   6.037   0.555
 1834TIP3   OH2 5381   6.246   4.749   0.630
 1834TIP3    H1 5382   6.214   4.681   0.691
 1834TIP3    H2 5383   6.341   4.753   0.657
 1835TIP3   OH2 5384   6.494   4.749   0.751
 1835TIP3    H1 5385   6.581   4.727   0.713
 1835TIP3    H2 5386   6.484   4.678   0.817
 1836TIP3   OH2 5387   7.310   4.807   0.547
 1836TIP3    H1 5388   7.347   4.776   0.632
 1836TIP3    H2 5389   7.391   4.822   0.494
 1837TIP3   OH2 5390  -0.231   5.868   2.228
 1837TIP3    H1 5391  -0.263   5.776   2.232
 1837TIP3    H2 5392  -0.283   5.914   2.297
 1838TIP3   OH2 5393   0.269   5.731   2.112
 1838TIP3    H1 5394   0.325   5.662   2.071
 1838TIP3    H2 5395   0.247   5.788   2.036
 1839TIP3   OH2 5396   0.133   5.875   1.924
 1839TIP3    H1 5397   0.065   5.910   1.986
 1839TIP3    H2 5398   0.093   5.790   1.894
 1840TIP3   OH2 5399   0.039   5.637   1.829
 1840TIP3    H1 5400  -0.014   5.643   1.747
 1840TIP3    H2 5401   0.080   5.549   1.814
 1841TIP3   OH2 5402  -0.238   5.590   2.232
 1841TIP3    H1 5403  -0.214   5.562   2.323
 1841TIP3    H2 5404  -0.150   5.595   2.190
 1842TIP3   OH2 5405   1.794   6.065   0.917
 1842TIP3    H1 5406   1.819   6.150   0.960
 1842TIP3    H2 5407   1.799   6.090   0.823
 1843TIP3   OH2 5408   1.133   6.238   0.975
 1843TIP3    H1 5409   1.197   6.165   0.987
 1843TIP3    H2 5410   1.162   6.273   0.889
 1844TIP3   OH2 5411   1.864   6.279   1.082
 1844TIP3    H1 5412   1.779   6.325   1.062
 1844TIP3    H2 5413   1.865   6.286   1.178
 1845TIP3   OH2 5414   0.534   5.892   1.366
 1845TIP3    H1 5415   0.464   5.853   1.311
 1845TIP3    H2 5416   0.487   5.907   1.451
 1846TIP3   OH2 5417   1.430   6.003   0.708
 1846TIP3    H1 5418   1.424   5.944   0.785
 1846TIP3    H2 5419   1.491   6.073   0.739
 1847TIP3   OH2 5420   1.579   5.975   1.082
 1847TIP3    H1 5421   1.491   6.000   1.050
 1847TIP3    H2 5422   1.637   5.999   1.007
 1848TIP3   OH2 5423   0.900   5.624   1.099
 1848TIP3    H1 5424   0.873   5.552   1.038
 1848TIP3    H2 5425   0.811   5.661   1.116
 1849TIP3   OH2 5426   1.513   6.989   1.064
 1849TIP3    H1 5427   1.509   6.915   0.999
 1849TIP3    H2 5428   1.474   7.063   1.011
 1850TIP3   OH2 5429   1.715   6.616   0.904
 1850TIP3    H1 5430   1.634   6.669   0.913
 1850TIP3    H2 5431   1.736   6.638   0.811
 1851TIP3   OH2 5432   1.405   6.501   1.198
 1851TIP3    H1 5433   1.393   6.583   1.250
 1851TIP3    H2 5434   1.313   6.491   1.164
 1852TIP3   OH2 5435   1.766   7.319   1.117
 1852TIP3    H1 5436   1.755   7.223   1.126
 1852TIP3    H2 5437   1.677   7.350   1.145
 1853TIP3   OH2 5438   1.646   6.460   1.377
 1853TIP3    H1 5439   1.565   6.471   1.324
 1853TIP3    H2 5440   1.661   6.364   1.370
 1854TIP3   OH2 5441   0.630   5.683   1.191
 1854TIP3    H1 5442   0.546   5.660   1.151
 1854TIP3    H2 5443   0.617   5.778   1.210
 1855TIP3   OH2 5444   1.174   5.811   1.387
 1855TIP3    H1 5445   1.240   5.777   1.450
 1855TIP3    H2 5446   1.089   5.783   1.427
 1856TIP3   OH2 5447   1.418   6.233   1.305
 1856TIP3    H1 5448   1.367   6.228   1.389
 1856TIP3    H2 5449   1.389   6.318   1.267
 1857TIP3   OH2 5450   1.118   6.459   1.544
 1857TIP3    H1 5451   1.102   6.382   1.603
 1857TIP3    H2 5452   1.214   6.474   1.559
 1858TIP3   OH2 5453   1.147   6.455   1.140
 1858TIP3    H1 5454   1.142   6.394   1.064
 1858TIP3    H2 5455   1.089   6.407   1.203
 1859TIP3   OH2 5456   1.271   5.988   0.988
 1859TIP3    H1 5457   1.234   6.000   1.077
 1859TIP3    H2 5458   1.207   5.921   0.954
 1860TIP3   OH2 5459   0.867   6.071   1.189
 1860TIP3    H1 5460   0.797   6.135   1.181
 1860TIP3    H2 5461   0.947   6.125   1.199
 1861TIP3   OH2 5462   1.492   6.769   0.891
 1861TIP3    H1 5463   1.494   6.800   0.799
 1861TIP3    H2 5464   1.405   6.726   0.895
 1862TIP3   OH2 5465   0.873   6.576   1.549
 1862TIP3    H1 5466   0.846   6.484   1.537
 1862TIP3    H2 5467   0.971   6.564   1.547
 1863TIP3   OH2 5468   1.767   7.025   1.150
 1863TIP3    H1 5469   1.669   7.027   1.142
 1863TIP3    H2 5470   1.791   6.999   1.059
 1864TIP3   OH2 5471   0.402   5.947   1.597
 1864TIP3    H1 5472   0.306   5.938   1.606
 1864TIP3    H2 5473   0.431   5.882   1.665
 1865TIP3   OH2 5474   1.193   6.050   1.252
 1865TIP3    H1 5475   1.280   6.076   1.285
 1865TIP3    H2 5476   1.179   5.964   1.297
 1866TIP3   OH2 5477   1.033   6.293   1.329
 1866TIP3    H1 5478   1.069   6.343   1.405
 1866TIP3    H2 5479   1.092   6.215   1.327
 1867TIP3   OH2 5480   1.685   6.191   1.293
 1867TIP3    H1 5481   1.587   6.191   1.307
 1867TIP3    H2 5482   1.688   6.143   1.209
 1868TIP3   OH2 5483   1.319   6.325   0.778
 1868TIP3    H1 5484   1.297   6.340   0.685
 1868TIP3    H2 5485   1.416   6.305   0.772
 1869TIP3   OH2 5486   1.204   7.256   1.406
 1869TIP3    H1 5487   1.182   7.181   1.465
 1869TIP3    H2 5488   1.283   7.295   1.447
 1870TIP3   OH2 5489   0.813   6.854   1.592
 1870TIP3    H1 5490   0.800   6.869   1.498
 1870TIP3    H2 5491   0.855   6.765   1.593
 1871TIP3   OH2 5492   1.305   6.867   1.201
 1871TIP3    H1 5493   1.382   6.919   1.170
 1871TIP3    H2 5494   1.249   6.934   1.243
 1872TIP3   OH2 5495   0.381   6.582   1.815
 1872TIP3    H1 5496   0.354   6.491   1.796
 1872TIP3    H2 5497   0.383   6.585   1.913
 1873TIP3   OH2 5498   1.168   6.785   1.601
 1873TIP3    H1 5499   1.252   6.779   1.555
 1873TIP3    H2 5500   1.178   6.720   1.673
 1874TIP3   OH2 5501   0.776   6.178   1.585
 1874TIP3    H1 5502   0.787   6.085   1.556
 1874TIP3    H2 5503   0.747   6.217   1.502
 1875TIP3   OH2 5504   0.789   5.960   1.420
 1875TIP3    H1 5505   0.826   5.983   1.332
 1875TIP3    H2 5506   0.696   5.937   1.396
 1876TIP3   OH2 5507   1.394   6.471   1.652
 1876TIP3    H1 5508   1.440   6.387   1.660
 1876TIP3    H2 5509   1.464   6.529   1.619
 1877TIP3   OH2 5510   1.436   6.720   1.389
 1877TIP3    H1 5511   1.377   6.769   1.326
 1877TIP3    H2 5512   1.523   6.737   1.347
 1878TIP3   OH2 5513   0.663   6.299   1.809
 1878TIP3    H1 5514   0.585   6.244   1.831
 1878TIP3    H2 5515   0.694   6.255   1.727
 1879TIP3   OH2 5516   0.918   5.726   1.462
 1879TIP3    H1 5517   0.868   5.809   1.446
 1879TIP3    H2 5518   0.849   5.659   1.444
 1880TIP3   OH2 5519   1.038   6.239   1.680
 1880TIP3    H1 5520   1.034   6.227   1.777
 1880TIP3    H2 5521   0.948   6.208   1.656
 1881TIP3   OH2 5522   1.281   6.189   1.534
 1881TIP3    H1 5523   1.204   6.182   1.594
 1881TIP3    H2 5524   1.354   6.155   1.589
 1882TIP3   OH2 5525   1.505   6.122   1.685
 1882TIP3    H1 5526   1.519   6.028   1.705
 1882TIP3    H2 5527   1.504   6.164   1.773
 1883TIP3   OH2 5528   0.506   6.079   1.874
 1883TIP3    H1 5529   0.509   5.992   1.832
 1883TIP3    H2 5530   0.541   6.060   1.963
 1884TIP3   OH2 5531   1.009   5.740   1.718
 1884TIP3    H1 5532   1.077   5.670   1.713
 1884TIP3    H2 5533   0.970   5.732   1.629
 1885TIP3   OH2 5534   1.074   5.955   1.878
 1885TIP3    H1 5535   1.052   5.884   1.814
 1885TIP3    H2 5536   0.996   6.014   1.871
 1886TIP3   OH2 5537   1.626   7.126   1.446
 1886TIP3    H1 5538   1.554   7.134   1.511
 1886TIP3    H2 5539   1.668   7.215   1.451
 1887TIP3   OH2 5540   1.674   6.787   1.274
 1887TIP3    H1 5541   1.747   6.723   1.267
 1887TIP3    H2 5542   1.704   6.860   1.218
 1888TIP3   OH2 5543   1.864   6.597   1.296
 1888TIP3    H1 5544   1.788   6.549   1.334
 1888TIP3    H2 5545   1.935   6.532   1.313
 1889TIP3   OH2 5546   1.574   6.234   0.811
 1889TIP3    H1 5547   1.659   6.272   0.776
 1889TIP3    H2 5548   1.572   6.277   0.899
 1890TIP3   OH2 5549   1.612   6.395   1.040
 1890TIP3    H1 5550   1.535   6.429   1.090
 1890TIP3    H2 5551   1.644   6.476   0.996
 1891TIP3   OH2 5552   0.245   6.101   1.803
 1891TIP3    H1 5553   0.337   6.113   1.832
 1891TIP3    H2 5554   0.206   6.053   1.878
 1892TIP3   OH2 5555   2.064   5.980   1.599
 1892TIP3    H1 5556   2.121   5.917   1.550
 1892TIP3    H2 5557   2.040   6.045   1.530
 1893TIP3   OH2 5558   1.501   5.813   0.346
 1893TIP3    H1 5559   1.541   5.815   0.435
 1893TIP3    H2 5560   1.431   5.748   0.358
 1894TIP3   OH2 5561   1.938   6.133   1.407
 1894TIP3    H1 5562   1.850   6.166   1.433
 1894TIP3    H2 5563   1.912   6.059   1.349
 1895TIP3   OH2 5564   0.227   5.723   1.570
 1895TIP3    H1 5565   0.191   5.666   1.640
 1895TIP3    H2 5566   0.157   5.717   1.504
 1896TIP3   OH2 5567   1.834   5.893   1.282
 1896TIP3    H1 5568   1.742   5.889   1.250
 1896TIP3    H2 5569   1.862   5.799   1.270
 1897TIP3   OH2 5570   1.073   5.811   0.921
 1897TIP3    H1 5571   0.995   5.769   0.961
 1897TIP3    H2 5572   1.094   5.748   0.851
 1898TIP3   OH2 5573   1.571   5.698   0.814
 1898TIP3    H1 5574   1.602   5.747   0.735
 1898TIP3    H2 5575   1.473   5.701   0.803
 1899TIP3   OH2 5576   1.660   5.796   0.571
 1899TIP3    H1 5577   1.732   5.743   0.531
 1899TIP3    H2 5578   1.692   5.887   0.557
 1900TIP3   OH2 5579   1.299   5.685   0.772
 1900TIP3    H1 5580   1.286   5.641   0.688
 1900TIP3    H2 5581   1.269   5.616   0.836
 1901TIP3   OH2 5582   0.495   5.790   1.808
 1901TIP3    H1 5583   0.464   5.722   1.870
 1901TIP3    H2 5584   0.589   5.796   1.834
 1902TIP3   OH2 5585   0.743   5.794   1.927
 1902TIP3    H1 5586   0.827   5.768   1.886
 1902TIP3    H2 5587   0.731   5.724   1.994
 1903TIP3   OH2 5588   1.568   5.853   1.716
 1903TIP3    H1 5589   1.588   5.821   1.807
 1903TIP3    H2 5590   1.656   5.849   1.673
 1904TIP3   OH2 5591   1.514   7.410   1.204
 1904TIP3    H1 5592   1.438   7.359   1.172
 1904TIP3    H2 5593   1.480   7.500   1.203
 1905TIP3   OH2 5594   2.759   6.788   0.013
 1905TIP3    H1 5595   2.736   6.881  -0.004
 1905TIP3    H2 5596   2.691   6.741  -0.037
 1906TIP3   OH2 5597   2.766   6.782   0.356
 1906TIP3    H1 5598   2.800   6.744   0.438
 1906TIP3    H2 5599   2.733   6.704   0.309
 1907TIP3   OH2 5600   2.093   6.666   0.717
 1907TIP3    H1 5601   2.129   6.611   0.787
 1907TIP3    H2 5602   2.160   6.736   0.710
 1908TIP3   OH2 5603   3.030   7.059   0.036
 1908TIP3    H1 5604   3.007   7.002   0.110
 1908TIP3    H2 5605   3.045   7.144   0.080
 1909TIP3   OH2 5606   2.047   7.061   0.483
 1909TIP3    H1 5607   2.078   6.970   0.501
 1909TIP3    H2 5608   2.129   7.100   0.449
 1910TIP3   OH2 5609   1.846   6.601   0.405
 1910TIP3    H1 5610   1.873   6.516   0.445
 1910TIP3    H2 5611   1.869   6.586   0.313
 1911TIP3   OH2 5612   2.697   7.538   0.043
 1911TIP3    H1 5613   2.726   7.447   0.032
 1911TIP3    H2 5614   2.661   7.535   0.132
 1912TIP3   OH2 5615   2.577   7.004   0.403
 1912TIP3    H1 5616   2.612   6.925   0.357
 1912TIP3    H2 5617   2.662   7.046   0.426
 1913TIP3   OH2 5618   3.582   6.325   0.402
 1913TIP3    H1 5619   3.611   6.406   0.448
 1913TIP3    H2 5620   3.602   6.350   0.310
 1914TIP3   OH2 5621   2.969   6.500   0.448
 1914TIP3    H1 5622   3.022   6.420   0.461
 1914TIP3    H2 5623   2.959   6.501   0.351
 1915TIP3   OH2 5624   2.315   6.166   0.405
 1915TIP3    H1 5625   2.300   6.238   0.340
 1915TIP3    H2 5626   2.275   6.091   0.357
 1916TIP3   OH2 5627   3.013   6.255   0.028
 1916TIP3    H1 5628   3.088   6.237   0.089
 1916TIP3    H2 5629   3.064   6.291  -0.048
 1917TIP3   OH2 5630   1.955   6.365   0.502
 1917TIP3    H1 5631   2.035   6.349   0.555
 1917TIP3    H2 5632   1.975   6.309   0.424
 1918TIP3   OH2 5633   2.403   6.562   0.302
 1918TIP3    H1 5634   2.497   6.536   0.314
 1918TIP3    H2 5635   2.364   6.480   0.266
 1919TIP3   OH2 5636   3.656   6.530   0.571
 1919TIP3    H1 5637   3.573   6.580   0.552
 1919TIP3    H2 5638   3.671   6.556   0.664
 1920TIP3   OH2 5639   2.317   6.152   0.837
 1920TIP3    H1 5640   2.255   6.186   0.770
 1920TIP3    H2 5641   2.264   6.160   0.918
 1921TIP3   OH2 5642   2.676   7.019  -0.101
 1921TIP3    H1 5643   2.675   6.967  -0.183
 1921TIP3    H2 5644   2.602   7.082  -0.112
 1922TIP3   OH2 5645   2.426   6.922   0.637
 1922TIP3    H1 5646   2.361   6.986   0.673
 1922TIP3    H2 5647   2.465   6.974   0.564
 1923TIP3   OH2 5648   3.231   6.253   0.193
 1923TIP3    H1 5649   3.226   6.207   0.278
 1923TIP3    H2 5650   3.278   6.335   0.217
 1924TIP3   OH2 5651   2.188   6.267   0.623
 1924TIP3    H1 5652   2.254   6.336   0.642
 1924TIP3    H2 5653   2.233   6.222   0.548
 1925TIP3   OH2 5654   2.251   7.112   0.732
 1925TIP3    H1 5655   2.225   7.192   0.683
 1925TIP3    H2 5656   2.172   7.101   0.789
 1926TIP3   OH2 5657   3.088   7.324   0.201
 1926TIP3    H1 5658   3.001   7.308   0.244
 1926TIP3    H2 5659   3.076   7.415   0.171
 1927TIP3   OH2 5660   3.375   6.227   0.568
 1927TIP3    H1 5661   3.288   6.257   0.537
 1927TIP3    H2 5662   3.434   6.257   0.495
 1928TIP3   OH2 5663   2.678   5.870   0.547
 1928TIP3    H1 5664   2.667   5.775   0.565
 1928TIP3    H2 5665   2.599   5.906   0.594
 1929TIP3   OH2 5666   3.313   7.237   0.549
 1929TIP3    H1 5667   3.303   7.159   0.490
 1929TIP3    H2 5668   3.299   7.312   0.487
 1930TIP3   OH2 5669   2.614   6.633  -0.190
 1930TIP3    H1 5670   2.520   6.659  -0.191
 1930TIP3    H2 5671   2.631   6.618  -0.284
 1931TIP3   OH2 5672   3.507   6.871   0.391
 1931TIP3    H1 5673   3.425   6.925   0.399
 1931TIP3    H2 5674   3.535   6.895   0.301
 1932TIP3   OH2 5675   2.912   6.649  -0.164
 1932TIP3    H1 5676   2.891   6.701  -0.083
 1932TIP3    H2 5677   3.005   6.672  -0.184
 1933TIP3   OH2 5678   3.188   6.754   0.685
 1933TIP3    H1 5679   3.185   6.838   0.735
 1933TIP3    H2 5680   3.102   6.759   0.638
 1934TIP3   OH2 5681   2.190   6.704   0.206
 1934TIP3    H1 5682   2.166   6.655   0.126
 1934TIP3    H2 5683   2.275   6.659   0.229
 1935TIP3   OH2 5684   2.310   7.087   0.376
 1935TIP3    H1 5685   2.299   7.076   0.281
 1935TIP3    H2 5686   2.407   7.074   0.385
 1936TIP3   OH2 5687   2.337   6.677   0.551
 1936TIP3    H1 5688   2.362   6.661   0.457
 1936TIP3    H2 5689   2.369   6.768   0.566
 1937TIP3   OH2 5690   2.846   7.318   0.320
 1937TIP3    H1 5691   2.835   7.399   0.374
 1937TIP3    H2 5692   2.834   7.246   0.385
 1938TIP3   OH2 5693   2.458   7.240   0.872
 1938TIP3    H1 5694   2.399   7.302   0.920
 1938TIP3    H2 5695   2.391   7.186   0.824
 1939TIP3   OH2 5696   2.211   6.794   0.971
 1939TIP3    H1 5697   2.219   6.880   1.017
 1939TIP3    H2 5698   2.115   6.780   0.981
 1940TIP3   OH2 5699   2.253   7.410   0.958
 1940TIP3    H1 5700   2.217   7.404   0.867
 1940TIP3    H2 5701   2.176   7.386   1.013
 1941TIP3   OH2 5702   1.834   6.929   0.905
 1941TIP3    H1 5703   1.803   6.902   0.816
 1941TIP3    H2 5704   1.873   6.846   0.937
 1942TIP3   OH2 5705   3.551   7.578   0.592
 1942TIP3    H1 5706   3.550   7.482   0.607
 1942TIP3    H2 5707   3.468   7.605   0.638
 1943TIP3   OH2 5708   2.658   7.370   0.728
 1943TIP3    H1 5709   2.660   7.462   0.762
 1943TIP3    H2 5710   2.588   7.330   0.784
 1944TIP3   OH2 5711   3.441   6.713   0.868
 1944TIP3    H1 5712   3.363   6.728   0.812
 1944TIP3    H2 5713   3.456   6.617   0.856
 1945TIP3   OH2 5714   2.037   7.118   0.898
 1945TIP3    H1 5715   2.086   7.103   0.981
 1945TIP3    H2 5716   1.961   7.057   0.908
 1946TIP3   OH2 5717   2.437   5.945   0.674
 1946TIP3    H1 5718   2.347   5.913   0.651
 1946TIP3    H2 5719   2.413   6.029   0.717
 1947TIP3   OH2 5720   2.969   6.062   0.871
 1947TIP3    H1 5721   3.037   6.033   0.935
 1947TIP3    H2 5722   2.885   6.039   0.916
 1948TIP3   OH2 5723   3.211   6.488   0.788
 1948TIP3    H1 5724   3.164   6.484   0.874
 1948TIP3    H2 5725   3.188   6.577   0.754
 1949TIP3   OH2 5726   2.601   5.991  -0.360
 1949TIP3    H1 5727   2.570   6.012  -0.270
 1949TIP3    H2 5728   2.563   5.904  -0.373
 1950TIP3   OH2 5729   2.369   6.459   0.702
 1950TIP3    H1 5730   2.312   6.483   0.776
 1950TIP3    H2 5731   2.358   6.537   0.642
 1951TIP3   OH2 5732   2.249   6.344   0.212
 1951TIP3    H1 5733   2.156   6.319   0.221
 1951TIP3    H2 5734   2.269   6.308   0.122
 1952TIP3   OH2 5735   2.740   6.425  -0.065
 1952TIP3    H1 5736   2.691   6.505  -0.096
 1952TIP3    H2 5737   2.811   6.424  -0.131
 1953TIP3   OH2 5738   2.919   6.716   1.022
 1953TIP3    H1 5739   2.899   6.644   1.086
 1953TIP3    H2 5740   3.013   6.732   1.043
 1954TIP3   OH2 5741   2.900   6.462   0.176
 1954TIP3    H1 5742   2.841   6.488   0.103
 1954TIP3    H2 5743   2.934   6.378   0.136
 1955TIP3   OH2 5744   2.212   6.488   0.933
 1955TIP3    H1 5745   2.161   6.560   0.975
 1955TIP3    H2 5746   2.161   6.409   0.959
 1956TIP3   OH2 5747   2.252   5.996  -0.369
 1956TIP3    H1 5748   2.255   5.957  -0.279
 1956TIP3    H2 5749   2.160   5.971  -0.391
 1957TIP3   OH2 5750   1.778   6.031   0.476
 1957TIP3    H1 5751   1.857   6.043   0.534
 1957TIP3    H2 5752   1.811   5.976   0.402
 1958TIP3   OH2 5753   2.910   6.709   0.604
 1958TIP3    H1 5754   2.940   6.635   0.546
 1958TIP3    H2 5755   2.883   6.658   0.683
 1959TIP3   OH2 5756   2.575   6.171   0.274
 1959TIP3    H1 5757   2.495   6.165   0.329
 1959TIP3    H2 5758   2.645   6.171   0.340
 1960TIP3   OH2 5759   2.006   6.212   0.273
 1960TIP3    H1 5760   1.915   6.179   0.265
 1960TIP3    H2 5761   2.058   6.130   0.262
 1961TIP3   OH2 5762   2.288   6.214  -0.027
 1961TIP3    H1 5763   2.386   6.224  -0.032
 1961TIP3    H2 5764   2.259   6.261  -0.108
 1962TIP3   OH2 5765   3.073   6.243   0.475
 1962TIP3    H1 5766   3.032   6.255   0.564
 1962TIP3    H2 5767   3.010   6.181   0.434
 1963TIP3   OH2 5768   3.237   7.933   0.691
 1963TIP3    H1 5769   3.237   7.958   0.597
 1963TIP3    H2 5770   3.317   7.979   0.723
 1964TIP3   OH2 5771   2.200   7.040   1.115
 1964TIP3    H1 5772   2.279   7.073   1.163
 1964TIP3    H2 5773   2.135   7.041   1.187
 1965TIP3   OH2 5774   2.664   6.490   0.367
 1965TIP3    H1 5775   2.739   6.458   0.315
 1965TIP3    H2 5776   2.684   6.453   0.455
 1966TIP3   OH2 5777   2.186   5.990   0.244
 1966TIP3    H1 5778   2.157   5.907   0.287
 1966TIP3    H2 5779   2.233   5.956   0.166
 1967TIP3   OH2 5780   2.641   6.384   0.664
 1967TIP3    H1 5781   2.553   6.427   0.669
 1967TIP3    H2 5782   2.700   6.446   0.710
 1968TIP3   OH2 5783   3.276   7.019   0.388
 1968TIP3    H1 5784   3.301   7.063   0.303
 1968TIP3    H2 5785   3.189   6.980   0.365
 1969TIP3   OH2 5786   2.774   7.100   0.752
 1969TIP3    H1 5787   2.799   7.080   0.843
 1969TIP3    H2 5788   2.738   7.190   0.758
 1970TIP3   OH2 5789   2.094   6.796   0.446
 1970TIP3    H1 5790   2.124   6.766   0.358
 1970TIP3    H2 5791   2.121   6.721   0.502
 1971TIP3   OH2 5792   1.952   6.717   1.040
 1971TIP3    H1 5793   1.963   6.710   1.137
 1971TIP3    H2 5794   1.874   6.661   1.024
 1972TIP3   OH2 5795   2.673   6.833   1.061
 1972TIP3    H1 5796   2.626   6.794   0.987
 1972TIP3    H2 5797   2.765   6.806   1.040
 1973TIP3   OH2 5798   2.937   7.361   0.644
 1973TIP3    H1 5799   2.841   7.360   0.658
 1973TIP3    H2 5800   2.966   7.412   0.723
 1974TIP3   OH2 5801   3.564   7.287   0.639
 1974TIP3    H1 5802   3.466   7.284   0.631
 1974TIP3    H2 5803   3.588   7.257   0.548
 1975TIP3   OH2 5804   3.033   6.897   0.313
 1975TIP3    H1 5805   2.940   6.867   0.322
 1975TIP3    H2 5806   3.073   6.812   0.281
 1976TIP3   OH2 5807   2.325   6.876   0.029
 1976TIP3    H1 5808   2.295   6.968   0.024
 1976TIP3    H2 5809   2.275   6.839   0.104
 1977TIP3   OH2 5810   2.447   7.456   0.554
 1977TIP3    H1 5811   2.487   7.517   0.488
 1977TIP3    H2 5812   2.527   7.423   0.598
 1978TIP3   OH2 5813   2.831   7.089   0.481
 1978TIP3    H1 5814   2.823   7.084   0.579
 1978TIP3    H2 5815   2.910   7.034   0.466
 1979TIP3   OH2 5816   3.077   7.621   0.534
 1979TIP3    H1 5817   2.998   7.564   0.525
 1979TIP3    H2 5818   3.059   7.689   0.465
 1980TIP3   OH2 5819   2.169   6.237   1.067
 1980TIP3    H1 5820   2.072   6.234   1.077
 1980TIP3    H2 5821   2.196   6.171   1.134
 1981TIP3   OH2 5822   1.856   7.307   0.697
 1981TIP3    H1 5823   1.919   7.234   0.701
 1981TIP3    H2 5824   1.900   7.370   0.757
 1982TIP3   OH2 5825   2.990   6.301   0.735
 1982TIP3    H1 5826   3.076   6.334   0.768
 1982TIP3    H2 5827   2.979   6.218   0.787
 1983TIP3   OH2 5828   2.853   6.069  -0.112
 1983TIP3    H1 5829   2.854   6.096  -0.206
 1983TIP3    H2 5830   2.914   6.135  -0.072
 1984TIP3   OH2 5831   2.561   6.225  -0.000
 1984TIP3    H1 5832   2.631   6.290  -0.024
 1984TIP3    H2 5833   2.574   6.217   0.097
 1985TIP3   OH2 5834   2.831   6.546   0.814
 1985TIP3    H1 5835   2.860   6.601   0.889
 1985TIP3    H2 5836   2.892   6.470   0.817
 1986TIP3   OH2 5837   2.715   5.960   0.101
 1986TIP3    H1 5838   2.713   6.035   0.163
 1986TIP3    H2 5839   2.770   5.998   0.029
 1987TIP3   OH2 5840   2.231   5.948  -0.081
 1987TIP3    H1 5841   2.233   6.043  -0.059
 1987TIP3    H2 5842   2.327   5.930  -0.080
 1988TIP3   OH2 5843   3.478   6.446   0.786
 1988TIP3    H1 5844   3.380   6.443   0.793
 1988TIP3    H2 5845   3.490   6.408   0.698
 1989TIP3   OH2 5846   3.110   6.651   0.226
 1989TIP3    H1 5847   3.048   6.581   0.200
 1989TIP3    H2 5848   3.195   6.603   0.228
 1990TIP3   OH2 5849   3.105   7.601   0.152
 1990TIP3    H1 5850   3.064   7.580   0.066
 1990TIP3    H2 5851   3.196   7.628   0.125
 1991TIP3   OH2 5852   2.171   5.866   0.656
 1991TIP3    H1 5853   2.141   5.831   0.569
 1991TIP3    H2 5854   2.163   5.787   0.713
 1992TIP3   OH2 5855   1.867   7.609   1.107
 1992TIP3    H1 5856   1.949   7.603   1.159
 1992TIP3    H2 5857   1.839   7.516   1.103
 1993TIP3   OH2 5858   2.353   7.594   1.147
 1993TIP3    H1 5859   2.446   7.572   1.157
 1993TIP3    H2 5860   2.328   7.535   1.073
 1994TIP3   OH2 5861   2.989   7.493   0.881
 1994TIP3    H1 5862   2.981   7.425   0.951
 1994TIP3    H2 5863   3.066   7.545   0.911
 1995TIP3   OH2 5864   1.998   7.031   1.305
 1995TIP3    H1 5865   2.015   6.935   1.308
 1995TIP3    H2 5866   1.909   7.033   1.263
 1996TIP3   OH2 5867   2.607   7.112   1.078
 1996TIP3    H1 5868   2.565   7.127   0.991
 1996TIP3    H2 5869   2.639   7.020   1.071
 1997TIP3   OH2 5870   3.098   7.119   0.684
 1997TIP3    H1 5871   3.173   7.164   0.640
 1997TIP3    H2 5872   3.027   7.185   0.671
 1998TIP3   OH2 5873   2.117   6.765   1.286
 1998TIP3    H1 5874   2.162   6.680   1.300
 1998TIP3    H2 5875   2.135   6.804   1.374
 1999TIP3   OH2 5876   2.447   6.643   0.966
 1999TIP3    H1 5877   2.373   6.708   0.963
 1999TIP3    H2 5878   2.499   6.670   0.887
 2000TIP3   OH2 5879   2.965   7.048   1.083
 2000TIP3    H1 5880   3.049   7.036   1.036
 2000TIP3    H2 5881   2.971   6.982   1.154
 2001TIP3   OH2 5882   2.574   6.226   0.885
 2001TIP3    H1 5883   2.606   6.262   0.799
 2001TIP3    H2 5884   2.483   6.196   0.861
 2002TIP3   OH2 5885   2.604   6.759   0.768
 2002TIP3    H1 5886   2.684   6.759   0.713
 2002TIP3    H2 5887   2.549   6.825   0.721
 2003TIP3   OH2 5888   3.189   6.728   1.138
 2003TIP3    H1 5889   3.238   6.645   1.148
 2003TIP3    H2 5890   3.258   6.788   1.106
 2004TIP3   OH2 5891   3.229   6.977   0.872
 2004TIP3    H1 5892   3.172   7.030   0.812
 2004TIP3    H2 5893   3.317   6.997   0.832
 2005TIP3   OH2 5894   2.709   5.988   0.945
 2005TIP3    H1 5895   2.660   6.070   0.925
 2005TIP3    H2 5896   2.640   5.920   0.935
 2006TIP3   OH2 5897   2.841   6.498   1.168
 2006TIP3    H1 5898   2.845   6.498   1.266
 2006TIP3    H2 5899   2.771   6.433   1.155
 2007TIP3   OH2 5900   3.078   6.442   1.019
 2007TIP3    H1 5901   3.005   6.443   1.084
 2007TIP3    H2 5902   3.153   6.411   1.075
 2008TIP3   OH2 5903   3.302   6.379   1.171
 2008TIP3    H1 5904   3.316   6.284   1.192
 2008TIP3    H2 5905   3.300   6.421   1.260
 2009TIP3   OH2 5906   2.808   6.000   1.202
 2009TIP3    H1 5907   2.874   5.928   1.200
 2009TIP3    H2 5908   2.766   5.988   1.114
 2010TIP3   OH2 5909   2.868   6.217   1.360
 2010TIP3    H1 5910   2.850   6.140   1.301
 2010TIP3    H2 5911   2.784   6.265   1.358
 2011TIP3   OH2 5912   3.355   7.694   0.086
 2011TIP3    H1 5913   3.381   7.712   0.178
 2011TIP3    H2 5914   3.433   7.724   0.039
 2012TIP3   OH2 5915   3.375   7.707   0.362
 2012TIP3    H1 5916   3.338   7.616   0.364
 2012TIP3    H2 5917   3.455   7.693   0.416
 2013TIP3   OH2 5918   3.423   7.384   0.934
 2013TIP3    H1 5919   3.349   7.393   0.998
 2013TIP3    H2 5920   3.464   7.473   0.938
 2014TIP3   OH2 5921   3.412   7.142   0.189
 2014TIP3    H1 5922   3.472   7.085   0.138
 2014TIP3    H2 5923   3.431   7.230   0.152
 2015TIP3   OH2 5924   3.256   7.454   0.390
 2015TIP3    H1 5925   3.187   7.500   0.442
 2015TIP3    H2 5926   3.203   7.407   0.323
 2016TIP3   OH2 5927   3.237   6.568  -0.012
 2016TIP3    H1 5928   3.199   6.498  -0.067
 2016TIP3    H2 5929   3.164   6.629   0.000
 2017TIP3   OH2 5930   1.833   6.735   0.670
 2017TIP3    H1 5931   1.803   6.691   0.588
 2017TIP3    H2 5932   1.928   6.712   0.670
 2018TIP3   OH2 5933   3.470   7.044   0.762
 2018TIP3    H1 5934   3.544   6.980   0.755
 2018TIP3    H2 5935   3.500   7.116   0.704
 2019TIP3   OH2 5936   3.656   6.854   0.787
 2019TIP3    H1 5937   3.583   6.801   0.826
 2019TIP3    H2 5938   3.730   6.790   0.798
 2020TIP3   OH2 5939   3.176   6.338  -0.173
 2020TIP3    H1 5940   3.216   6.248  -0.169
 2020TIP3    H2 5941   3.227   6.377  -0.245
 2021TIP3   OH2 5942   3.343   6.508   0.299
 2021TIP3    H1 5943   3.426   6.539   0.255
 2021TIP3    H2 5944   3.355   6.548   0.387
 2022TIP3   OH2 5945   3.407   6.654   0.532
 2022TIP3    H1 5946   3.327   6.689   0.578
 2022TIP3    H2 5947   3.439   6.734   0.486
 2023TIP3   OH2 5948   2.031   6.382   1.329
 2023TIP3    H1 5949   2.125   6.367   1.345
 2023TIP3    H2 5950   1.993   6.302   1.371
 2024TIP3   OH2 5951   3.859   6.242   1.087
 2024TIP3    H1 5952   3.918   6.177   1.043
 2024TIP3    H2 5953   3.833   6.300   1.012
 2025TIP3   OH2 5954   3.285   6.089  -0.158
 2025TIP3    H1 5955   3.335   6.075  -0.075
 2025TIP3    H2 5956   3.225   6.011  -0.153
 2026TIP3   OH2 5957   1.987   6.070   0.651
 2026TIP3    H1 5958   2.048   5.996   0.667
 2026TIP3    H2 5959   2.048   6.146   0.654
 2027TIP3   OH2 5960   1.809   6.350   0.738
 2027TIP3    H1 5961   1.848   6.343   0.649
 2027TIP3    H2 5962   1.814   6.445   0.754
 2028TIP3   OH2 5963   3.734   6.388   0.895
 2028TIP3    H1 5964   3.646   6.425   0.916
 2028TIP3    H2 5965   3.708   6.317   0.834
 2029TIP3   OH2 5966   1.762   5.887   0.236
 2029TIP3    H1 5967   1.672   5.856   0.257
 2029TIP3    H2 5968   1.765   5.880   0.139
 2030TIP3   OH2 5969   1.996   5.933   1.050
 2030TIP3    H1 5970   1.946   5.925   1.132
 2030TIP3    H2 5971   1.927   5.969   0.990
 2031TIP3   OH2 5972   2.037   7.353   1.127
 2031TIP3    H1 5973   1.944   7.327   1.110
 2031TIP3    H2 5974   2.043   7.338   1.222
 2032TIP3   OH2 5975   2.205   7.385   0.677
 2032TIP3    H1 5976   2.155   7.450   0.626
 2032TIP3    H2 5977   2.296   7.405   0.646
 2033TIP3   OH2 5978   2.659   7.636   0.811
 2033TIP3    H1 5979   2.700   7.636   0.900
 2033TIP3    H2 5980   2.727   7.684   0.759
 2034TIP3   OH2 5981   2.840   7.781   0.669
 2034TIP3    H1 5982   2.914   7.732   0.629
 2034TIP3    H2 5983   2.889   7.841   0.730
 2035TIP3   OH2 5984   3.629   6.149   0.769
 2035TIP3    H1 5985   3.538   6.146   0.736
 2035TIP3    H2 5986   3.658   6.056   0.757
 2036TIP3   OH2 5987   2.557   7.652   0.357
 2036TIP3    H1 5988   2.485   7.671   0.296
 2036TIP3    H2 5989   2.571   7.743   0.393
 2037TIP3   OH2 5990   2.822   7.592   0.398
 2037TIP3    H1 5991   2.727   7.610   0.384
 2037TIP3    H2 5992   2.863   7.674   0.367
 2038TIP3   OH2 5993   3.018   7.794   0.329
 2038TIP3    H1 5994   3.021   7.879   0.282
 2038TIP3    H2 5995   3.052   7.732   0.261
 2039TIP3   OH2 5996   2.309   7.470   0.326
 2039TIP3    H1 5997   2.345   7.396   0.274
 2039TIP3    H2 5998   2.330   7.437   0.416
 2040TIP3   OH2 5999   2.832   6.064   0.384
 2040TIP3    H1 6000   2.790   5.995   0.438
 2040TIP3    H2 6001   2.905   6.016   0.340
 2041TIP3   OH2 6002   3.357   5.943   0.300
 2041TIP3    H1 6003   3.394   5.993   0.223
 2041TIP3    H2 6004   3.262   5.961   0.291
 2042TIP3   OH2 6005   3.446   6.040   0.063
 2042TIP3    H1 6006   3.520   5.990   0.021
 2042TIP3    H2 6007   3.481   6.131   0.056
 2043TIP3   OH2 6008   2.084   5.774   0.407
 2043TIP3    H1 6009   1.993   5.737   0.405
 2043TIP3    H2 6010   2.136   5.690   0.402
 2044TIP3   OH2 6011   1.892   5.616   0.077
 2044TIP3    H1 6012   1.894   5.680   0.003
 2044TIP3    H2 6013   1.829   5.661   0.134
 2045TIP3   OH2 6014   2.523   5.808   0.284
 2045TIP3    H1 6015   2.584   5.857   0.227
 2045TIP3    H2 6016   2.547   5.842   0.372
 2046TIP3   OH2 6017   3.077   5.950   0.269
 2046TIP3    H1 6018   3.073   5.920   0.177
 2046TIP3    H2 6019   3.059   5.867   0.319
 2047TIP3   OH2 6020   3.121   5.876  -0.120
 2047TIP3    H1 6021   3.061   5.892  -0.195
 2047TIP3    H2 6022   3.092   5.788  -0.089
 2048TIP3   OH2 6023   2.079   5.802  -0.278
 2048TIP3    H1 6024   2.047   5.714  -0.257
 2048TIP3    H2 6025   2.095   5.840  -0.190
 2049TIP3   OH2 6026   2.504   5.971  -0.085
 2049TIP3    H1 6027   2.567   5.928  -0.025
 2049TIP3    H2 6028   2.525   6.065  -0.064
 2050TIP3   OH2 6029   2.286   6.047   1.286
 2050TIP3    H1 6030   2.257   5.981   1.352
 2050TIP3    H2 6031   2.376   6.065   1.319
 2051TIP3   OH2 6032   2.539   6.042   1.406
 2051TIP3    H1 6033   2.626   6.012   1.375
 2051TIP3    H2 6034   2.525   5.980   1.481
 2052TIP3   OH2 6035   3.364   6.109   1.203
 2052TIP3    H1 6036   3.384   6.078   1.294
 2052TIP3    H2 6037   3.452   6.105   1.160
 2053TIP3   OH2 6038   3.306   7.665   0.695
 2053TIP3    H1 6039   3.226   7.633   0.649
 2053TIP3    H2 6040   3.289   7.761   0.696
 2054TIP3   OH2 6041   3.871   6.931   0.205
 2054TIP3    H1 6042   3.908   6.874   0.275
 2054TIP3    H2 6043   3.933   7.005   0.204
 2055TIP3   OH2 6044   3.743   6.615  -0.012
 2055TIP3    H1 6045   3.828   6.607   0.034
 2055TIP3    H2 6046   3.760   6.561  -0.090
 2056TIP3   OH2 6047   4.110   6.401   0.322
 2056TIP3    H1 6048   4.052   6.443   0.255
 2056TIP3    H2 6049   4.061   6.422   0.404
 2057TIP3   OH2 6050   3.988   6.517   0.099
 2057TIP3    H1 6051   4.047   6.589   0.129
 2057TIP3    H2 6052   4.029   6.494   0.013
 2058TIP3   OH2 6053   4.050   7.313   0.254
 2058TIP3    H1 6054   4.027   7.383   0.190
 2058TIP3    H2 6055   3.974   7.319   0.314
 2059TIP3   OH2 6056   4.483   6.118   0.052
 2059TIP3    H1 6057   4.456   6.027   0.072
 2059TIP3    H2 6058   4.400   6.166   0.074
 2060TIP3   OH2 6059   4.231   7.457   0.420
 2060TIP3    H1 6060   4.209   7.551   0.408
 2060TIP3    H2 6061   4.182   7.414   0.348
 2061TIP3   OH2 6062   4.004   7.052   0.456
 2061TIP3    H1 6063   4.013   7.140   0.498
 2061TIP3    H2 6064   3.908   7.036   0.470
 2062TIP3   OH2 6065   4.038   7.683   0.439
 2062TIP3    H1 6066   4.003   7.648   0.357
 2062TIP3    H2 6067   3.970   7.653   0.504
 2063TIP3   OH2 6068   3.626   7.191   0.394
 2063TIP3    H1 6069   3.568   7.162   0.321
 2063TIP3    H2 6070   3.665   7.106   0.425
 2064TIP3   OH2 6071   3.529   7.374   0.084
 2064TIP3    H1 6072   3.619   7.369   0.050
 2064TIP3    H2 6073   3.541   7.455   0.140
 2065TIP3   OH2 6074   5.262   6.993   0.354
 2065TIP3    H1 6075   5.173   7.005   0.317
 2065TIP3    H2 6076   5.274   6.897   0.349
 2066TIP3   OH2 6077   3.822   7.383   0.392
 2066TIP3    H1 6078   3.872   7.369   0.475
 2066TIP3    H2 6079   3.751   7.316   0.399
 2067TIP3   OH2 6080   4.231   6.202   0.162
 2067TIP3    H1 6081   4.140   6.170   0.142
 2067TIP3    H2 6082   4.208   6.283   0.211
 2068TIP3   OH2 6083   4.766   6.316   0.355
 2068TIP3    H1 6084   4.833   6.292   0.423
 2068TIP3    H2 6085   4.681   6.296   0.401
 2069TIP3   OH2 6086   5.004   6.711   0.286
 2069TIP3    H1 6087   4.972   6.696   0.378
 2069TIP3    H2 6088   4.929   6.759   0.249
 2070TIP3   OH2 6089   4.171   6.698   0.220
 2070TIP3    H1 6090   4.117   6.728   0.295
 2070TIP3    H2 6091   4.132   6.748   0.145
 2071TIP3   OH2 6092   4.712   6.969   0.509
 2071TIP3    H1 6093   4.691   6.895   0.571
 2071TIP3    H2 6094   4.806   6.984   0.529
 2072TIP3   OH2 6095   3.972   6.747   0.402
 2072TIP3    H1 6096   4.007   6.811   0.466
 2072TIP3    H2 6097   3.966   6.665   0.455
 2073TIP3   OH2 6098   3.598   6.254  -0.003
 2073TIP3    H1 6099   3.647   6.305   0.065
 2073TIP3    H2 6100   3.670   6.199  -0.036
 2074TIP3   OH2 6101   3.989   7.297   0.599
 2074TIP3    H1 6102   4.073   7.330   0.637
 2074TIP3    H2 6103   3.932   7.301   0.678
 2075TIP3   OH2 6104   4.447   6.619   0.179
 2075TIP3    H1 6105   4.362   6.669   0.183
 2075TIP3    H2 6106   4.511   6.688   0.207
 2076TIP3   OH2 6107   4.525   7.307   0.276
 2076TIP3    H1 6108   4.559   7.301   0.367
 2076TIP3    H2 6109   4.537   7.402   0.261
 2077TIP3   OH2 6110   3.741   6.985   0.531
 2077TIP3    H1 6111   3.768   6.971   0.625
 2077TIP3    H2 6112   3.676   6.914   0.520
 2078TIP3   OH2 6113   4.468   7.089   0.555
 2078TIP3    H1 6114   4.415   7.043   0.488
 2078TIP3    H2 6115   4.558   7.061   0.528
 2079TIP3   OH2 6116   3.958   6.490   0.541
 2079TIP3    H1 6117   3.862   6.493   0.556
 2079TIP3    H2 6118   3.987   6.427   0.610
 2080TIP3   OH2 6119   3.668   7.570   0.199
 2080TIP3    H1 6120   3.733   7.507   0.234
 2080TIP3    H2 6121   3.707   7.655   0.224
 2081TIP3   OH2 6122   4.777   6.561   0.233
 2081TIP3    H1 6123   4.872   6.577   0.239
 2081TIP3    H2 6124   4.769   6.471   0.270
 2082TIP3   OH2 6125   4.638   6.805   0.284
 2082TIP3    H1 6126   4.651   6.863   0.362
 2082TIP3    H2 6127   4.684   6.723   0.313
 2083TIP3   OH2 6128   3.968   6.122   0.145
 2083TIP3    H1 6129   3.934   6.088   0.059
 2083TIP3    H2 6130   3.959   6.043   0.202
 2084TIP3   OH2 6131   3.661   7.875   0.597
 2084TIP3    H1 6132   3.748   7.875   0.642
 2084TIP3    H2 6133   3.643   7.779   0.591
 2085TIP3   OH2 6134   4.147   7.849   0.638
 2085TIP3    H1 6135   4.242   7.834   0.642
 2085TIP3    H2 6136   4.123   7.797   0.559
 2086TIP3   OH2 6137   4.780   7.727   0.361
 2086TIP3    H1 6138   4.770   7.678   0.446
 2086TIP3    H2 6139   4.855   7.786   0.378
 2087TIP3   OH2 6140   3.793   7.285   0.794
 2087TIP3    H1 6141   3.812   7.190   0.795
 2087TIP3    H2 6142   3.705   7.288   0.750
 2088TIP3   OH2 6143   4.422   7.365   0.577
 2088TIP3    H1 6144   4.359   7.387   0.504
 2088TIP3    H2 6145   4.436   7.269   0.564
 2089TIP3   OH2 6146   3.911   7.014   0.772
 2089TIP3    H1 6147   3.989   6.960   0.755
 2089TIP3    H2 6148   3.934   7.052   0.860
 2090TIP3   OH2 6149   4.236   6.897   0.441
 2090TIP3    H1 6150   4.167   6.965   0.448
 2090TIP3    H2 6151   4.292   6.934   0.369
 2091TIP3   OH2 6152   4.762   7.296   0.564
 2091TIP3    H1 6153   4.854   7.291   0.535
 2091TIP3    H2 6154   4.760   7.233   0.638
 2092TIP3   OH2 6155   4.371   6.691   0.566
 2092TIP3    H1 6156   4.368   6.608   0.513
 2092TIP3    H2 6157   4.325   6.754   0.507
 2093TIP3   OH2 6158   4.365   6.468   0.390
 2093TIP3    H1 6159   4.399   6.514   0.310
 2093TIP3    H2 6160   4.273   6.448   0.363
 2094TIP3   OH2 6161   4.409   7.023   0.277
 2094TIP3    H1 6162   4.459   6.968   0.215
 2094TIP3    H2 6163   4.409   7.110   0.234
 2095TIP3   OH2 6164   4.986   6.983   0.630
 2095TIP3    H1 6165   5.035   6.900   0.635
 2095TIP3    H2 6166   5.052   7.043   0.591
 2096TIP3   OH2 6167   5.025   7.212   0.370
 2096TIP3    H1 6168   4.956   7.237   0.307
 2096TIP3    H2 6169   5.099   7.265   0.335
 2097TIP3   OH2 6170   4.245   6.811   0.790
 2097TIP3    H1 6171   4.178   6.741   0.803
 2097TIP3    H2 6172   4.283   6.786   0.703
 2098TIP3   OH2 6173   4.509   6.239   0.433
 2098TIP3    H1 6174   4.457   6.322   0.418
 2098TIP3    H2 6175   4.438   6.171   0.421
 2099TIP3   OH2 6176   4.630   6.751   0.653
 2099TIP3    H1 6177   4.621   6.742   0.749
 2099TIP3    H2 6178   4.539   6.725   0.625
 2100TIP3   OH2 6179   4.869   6.696   0.519
 2100TIP3    H1 6180   4.792   6.701   0.578
 2100TIP3    H2 6181   4.941   6.667   0.579
 2101TIP3   OH2 6182   5.100   6.635   0.661
 2101TIP3    H1 6183   5.112   6.540   0.682
 2101TIP3    H2 6184   5.099   6.677   0.749
 2102TIP3   OH2 6185   4.087   6.590   0.841
 2102TIP3    H1 6186   4.097   6.500   0.805
 2102TIP3    H2 6187   4.122   6.577   0.932
 2103TIP3   OH2 6188   4.601   6.253   0.690
 2103TIP3    H1 6189   4.670   6.183   0.685
 2103TIP3    H2 6190   4.562   6.245   0.601
 2104TIP3   OH2 6191   4.665   6.467   0.852
 2104TIP3    H1 6192   4.642   6.398   0.787
 2104TIP3    H2 6193   4.590   6.529   0.844
 2105TIP3   OH2 6194   5.212   7.663   0.465
 2105TIP3    H1 6195   5.134   7.677   0.523
 2105TIP3    H2 6196   5.236   7.753   0.440
 2106TIP3   OH2 6197   3.612   6.953   0.139
 2106TIP3    H1 6198   3.616   6.924   0.047
 2106TIP3    H2 6199   3.707   6.948   0.164
 2107TIP3   OH2 6200   3.820   6.639   0.813
 2107TIP3    H1 6201   3.918   6.632   0.814
 2107TIP3    H2 6202   3.796   6.555   0.857
 2108TIP3   OH2 6203   5.685   6.490   0.588
 2108TIP3    H1 6204   5.727   6.431   0.523
 2108TIP3    H2 6205   5.626   6.545   0.531
 2109TIP3   OH2 6206   3.792   6.335   0.166
 2109TIP3    H1 6207   3.853   6.258   0.168
 2109TIP3    H2 6208   3.855   6.407   0.149
 2110TIP3   OH2 6209   3.589   6.605   0.220
 2110TIP3    H1 6210   3.638   6.599   0.135
 2110TIP3    H2 6211   3.621   6.689   0.254
 2111TIP3   OH2 6212   5.505   6.634   0.455
 2111TIP3    H1 6213   5.416   6.668   0.436
 2111TIP3    H2 6214   5.540   6.629   0.364
 2112TIP3   OH2 6215   3.789   6.188   0.536
 2112TIP3    H1 6216   3.739   6.182   0.618
 2112TIP3    H2 6217   3.722   6.226   0.475
 2113TIP3   OH2 6218   3.830   7.611   0.614
 2113TIP3    H1 6219   3.739   7.581   0.596
 2113TIP3    H2 6220   3.838   7.598   0.709
 2114TIP3   OH2 6221   5.419   6.377   0.304
 2114TIP3    H1 6222   5.367   6.430   0.242
 2114TIP3    H2 6223   5.486   6.337   0.248
 2115TIP3   OH2 6224   3.666   7.895   0.167
 2115TIP3    H1 6225   3.585   7.949   0.164
 2115TIP3    H2 6226   3.709   7.930   0.246
 2116TIP3   OH2 6227   3.873   6.029  -0.093
 2116TIP3    H1 6228   3.786   5.990  -0.114
 2116TIP3    H2 6229   3.930   5.952  -0.110
 2117TIP3   OH2 6230   4.087   6.310   0.781
 2117TIP3    H1 6231   4.055   6.239   0.840
 2117TIP3    H2 6232   4.182   6.311   0.807
 2118TIP3   OH2 6233   4.335   6.307   0.901
 2118TIP3    H1 6234   4.421   6.283   0.861
 2118TIP3    H2 6235   4.325   6.236   0.968
 2119TIP3   OH2 6236   5.155   6.364   0.693
 2119TIP3    H1 6237   5.177   6.334   0.784
 2119TIP3    H2 6238   5.245   6.365   0.652
 2120TIP3   OH2 6239   6.131   6.579   0.413
 2120TIP3    H1 6240   6.197   6.549   0.349
 2120TIP3    H2 6241   6.101   6.496   0.454
 2121TIP3   OH2 6242   1.713   7.809   1.220
 2121TIP3    H1 6243   1.759   7.727   1.194
 2121TIP3    H2 6244   1.700   7.849   1.132
 2122TIP3   OH2 6245   3.219   8.344   0.246
 2122TIP3    H1 6246   3.250   8.420   0.193
 2122TIP3    H2 6247   3.283   8.350   0.318
 2123TIP3   OH2 6248   3.040   8.054   0.233
 2123TIP3    H1 6249   2.957   8.100   0.249
 2123TIP3    H2 6250   3.036   8.043   0.135
 2124TIP3   OH2 6251   3.084   8.526   0.553
 2124TIP3    H1 6252   3.054   8.536   0.460
 2124TIP3    H2 6253   3.096   8.429   0.558
 2125TIP3   OH2 6254   2.615   7.873   0.521
 2125TIP3    H1 6255   2.683   7.843   0.585
 2125TIP3    H2 6256   2.531   7.852   0.565
 2126TIP3   OH2 6257   2.850   8.321   0.428
 2126TIP3    H1 6258   2.815   8.292   0.515
 2126TIP3    H2 6259   2.786   8.390   0.409
 2127TIP3   OH2 6260   2.596   8.559   0.748
 2127TIP3    H1 6261   2.552   8.471   0.752
 2127TIP3    H2 6262   2.690   8.535   0.739
 2128TIP3   OH2 6263   2.648   8.109   0.364
 2128TIP3    H1 6264   2.703   8.143   0.436
 2128TIP3    H2 6265   2.617   8.025   0.403
 2129TIP3   OH2 6266   3.105   8.236   0.476
 2129TIP3    H1 6267   3.009   8.248   0.465
 2129TIP3    H2 6268   3.133   8.236   0.383
 2130TIP3   OH2 6269   2.874   8.550   0.767
 2130TIP3    H1 6270   2.891   8.460   0.797
 2130TIP3    H2 6271   2.960   8.572   0.727
 2131TIP3   OH2 6272   2.341   7.816   0.586
 2131TIP3    H1 6273   2.308   7.885   0.528
 2131TIP3    H2 6274   2.274   7.745   0.573
 2132TIP3   OH2 6275   2.482   8.305   0.799
 2132TIP3    H1 6276   2.489   8.307   0.896
 2132TIP3    H2 6277   2.389   8.284   0.790
 2133TIP3   OH2 6278   2.723   8.258   0.653
 2133TIP3    H1 6279   2.640   8.259   0.705
 2133TIP3    H2 6280   2.789   8.227   0.718
 2134TIP3   OH2 6281   2.939   8.194   0.812
 2134TIP3    H1 6282   2.954   8.099   0.832
 2134TIP3    H2 6283   2.939   8.236   0.901
 2135TIP3   OH2 6284   2.040   8.209   0.994
 2135TIP3    H1 6285   1.991   8.156   0.930
 2135TIP3    H2 6286   2.004   8.176   1.079
 2136TIP3   OH2 6287   2.443   7.813   0.841
 2136TIP3    H1 6288   2.511   7.742   0.838
 2136TIP3    H2 6289   2.403   7.805   0.752
 2137TIP3   OH2 6290   2.504   8.026   1.004
 2137TIP3    H1 6291   2.485   7.955   0.939
 2137TIP3    H2 6292   2.429   8.087   0.992
 2138TIP3   OH2 6293   3.281   8.675   0.433
 2138TIP3    H1 6294   3.213   8.618   0.474
 2138TIP3    H2 6295   3.360   8.619   0.445
 2139TIP3   OH2 6296   3.034   8.573   0.292
 2139TIP3    H1 6297   2.975   8.519   0.238
 2139TIP3    H2 6298   3.089   8.617   0.224
 2140TIP3   OH2 6299   3.490   8.053   0.721
 2140TIP3    H1 6300   3.554   7.990   0.681
 2140TIP3    H2 6301   3.475   8.117   0.648
 2141TIP3   OH2 6302   3.370   8.207   0.529
 2141TIP3    H1 6303   3.278   8.230   0.553
 2141TIP3    H2 6304   3.353   8.126   0.477
 2142TIP3   OH2 6305   3.274   7.967   0.409
 2142TIP3    H1 6306   3.183   7.975   0.375
 2142TIP3    H2 6307   3.293   7.871   0.396
 2143TIP3   OH2 6308   1.974   7.781   0.915
 2143TIP3    H1 6309   1.938   7.725   0.986
 2143TIP3    H2 6310   2.053   7.819   0.959
 2144TIP3   OH2 6311   2.185   7.875   1.064
 2144TIP3    H1 6312   2.268   7.846   1.023
 2144TIP3    H2 6313   2.171   7.803   1.130
 2145TIP3   OH2 6314   3.001   7.924   0.840
 2145TIP3    H1 6315   3.021   7.892   0.931
 2145TIP3    H2 6316   3.089   7.921   0.797
 2146TIP3   OH2 6317   3.559   8.794   0.426
 2146TIP3    H1 6318   3.615   8.729   0.470
 2146TIP3    H2 6319   3.567   8.872   0.485
 2147TIP3   OH2 6320   3.848   8.639   0.398
 2147TIP3    H1 6321   3.803   8.557   0.430
 2147TIP3    H2 6322   3.919   8.603   0.343
 2148TIP3   OH2 6323   3.725   8.409   0.486
 2148TIP3    H1 6324   3.733   8.329   0.431
 2148TIP3    H2 6325   3.762   8.380   0.571
 2149TIP3   OH2 6326   4.278   8.260   0.469
 2149TIP3    H1 6327   4.242   8.236   0.382
 2149TIP3    H2 6328   4.222   8.338   0.488
 2150TIP3   OH2 6329   3.453   8.459   0.451
 2150TIP3    H1 6330   3.551   8.452   0.446
 2150TIP3    H2 6331   3.433   8.374   0.494
 2151TIP3   OH2 6332   3.404   7.997   0.156
 2151TIP3    H1 6333   3.378   7.984   0.249
 2151TIP3    H2 6334   3.357   8.078   0.134
 2152TIP3   OH2 6335   3.720   8.110   0.422
 2152TIP3    H1 6336   3.699   8.042   0.488
 2152TIP3    H2 6337   3.814   8.127   0.443
 2153TIP3   OH2 6338   3.966   8.126   0.547
 2153TIP3    H1 6339   4.048   8.112   0.497
 2153TIP3    H2 6340   3.965   8.049   0.607
 2154TIP3   OH2 6341   1.638  -0.092   4.791
 2154TIP3    H1 6342   1.579  -0.160   4.758
 2154TIP3    H2 6343   1.605  -0.011   4.747
 2155TIP3   OH2 6344   1.857   0.253   4.847
 2155TIP3    H1 6345   1.854   0.157   4.864
 2155TIP3    H2 6346   1.774   0.281   4.893
 2156TIP3   OH2 6347   1.540   0.604   4.946
 2156TIP3    H1 6348   1.540   0.630   4.852
 2156TIP3    H2 6349   1.615   0.656   4.981
 2157TIP3   OH2 6350   1.876  -0.035   4.895
 2157TIP3    H1 6351   1.778  -0.040   4.890
 2157TIP3    H2 6352   1.897  -0.065   4.804
 2158TIP3   OH2 6353   1.388   0.290   4.780
 2158TIP3    H1 6354   1.303   0.249   4.800
 2158TIP3    H2 6355   1.364   0.362   4.718
 2159TIP3   OH2 6356   1.366   0.145   5.104
 2159TIP3    H1 6357   1.278   0.131   5.143
 2159TIP3    H2 6358   1.399   0.218   5.158
 2160TIP3   OH2 6359   1.640   0.365   4.326
 2160TIP3    H1 6360   1.667   0.394   4.414
 2160TIP3    H2 6361   1.710   0.401   4.269
 2161TIP3   OH2 6362   1.683   0.382   4.614
 2161TIP3    H1 6363   1.644   0.293   4.610
 2161TIP3    H2 6364   1.757   0.365   4.674
 2162TIP3   OH2 6365   1.741   0.050   5.181
 2162TIP3    H1 6366   1.665   0.054   5.244
 2162TIP3    H2 6367   1.774   0.142   5.188
 2163TIP3   OH2 6368   1.555   0.128   4.647
 2163TIP3    H1 6369   1.497   0.183   4.703
 2163TIP3    H2 6370   1.494   0.096   4.580
 2164TIP3   OH2 6371   1.781  -0.278   5.015
 2164TIP3    H1 6372   1.850  -0.347   5.005
 2164TIP3    H2 6373   1.808  -0.210   4.952
 2165TIP3   OH2 6374   1.951  -0.491   5.037
 2165TIP3    H1 6375   1.890  -0.554   5.078
 2165TIP3    H2 6376   2.038  -0.527   5.061
 2166TIP3   OH2 6377   1.144   0.468   4.903
 2166TIP3    H1 6378   1.208   0.397   4.908
 2166TIP3    H2 6379   1.175   0.523   4.977
 2167TIP3   OH2 6380   1.347   0.463   4.571
 2167TIP3    H1 6381   1.315   0.551   4.541
 2167TIP3    H2 6382   1.365   0.420   4.486
 2168TIP3   OH2 6383   1.615   0.339   4.951
 2168TIP3    H1 6384   1.534   0.298   4.914
 2168TIP3    H2 6385   1.589   0.433   4.952
 2169TIP3   OH2 6386   2.909  -0.269   3.768
 2169TIP3    H1 6387   2.895  -0.174   3.754
 2169TIP3    H2 6388   2.830  -0.307   3.727
 2170TIP3   OH2 6389   2.859  -0.297   4.098
 2170TIP3    H1 6390   2.903  -0.307   4.184
 2170TIP3    H2 6391   2.832  -0.390   4.083
 2171TIP3   OH2 6392   2.168  -0.398   4.453
 2171TIP3    H1 6393   2.202  -0.458   4.522
 2171TIP3    H2 6394   2.246  -0.342   4.437
 2172TIP3   OH2 6395   3.108   0.005   3.781
 2172TIP3    H1 6396   3.111  -0.062   3.850
 2172TIP3    H2 6397   3.140   0.084   3.828
 2173TIP3   OH2 6398   2.171   0.020   4.231
 2173TIP3    H1 6399   2.139  -0.060   4.187
 2173TIP3    H2 6400   2.263   0.026   4.200
 2174TIP3   OH2 6401   2.759   0.473   3.793
 2174TIP3    H1 6402   2.810   0.403   3.746
 2174TIP3    H2 6403   2.760   0.440   3.884
 2175TIP3   OH2 6404   2.675  -0.070   4.138
 2175TIP3    H1 6405   2.721  -0.149   4.104
 2175TIP3    H2 6406   2.755  -0.018   4.164
 2176TIP3   OH2 6407   3.096  -0.551   4.177
 2176TIP3    H1 6408   3.115  -0.637   4.215
 2176TIP3    H2 6409   3.050  -0.576   4.094
 2177TIP3   OH2 6410   3.731  -0.563   4.333
 2177TIP3    H1 6411   3.672  -0.490   4.304
 2177TIP3    H2 6412   3.781  -0.522   4.405
 2178TIP3   OH2 6413   2.781  -0.015   3.630
 2178TIP3    H1 6414   2.791  -0.053   3.541
 2178TIP3    H2 6415   2.731   0.068   3.612
 2179TIP3   OH2 6416   2.526  -0.150   4.381
 2179TIP3    H1 6417   2.461  -0.089   4.421
 2179TIP3    H2 6418   2.568  -0.093   4.314
 2180TIP3   OH2 6419   2.356   0.044   4.476
 2180TIP3    H1 6420   2.325   0.123   4.428
 2180TIP3    H2 6421   2.275   0.029   4.531
 2181TIP3   OH2 6422   3.186   0.251   3.948
 2181TIP3    H1 6423   3.095   0.244   3.986
 2181TIP3    H2 6424   3.180   0.337   3.902
 2182TIP3   OH2 6425   2.888   0.302   3.624
 2182TIP3    H1 6426   2.939   0.221   3.603
 2182TIP3    H2 6427   2.948   0.368   3.580
 2183TIP3   OH2 6428   3.042   0.100   3.527
 2183TIP3    H1 6429   3.050   0.022   3.468
 2183TIP3    H2 6430   3.069   0.060   3.612
 2184TIP3   OH2 6431   3.411   0.169   4.292
 2184TIP3    H1 6432   3.407   0.092   4.232
 2184TIP3    H2 6433   3.401   0.243   4.228
 2185TIP3   OH2 6434   3.603  -0.210   4.131
 2185TIP3    H1 6435   3.527  -0.148   4.140
 2185TIP3    H2 6436   3.640  -0.179   4.045
 2186TIP3   OH2 6437   3.061  -0.334   3.549
 2186TIP3    H1 6438   3.048  -0.308   3.642
 2186TIP3    H2 6439   3.148  -0.379   3.554
 2187TIP3   OH2 6440   3.284  -0.312   4.422
 2187TIP3    H1 6441   3.286  -0.228   4.473
 2187TIP3    H2 6442   3.201  -0.301   4.373
 2188TIP3   OH2 6443   2.412   0.046   4.086
 2188TIP3    H1 6444   2.401  -0.004   4.005
 2188TIP3    H2 6445   2.505   0.026   4.109
 2189TIP3   OH2 6446   2.420  -0.388   4.288
 2189TIP3    H1 6447   2.468  -0.409   4.206
 2189TIP3    H2 6448   2.462  -0.304   4.317
 2190TIP3   OH2 6449   2.943   0.250   4.066
 2190TIP3    H1 6450   2.932   0.330   4.121
 2190TIP3    H2 6451   2.932   0.177   4.130
 2191TIP3   OH2 6452   2.557   0.174   4.614
 2191TIP3    H1 6453   2.495   0.234   4.660
 2191TIP3    H2 6454   2.493   0.117   4.566
 2192TIP3   OH2 6455   2.293  -0.266   4.708
 2192TIP3    H1 6456   2.299  -0.183   4.761
 2192TIP3    H2 6457   2.197  -0.284   4.712
 2193TIP3   OH2 6458   2.618   0.206   3.620
 2193TIP3    H1 6459   2.697   0.256   3.646
 2193TIP3    H2 6460   2.561   0.275   3.582
 2194TIP3   OH2 6461   2.352   0.342   4.700
 2194TIP3    H1 6462   2.318   0.337   4.609
 2194TIP3    H2 6463   2.273   0.317   4.753
 2195TIP3   OH2 6464   3.218   0.114   2.945
 2195TIP3    H1 6465   3.227   0.209   2.961
 2195TIP3    H2 6466   3.310   0.081   2.946
 2196TIP3   OH2 6467   1.937  -0.132   4.649
 2196TIP3    H1 6468   1.889  -0.155   4.569
 2196TIP3    H2 6469   1.969  -0.220   4.681
 2197TIP3   OH2 6470   1.801   0.042   4.303
 2197TIP3    H1 6471   1.885   0.070   4.265
 2197TIP3    H2 6472   1.762   0.127   4.329
 2198TIP3   OH2 6473   3.642   0.511   4.328
 2198TIP3    H1 6474   3.653   0.415   4.340
 2198TIP3    H2 6475   3.563   0.529   4.382
 2199TIP3   OH2 6476   2.757   0.299   4.470
 2199TIP3    H1 6477   2.757   0.392   4.502
 2199TIP3    H2 6478   2.685   0.260   4.524
 2200TIP3   OH2 6479   2.509   0.428   3.424
 2200TIP3    H1 6480   2.448   0.411   3.352
 2200TIP3    H2 6481   2.490   0.521   3.447
 2201TIP3   OH2 6482   2.769   0.390   3.342
 2201TIP3    H1 6483   2.678   0.389   3.377
 2201TIP3    H2 6484   2.815   0.332   3.404
 2202TIP3   OH2 6485   3.538  -0.367   4.625
 2202TIP3    H1 6486   3.474  -0.325   4.566
 2202TIP3    H2 6487   3.564  -0.446   4.576
 2203TIP3   OH2 6488   2.138   0.052   4.641
 2203TIP3    H1 6489   2.188   0.034   4.723
 2203TIP3    H2 6490   2.063  -0.011   4.648
 2204TIP3   OH2 6491   3.203  -0.496   4.617
 2204TIP3    H1 6492   3.257  -0.575   4.613
 2204TIP3    H2 6493   3.232  -0.442   4.540
 2205TIP3   OH2 6494   2.472  -0.623   4.432
 2205TIP3    H1 6495   2.420  -0.604   4.512
 2205TIP3    H2 6496   2.445  -0.550   4.374
 2206TIP3   OH2 6497   3.016  -0.317   4.741
 2206TIP3    H1 6498   3.008  -0.371   4.823
 2206TIP3    H2 6499   3.112  -0.317   4.732
 2207TIP3   OH2 6500   3.001  -0.616   3.918
 2207TIP3    H1 6501   2.962  -0.560   3.849
 2207TIP3    H2 6502   3.053  -0.679   3.866
 2208TIP3   OH2 6503   2.278  -0.568   4.644
 2208TIP3    H1 6504   2.312  -0.513   4.716
 2208TIP3    H2 6505   2.265  -0.653   4.687
 2209TIP3   OH2 6506   3.009  -0.355   4.341
 2209TIP3    H1 6507   3.041  -0.430   4.285
 2209TIP3    H2 6508   2.985  -0.401   4.423
 2210TIP3   OH2 6509   3.336   0.866   4.433
 2210TIP3    H1 6510   3.334   0.884   4.337
 2210TIP3    H2 6511   3.419   0.911   4.459
 2211TIP3   OH2 6512   2.300  -0.029   4.857
 2211TIP3    H1 6513   2.379   0.005   4.904
 2211TIP3    H2 6514   2.234  -0.026   4.929
 2212TIP3   OH2 6515   2.790  -0.561   4.128
 2212TIP3    H1 6516   2.826  -0.628   4.068
 2212TIP3    H2 6517   2.770  -0.613   4.208
 2213TIP3   OH2 6518   2.746  -0.680   4.404
 2213TIP3    H1 6519   2.652  -0.656   4.419
 2213TIP3    H2 6520   2.793  -0.627   4.471
 2214TIP3   OH2 6521   3.380  -0.049   4.129
 2214TIP3    H1 6522   3.406  -0.001   4.046
 2214TIP3    H2 6523   3.294  -0.089   4.103
 2215TIP3   OH2 6524   2.876   0.032   4.492
 2215TIP3    H1 6525   2.895   0.004   4.582
 2215TIP3    H2 6526   2.838   0.121   4.504
 2216TIP3   OH2 6527   2.034  -0.344   4.792
 2216TIP3    H1 6528   2.078  -0.344   4.879
 2216TIP3    H2 6529   1.984  -0.426   4.797
 2217TIP3   OH2 6530   2.772  -0.223   4.814
 2217TIP3    H1 6531   2.699  -0.270   4.769
 2217TIP3    H2 6532   2.851  -0.254   4.765
 2218TIP3   OH2 6533   3.037   0.291   4.389
 2218TIP3    H1 6534   2.940   0.289   4.401
 2218TIP3    H2 6535   3.064   0.344   4.467
 2219TIP3   OH2 6536   3.664   0.217   4.381
 2219TIP3    H1 6537   3.566   0.214   4.368
 2219TIP3    H2 6538   3.694   0.190   4.291
 2220TIP3   OH2 6539   3.144   0.178   3.202
 2220TIP3    H1 6540   3.129   0.111   3.270
 2220TIP3    H2 6541   3.145   0.125   3.120
 2221TIP3   OH2 6542   3.142  -0.189   4.049
 2221TIP3    H1 6543   3.049  -0.216   4.057
 2221TIP3    H2 6544   3.179  -0.267   4.002
 2222TIP3   OH2 6545   2.537   0.382   4.268
 2222TIP3    H1 6546   2.576   0.455   4.216
 2222TIP3    H2 6547   2.615   0.351   4.317
 2223TIP3   OH2 6548   2.928   0.015   4.224
 2223TIP3    H1 6549   2.921   0.014   4.322
 2223TIP3    H2 6550   3.012  -0.031   4.210
 2224TIP3   OH2 6551   3.173   0.557   4.279
 2224TIP3    H1 6552   3.097   0.497   4.267
 2224TIP3    H2 6553   3.161   0.619   4.204
 2225TIP3   OH2 6554   3.243   0.390   2.925
 2225TIP3    H1 6555   3.286   0.469   2.889
 2225TIP3    H2 6556   3.160   0.431   2.958
 2226TIP3   OH2 6557   3.072  -0.121   3.374
 2226TIP3    H1 6558   3.088  -0.205   3.422
 2226TIP3    H2 6559   3.142  -0.126   3.306
 2227TIP3   OH2 6560   1.977   0.254   4.430
 2227TIP3    H1 6561   2.024   0.172   4.449
 2227TIP3    H2 6562   2.010   0.312   4.499
 2228TIP3   OH2 6563   2.928  -0.538   4.576
 2228TIP3    H1 6564   2.937  -0.459   4.632
 2228TIP3    H2 6565   3.021  -0.567   4.573
 2229TIP3   OH2 6566   3.226  -0.429   3.916
 2229TIP3    H1 6567   3.158  -0.492   3.944
 2229TIP3    H2 6568   3.305  -0.466   3.962
 2230TIP3   OH2 6569   3.194   0.524   3.869
 2230TIP3    H1 6570   3.153   0.571   3.794
 2230TIP3    H2 6571   3.289   0.544   3.849
 2231TIP3   OH2 6572   1.964   0.549   4.845
 2231TIP3    H1 6573   2.049   0.548   4.894
 2231TIP3    H2 6574   1.941   0.455   4.846
 2232TIP3   OH2 6575   2.454   0.513   4.899
 2232TIP3    H1 6576   2.550   0.503   4.891
 2232TIP3    H2 6577   2.423   0.462   4.821
 2233TIP3   OH2 6578   3.085   0.428   4.627
 2233TIP3    H1 6579   3.077   0.354   4.691
 2233TIP3    H2 6580   3.169   0.470   4.654
 2234TIP3   OH2 6581   2.104  -0.037   5.046
 2234TIP3    H1 6582   2.111  -0.133   5.062
 2234TIP3    H2 6583   2.013  -0.032   5.009
 2235TIP3   OH2 6584   2.706   0.043   4.820
 2235TIP3    H1 6585   2.663   0.052   4.733
 2235TIP3    H2 6586   2.739  -0.050   4.819
 2236TIP3   OH2 6587   3.198   0.048   4.425
 2236TIP3    H1 6588   3.272   0.094   4.381
 2236TIP3    H2 6589   3.127   0.115   4.415
 2237TIP3   OH2 6590   2.210  -0.322   5.029
 2237TIP3    H1 6591   2.292  -0.369   5.010
 2237TIP3    H2 6592   2.232  -0.281   5.115
 2238TIP3   OH2 6593   2.553  -0.338   4.699
 2238TIP3    H1 6594   2.459  -0.308   4.694
 2238TIP3    H2 6595   2.577  -0.348   4.605
 2239TIP3   OH2 6596   3.071  -0.015   4.830
 2239TIP3    H1 6597   3.151  -0.036   4.781
 2239TIP3    H2 6598   3.067  -0.088   4.895
 2240TIP3   OH2 6599   2.580  -0.602   4.706
 2240TIP3    H1 6600   2.651  -0.621   4.771
 2240TIP3    H2 6601   2.580  -0.505   4.708
 2241TIP3   OH2 6602   2.732  -0.306   4.479
 2241TIP3    H1 6603   2.801  -0.297   4.412
 2241TIP3    H2 6604   2.667  -0.240   4.450
 2242TIP3   OH2 6605   3.291  -0.332   4.888
 2242TIP3    H1 6606   3.336  -0.417   4.882
 2242TIP3    H2 6607   3.356  -0.271   4.850
 2243TIP3   OH2 6608   3.333  -0.096   4.609
 2243TIP3    H1 6609   3.272  -0.041   4.553
 2243TIP3    H2 6610   3.419  -0.069   4.570
 2244TIP3   OH2 6611   2.534  -0.503   5.038
 2244TIP3    H1 6612   2.471  -0.576   5.034
 2244TIP3    H2 6613   2.608  -0.538   4.985
 2245TIP3   OH2 6614   2.996  -0.492   4.943
 2245TIP3    H1 6615   2.971  -0.519   5.034
 2245TIP3    H2 6616   3.039  -0.572   4.906
 2246TIP3   OH2 6617   3.442   0.625   3.822
 2246TIP3    H1 6618   3.476   0.653   3.909
 2246TIP3    H2 6619   3.509   0.661   3.761
 2247TIP3   OH2 6620   3.477   0.639   4.106
 2247TIP3    H1 6621   3.437   0.549   4.100
 2247TIP3    H2 6622   3.556   0.616   4.159
 2248TIP3   OH2 6623   3.521   0.314   4.678
 2248TIP3    H1 6624   3.450   0.323   4.745
 2248TIP3    H2 6625   3.563   0.402   4.682
 2249TIP3   OH2 6626   3.349  -0.151   3.308
 2249TIP3    H1 6627   3.428  -0.100   3.286
 2249TIP3    H2 6628   3.384  -0.216   3.373
 2250TIP3   OH2 6629   3.473  -0.309   3.497
 2250TIP3    H1 6630   3.402  -0.348   3.553
 2250TIP3    H2 6631   3.531  -0.266   3.563
 2251TIP3   OH2 6632   3.511   0.080   3.928
 2251TIP3    H1 6633   3.572   0.022   3.879
 2251TIP3    H2 6634   3.508   0.159   3.872
 2252TIP3   OH2 6635   3.354   0.387   4.130
 2252TIP3    H1 6636   3.282   0.426   4.182
 2252TIP3    H2 6637   3.305   0.336   4.061
 2253TIP3   OH2 6638   3.293  -0.455   3.653
 2253TIP3    H1 6639   3.284  -0.551   3.653
 2253TIP3    H2 6640   3.276  -0.435   3.748
 2254TIP3   OH2 6641   3.574  -0.027   4.503
 2254TIP3    H1 6642   3.649  -0.090   4.492
 2254TIP3    H2 6643   3.599   0.045   4.444
 2255TIP3   OH2 6644   3.755  -0.230   4.528
 2255TIP3    H1 6645   3.692  -0.282   4.582
 2255TIP3    H2 6646   3.840  -0.268   4.553
 2256TIP3   OH2 6647   3.444  -0.528   4.043
 2256TIP3    H1 6648   3.533  -0.517   4.003
 2256TIP3    H2 6649   3.464  -0.507   4.135
 2257TIP3   OH2 6650   3.506  -0.409   4.290
 2257TIP3    H1 6651   3.422  -0.366   4.319
 2257TIP3    H2 6652   3.542  -0.340   4.230
 2258TIP3   OH2 6653   3.035   0.481   3.484
 2258TIP3    H1 6654   3.082   0.463   3.401
 2258TIP3    H2 6655   3.090   0.549   3.525
 2259TIP3   OH2 6656   2.134   0.282   4.873
 2259TIP3    H1 6657   2.044   0.256   4.848
 2259TIP3    H2 6658   2.132   0.268   4.969
 2260TIP3   OH2 6659   2.310   0.317   4.417
 2260TIP3    H1 6660   2.258   0.389   4.377
 2260TIP3    H2 6661   2.395   0.333   4.372
 2261TIP3   OH2 6662   2.760   0.564   4.555
 2261TIP3    H1 6663   2.803   0.569   4.643
 2261TIP3    H2 6664   2.824   0.613   4.500
 2262TIP3   OH2 6665   2.937   0.713   4.410
 2262TIP3    H1 6666   3.008   0.663   4.366
 2262TIP3    H2 6667   2.989   0.771   4.469
 2263TIP3   OH2 6668   1.990   0.580   4.436
 2263TIP3    H1 6669   1.901   0.614   4.412
 2263TIP3    H2 6670   1.992   0.604   4.530
 2264TIP3   OH2 6671   2.226   0.556   4.294
 2264TIP3    H1 6672   2.140   0.568   4.341
 2264TIP3    H2 6673   2.204   0.588   4.205
 2265TIP3   OH2 6674   2.651   0.586   4.092
 2265TIP3    H1 6675   2.581   0.606   4.027
 2265TIP3    H2 6676   2.663   0.674   4.135
 2266TIP3   OH2 6677   2.918   0.525   4.144
 2266TIP3    H1 6678   2.824   0.542   4.123
 2266TIP3    H2 6679   2.961   0.601   4.102
 2267TIP3   OH2 6680   3.127   0.718   4.062
 2267TIP3    H1 6681   3.114   0.803   4.013
 2267TIP3    H2 6682   3.153   0.657   3.989
 2268TIP3   OH2 6683   1.910   0.377   4.192
 2268TIP3    H1 6684   1.923   0.350   4.286
 2268TIP3    H2 6685   1.990   0.333   4.154
 2269TIP3   OH2 6686   2.107   0.244   4.067
 2269TIP3    H1 6687   2.127   0.155   4.099
 2269TIP3    H2 6688   2.196   0.279   4.044
 2270TIP3   OH2 6689   2.369   0.345   4.035
 2270TIP3    H1 6690   2.401   0.255   4.021
 2270TIP3    H2 6691   2.403   0.362   4.125
 2271TIP3   OH2 6692   3.177   0.446   3.247
 2271TIP3    H1 6693   3.167   0.348   3.236
 2271TIP3    H2 6694   3.129   0.479   3.169
 2272TIP3   OH2 6695   3.400   0.595   4.444
 2272TIP3    H1 6696   3.325   0.562   4.391
 2272TIP3    H2 6697   3.386   0.691   4.437
 2273TIP3   OH2 6698   4.672  -0.035   3.204
 2273TIP3    H1 6699   4.646   0.058   3.190
 2273TIP3    H2 6700   4.590  -0.081   3.178
 2274TIP3   OH2 6701   4.668  -0.036   3.578
 2274TIP3    H1 6702   4.699  -0.064   3.666
 2274TIP3    H2 6703   4.624  -0.117   3.547
 2275TIP3   OH2 6704   3.974  -0.122   3.950
 2275TIP3    H1 6705   4.012  -0.190   4.008
 2275TIP3    H2 6706   4.043  -0.053   3.954
 2276TIP3   OH2 6707   4.910   0.266   3.263
 2276TIP3    H1 6708   4.898   0.196   3.328
 2276TIP3    H2 6709   4.936   0.341   3.319
 2277TIP3   OH2 6710   3.933   0.267   3.671
 2277TIP3    H1 6711   3.928   0.169   3.678
 2277TIP3    H2 6712   4.026   0.282   3.691
 2278TIP3   OH2 6713   3.638  -0.531   3.453
 2278TIP3    H1 6714   3.612  -0.439   3.470
 2278TIP3    H2 6715   3.554  -0.575   3.471
 2279TIP3   OH2 6716   3.709  -0.241   3.626
 2279TIP3    H1 6717   3.760  -0.314   3.669
 2279TIP3    H2 6718   3.776  -0.203   3.567
 2280TIP3   OH2 6719   4.555   0.729   3.277
 2280TIP3    H1 6720   4.608   0.657   3.237
 2280TIP3    H2 6721   4.550   0.700   3.370
 2281TIP3   OH2 6722   4.470   0.187   3.610
 2281TIP3    H1 6723   4.515   0.109   3.575
 2281TIP3    H2 6724   4.546   0.233   3.650
 2282TIP3   OH2 6725   4.884  -0.296   3.663
 2282TIP3    H1 6726   4.912  -0.381   3.697
 2282TIP3    H2 6727   4.852  -0.318   3.574
 2283TIP3   OH2 6728   3.850  -0.449   3.737
 2283TIP3    H1 6729   3.930  -0.472   3.790
 2283TIP3    H2 6730   3.872  -0.500   3.657
 2284TIP3   OH2 6731   4.297  -0.245   3.522
 2284TIP3    H1 6732   4.385  -0.278   3.546
 2284TIP3    H2 6733   4.250  -0.328   3.497
 2285TIP3   OH2 6734   5.531  -0.304   3.811
 2285TIP3    H1 6735   5.467  -0.232   3.796
 2285TIP3    H2 6736   5.572  -0.280   3.897
 2286TIP3   OH2 6737   4.570   0.190   3.072
 2286TIP3    H1 6738   4.517   0.161   2.998
 2286TIP3    H2 6739   4.526   0.275   3.094
 2287TIP3   OH2 6740   4.084  -0.546   3.834
 2287TIP3    H1 6741   4.145  -0.477   3.867
 2287TIP3    H2 6742   4.137  -0.586   3.765
 2288TIP3   OH2 6743   3.554  -0.003   3.199
 2288TIP3    H1 6744   3.502   0.021   3.120
 2288TIP3    H2 6745   3.576   0.085   3.237
 2289TIP3   OH2 6746   4.986   0.509   3.434
 2289TIP3    H1 6747   4.897   0.498   3.476
 2289TIP3    H2 6748   4.975   0.595   3.390
 2290TIP3   OH2 6749   4.693   0.556   3.113
 2290TIP3    H1 6750   4.742   0.475   3.088
 2290TIP3    H2 6751   4.750   0.623   3.069
 2291TIP3   OH2 6752   4.833   0.341   3.010
 2291TIP3    H1 6753   4.783   0.265   2.977
 2291TIP3    H2 6754   4.865   0.307   3.096
 2292TIP3   OH2 6755   5.211   0.426   3.776
 2292TIP3    H1 6756   5.198   0.347   3.720
 2292TIP3    H2 6757   5.193   0.499   3.713
 2293TIP3   OH2 6758   4.499  -0.185   3.032
 2293TIP3    H1 6759   4.419  -0.134   3.011
 2293TIP3    H2 6760   4.546  -0.186   2.947
 2294TIP3   OH2 6761   4.457  -0.385   2.767
 2294TIP3    H1 6762   4.537  -0.350   2.811
 2294TIP3    H2 6763   4.493  -0.463   2.723
 2295TIP3   OH2 6764   5.404   0.057   3.623
 2295TIP3    H1 6765   5.321   0.109   3.631
 2295TIP3    H2 6766   5.429   0.078   3.531
 2296TIP3   OH2 6767   4.848  -0.101   3.007
 2296TIP3    H1 6768   4.794  -0.075   3.085
 2296TIP3    H2 6769   4.931  -0.129   3.051
 2297TIP3   OH2 6770   5.084  -0.049   3.902
 2297TIP3    H1 6771   5.080   0.031   3.958
 2297TIP3    H2 6772   4.996  -0.045   3.859
 2298TIP3   OH2 6773   4.084  -0.101   3.420
 2298TIP3    H1 6774   4.044  -0.162   3.355
 2298TIP3    H2 6775   4.160  -0.155   3.452
 2299TIP3   OH2 6776   4.216   0.321   3.562
 2299TIP3    H1 6777   4.194   0.254   3.496
 2299TIP3    H2 6778   4.300   0.284   3.596
 2300TIP3   OH2 6779   4.224  -0.132   3.776
 2300TIP3    H1 6780   4.261  -0.132   3.686
 2300TIP3    H2 6781   4.243  -0.042   3.810
 2301TIP3   OH2 6782   4.745   0.506   3.553
 2301TIP3    H1 6783   4.727   0.585   3.607
 2301TIP3    H2 6784   4.729   0.432   3.615
 2302TIP3   OH2 6785   4.351   0.426   4.096
 2302TIP3    H1 6786   4.283   0.484   4.135
 2302TIP3    H2 6787   4.298   0.352   4.061
 2303TIP3   OH2 6788   4.696  -0.249   2.834
 2303TIP3    H1 6789   4.753  -0.190   2.889
 2303TIP3    H2 6790   4.721  -0.219   2.743
 2304TIP3   OH2 6791   4.430   0.440   3.099
 2304TIP3    H1 6792   4.504   0.493   3.135
 2304TIP3    H2 6793   4.366   0.508   3.075
 2305TIP3   OH2 6794   4.147   0.599   4.188
 2305TIP3    H1 6795   4.116   0.592   4.095
 2305TIP3    H2 6796   4.067   0.574   4.239
 2306TIP3   OH2 6797   3.954  -0.256   3.222
 2306TIP3    H1 6798   3.887  -0.206   3.172
 2306TIP3    H2 6799   3.910  -0.339   3.242
 2307TIP3   OH2 6800   5.002   0.368   2.424
 2307TIP3    H1 6801   5.012   0.465   2.413
 2307TIP3    H2 6802   5.095   0.338   2.415
 2308TIP3   OH2 6803   3.724   0.124   4.134
 2308TIP3    H1 6804   3.671   0.091   4.060
 2308TIP3    H2 6805   3.769   0.043   4.167
 2309TIP3   OH2 6806   3.582   0.317   3.769
 2309TIP3    H1 6807   3.678   0.305   3.759
 2309TIP3    H2 6808   3.580   0.395   3.827
 2310TIP3   OH2 6809   5.446   0.764   3.819
 2310TIP3    H1 6810   5.445   0.668   3.836
 2310TIP3    H2 6811   5.364   0.791   3.866
 2311TIP3   OH2 6812   4.553   0.554   3.957
 2311TIP3    H1 6813   4.552   0.646   3.990
 2311TIP3    H2 6814   4.479   0.515   4.008
 2312TIP3   OH2 6815   4.309   0.686   2.907
 2312TIP3    H1 6816   4.264   0.670   2.822
 2312TIP3    H2 6817   4.278   0.776   2.930
 2313TIP3   OH2 6818   3.749   0.535   3.292
 2313TIP3    H1 6819   3.801   0.525   3.375
 2313TIP3    H2 6820   3.688   0.460   3.302
 2314TIP3   OH2 6821   4.514   0.584   2.550
 2314TIP3    H1 6822   4.575   0.515   2.515
 2314TIP3    H2 6823   4.547   0.594   2.642
 2315TIP3   OH2 6824   4.562   0.631   2.821
 2315TIP3    H1 6825   4.475   0.642   2.865
 2315TIP3    H2 6826   4.614   0.592   2.892
 2316TIP3   OH2 6827   5.341  -0.099   4.105
 2316TIP3    H1 6828   5.264  -0.075   4.052
 2316TIP3    H2 6829   5.361  -0.189   4.076
 2317TIP3   OH2 6830   3.915   0.329   4.147
 2317TIP3    H1 6831   3.995   0.293   4.189
 2317TIP3    H2 6832   3.865   0.248   4.129
 2318TIP3   OH2 6833   5.027  -0.225   4.111
 2318TIP3    H1 6834   5.044  -0.320   4.099
 2318TIP3    H2 6835   5.025  -0.190   4.021
 2319TIP3   OH2 6836   4.762  -0.194   2.574
 2319TIP3    H1 6837   4.734  -0.221   2.485
 2319TIP3    H2 6838   4.840  -0.140   2.553
 2320TIP3   OH2 6839   4.263  -0.360   3.919
 2320TIP3    H1 6840   4.224  -0.330   4.004
 2320TIP3    H2 6841   4.250  -0.278   3.865
 2321TIP3   OH2 6842   4.134  -0.445   3.431
 2321TIP3    H1 6843   4.059  -0.496   3.466
 2321TIP3    H2 6844   4.160  -0.499   3.353
 2322TIP3   OH2 6845   4.643  -0.379   3.163
 2322TIP3    H1 6846   4.587  -0.307   3.126
 2322TIP3    H2 6847   4.689  -0.411   3.084
 2323TIP3   OH2 6848   4.817  -0.078   4.258
 2323TIP3    H1 6849   4.817  -0.164   4.303
 2323TIP3    H2 6850   4.911  -0.073   4.236
 2324TIP3   OH2 6851   4.801  -0.352   3.405
 2324TIP3    H1 6852   4.742  -0.318   3.335
 2324TIP3    H2 6853   4.831  -0.434   3.365
 2325TIP3   OH2 6854   4.081  -0.308   4.133
 2325TIP3    H1 6855   4.104  -0.259   4.212
 2325TIP3    H2 6856   4.052  -0.394   4.167
 2326TIP3   OH2 6857   4.825  -0.088   3.818
 2326TIP3    H1 6858   4.851  -0.163   3.760
 2326TIP3    H2 6859   4.780  -0.138   3.889
 2327TIP3   OH2 6860   3.905  -0.592   3.510
 2327TIP3    H1 6861   3.813  -0.576   3.479
 2327TIP3    H2 6862   3.919  -0.685   3.489
 2328TIP3   OH2 6863   4.196  -0.583   3.204
 2328TIP3    H1 6864   4.287  -0.593   3.171
 2328TIP3    H2 6865   4.143  -0.570   3.122
 2329TIP3   OH2 6866   4.018  -0.536   2.991
 2329TIP3    H1 6867   3.953  -0.598   2.956
 2329TIP3    H2 6868   4.071  -0.515   2.912
 2330TIP3   OH2 6869   5.134   1.119   3.920
 2330TIP3    H1 6870   5.134   1.140   3.825
 2330TIP3    H2 6871   5.212   1.167   3.952
 2331TIP3   OH2 6872   4.091   0.242   4.351
 2331TIP3    H1 6873   4.175   0.261   4.396
 2331TIP3    H2 6874   4.028   0.241   4.425
 2332TIP3   OH2 6875   4.565  -0.312   3.604
 2332TIP3    H1 6876   4.622  -0.369   3.551
 2332TIP3    H2 6877   4.560  -0.360   3.688
 2333TIP3   OH2 6878   4.537  -0.431   3.894
 2333TIP3    H1 6879   4.446  -0.400   3.908
 2333TIP3    H2 6880   4.589  -0.362   3.939
 2334TIP3   OH2 6881   4.272  -0.030   2.982
 2334TIP3    H1 6882   4.198  -0.093   2.974
 2334TIP3    H2 6883   4.257   0.005   3.074
 2335TIP3   OH2 6884   5.174   0.206   3.616
 2335TIP3    H1 6885   5.196   0.254   3.533
 2335TIP3    H2 6886   5.088   0.164   3.594
 2336TIP3   OH2 6887   4.684   0.295   3.980
 2336TIP3    H1 6888   4.683   0.264   4.071
 2336TIP3    H2 6889   4.628   0.375   3.984
 2337TIP3   OH2 6890   4.792  -0.496   2.934
 2337TIP3    H1 6891   4.888  -0.488   2.951
 2337TIP3    H2 6892   4.773  -0.412   2.888
 2338TIP3   OH2 6893   3.954  -0.019   3.660
 2338TIP3    H1 6894   4.003  -0.043   3.578
 2338TIP3    H2 6895   4.003  -0.068   3.728
 2339TIP3   OH2 6896   4.414   0.118   2.798
 2339TIP3    H1 6897   4.370   0.205   2.807
 2339TIP3    H2 6898   4.363   0.064   2.862
 2340TIP3   OH2 6899   3.825  -0.079   4.281
 2340TIP3    H1 6900   3.873  -0.094   4.364
 2340TIP3    H2 6901   3.774  -0.161   4.270
 2341TIP3   OH2 6902   4.564   0.026   4.296
 2341TIP3    H1 6903   4.495  -0.021   4.246
 2341TIP3    H2 6904   4.647  -0.004   4.253
 2342TIP3   OH2 6905   4.835   0.555   3.871
 2342TIP3    H1 6906   4.739   0.544   3.885
 2342TIP3    H2 6907   4.860   0.602   3.953
 2343TIP3   OH2 6908   5.247  -0.387   2.784
 2343TIP3    H1 6909   5.183  -0.433   2.726
 2343TIP3    H2 6910   5.248  -0.300   2.740
 2344TIP3   OH2 6911   5.461   0.474   3.865
 2344TIP3    H1 6912   5.362   0.471   3.858
 2344TIP3    H2 6913   5.485   0.444   3.775
 2345TIP3   OH2 6914   4.936   0.438   2.688
 2345TIP3    H1 6915   4.920   0.370   2.755
 2345TIP3    H2 6916   4.955   0.387   2.608
 2346TIP3   OH2 6917   4.940   0.068   3.535
 2346TIP3    H1 6918   4.846   0.042   3.548
 2346TIP3    H2 6919   4.973  -0.012   3.489
 2347TIP3   OH2 6920   4.060   0.288   3.272
 2347TIP3    H1 6921   4.066   0.376   3.230
 2347TIP3    H2 6922   3.967   0.284   3.297
 2348TIP3   OH2 6923   3.673  -0.356   3.019
 2348TIP3    H1 6924   3.726  -0.276   3.040
 2348TIP3    H2 6925   3.598  -0.343   3.079
 2349TIP3   OH2 6926   4.210   0.062   3.226
 2349TIP3    H1 6927   4.170   0.150   3.246
 2349TIP3    H2 6928   4.176   0.010   3.302
 2350TIP3   OH2 6929   4.330   0.642   3.750
 2350TIP3    H1 6930   4.375   0.714   3.702
 2350TIP3    H2 6931   4.403   0.604   3.802
 2351TIP3   OH2 6932   3.984   0.536   3.134
 2351TIP3    H1 6933   3.899   0.543   3.182
 2351TIP3    H2 6934   4.017   0.628   3.140
 2352TIP3   OH2 6935   4.728   0.274   3.712
 2352TIP3    H1 6936   4.719   0.274   3.810
 2352TIP3    H2 6937   4.805   0.217   3.700
 2353TIP3   OH2 6938   4.692   0.161   2.594
 2353TIP3    H1 6939   4.748   0.139   2.672
 2353TIP3    H2 6940   4.605   0.142   2.630
 2354TIP3   OH2 6941   4.973   0.809   3.763
 2354TIP3    H1 6942   4.895   0.750   3.758
 2354TIP3    H2 6943   4.954   0.872   3.690
 2355TIP3   OH2 6944   5.038   0.646   2.412
 2355TIP3    H1 6945   5.083   0.723   2.374
 2355TIP3    H2 6946   4.956   0.690   2.444
 2356TIP3   OH2 6947   4.854   0.097   2.808
 2356TIP3    H1 6948   4.844   0.034   2.882
 2356TIP3    H2 6949   4.952   0.098   2.800
 2357TIP3   OH2 6950   3.773   0.503   3.918
 2357TIP3    H1 6951   3.827   0.426   3.939
 2357TIP3    H2 6952   3.812   0.566   3.980
 2358TIP3   OH2 6953   4.061   0.147   2.592
 2358TIP3    H1 6954   4.081   0.054   2.569
 2358TIP3    H2 6955   4.045   0.138   2.688
 2359TIP3   OH2 6956   4.011   0.152   2.865
 2359TIP3    H1 6957   4.076   0.123   2.930
 2359TIP3    H2 6958   4.016   0.250   2.874
 2360TIP3   OH2 6959   3.768  -0.115   3.078
 2360TIP3    H1 6960   3.699  -0.072   3.134
 2360TIP3    H2 6961   3.775  -0.048   3.007
 2361TIP3   OH2 6962   4.271   0.348   2.809
 2361TIP3    H1 6963   4.189   0.379   2.852
 2361TIP3    H2 6964   4.294   0.427   2.758
 2362TIP3   OH2 6965   4.483  -0.593   3.228
 2362TIP3    H1 6966   4.527  -0.507   3.209
 2362TIP3    H2 6967   4.451  -0.579   3.318
 2363TIP3   OH2 6968   4.722  -0.244   4.004
 2363TIP3    H1 6969   4.720  -0.179   4.075
 2363TIP3    H2 6970   4.782  -0.310   4.043
 2364TIP3   OH2 6971   4.012   0.425   2.880
 2364TIP3    H1 6972   3.984   0.496   2.818
 2364TIP3    H2 6973   3.998   0.467   2.967
 2365TIP3   OH2 6974   5.023  -0.169   3.401
 2365TIP3    H1 6975   4.951  -0.232   3.420
 2365TIP3    H2 6976   5.099  -0.212   3.449
 2366TIP3   OH2 6977   3.733   0.069   2.870
 2366TIP3    H1 6978   3.798   0.141   2.881
 2366TIP3    H2 6979   3.784   0.011   2.809
 2367TIP3   OH2 6980   4.991   0.781   3.356
 2367TIP3    H1 6981   4.948   0.828   3.281
 2367TIP3    H2 6982   5.085   0.799   3.335
 2368TIP3   OH2 6983   3.609   0.270   3.269
 2368TIP3    H1 6984   3.530   0.303   3.313
 2368TIP3    H2 6985   3.596   0.308   3.179
 2369TIP3   OH2 6986   3.758   0.805   4.339
 2369TIP3    H1 6987   3.848   0.800   4.379
 2369TIP3    H2 6988   3.741   0.709   4.330
 2370TIP3   OH2 6989   4.248   0.781   4.376
 2370TIP3    H1 6990   4.341   0.755   4.384
 2370TIP3    H2 6991   4.219   0.723   4.303
 2371TIP3   OH2 6992   4.226   0.352   2.505
 2371TIP3    H1 6993   4.171   0.283   2.548
 2371TIP3    H2 6994   4.303   0.299   2.478
 2372TIP3   OH2 6995   4.886   0.681   4.111
 2372TIP3    H1 6996   4.875   0.611   4.180
 2372TIP3    H2 6997   4.963   0.731   4.144
 2373TIP3   OH2 6998   4.664   0.393   2.416
 2373TIP3    H1 6999   4.711   0.333   2.477
 2373TIP3    H2 7000   4.725   0.397   2.340
 2374TIP3   OH2 7001   3.889   0.215   4.542
 2374TIP3    H1 7002   3.912   0.121   4.530
 2374TIP3    H2 7003   3.804   0.220   4.491
 2375TIP3   OH2 7004   3.870  -0.134   2.742
 2375TIP3    H1 7005   3.933  -0.159   2.812
 2375TIP3    H2 7006   3.930  -0.130   2.665
 2376TIP3   OH2 7007   4.498   0.296   4.304
 2376TIP3    H1 7008   4.451   0.308   4.219
 2376TIP3    H2 7009   4.531   0.204   4.297
 2377TIP3   OH2 7010   4.372   0.063   2.531
 2377TIP3    H1 7011   4.379   0.079   2.628
 2377TIP3    H2 7012   4.370  -0.034   2.528
 2378TIP3   OH2 7013   4.996   0.303   3.914
 2378TIP3    H1 7014   5.064   0.357   3.869
 2378TIP3    H2 7015   4.918   0.361   3.905
 2379TIP3   OH2 7016   4.010  -0.069   4.520
 2379TIP3    H1 7017   4.095  -0.109   4.498
 2379TIP3    H2 7018   4.033  -0.025   4.605
 2380TIP3   OH2 7019   4.073  -0.227   2.948
 2380TIP3    H1 7020   4.054  -0.265   3.036
 2380TIP3    H2 7021   4.113  -0.303   2.901
 2381TIP3   OH2 7022   4.333  -0.099   4.189
 2381TIP3    H1 7023   4.269  -0.025   4.179
 2381TIP3    H2 7024   4.375  -0.088   4.101
 2382TIP3   OH2 7025   4.181  -0.433   2.789
 2382TIP3    H1 7026   4.173  -0.486   2.709
 2382TIP3    H2 7027   4.278  -0.415   2.790
 2383TIP3   OH2 7028   4.864   0.239   4.318
 2383TIP3    H1 7029   4.942   0.223   4.264
 2383TIP3    H2 7030   4.868   0.165   4.381
 2384TIP3   OH2 7031   5.002  -0.103   2.450
 2384TIP3    H1 7032   4.982  -0.149   2.366
 2384TIP3    H2 7033   4.973  -0.012   2.426
 2385TIP3   OH2 7034   4.411  -0.356   4.184
 2385TIP3    H1 7035   4.467  -0.366   4.262
 2385TIP3    H2 7036   4.380  -0.265   4.187
 2386TIP3   OH2 7037   4.513  -0.035   3.983
 2386TIP3    H1 7038   4.573  -0.034   3.908
 2386TIP3    H2 7039   4.447   0.032   3.958
 2387TIP3   OH2 7040   5.088  -0.080   4.382
 2387TIP3    H1 7041   5.134  -0.165   4.375
 2387TIP3    H2 7042   5.149  -0.020   4.336
 2388TIP3   OH2 7043   5.128   0.164   4.102
 2388TIP3    H1 7044   5.068   0.215   4.043
 2388TIP3    H2 7045   5.214   0.185   4.060
 2389TIP3   OH2 7046   4.316  -0.239   4.532
 2389TIP3    H1 7047   4.257  -0.316   4.525
 2389TIP3    H2 7048   4.391  -0.267   4.478
 2390TIP3   OH2 7049   2.883   9.072   2.360
 2390TIP3    H1 7050   2.922   9.021   2.434
 2390TIP3    H2 7051   2.793   9.085   2.387
 2391TIP3   OH2 7052   3.982   0.624   2.689
 2391TIP3    H1 7053   4.079   0.625   2.674
 2391TIP3    H2 7054   3.954   0.677   2.612
 2392TIP3   OH2 7055   3.473   0.006   2.928
 2392TIP3    H1 7056   3.562   0.039   2.903
 2392TIP3    H2 7057   3.455  -0.057   2.857
 2393TIP3   OH2 7058   3.379   0.621   3.322
 2393TIP3    H1 7059   3.311   0.558   3.290
 2393TIP3    H2 7060   3.423   0.567   3.391
 2394TIP3   OH2 7061   3.515   0.479   3.510
 2394TIP3    H1 7062   3.508   0.401   3.567
 2394TIP3    H2 7063   3.568   0.537   3.568
 2395TIP3   OH2 7064   5.244   0.870   3.309
 2395TIP3    H1 7065   5.268   0.907   3.396
 2395TIP3    H2 7066   5.301   0.921   3.249
 2396TIP3   OH2 7067   5.277   0.895   3.590
 2396TIP3    H1 7068   5.230   0.809   3.586
 2396TIP3    H2 7069   5.347   0.873   3.653
 2397TIP3   OH2 7070   5.319   0.571   4.163
 2397TIP3    H1 7071   5.245   0.578   4.226
 2397TIP3    H2 7072   5.360   0.660   4.169
 2398TIP3   OH2 7073   5.135   0.085   2.785
 2398TIP3    H1 7074   5.206   0.148   2.759
 2398TIP3    H2 7075   5.176   0.045   2.865
 2399TIP3   OH2 7076   5.263  -0.047   2.989
 2399TIP3    H1 7077   5.198  -0.091   3.048
 2399TIP3    H2 7078   5.326  -0.008   3.052
 2400TIP3   OH2 7079   5.315   0.341   3.423
 2400TIP3    H1 7080   5.368   0.278   3.371
 2400TIP3    H2 7081   5.301   0.414   3.360
 2401TIP3   OH2 7082   5.150   0.645   3.616
 2401TIP3    H1 7083   5.079   0.685   3.670
 2401TIP3    H2 7084   5.099   0.595   3.549
 2402TIP3   OH2 7085   5.200  -0.144   2.636
 2402TIP3    H1 7086   5.129  -0.135   2.569
 2402TIP3    H2 7087   5.177  -0.068   2.694
 2403TIP3   OH2 7088   5.075  -0.475   2.588
 2403TIP3    H1 7089   5.042  -0.407   2.529
 2403TIP3    H2 7090   5.040  -0.556   2.548
 2404TIP3   OH2 7091   5.080  -0.195   3.138
 2404TIP3    H1 7092   5.090  -0.291   3.143
 2404TIP3    H2 7093   5.065  -0.173   3.233
 2405TIP3   OH2 7094   3.708  -0.119   3.884
 2405TIP3    H1 7095   3.708  -0.144   3.789
 2405TIP3    H2 7096   3.805  -0.113   3.901
 2406TIP3   OH2 7097   5.370   0.229   3.992
 2406TIP3    H1 7098   5.443   0.164   3.979
 2406TIP3    H2 7099   5.395   0.301   3.931
 2407TIP3   OH2 7100   5.558   0.032   4.008
 2407TIP3    H1 7101   5.488  -0.019   4.055
 2407TIP3    H2 7102   5.638  -0.009   4.045
 2408TIP3   OH2 7103   5.060  -0.480   2.982
 2408TIP3    H1 7104   5.104  -0.515   3.063
 2408TIP3    H2 7105   5.135  -0.440   2.935
 2409TIP3   OH2 7106   5.239  -0.272   3.530
 2409TIP3    H1 7107   5.328  -0.261   3.490
 2409TIP3    H2 7108   5.259  -0.253   3.623
 2410TIP3   OH2 7109   5.303  -0.153   3.776
 2410TIP3    H1 7110   5.220  -0.110   3.807
 2410TIP3    H2 7111   5.340  -0.083   3.718
 2411TIP3   OH2 7112   3.697  -0.463   3.965
 2411TIP3    H1 7113   3.745  -0.472   3.880
 2411TIP3    H2 7114   3.718  -0.372   3.988
 2412TIP3   OH2 7115   4.828   0.738   2.967
 2412TIP3    H1 7116   4.879   0.722   2.885
 2412TIP3    H2 7117   4.880   0.806   3.011
 2413TIP3   OH2 7118   3.925   0.561   4.365
 2413TIP3    H1 7119   3.857   0.505   4.324
 2413TIP3    H2 7120   3.936   0.520   4.452
 2414TIP3   OH2 7121   4.100   0.585   3.915
 2414TIP3    H1 7122   4.064   0.659   3.862
 2414TIP3    H2 7123   4.185   0.572   3.868
 2415TIP3   OH2 7124   4.555   0.822   4.042
 2415TIP3    H1 7125   4.598   0.824   4.130
 2415TIP3    H2 7126   4.620   0.871   3.988
 2416TIP3   OH2 7127   4.735   0.968   3.898
 2416TIP3    H1 7128   4.807   0.917   3.858
 2416TIP3    H2 7129   4.785   1.026   3.959
 2417TIP3   OH2 7130   3.784   0.837   3.919
 2417TIP3    H1 7131   3.695   0.874   3.901
 2417TIP3    H2 7132   3.791   0.853   4.013
 2418TIP3   OH2 7133   4.021   0.815   3.779
 2418TIP3    H1 7134   3.936   0.826   3.825
 2418TIP3    H2 7135   4.000   0.847   3.689
 2419TIP3   OH2 7136   4.450   0.843   3.574
 2419TIP3    H1 7137   4.377   0.865   3.514
 2419TIP3    H2 7138   4.463   0.928   3.621
 2420TIP3   OH2 7139   4.714   0.784   3.626
 2420TIP3    H1 7140   4.618   0.796   3.611
 2420TIP3    H2 7141   4.748   0.868   3.592
 2421TIP3   OH2 7142   4.934   0.981   3.549
 2421TIP3    H1 7143   4.909   1.061   3.498
 2421TIP3    H2 7144   4.949   0.915   3.477
 2422TIP3   OH2 7145   3.696   0.626   3.672
 2422TIP3    H1 7146   3.724   0.603   3.763
 2422TIP3    H2 7147   3.768   0.582   3.622
 2423TIP3   OH2 7148   3.887   0.497   3.523
 2423TIP3    H1 7149   3.904   0.413   3.571
 2423TIP3    H2 7150   3.978   0.535   3.521
 2424TIP3   OH2 7151   4.153   0.593   3.527
 2424TIP3    H1 7152   4.185   0.501   3.518
 2424TIP3    H2 7153   4.195   0.616   3.612
 2425TIP3   OH2 7154   3.485   0.394   3.062
 2425TIP3    H1 7155   3.400   0.361   3.027
 2425TIP3    H2 7156   3.469   0.490   3.056
 2426TIP3   OH2 7157   4.254   0.592   2.642
 2426TIP3    H1 7158   4.343   0.612   2.609
 2426TIP3    H2 7159   4.233   0.515   2.584
 2427TIP3   OH2 7160   4.970   0.703   2.734
 2427TIP3    H1 7161   4.961   0.605   2.720
 2427TIP3    H2 7162   4.927   0.736   2.652
 2428TIP3   OH2 7163   3.559   0.430   2.702
 2428TIP3    H1 7164   3.554   0.456   2.796
 2428TIP3    H2 7165   3.647   0.387   2.697
 2429TIP3   OH2 7166   5.204   0.852   3.922
 2429TIP3    H1 7167   5.123   0.817   3.878
 2429TIP3    H2 7168   5.180   0.947   3.927
 2430TIP3   OH2 7169   6.465   0.224   2.697
 2430TIP3    H1 7170   6.437   0.316   2.675
 2430TIP3    H2 7171   6.388   0.176   2.665
 2431TIP3   OH2 7172   6.459   0.223   3.071
 2431TIP3    H1 7173   6.493   0.188   3.155
 2431TIP3    H2 7174   6.420   0.142   3.032
 2432TIP3   OH2 7175   5.763   0.125   3.436
 2432TIP3    H1 7176   5.789   0.058   3.503
 2432TIP3    H2 7177   5.851   0.151   3.406
 2433TIP3   OH2 7178   6.710   0.520   2.754
 2433TIP3    H1 7179   6.696   0.453   2.822
 2433TIP3    H2 7180   6.736   0.597   2.807
 2434TIP3   OH2 7181   5.434  -0.277   2.957
 2434TIP3    H1 7182   5.389  -0.191   2.967
 2434TIP3    H2 7183   5.372  -0.324   2.899
 2435TIP3   OH2 7184   5.512   0.019   3.113
 2435TIP3    H1 7185   5.556  -0.059   3.155
 2435TIP3    H2 7186   5.566   0.031   3.034
 2436TIP3   OH2 7187   6.348   0.986   2.770
 2436TIP3    H1 7188   6.397   0.918   2.719
 2436TIP3    H2 7189   6.358   0.953   2.860
 2437TIP3   OH2 7190   6.266   0.449   3.123
 2437TIP3    H1 7191   6.298   0.372   3.072
 2437TIP3    H2 7192   6.353   0.492   3.139
 2438TIP3   OH2 7193   6.682  -0.037   3.151
 2438TIP3    H1 7194   6.709  -0.123   3.184
 2438TIP3    H2 7195   6.648  -0.058   3.061
 2439TIP3   OH2 7196   5.646  -0.190   3.224
 2439TIP3    H1 7197   5.727  -0.215   3.275
 2439TIP3    H2 7198   5.664  -0.244   3.144
 2440TIP3   OH2 7199   6.088   0.012   3.026
 2440TIP3    H1 7200   6.180  -0.022   3.035
 2440TIP3    H2 7201   6.042  -0.068   2.990
 2441TIP3   OH2 7202   7.327  -0.046   3.302
 2441TIP3    H1 7203   7.264   0.025   3.280
 2441TIP3    H2 7204   7.372  -0.012   3.381
 2442TIP3   OH2 7205   6.343   0.434   2.572
 2442TIP3    H1 7206   6.317   0.422   2.480
 2442TIP3    H2 7207   6.320   0.527   2.586
 2443TIP3   OH2 7208   6.099   0.380   3.333
 2443TIP3    H1 7209   6.081   0.437   3.410
 2443TIP3    H2 7210   6.176   0.423   3.289
 2444TIP3   OH2 7211   5.879  -0.286   3.322
 2444TIP3    H1 7212   5.947  -0.220   3.349
 2444TIP3    H2 7213   5.926  -0.335   3.254
 2445TIP3   OH2 7214   5.894   0.549   3.392
 2445TIP3    H1 7215   5.898   0.648   3.391
 2445TIP3    H2 7216   5.841   0.536   3.474
 2446TIP3   OH2 7217   5.341   0.251   2.682
 2446TIP3    H1 7218   5.301   0.277   2.597
 2446TIP3    H2 7219   5.370   0.336   2.719
 2447TIP3   OH2 7220   6.779   0.765   2.925
 2447TIP3    H1 7221   6.688   0.758   2.961
 2447TIP3    H2 7222   6.773   0.849   2.876
 2448TIP3   OH2 7223   6.481   0.818   2.600
 2448TIP3    H1 7224   6.525   0.733   2.578
 2448TIP3    H2 7225   6.543   0.880   2.556
 2449TIP3   OH2 7226   6.609   0.598   2.503
 2449TIP3    H1 7227   6.651   0.547   2.431
 2449TIP3    H2 7228   6.652   0.559   2.582
 2450TIP3   OH2 7229   7.004   0.681   3.264
 2450TIP3    H1 7230   6.995   0.604   3.204
 2450TIP3    H2 7231   6.990   0.756   3.202
 2451TIP3   OH2 7232   6.300   0.075   2.515
 2451TIP3    H1 7233   6.213   0.121   2.509
 2451TIP3    H2 7234   6.324   0.077   2.421
 2452TIP3   OH2 7235   6.272  -0.057   2.253
 2452TIP3    H1 7236   6.344  -0.080   2.314
 2452TIP3    H2 7237   6.255  -0.147   2.219
 2453TIP3   OH2 7238   7.200   0.311   3.107
 2453TIP3    H1 7239   7.118   0.365   3.115
 2453TIP3    H2 7240   7.230   0.338   3.018
 2454TIP3   OH2 7241   6.642   0.137   2.510
 2454TIP3    H1 7242   6.576   0.179   2.570
 2454TIP3    H2 7243   6.719   0.139   2.567
 2455TIP3   OH2 7244   6.879   0.202   3.394
 2455TIP3    H1 7245   6.877   0.284   3.448
 2455TIP3    H2 7246   6.793   0.211   3.348
 2456TIP3   OH2 7247   5.885   0.163   2.899
 2456TIP3    H1 7248   5.834   0.101   2.842
 2456TIP3    H2 7249   5.950   0.103   2.940
 2457TIP3   OH2 7250   5.989   0.514   3.079
 2457TIP3    H1 7251   5.972   0.510   2.982
 2457TIP3    H2 7252   6.087   0.519   3.079
 2458TIP3   OH2 7253   6.005   0.133   3.263
 2458TIP3    H1 7254   6.034   0.095   3.177
 2458TIP3    H2 7255   6.072   0.201   3.279
 2459TIP3   OH2 7256   6.534   0.763   3.040
 2459TIP3    H1 7257   6.526   0.843   3.094
 2459TIP3    H2 7258   6.525   0.691   3.104
 2460TIP3   OH2 7259   6.145   0.683   3.581
 2460TIP3    H1 7260   6.101   0.751   3.636
 2460TIP3    H2 7261   6.069   0.629   3.559
 2461TIP3   OH2 7262   6.543   0.005   2.301
 2461TIP3    H1 7263   6.572   0.061   2.377
 2461TIP3    H2 7264   6.511   0.072   2.239
 2462TIP3   OH2 7265   5.886   0.263   3.672
 2462TIP3    H1 7266   5.892   0.333   3.740
 2462TIP3    H2 7267   5.796   0.228   3.691
 2463TIP3   OH2 7268   6.221   0.703   2.600
 2463TIP3    H1 7269   6.302   0.754   2.617
 2463TIP3    H2 7270   6.165   0.767   2.555
 2464TIP3   OH2 7271   5.944   0.849   3.672
 2464TIP3    H1 7272   5.904   0.849   3.583
 2464TIP3    H2 7273   5.867   0.833   3.730
 2465TIP3   OH2 7274   5.736   0.005   2.720
 2465TIP3    H1 7275   5.671   0.037   2.654
 2465TIP3    H2 7276   5.714  -0.089   2.727
 2466TIP3   OH2 7277   6.783   0.628   1.889
 2466TIP3    H1 7278   6.798   0.724   1.893
 2466TIP3    H2 7279   6.872   0.592   1.898
 2467TIP3   OH2 7280   5.526   0.383   3.618
 2467TIP3    H1 7281   5.458   0.356   3.553
 2467TIP3    H2 7282   5.562   0.296   3.648
 2468TIP3   OH2 7283   5.373   0.577   3.256
 2468TIP3    H1 7284   5.468   0.589   3.254
 2468TIP3    H2 7285   5.345   0.654   3.309
 2469TIP3   OH2 7286   7.243   1.022   3.306
 2469TIP3    H1 7287   7.242   0.926   3.322
 2469TIP3    H2 7288   7.160   1.048   3.353
 2470TIP3   OH2 7289   6.348   0.816   3.441
 2470TIP3    H1 7290   6.351   0.908   3.476
 2470TIP3    H2 7291   6.280   0.776   3.499
 2471TIP3   OH2 7292   6.109   0.942   2.396
 2471TIP3    H1 7293   6.063   0.924   2.312
 2471TIP3    H2 7294   6.076   1.031   2.419
 2472TIP3   OH2 7295   5.547   0.786   2.774
 2472TIP3    H1 7296   5.590   0.787   2.861
 2472TIP3    H2 7297   5.472   0.728   2.791
 2473TIP3   OH2 7298   6.311   0.841   2.036
 2473TIP3    H1 7299   6.371   0.771   2.000
 2473TIP3    H2 7300   6.344   0.849   2.128
 2474TIP3   OH2 7301   6.360   0.887   2.307
 2474TIP3    H1 7302   6.272   0.900   2.349
 2474TIP3    H2 7303   6.409   0.846   2.380
 2475TIP3   OH2 7304   7.136   0.152   3.596
 2475TIP3    H1 7305   7.065   0.188   3.541
 2475TIP3    H2 7306   7.156   0.067   3.555
 2476TIP3   OH2 7307   5.735   0.561   3.608
 2476TIP3    H1 7308   5.783   0.550   3.693
 2476TIP3    H2 7309   5.661   0.498   3.620
 2477TIP3   OH2 7310   6.796   0.019   3.590
 2477TIP3    H1 7311   6.846  -0.064   3.589
 2477TIP3    H2 7312   6.825   0.067   3.511
 2478TIP3   OH2 7313   6.058  -0.102   3.403
 2478TIP3    H1 7314   6.024  -0.078   3.491
 2478TIP3    H2 7315   6.039  -0.021   3.352
 2479TIP3   OH2 7316   5.931  -0.184   2.920
 2479TIP3    H1 7317   5.857  -0.238   2.953
 2479TIP3    H2 7318   5.956  -0.233   2.839
 2480TIP3   OH2 7319   6.437  -0.119   2.658
 2480TIP3    H1 7320   6.385  -0.049   2.612
 2480TIP3    H2 7321   6.484  -0.160   2.582
 2481TIP3   OH2 7322   6.606   0.197   3.712
 2481TIP3    H1 7323   6.602   0.145   3.795
 2481TIP3    H2 7324   6.703   0.199   3.703
 2482TIP3   OH2 7325   6.599  -0.092   2.890
 2482TIP3    H1 7326   6.537  -0.063   2.819
 2482TIP3    H2 7327   6.622  -0.180   2.857
 2483TIP3   OH2 7328   5.874  -0.050   3.620
 2483TIP3    H1 7329   5.907  -0.009   3.701
 2483TIP3    H2 7330   5.853  -0.140   3.649
 2484TIP3   OH2 7331   6.603   0.156   3.322
 2484TIP3    H1 7332   6.633   0.083   3.262
 2484TIP3    H2 7333   6.578   0.105   3.401
 2485TIP3   OH2 7334   5.703  -0.335   2.997
 2485TIP3    H1 7335   5.608  -0.323   2.974
 2485TIP3    H2 7336   5.716  -0.428   2.978
 2486TIP3   OH2 7337   5.993  -0.310   2.685
 2486TIP3    H1 7338   6.080  -0.345   2.657
 2486TIP3    H2 7339   5.938  -0.323   2.605
 2487TIP3   OH2 7340   5.801  -0.294   2.466
 2487TIP3    H1 7341   5.728  -0.342   2.425
 2487TIP3    H2 7342   5.850  -0.263   2.389
 2488TIP3   OH2 7343   6.929   1.376   3.406
 2488TIP3    H1 7344   6.930   1.398   3.311
 2488TIP3    H2 7345   7.008   1.424   3.437
 2489TIP3   OH2 7346   5.891   0.492   3.832
 2489TIP3    H1 7347   5.972   0.516   3.882
 2489TIP3    H2 7348   5.827   0.487   3.905
 2490TIP3   OH2 7349   6.362  -0.055   3.093
 2490TIP3    H1 7350   6.414  -0.116   3.040
 2490TIP3    H2 7351   6.356  -0.103   3.178
 2491TIP3   OH2 7352   6.339  -0.161   3.374
 2491TIP3    H1 7353   6.247  -0.137   3.395
 2491TIP3    H2 7354   6.389  -0.114   3.445
 2492TIP3   OH2 7355   6.069   0.226   2.471
 2492TIP3    H1 7356   5.994   0.163   2.462
 2492TIP3    H2 7357   6.053   0.263   2.561
 2493TIP3   OH2 7358   6.972   0.462   3.102
 2493TIP3    H1 7359   6.996   0.511   3.020
 2493TIP3    H2 7360   6.886   0.422   3.078
 2494TIP3   OH2 7361   6.457   0.541   3.469
 2494TIP3    H1 7362   6.492   0.517   3.556
 2494TIP3    H2 7363   6.435   0.635   3.479
 2495TIP3   OH2 7364   6.589  -0.220   2.454
 2495TIP3    H1 7365   6.685  -0.227   2.449
 2495TIP3    H2 7366   6.568  -0.161   2.379
 2496TIP3   OH2 7367   6.217   0.376   2.289
 2496TIP3    H1 7368   6.168   0.462   2.295
 2496TIP3    H2 7369   6.163   0.321   2.351
 2497TIP3   OH2 7370   5.636   0.175   3.762
 2497TIP3    H1 7371   5.665   0.158   3.854
 2497TIP3    H2 7372   5.570   0.104   3.748
 2498TIP3   OH2 7373   6.364   0.293   3.785
 2498TIP3    H1 7374   6.291   0.240   3.746
 2498TIP3    H2 7375   6.443   0.258   3.739
 2499TIP3   OH2 7376   6.628   0.800   3.361
 2499TIP3    H1 7377   6.532   0.806   3.373
 2499TIP3    H2 7378   6.659   0.853   3.437
 2500TIP3   OH2 7379   7.255   0.728   3.354
 2500TIP3    H1 7380   7.157   0.727   3.345
 2500TIP3    H2 7381   7.281   0.701   3.263
 2501TIP3   OH2 7382   6.734   0.323   3.024
 2501TIP3    H1 7383   6.641   0.297   3.034
 2501TIP3    H2 7384   6.769   0.246   2.975
 2502TIP3   OH2 7385   5.854   0.561   2.790
 2502TIP3    H1 7386   5.867   0.637   2.730
 2502TIP3    H2 7387   5.765   0.533   2.762
 2503TIP3   OH2 7388   5.424  -0.146   2.471
 2503TIP3    H1 7389   5.472  -0.063   2.489
 2503TIP3    H2 7390   5.348  -0.137   2.532
 2504TIP3   OH2 7391   6.004   0.325   2.713
 2504TIP3    H1 7392   5.967   0.411   2.740
 2504TIP3    H2 7393   5.968   0.267   2.784
 2505TIP3   OH2 7394   6.131   0.893   3.238
 2505TIP3    H1 7395   6.170   0.969   3.191
 2505TIP3    H2 7396   6.207   0.865   3.292
 2506TIP3   OH2 7397   5.787   0.791   2.630
 2506TIP3    H1 7398   5.694   0.803   2.659
 2506TIP3    H2 7399   5.816   0.885   2.625
 2507TIP3   OH2 7400   6.520   0.530   3.199
 2507TIP3    H1 7401   6.514   0.527   3.297
 2507TIP3    H2 7402   6.601   0.479   3.183
 2508TIP3   OH2 7403   6.445   0.414   2.103
 2508TIP3    H1 7404   6.524   0.417   2.159
 2508TIP3    H2 7405   6.373   0.405   2.169
 2509TIP3   OH2 7406   6.767   1.067   3.250
 2509TIP3    H1 7407   6.689   1.010   3.241
 2509TIP3    H2 7408   6.753   1.132   3.178
 2510TIP3   OH2 7409   6.832   0.903   1.904
 2510TIP3    H1 7410   6.873   0.979   1.859
 2510TIP3    H2 7411   6.749   0.947   1.933
 2511TIP3   OH2 7412   5.579   0.754   3.402
 2511TIP3    H1 7413   5.613   0.683   3.458
 2511TIP3    H2 7414   5.593   0.832   3.458
 2512TIP3   OH2 7415   5.857   0.405   2.079
 2512TIP3    H1 7416   5.875   0.314   2.050
 2512TIP3    H2 7417   5.840   0.392   2.175
 2513TIP3   OH2 7418   5.805   0.409   2.353
 2513TIP3    H1 7419   5.877   0.382   2.413
 2513TIP3    H2 7420   5.811   0.507   2.359
 2514TIP3   OH2 7421   5.538   0.101   2.552
 2514TIP3    H1 7422   5.477   0.148   2.612
 2514TIP3    H2 7423   5.559   0.172   2.488
 2515TIP3   OH2 7424   6.069   0.605   2.301
 2515TIP3    H1 7425   5.984   0.635   2.338
 2515TIP3    H2 7426   6.089   0.678   2.240
 2516TIP3   OH2 7427   6.282  -0.336   2.721
 2516TIP3    H1 7428   6.322  -0.249   2.698
 2516TIP3    H2 7429   6.244  -0.319   2.808
 2517TIP3   OH2 7430   6.524  -0.021   3.544
 2517TIP3    H1 7431   6.531   0.055   3.605
 2517TIP3    H2 7432   6.615  -0.052   3.547
 2518TIP3   OH2 7433   5.808   0.682   2.369
 2518TIP3    H1 7434   5.778   0.746   2.300
 2518TIP3    H2 7435   5.788   0.732   2.451
 2519TIP3   OH2 7436   6.821   0.086   2.878
 2519TIP3    H1 7437   6.747   0.026   2.900
 2519TIP3    H2 7438   6.895   0.046   2.931
 2520TIP3   OH2 7439   5.528   0.320   2.362
 2520TIP3    H1 7440   5.590   0.394   2.371
 2520TIP3    H2 7441   5.579   0.266   2.297
 2521TIP3   OH2 7442   5.457  -0.431   2.494
 2521TIP3    H1 7443   5.494  -0.341   2.489
 2521TIP3    H2 7444   5.365  -0.410   2.517
 2522TIP3   OH2 7445   6.787   1.037   2.843
 2522TIP3    H1 7446   6.745   1.083   2.767
 2522TIP3    H2 7447   6.881   1.056   2.822
 2523TIP3   OH2 7448   5.407   0.520   2.761
 2523TIP3    H1 7449   5.325   0.558   2.795
 2523TIP3    H2 7450   5.407   0.559   2.672
 2524TIP3   OH2 7451   5.557   1.064   3.821
 2524TIP3    H1 7452   5.643   1.063   3.869
 2524TIP3    H2 7453   5.536   0.969   3.820
 2525TIP3   OH2 7454   6.037   1.040   3.864
 2525TIP3    H1 7455   6.132   1.041   3.880
 2525TIP3    H2 7456   6.029   0.975   3.791
 2526TIP3   OH2 7457   6.020   0.614   1.998
 2526TIP3    H1 7458   5.967   0.538   2.034
 2526TIP3    H2 7459   6.098   0.566   1.962
 2527TIP3   OH2 7460   6.686   0.931   3.593
 2527TIP3    H1 7461   6.674   0.867   3.666
 2527TIP3    H2 7462   6.759   0.988   3.627
 2528TIP3   OH2 7463   6.468   0.655   1.910
 2528TIP3    H1 7464   6.530   0.604   1.964
 2528TIP3    H2 7465   6.517   0.659   1.825
 2529TIP3   OH2 7466   5.691   0.474   4.020
 2529TIP3    H1 7467   5.709   0.379   4.032
 2529TIP3    H2 7468   5.602   0.472   3.978
 2530TIP3   OH2 7469   5.664   0.127   2.216
 2530TIP3    H1 7470   5.719   0.093   2.289
 2530TIP3    H2 7471   5.730   0.128   2.143
 2531TIP3   OH2 7472   6.299   0.558   3.794
 2531TIP3    H1 7473   6.262   0.563   3.705
 2531TIP3    H2 7474   6.333   0.466   3.797
 2532TIP3   OH2 7475   6.155   0.319   2.022
 2532TIP3    H1 7476   6.172   0.330   2.117
 2532TIP3    H2 7477   6.153   0.222   2.012
 2533TIP3   OH2 7478   6.790   0.562   3.399
 2533TIP3    H1 7479   6.864   0.608   3.356
 2533TIP3    H2 7480   6.720   0.629   3.388
 2534TIP3   OH2 7481   5.812   0.200   3.998
 2534TIP3    H1 7482   5.885   0.137   3.993
 2534TIP3    H2 7483   5.828   0.233   4.089
 2535TIP3   OH2 7484   5.870   0.036   2.445
 2535TIP3    H1 7485   5.853  -0.014   2.527
 2535TIP3    H2 7486   5.907  -0.035   2.388
 2536TIP3   OH2 7487   6.143   0.176   3.672
 2536TIP3    H1 7488   6.049   0.202   3.665
 2536TIP3    H2 7489   6.169   0.155   3.581
 2537TIP3   OH2 7490   5.969  -0.158   2.281
 2537TIP3    H1 7491   5.949  -0.239   2.231
 2537TIP3    H2 7492   6.060  -0.140   2.252
 2538TIP3   OH2 7493   6.661   0.498   3.801
 2538TIP3    H1 7494   6.744   0.477   3.757
 2538TIP3    H2 7495   6.657   0.427   3.868
 2539TIP3   OH2 7496   6.187  -0.090   3.663
 2539TIP3    H1 7497   6.236  -0.115   3.744
 2539TIP3    H2 7498   6.180   0.006   3.680
 2540TIP3   OH2 7499   6.315   0.201   3.443
 2540TIP3    H1 7500   6.397   0.210   3.392
 2540TIP3    H2 7501   6.267   0.281   3.420
 2541TIP3   OH2 7502   6.886   0.183   3.858
 2541TIP3    H1 7503   6.925   0.096   3.859
 2541TIP3    H2 7504   6.957   0.240   3.826
 2542TIP3   OH2 7505   6.924   0.418   3.584
 2542TIP3    H1 7506   6.863   0.472   3.528
 2542TIP3    H2 7507   7.010   0.443   3.544
 2543TIP3   OH2 7508   6.111  -0.001   3.971
 2543TIP3    H1 7509   6.079  -0.051   4.048
 2543TIP3    H2 7510   6.200  -0.036   3.958
 2544TIP3   OH2 7511   6.613   0.029   3.915
 2544TIP3    H1 7512   6.566  -0.001   3.995
 2544TIP3    H2 7513   6.616  -0.053   3.863
 2545TIP3   OH2 7514   5.782   0.862   2.164
 2545TIP3    H1 7515   5.878   0.876   2.152
 2545TIP3    H2 7516   5.747   0.930   2.103
 2546TIP3   OH2 7517   5.262   0.265   2.399
 2546TIP3    H1 7518   5.356   0.290   2.386
 2546TIP3    H2 7519   5.260   0.176   2.359
 2547TIP3   OH2 7520   5.168   0.877   2.808
 2547TIP3    H1 7521   5.103   0.810   2.777
 2547TIP3    H2 7522   5.219   0.825   2.873
 2548TIP3   OH2 7523   5.312   0.735   2.994
 2548TIP3    H1 7524   5.296   0.660   3.053
 2548TIP3    H2 7525   5.360   0.796   3.053
 2549TIP3   OH2 7526   7.037   1.132   2.796
 2549TIP3    H1 7527   7.067   1.166   2.882
 2549TIP3    H2 7528   7.097   1.176   2.735
 2550TIP3   OH2 7529   7.070   1.152   3.078
 2550TIP3    H1 7530   7.028   1.063   3.072
 2550TIP3    H2 7531   7.145   1.130   3.136
 2551TIP3   OH2 7532   7.113   0.828   3.648
 2551TIP3    H1 7533   7.041   0.835   3.714
 2551TIP3    H2 7534   7.156   0.916   3.655
 2552TIP3   OH2 7535   7.067   0.160   2.491
 2552TIP3    H1 7536   6.993   0.184   2.547
 2552TIP3    H2 7537   7.126   0.237   2.508
 2553TIP3   OH2 7538   7.110   0.597   2.909
 2553TIP3    H1 7539   7.164   0.537   2.854
 2553TIP3    H2 7540   7.100   0.674   2.850
 2554TIP3   OH2 7541   6.947   0.900   3.105
 2554TIP3    H1 7542   6.876   0.943   3.157
 2554TIP3    H2 7543   6.897   0.852   3.036
 2555TIP3   OH2 7544   6.870   0.020   2.620
 2555TIP3    H1 7545   6.900  -0.060   2.666
 2555TIP3    H2 7546   6.849   0.073   2.701
 2556TIP3   OH2 7547   5.503   0.145   3.362
 2556TIP3    H1 7548   5.504   0.108   3.271
 2556TIP3    H2 7549   5.599   0.141   3.384
 2557TIP3   OH2 7550   7.165   0.484   3.476
 2557TIP3    H1 7551   7.240   0.421   3.464
 2557TIP3    H2 7552   7.191   0.559   3.420
 2558TIP3   OH2 7553   7.352   0.284   3.488
 2558TIP3    H1 7554   7.286   0.238   3.544
 2558TIP3    H2 7555   7.436   0.256   3.529
 2559TIP3   OH2 7556   7.036  -0.012   3.015
 2559TIP3    H1 7557   7.127  -0.003   2.979
 2559TIP3    H2 7558   7.053   0.004   3.109
 2560TIP3   OH2 7559   7.099   0.104   3.263
 2560TIP3    H1 7560   7.016   0.146   3.294
 2560TIP3    H2 7561   7.135   0.174   3.205
 2561TIP3   OH2 7562   5.490  -0.204   3.449
 2561TIP3    H1 7563   5.537  -0.219   3.365
 2561TIP3    H2 7564   5.527  -0.120   3.477
 2562TIP3   OH2 7565   6.624   0.994   2.454
 2562TIP3    H1 7566   6.677   0.977   2.374
 2562TIP3    H2 7567   6.676   1.062   2.499
 2563TIP3   OH2 7568   5.723   0.800   3.840
 2563TIP3    H1 7569   5.632   0.769   3.828
 2563TIP3    H2 7570   5.739   0.780   3.933
 2564TIP3   OH2 7571   5.907   0.822   3.385
 2564TIP3    H1 7572   5.854   0.897   3.350
 2564TIP3    H2 7573   5.992   0.845   3.343
 2565TIP3   OH2 7574   6.350   1.080   3.528
 2565TIP3    H1 7575   6.392   1.080   3.617
 2565TIP3    H2 7576   6.418   1.129   3.477
 2566TIP3   OH2 7577   6.530   1.228   3.383
 2566TIP3    H1 7578   6.602   1.177   3.342
 2566TIP3    H2 7579   6.581   1.284   3.445
 2567TIP3   OH2 7580   5.579   1.088   3.411
 2567TIP3    H1 7581   5.491   1.125   3.389
 2567TIP3    H2 7582   5.588   1.119   3.502
 2568TIP3   OH2 7583   5.817   1.064   3.270
 2568TIP3    H1 7584   5.730   1.079   3.314
 2568TIP3    H2 7585   5.799   1.096   3.179
 2569TIP3   OH2 7586   6.241   1.098   3.069
 2569TIP3    H1 7587   6.177   1.122   3.000
 2569TIP3    H2 7588   6.258   1.185   3.110
 2570TIP3   OH2 7589   6.510   1.039   3.116
 2570TIP3    H1 7590   6.415   1.056   3.096
 2570TIP3    H2 7591   6.552   1.116   3.076
 2571TIP3   OH2 7592   6.720   1.232   3.035
 2571TIP3    H1 7593   6.705   1.317   2.988
 2571TIP3    H2 7594   6.745   1.172   2.962
 2572TIP3   OH2 7595   5.491   0.889   3.160
 2572TIP3    H1 7596   5.520   0.864   3.250
 2572TIP3    H2 7597   5.561   0.844   3.107
 2573TIP3   OH2 7598   5.682   0.761   3.014
 2573TIP3    H1 7599   5.714   0.670   3.002
 2573TIP3    H2 7600   5.767   0.810   3.007
 2574TIP3   OH2 7601   5.944   0.855   3.019
 2574TIP3    H1 7602   5.996   0.783   2.980
 2574TIP3    H2 7603   5.994   0.874   3.100
 2575TIP3   OH2 7604   5.275   0.646   2.558
 2575TIP3    H1 7605   5.191   0.623   2.515
 2575TIP3    H2 7606   5.279   0.742   2.544
 2576TIP3   OH2 7607   6.055   0.850   2.131
 2576TIP3    H1 7608   6.144   0.868   2.093
 2576TIP3    H2 7609   6.030   0.774   2.074
 2577TIP3   OH2 7610   6.768   0.953   2.219
 2577TIP3    H1 7611   6.762   0.859   2.197
 2577TIP3    H2 7612   6.724   0.994   2.142
 2578TIP3   OH2 7613   5.355   0.686   2.192
 2578TIP3    H1 7614   5.368   0.723   2.281
 2578TIP3    H2 7615   5.443   0.645   2.176
 2579TIP3   OH2 7616   7.000   1.109   3.409
 2579TIP3    H1 7617   6.920   1.075   3.365
 2579TIP3    H2 7618   6.978   1.205   3.412
 2580TIP3   OH2 7619   8.228   0.479   2.550
 2580TIP3    H1 7620   8.283   0.457   2.627
 2580TIP3    H2 7621   8.207   0.393   2.511
 2581TIP3   OH2 7622   7.565   0.374   2.918
 2581TIP3    H1 7623   7.600   0.313   2.986
 2581TIP3    H2 7624   7.630   0.445   2.923
 2582TIP3   OH2 7625   7.530   0.784   2.653
 2582TIP3    H1 7626   7.521   0.686   2.658
 2582TIP3    H2 7627   7.626   0.792   2.643
 2583TIP3   OH2 7628   7.308   0.282   2.600
 2583TIP3    H1 7629   7.366   0.218   2.647
 2583TIP3    H2 7630   7.364   0.308   2.526
 2584TIP3   OH2 7631   8.148   1.248   2.254
 2584TIP3    H1 7632   8.212   1.179   2.226
 2584TIP3    H2 7633   8.127   1.219   2.344
 2585TIP3   OH2 7634   8.061   0.704   2.605
 2585TIP3    H1 7635   8.102   0.628   2.559
 2585TIP3    H2 7636   8.144   0.751   2.629
 2586TIP3   OH2 7637   7.461   0.096   2.728
 2586TIP3    H1 7638   7.535   0.064   2.783
 2586TIP3    H2 7639   7.472   0.036   2.652
 2587TIP3   OH2 7640   7.913   0.620   2.842
 2587TIP3    H1 7641   7.847   0.682   2.880
 2587TIP3    H2 7642   7.952   0.674   2.770
 2588TIP3   OH2 7643   7.680  -0.032   2.813
 2588TIP3    H1 7644   7.748   0.025   2.854
 2588TIP3    H2 7645   7.734  -0.100   2.770
 2589TIP3   OH2 7646   7.738   0.812   2.932
 2589TIP3    H1 7647   7.713   0.897   2.890
 2589TIP3    H2 7648   7.660   0.800   2.990
 2590TIP3   OH2 7649   7.141   0.533   2.148
 2590TIP3    H1 7650   7.046   0.511   2.153
 2590TIP3    H2 7651   7.150   0.601   2.217
 2591TIP3   OH2 7652   8.568   1.021   2.409
 2591TIP3    H1 7653   8.478   1.012   2.448
 2591TIP3    H2 7654   8.562   1.111   2.372
 2592TIP3   OH2 7655   8.335   1.088   2.139
 2592TIP3    H1 7656   8.355   0.998   2.109
 2592TIP3    H2 7657   8.375   1.144   2.069
 2593TIP3   OH2 7658   8.678   0.465   2.867
 2593TIP3    H1 7659   8.677   0.528   2.941
 2593TIP3    H2 7660   8.586   0.467   2.838
 2594TIP3   OH2 7661   7.671   0.434   2.418
 2594TIP3    H1 7662   7.620   0.425   2.334
 2594TIP3    H2 7663   7.730   0.357   2.408
 2595TIP3   OH2 7664   7.799   0.819   2.546
 2595TIP3    H1 7665   7.778   0.781   2.459
 2595TIP3    H2 7666   7.891   0.788   2.561
 2596TIP3   OH2 7667   7.821   0.379   2.751
 2596TIP3    H1 7668   7.846   0.385   2.658
 2596TIP3    H2 7669   7.851   0.467   2.784
 2597TIP3   OH2 7670   8.326   1.019   2.526
 2597TIP3    H1 7671   8.313   1.100   2.579
 2597TIP3    H2 7672   8.313   0.947   2.590
 2598TIP3   OH2 7673   7.945   0.941   3.071
 2598TIP3    H1 7674   7.887   1.002   3.121
 2598TIP3    H2 7675   7.878   0.886   3.026
 2599TIP3   OH2 7676   7.678   0.510   3.160
 2599TIP3    H1 7677   7.691   0.588   3.218
 2599TIP3    H2 7678   7.586   0.485   3.184
 2600TIP3   OH2 7679   7.964   0.994   2.133
 2600TIP3    H1 7680   8.058   1.013   2.129
 2600TIP3    H2 7681   7.928   1.044   2.059
 2601TIP3   OH2 7682   7.741   1.111   3.161
 2601TIP3    H1 7683   7.706   1.105   3.070
 2601TIP3    H2 7684   7.663   1.088   3.216
 2602TIP3   OH2 7685   7.320   0.638   3.108
 2602TIP3    H1 7686   7.257   0.616   3.037
 2602TIP3    H2 7687   7.356   0.550   3.133
 2603TIP3   OH2 7688   7.174   0.828   2.748
 2603TIP3    H1 7689   7.269   0.824   2.731
 2603TIP3    H2 7690   7.166   0.912   2.796
 2604TIP3   OH2 7691   8.146   1.068   2.930
 2604TIP3    H1 7692   8.146   1.161   2.963
 2604TIP3    H2 7693   8.074   1.029   2.985
 2605TIP3   OH2 7694   7.902   1.198   1.884
 2605TIP3    H1 7695   7.838   1.171   1.817
 2605TIP3    H2 7696   7.876   1.289   1.907
 2606TIP3   OH2 7697   7.344   1.053   2.265
 2606TIP3    H1 7698   7.392   1.040   2.350
 2606TIP3    H2 7699   7.290   0.971   2.265
 2607TIP3   OH2 7700   8.157   1.160   1.812
 2607TIP3    H1 7701   8.062   1.175   1.832
 2607TIP3    H2 7702   8.160   1.064   1.813
 2608TIP3   OH2 7703   7.525   0.822   3.101
 2608TIP3    H1 7704   7.577   0.803   3.183
 2608TIP3    H2 7705   7.452   0.757   3.108
 2609TIP3   OH2 7706   7.854   0.153   2.902
 2609TIP3    H1 7707   7.809   0.182   2.984
 2609TIP3    H2 7708   7.846   0.233   2.846
 2610TIP3   OH2 7709   8.419   0.452   3.181
 2610TIP3    H1 7710   8.401   0.402   3.264
 2610TIP3    H2 7711   8.511   0.475   3.199
 2611TIP3   OH2 7712   7.680   0.202   3.111
 2611TIP3    H1 7713   7.697   0.256   3.190
 2611TIP3    H2 7714   7.642   0.122   3.148
 2612TIP3   OH2 7715   8.392   0.405   2.791
 2612TIP3    H1 7716   8.439   0.325   2.766
 2612TIP3    H2 7717   8.362   0.377   2.881
 2613TIP3   OH2 7718   8.721   1.635   2.891
 2613TIP3    H1 7719   8.724   1.655   2.795
 2613TIP3    H2 7720   8.788   1.696   2.925
 2614TIP3   OH2 7721   7.687   0.742   3.318
 2614TIP3    H1 7722   7.768   0.771   3.365
 2614TIP3    H2 7723   7.623   0.741   3.392
 2615TIP3   OH2 7724   8.127   0.080   2.879
 2615TIP3    H1 7725   8.039   0.120   2.886
 2615TIP3    H2 7726   8.181   0.140   2.932
 2616TIP3   OH2 7727   8.278   0.807   2.954
 2616TIP3    H1 7728   8.277   0.771   3.044
 2616TIP3    H2 7729   8.226   0.889   2.964
 2617TIP3   OH2 7730   7.550   0.507   2.649
 2617TIP3    H1 7731   7.590   0.486   2.562
 2617TIP3    H2 7732   7.586   0.437   2.705
 2618TIP3   OH2 7733   7.432   0.427   3.249
 2618TIP3    H1 7734   7.456   0.412   3.342
 2618TIP3    H2 7735   7.363   0.360   3.236
 2619TIP3   OH2 7736   8.165   0.546   3.270
 2619TIP3    H1 7737   8.088   0.497   3.233
 2619TIP3    H2 7738   8.238   0.517   3.213
 2620TIP3   OH2 7739   8.426   1.062   2.846
 2620TIP3    H1 7740   8.330   1.057   2.860
 2620TIP3    H2 7741   8.453   1.112   2.925
 2621TIP3   OH2 7742   7.654   0.805   2.262
 2621TIP3    H1 7743   7.666   0.883   2.205
 2621TIP3    H2 7744   7.559   0.791   2.254
 2622TIP3   OH2 7745   7.833   0.584   2.242
 2622TIP3    H1 7746   7.791   0.670   2.221
 2622TIP3    H2 7747   7.765   0.543   2.297
 2623TIP3   OH2 7748   7.924   1.153   2.729
 2623TIP3    H1 7749   7.965   1.225   2.677
 2623TIP3    H2 7750   8.001   1.120   2.779
 2624TIP3   OH2 7751   7.580   1.047   2.112
 2624TIP3    H1 7752   7.492   1.052   2.155
 2624TIP3    H2 7753   7.608   1.141   2.116
 2625TIP3   OH2 7754   8.316   0.788   2.686
 2625TIP3    H1 7755   8.307   0.789   2.784
 2625TIP3    H2 7756   8.396   0.735   2.675
 2626TIP3   OH2 7757   8.555   1.320   2.736
 2626TIP3    H1 7758   8.473   1.267   2.723
 2626TIP3    H2 7759   8.545   1.386   2.664
 2627TIP3   OH2 7760   7.365   1.019   2.889
 2627TIP3    H1 7761   7.414   0.939   2.912
 2627TIP3    H2 7762   7.397   1.081   2.956
 2628TIP3   OH2 7763   8.345   0.244   3.008
 2628TIP3    H1 7764   8.340   0.315   3.075
 2628TIP3    H2 7765   8.388   0.174   3.057
 2629TIP3   OH2 7766   7.558   0.945   1.847
 2629TIP3    H1 7767   7.561   1.029   1.798
 2629TIP3    H2 7768   7.582   0.970   1.938
 2630TIP3   OH2 7769   8.599   1.299   2.336
 2630TIP3    H1 7770   8.553   1.347   2.262
 2630TIP3    H2 7771   8.678   1.264   2.291
 2631TIP3   OH2 7772   7.209   0.811   2.254
 2631TIP3    H1 7773   7.118   0.822   2.284
 2631TIP3    H2 7774   7.197   0.816   2.157
 2632TIP3   OH2 7775   7.352   1.319   3.309
 2632TIP3    H1 7776   7.439   1.317   3.354
 2632TIP3    H2 7777   7.331   1.224   3.305
 2633TIP3   OH2 7778   7.842   1.296   3.348
 2633TIP3    H1 7779   7.934   1.268   3.361
 2633TIP3    H2 7780   7.815   1.236   3.275
 2634TIP3   OH2 7781   8.481   1.192   3.083
 2634TIP3    H1 7782   8.466   1.123   3.153
 2634TIP3    H2 7783   8.552   1.245   3.121
 2635TIP3   OH2 7784   7.487   0.729   3.507
 2635TIP3    H1 7785   7.506   0.634   3.521
 2635TIP3    H2 7786   7.398   0.728   3.466
 2636TIP3   OH2 7787   8.099   0.815   3.280
 2636TIP3    H1 7788   8.050   0.820   3.196
 2636TIP3    H2 7789   8.128   0.721   3.281
 2637TIP3   OH2 7790   8.595   0.822   2.882
 2637TIP3    H1 7791   8.640   0.876   2.817
 2637TIP3    H2 7792   8.510   0.868   2.889
 2638TIP3   OH2 7793   7.608   0.454   3.509
 2638TIP3    H1 7794   7.687   0.408   3.477
 2638TIP3    H2 7795   7.638   0.474   3.600
 2639TIP3   OH2 7796   7.937   0.430   3.162
 2639TIP3    H1 7797   7.844   0.460   3.154
 2639TIP3    H2 7798   7.963   0.412   3.070
 2640TIP3   OH2 7799   8.457   0.754   3.289
 2640TIP3    H1 7800   8.540   0.731   3.245
 2640TIP3    H2 7801   8.451   0.686   3.359
 2641TIP3   OH2 7802   8.031   0.178   3.161
 2641TIP3    H1 7803   8.012   0.130   3.243
 2641TIP3    H2 7804   7.996   0.267   3.185
 2642TIP3   OH2 7805   8.123   0.469   2.939
 2642TIP3    H1 7806   8.186   0.478   2.868
 2642TIP3    H2 7807   8.052   0.530   2.912
 2643TIP3   OH2 7808   8.680   0.436   3.334
 2643TIP3    H1 7809   8.717   0.348   3.343
 2643TIP3    H2 7810   8.756   0.493   3.318
 2644TIP3   OH2 7811   8.733   0.686   3.070
 2644TIP3    H1 7812   8.667   0.735   3.017
 2644TIP3    H2 7813   8.810   0.697   3.013
 2645TIP3   OH2 7814   7.912   0.246   3.429
 2645TIP3    H1 7815   7.858   0.213   3.501
 2645TIP3    H2 7816   8.002   0.228   3.460
 2646TIP3   OH2 7817   8.389   0.299   3.393
 2646TIP3    H1 7818   8.378   0.292   3.489
 2646TIP3    H2 7819   8.329   0.229   3.362
 2647TIP3   OH2 7820   7.581   1.158   1.670
 2647TIP3    H1 7821   7.648   1.226   1.682
 2647TIP3    H2 7822   7.532   1.197   1.596
 2648TIP3   OH2 7823   6.969   1.133   2.293
 2648TIP3    H1 7824   6.902   1.068   2.263
 2648TIP3    H2 7825   7.015   1.082   2.363
 2649TIP3   OH2 7826   7.100   0.999   2.488
 2649TIP3    H1 7827   7.099   0.914   2.534
 2649TIP3    H2 7828   7.157   1.052   2.547
 2650TIP3   OH2 7829   8.723   1.119   2.622
 2650TIP3    H1 7830   8.654   1.178   2.658
 2650TIP3    H2 7831   8.676   1.075   2.549
 2651TIP3   OH2 7832   7.298   0.391   2.858
 2651TIP3    H1 7833   7.295   0.368   2.762
 2651TIP3    H2 7834   7.396   0.393   2.871
 2652TIP3   OH2 7835   7.290   0.052   2.940
 2652TIP3    H1 7836   7.343   0.049   2.858
 2652TIP3    H2 7837   7.306   0.144   2.967
 2653TIP3   OH2 7838   8.452   1.237   1.941
 2653TIP3    H1 7839   8.462   1.243   1.844
 2653TIP3    H2 7840   8.453   1.330   1.966
 2654TIP3   OH2 7841   7.521   1.060   3.330
 2654TIP3    H1 7842   7.431   1.026   3.312
 2654TIP3    H2 7843   7.533   1.034   3.423
 2655TIP3   OH2 7844   7.697   1.085   2.876
 2655TIP3    H1 7845   7.648   1.160   2.837
 2655TIP3    H2 7846   7.783   1.100   2.832
 2656TIP3   OH2 7847   8.148   1.334   3.014
 2656TIP3    H1 7848   8.188   1.337   3.103
 2656TIP3    H2 7849   8.214   1.385   2.962
 2657TIP3   OH2 7850   8.326   1.483   2.869
 2657TIP3    H1 7851   8.398   1.433   2.829
 2657TIP3    H2 7852   8.375   1.541   2.930
 2658TIP3   OH2 7853   7.378   1.349   2.896
 2658TIP3    H1 7854   7.289   1.384   2.873
 2658TIP3    H2 7855   7.381   1.371   2.989
 2659TIP3   OH2 7856   7.614   1.326   2.755
 2659TIP3    H1 7857   7.528   1.339   2.801
 2659TIP3    H2 7858   7.593   1.357   2.665
 2660TIP3   OH2 7859   8.041   1.357   2.550
 2660TIP3    H1 7860   7.968   1.378   2.488
 2660TIP3    H2 7861   8.052   1.444   2.595
 2661TIP3   OH2 7862   8.306   1.294   2.602
 2661TIP3    H1 7863   8.211   1.310   2.582
 2661TIP3    H2 7864   8.347   1.374   2.565
 2662TIP3   OH2 7865   8.516   1.484   2.526
 2662TIP3    H1 7866   8.499   1.570   2.481
 2662TIP3    H2 7867   8.540   1.426   2.451
 2663TIP3   OH2 7868   7.288   1.142   2.646
 2663TIP3    H1 7869   7.316   1.117   2.737
 2663TIP3    H2 7870   7.359   1.097   2.594
 2664TIP3   OH2 7871   7.479   1.013   2.500
 2664TIP3    H1 7872   7.496   0.927   2.544
 2664TIP3    H2 7873   7.569   1.050   2.492
 2665TIP3   OH2 7874   7.745   1.112   2.499
 2665TIP3    H1 7875   7.778   1.023   2.478
 2665TIP3    H2 7876   7.786   1.126   2.586
 2666TIP3   OH2 7877   7.076   0.905   2.032
 2666TIP3    H1 7878   6.989   0.877   1.998
 2666TIP3    H2 7879   7.065   1.001   2.032
 2667TIP3   OH2 7880   7.174   0.967   1.696
 2667TIP3    H1 7881   7.148   0.996   1.785
 2667TIP3    H2 7882   7.248   0.907   1.716
 2668TIP3   OH2 7883   8.765   1.368   2.909
 2668TIP3    H1 7884   8.699   1.326   2.849
 2668TIP3    H2 7885   8.739   1.462   2.897
 2669TIP3   OH2 7886   0.957   1.554   3.934
 2669TIP3    H1 7887   0.951   1.497   4.012
 2669TIP3    H2 7888   0.981   1.639   3.974
 2670TIP3   OH2 7889   0.607   2.035   3.942
 2670TIP3    H1 7890   0.648   1.956   3.899
 2670TIP3    H2 7891   0.586   2.001   4.030
 2671TIP3   OH2 7892   0.518   1.486   4.318
 2671TIP3    H1 7893   0.525   1.440   4.234
 2671TIP3    H2 7894   0.607   1.526   4.328
 2672TIP3   OH2 7895   1.522   0.813   4.296
 2672TIP3    H1 7896   1.555   0.896   4.337
 2672TIP3    H2 7897   1.542   0.830   4.202
 2673TIP3   OH2 7898   1.598   1.021   4.464
 2673TIP3    H1 7899   1.516   1.070   4.445
 2673TIP3    H2 7900   1.609   1.041   4.558
 2674TIP3   OH2 7901   0.369   1.410   4.539
 2674TIP3    H1 7902   0.301   1.474   4.567
 2674TIP3    H2 7903   0.409   1.453   4.460
 2675TIP3   OH2 7904   0.187   1.605   4.621
 2675TIP3    H1 7905   0.164   1.693   4.586
 2675TIP3    H2 7906   0.108   1.586   4.676
 2676TIP3   OH2 7907   1.030   1.809   4.095
 2676TIP3    H1 7908   0.942   1.800   4.138
 2676TIP3    H2 7909   1.020   1.898   4.054
 2677TIP3   OH2 7910   1.317   0.710   4.458
 2677TIP3    H1 7911   1.238   0.766   4.445
 2677TIP3    H2 7912   1.376   0.741   4.386
 2678TIP3   OH2 7913   0.746   1.854   3.785
 2678TIP3    H1 7914   0.822   1.795   3.781
 2678TIP3    H2 7915   0.777   1.926   3.725
 2679TIP3   OH2 7916   1.256   1.728   4.440
 2679TIP3    H1 7917   1.244   1.649   4.383
 2679TIP3    H2 7918   1.238   1.801   4.377
 2680TIP3   OH2 7919   1.450   1.361   4.285
 2680TIP3    H1 7920   1.367   1.413   4.292
 2680TIP3    H2 7921   1.478   1.384   4.194
 2681TIP3   OH2 7922   1.134   1.247   4.577
 2681TIP3    H1 7923   1.127   1.329   4.629
 2681TIP3    H2 7924   1.043   1.243   4.538
 2682TIP3   OH2 7925   0.792   1.806   4.218
 2682TIP3    H1 7926   0.772   1.887   4.270
 2682TIP3    H2 7927   0.774   1.734   4.282
 2683TIP3   OH2 7928   0.399   1.728   4.763
 2683TIP3    H1 7929   0.338   1.790   4.809
 2683TIP3    H2 7930   0.335   1.672   4.715
 2684TIP3   OH2 7931   0.149   1.289   4.853
 2684TIP3    H1 7932   0.148   1.373   4.902
 2684TIP3    H2 7933   0.055   1.272   4.837
 2685TIP3   OH2 7934   0.193   1.896   4.850
 2685TIP3    H1 7935   0.158   1.897   4.759
 2685TIP3    H2 7936   0.114   1.875   4.904
 2686TIP3   OH2 7937   1.492   2.067   4.483
 2686TIP3    H1 7938   1.491   1.971   4.498
 2686TIP3    H2 7939   1.409   2.093   4.529
 2687TIP3   OH2 7940   0.598   1.857   4.619
 2687TIP3    H1 7941   0.599   1.950   4.653
 2687TIP3    H2 7942   0.526   1.818   4.675
 2688TIP3   OH2 7943   1.383   1.204   4.757
 2688TIP3    H1 7944   1.301   1.216   4.708
 2688TIP3    H2 7945   1.395   1.107   4.751
 2689TIP3   OH2 7946  -0.030   1.593   4.792
 2689TIP3    H1 7947   0.032   1.595   4.868
 2689TIP3    H2 7948  -0.105   1.544   4.829
 2690TIP3   OH2 7949   0.908   0.562   4.773
 2690TIP3    H1 7950   0.986   0.524   4.819
 2690TIP3    H2 7951   0.834   0.532   4.826
 2691TIP3   OH2 7952   1.160   0.982   4.685
 2691TIP3    H1 7953   1.106   0.969   4.766
 2691TIP3    H2 7954   1.122   1.064   4.649
 2692TIP3   OH2 7955   0.859   1.211   4.928
 2692TIP3    H1 7956   0.840   1.131   4.983
 2692TIP3    H2 7957   0.956   1.217   4.940
 2693TIP3   OH2 7958   0.876   1.203   4.487
 2693TIP3    H1 7959   0.868   1.122   4.434
 2693TIP3    H2 7960   0.840   1.168   4.572
 2694TIP3   OH2 7961   1.178   2.420   4.584
 2694TIP3    H1 7962   1.178   2.442   4.489
 2694TIP3    H2 7963   1.255   2.470   4.615
 2695TIP3   OH2 7964   0.142   1.542   5.006
 2695TIP3    H1 7965   0.230   1.576   5.032
 2695TIP3    H2 7966   0.112   1.516   5.094
 2696TIP3   OH2 7967   1.220   1.510   4.277
 2696TIP3    H1 7968   1.246   1.558   4.195
 2696TIP3    H2 7969   1.132   1.474   4.253
 2697TIP3   OH2 7970   0.732   1.600   4.640
 2697TIP3    H1 7971   0.729   1.556   4.726
 2697TIP3    H2 7972   0.676   1.678   4.653
 2698TIP3   OH2 7973   0.610   1.326   4.958
 2698TIP3    H1 7974   0.549   1.269   4.907
 2698TIP3    H2 7975   0.697   1.293   4.927
 2699TIP3   OH2 7976   0.880   1.855   4.534
 2699TIP3    H1 7977   0.784   1.844   4.550
 2699TIP3    H2 7978   0.906   1.902   4.616
 2700TIP3   OH2 7979   1.506   1.777   4.529
 2700TIP3    H1 7980   1.408   1.773   4.523
 2700TIP3    H2 7981   1.530   1.746   4.439
 2701TIP3   OH2 7982   0.982   1.381   4.194
 2701TIP3    H1 7983   0.900   1.355   4.238
 2701TIP3    H2 7984   1.021   1.292   4.180
 2702TIP3   OH2 7985   0.378   1.937   4.425
 2702TIP3    H1 7986   0.412   2.009   4.368
 2702TIP3    H2 7987   0.459   1.908   4.470
 2703TIP3   OH2 7988   0.777   1.569   4.374
 2703TIP3    H1 7989   0.760   1.575   4.471
 2703TIP3    H2 7990   0.866   1.531   4.374
 2704TIP3   OH2 7991   1.018   2.110   4.426
 2704TIP3    H1 7992   0.940   2.052   4.421
 2704TIP3    H2 7993   0.999   2.174   4.354
 2705TIP3   OH2 7994  -0.191   1.797   4.606
 2705TIP3    H1 7995  -0.127   1.725   4.616
 2705TIP3    H2 7996  -0.145   1.872   4.643
 2706TIP3   OH2 7997   0.935   0.790   4.619
 2706TIP3    H1 7998   1.015   0.819   4.665
 2706TIP3    H2 7999   0.916   0.705   4.665
 2707TIP3   OH2 8000   0.803   1.055   4.694
 2707TIP3    H1 8001   0.790   1.092   4.783
 2707TIP3    H2 8002   0.823   0.961   4.712
 2708TIP3   OH2 8003   1.424   0.932   4.679
 2708TIP3    H1 8004   1.326   0.934   4.690
 2708TIP3    H2 8005   1.431   0.898   4.589
 2709TIP3   OH2 8006   1.043   1.121   4.150
 2709TIP3    H1 8007   0.995   1.041   4.124
 2709TIP3    H2 8008   1.133   1.084   4.167
 2710TIP3   OH2 8009   1.036   2.081   4.019
 2710TIP3    H1 8010   0.993   2.129   3.945
 2710TIP3    H2 8011   1.130   2.101   3.997
 2711TIP3   OH2 8012  -0.179   2.113   4.978
 2711TIP3    H1 8013  -0.103   2.118   5.040
 2711TIP3    H2 8014  -0.214   2.026   4.997
 2712TIP3   OH2 8015   0.294   2.082   5.039
 2712TIP3    H1 8016   0.387   2.059   5.051
 2712TIP3    H2 8017   0.269   2.024   4.965
 2713TIP3   OH2 8018   0.932   1.981   4.773
 2713TIP3    H1 8019   0.919   1.912   4.843
 2713TIP3    H2 8020   1.007   2.032   4.807
 2714TIP3   OH2 8021   0.547   1.600   4.970
 2714TIP3    H1 8022   0.505   1.612   4.882
 2714TIP3    H2 8023   0.578   1.507   4.966
 2715TIP3   OH2 8024   1.040   1.603   4.572
 2715TIP3    H1 8025   1.110   1.658   4.532
 2715TIP3    H2 8026   0.964   1.663   4.571
 2716TIP3   OH2 8027   0.395   1.150   4.853
 2716TIP3    H1 8028   0.307   1.192   4.845
 2716TIP3    H2 8029   0.434   1.168   4.765
 2717TIP3   OH2 8030   0.911   1.542   4.979
 2717TIP3    H1 8031   0.989   1.519   4.928
 2717TIP3    H2 8032   0.906   1.468   5.043
 2718TIP3   OH2 8033   0.553   0.937   4.953
 2718TIP3    H1 8034   0.499   0.865   4.916
 2718TIP3    H2 8035   0.491   1.012   4.935
 2719TIP3   OH2 8036   0.561   1.261   4.655
 2719TIP3    H1 8037   0.624   1.246   4.583
 2719TIP3    H2 8038   0.493   1.317   4.611
 2720TIP3   OH2 8039   1.131   1.216   5.032
 2720TIP3    H1 8040   1.177   1.131   5.040
 2720TIP3    H2 8041   1.201   1.274   4.999
 2721TIP3   OH2 8042   1.171   1.467   4.766
 2721TIP3    H1 8043   1.111   1.517   4.705
 2721TIP3    H2 8044   1.257   1.486   4.724
 2722TIP3   OH2 8045   0.798   0.983   5.060
 2722TIP3    H1 8046   0.785   0.984   5.156
 2722TIP3    H2 8047   0.707   0.964   5.026
 2723TIP3   OH2 8048   1.023   0.929   4.910
 2723TIP3    H1 8049   0.945   0.934   4.969
 2723TIP3    H2 8050   1.093   0.896   4.970
 2724TIP3   OH2 8051   1.251   0.868   5.065
 2724TIP3    H1 8052   1.259   0.773   5.086
 2724TIP3    H2 8053   1.243   0.910   5.153
 2725TIP3   OH2 8054   1.286   2.177   3.971
 2725TIP3    H1 8055   1.314   2.207   4.060
 2725TIP3    H2 8056   1.347   2.224   3.913
 2726TIP3   OH2 8057   1.321   2.196   4.252
 2726TIP3    H1 8058   1.275   2.109   4.249
 2726TIP3    H2 8059   1.392   2.174   4.314
 2727TIP3   OH2 8060   1.364   1.872   4.826
 2727TIP3    H1 8061   1.290   1.879   4.890
 2727TIP3    H2 8062   1.404   1.961   4.833
 2728TIP3   OH2 8063   1.308   1.259   3.643
 2728TIP3    H1 8064   1.259   1.205   3.706
 2728TIP3    H2 8065   1.384   1.289   3.696
 2729TIP3   OH2 8066   1.360   1.643   4.085
 2729TIP3    H1 8067   1.413   1.580   4.032
 2729TIP3    H2 8068   1.347   1.717   4.023
 2730TIP3   OH2 8069   1.195   1.946   4.280
 2730TIP3    H1 8070   1.124   1.986   4.334
 2730TIP3    H2 8071   1.144   1.896   4.212
 2731TIP3   OH2 8072   1.412   1.533   4.655
 2731TIP3    H1 8073   1.485   1.468   4.647
 2731TIP3    H2 8074   1.441   1.604   4.595
 2732TIP3   OH2 8075   1.600   1.343   4.678
 2732TIP3    H1 8076   1.525   1.292   4.716
 2732TIP3    H2 8077   1.672   1.277   4.691
 2733TIP3   OH2 8078   1.287   1.012   4.194
 2733TIP3    H1 8079   1.374   1.030   4.151
 2733TIP3    H2 8080   1.307   1.043   4.284
 2734TIP3   OH2 8081   1.349   1.143   4.426
 2734TIP3    H1 8082   1.271   1.177   4.475
 2734TIP3    H2 8083   1.381   1.224   4.381
 2735TIP3   OH2 8084   1.803   0.733   4.979
 2735TIP3    H1 8085   1.859   0.666   4.934
 2735TIP3    H2 8086   1.774   0.790   4.905
 2736TIP3   OH2 8087   1.676   0.876   4.787
 2736TIP3    H1 8088   1.588   0.913   4.810
 2736TIP3    H2 8089   1.648   0.805   4.727
 2737TIP3   OH2 8090   0.868   2.049   3.636
 2737TIP3    H1 8091   0.913   2.026   3.553
 2737TIP3    H2 8092   0.930   2.112   3.677
 2738TIP3   OH2 8093  -0.032   1.834   5.022
 2738TIP3    H1 8094  -0.115   1.786   5.008
 2738TIP3    H2 8095  -0.025   1.837   5.118
 2739TIP3   OH2 8096   0.147   1.874   4.566
 2739TIP3    H1 8097   0.101   1.951   4.526
 2739TIP3    H2 8098   0.235   1.889   4.524
 2740TIP3   OH2 8099   0.600   2.123   4.704
 2740TIP3    H1 8100   0.641   2.125   4.793
 2740TIP3    H2 8101   0.666   2.173   4.651
 2741TIP3   OH2 8102   0.778   2.272   4.559
 2741TIP3    H1 8103   0.849   2.219   4.520
 2741TIP3    H2 8104   0.828   2.329   4.621
 2742TIP3   OH2 8105   1.573   0.638   4.662
 2742TIP3    H1 8106   1.481   0.635   4.631
 2742TIP3    H2 8107   1.600   0.544   4.649
 2743TIP3   OH2 8108  -0.169   2.143   4.585
 2743TIP3    H1 8109  -0.261   2.171   4.567
 2743TIP3    H2 8110  -0.164   2.157   4.680
 2744TIP3   OH2 8111   0.070   2.117   4.450
 2744TIP3    H1 8112  -0.018   2.131   4.491
 2744TIP3    H2 8113   0.053   2.137   4.356
 2745TIP3   OH2 8114   0.495   2.144   4.242
 2745TIP3    H1 8115   0.420   2.160   4.182
 2745TIP3    H2 8116   0.504   2.232   4.284
 2746TIP3   OH2 8117   0.760   2.084   4.292
 2746TIP3    H1 8118   0.665   2.097   4.274
 2746TIP3    H2 8119   0.798   2.164   4.253
 2747TIP3   OH2 8120   0.974   2.279   4.212
 2747TIP3    H1 8121   0.956   2.362   4.163
 2747TIP3    H2 8122   0.993   2.216   4.140
 2748TIP3   OH2 8123   0.201   1.939   4.196
 2748TIP3    H1 8124   0.204   1.861   4.137
 2748TIP3    H2 8125   0.243   1.907   4.278
 2749TIP3   OH2 8126   1.008   2.002   3.388
 2749TIP3    H1 8127   0.999   1.909   3.364
 2749TIP3    H2 8128   0.965   2.046   3.311
 2750TIP3   OH2 8129   1.302   0.597   5.098
 2750TIP3    H1 8130   1.324   0.567   5.189
 2750TIP3    H2 8131   1.388   0.592   5.053
 2751TIP3   OH2 8132   1.248   2.153   4.586
 2751TIP3    H1 8133   1.168   2.118   4.542
 2751TIP3    H2 8134   1.225   2.248   4.590
 2752TIP3   OH2 8135   2.513   1.525   3.359
 2752TIP3    H1 8136   2.485   1.617   3.339
 2752TIP3    H2 8137   2.438   1.476   3.320
 2753TIP3   OH2 8138   2.507   1.524   3.732
 2753TIP3    H1 8139   2.537   1.490   3.818
 2753TIP3    H2 8140   2.467   1.445   3.693
 2754TIP3   OH2 8141   1.811   1.421   4.097
 2754TIP3    H1 8142   1.842   1.354   4.162
 2754TIP3    H2 8143   1.888   1.480   4.095
 2755TIP3   OH2 8144   2.749   1.826   3.414
 2755TIP3    H1 8145   2.740   1.752   3.476
 2755TIP3    H2 8146   2.780   1.898   3.471
 2756TIP3   OH2 8147   1.778   1.828   3.827
 2756TIP3    H1 8148   1.770   1.730   3.831
 2756TIP3    H2 8149   1.875   1.836   3.824
 2757TIP3   OH2 8150   1.550   1.320   3.778
 2757TIP3    H1 8151   1.599   1.244   3.818
 2757TIP3    H2 8152   1.600   1.336   3.698
 2758TIP3   OH2 8153   2.399   2.288   3.430
 2758TIP3    H1 8154   2.448   2.217   3.384
 2758TIP3    H2 8155   2.392   2.252   3.520
 2759TIP3   OH2 8156   2.310   1.749   3.781
 2759TIP3    H1 8157   2.344   1.671   3.734
 2759TIP3    H2 8158   2.395   1.792   3.804
 2760TIP3   OH2 8159   3.317   1.071   3.778
 2760TIP3    H1 8160   3.347   1.152   3.824
 2760TIP3    H2 8161   3.342   1.090   3.687
 2761TIP3   OH2 8162   2.721   1.254   3.818
 2761TIP3    H1 8163   2.763   1.168   3.838
 2761TIP3    H2 8164   2.691   1.238   3.726
 2762TIP3   OH2 8165   2.057   0.912   3.785
 2762TIP3    H1 8166   2.034   0.982   3.720
 2762TIP3    H2 8167   2.015   0.834   3.744
 2763TIP3   OH2 8168   2.749   0.999   3.406
 2763TIP3    H1 8169   2.822   0.983   3.471
 2763TIP3    H2 8170   2.801   1.036   3.332
 2764TIP3   OH2 8171   1.695   1.115   3.888
 2764TIP3    H1 8172   1.775   1.095   3.940
 2764TIP3    H2 8173   1.709   1.055   3.811
 2765TIP3   OH2 8174   2.134   1.311   3.676
 2765TIP3    H1 8175   2.227   1.285   3.692
 2765TIP3    H2 8176   2.094   1.226   3.647
 2766TIP3   OH2 8177   3.392   1.275   3.950
 2766TIP3    H1 8178   3.310   1.324   3.932
 2766TIP3    H2 8179   3.408   1.300   4.043
 2767TIP3   OH2 8180   2.055   0.894   4.215
 2767TIP3    H1 8181   1.993   0.931   4.149
 2767TIP3    H2 8182   2.005   0.910   4.297
 2768TIP3   OH2 8183   2.411   1.748   3.224
 2768TIP3    H1 8184   2.361   1.714   3.149
 2768TIP3    H2 8185   2.364   1.831   3.242
 2769TIP3   OH2 8186   2.162   1.668   4.015
 2769TIP3    H1 8187   2.096   1.729   4.054
 2769TIP3    H2 8188   2.202   1.723   3.944
 2770TIP3   OH2 8189   2.965   1.001   3.571
 2770TIP3    H1 8190   2.960   0.947   3.651
 2770TIP3    H2 8191   3.021   1.076   3.600
 2771TIP3   OH2 8192   1.924   1.010   4.002
 2771TIP3    H1 8193   1.988   1.082   4.025
 2771TIP3    H2 8194   1.973   0.969   3.927
 2772TIP3   OH2 8195   1.987   1.859   4.108
 2772TIP3    H1 8196   1.961   1.944   4.069
 2772TIP3    H2 8197   1.909   1.844   4.166
 2773TIP3   OH2 8198   1.390   1.557   3.350
 2773TIP3    H1 8199   1.353   1.584   3.265
 2773TIP3    H2 8200   1.424   1.641   3.387
 2774TIP3   OH2 8201   2.824   2.066   3.586
 2774TIP3    H1 8202   2.734   2.057   3.625
 2774TIP3    H2 8203   2.815   2.151   3.539
 2775TIP3   OH2 8204   3.113   0.972   3.948
 2775TIP3    H1 8205   3.025   1.001   3.917
 2775TIP3    H2 8206   3.172   1.001   3.875
 2776TIP3   OH2 8207   2.417   0.615   3.927
 2776TIP3    H1 8208   2.404   0.520   3.947
 2776TIP3    H2 8209   2.338   0.652   3.971
 2777TIP3   OH2 8210   2.532   2.116   3.263
 2777TIP3    H1 8211   2.580   2.033   3.240
 2777TIP3    H2 8212   2.591   2.181   3.218
 2778TIP3   OH2 8213   2.672   1.900   3.160
 2778TIP3    H1 8214   2.626   1.823   3.125
 2778TIP3    H2 8215   2.704   1.865   3.246
 2779TIP3   OH2 8216   3.050   1.983   3.929
 2779TIP3    H1 8217   3.042   1.903   3.872
 2779TIP3    H2 8218   3.038   2.055   3.863
 2780TIP3   OH2 8219   2.346   1.386   3.187
 2780TIP3    H1 8220   2.258   1.420   3.161
 2780TIP3    H2 8221   2.386   1.370   3.100
 2781TIP3   OH2 8222   2.325   1.138   2.998
 2781TIP3    H1 8223   2.398   1.203   2.995
 2781TIP3    H2 8224   2.353   1.077   2.928
 2782TIP3   OH2 8225   3.244   1.615   3.770
 2782TIP3    H1 8226   3.163   1.670   3.777
 2782TIP3    H2 8227   3.274   1.639   3.680
 2783TIP3   OH2 8228   2.691   1.463   3.160
 2783TIP3    H1 8229   2.635   1.485   3.238
 2783TIP3    H2 8230   2.773   1.432   3.204
 2784TIP3   OH2 8231   2.925   1.500   4.064
 2784TIP3    H1 8232   2.921   1.583   4.115
 2784TIP3    H2 8233   2.837   1.502   4.020
 2785TIP3   OH2 8234   1.921   1.454   3.569
 2785TIP3    H1 8235   1.884   1.394   3.502
 2785TIP3    H2 8236   1.999   1.403   3.600
 2786TIP3   OH2 8237   2.053   1.870   3.720
 2786TIP3    H1 8238   2.029   1.818   3.642
 2786TIP3    H2 8239   2.143   1.836   3.740
 2787TIP3   OH2 8240   2.062   1.426   3.927
 2787TIP3    H1 8241   2.093   1.409   3.836
 2787TIP3    H2 8242   2.102   1.513   3.948
 2788TIP3   OH2 8243   2.582   2.066   3.704
 2788TIP3    H1 8244   2.570   2.142   3.764
 2788TIP3    H2 8245   2.570   1.989   3.764
 2789TIP3   OH2 8246   2.194   1.986   4.248
 2789TIP3    H1 8247   2.135   2.047   4.298
 2789TIP3    H2 8248   2.128   1.931   4.203
 2790TIP3   OH2 8249   2.540   1.313   2.989
 2790TIP3    H1 8250   2.595   1.377   3.040
 2790TIP3    H2 8251   2.559   1.339   2.896
 2791TIP3   OH2 8252   1.947   1.545   4.346
 2791TIP3    H1 8253   1.951   1.628   4.397
 2791TIP3    H2 8254   1.852   1.523   4.357
 2792TIP3   OH2 8255   2.270   1.998   3.252
 2792TIP3    H1 8256   2.345   2.051   3.283
 2792TIP3    H2 8257   2.207   2.066   3.223
 2793TIP3   OH2 8258   1.990   2.155   4.337
 2793TIP3    H1 8259   1.953   2.149   4.247
 2793TIP3    H2 8260   1.911   2.133   4.393
 2794TIP3   OH2 8261   3.047   0.558   3.027
 2794TIP3    H1 8262   2.966   0.570   3.082
 2794TIP3    H2 8263   3.053   0.646   2.985
 2795TIP3   OH2 8264   1.793   1.283   3.365
 2795TIP3    H1 8265   1.726   1.348   3.334
 2795TIP3    H2 8266   1.737   1.214   3.404
 2796TIP3   OH2 8267   2.843   1.925   2.574
 2796TIP3    H1 8268   2.851   2.023   2.564
 2796TIP3    H2 8269   2.936   1.897   2.565
 2797TIP3   OH2 8270   1.570   1.682   4.284
 2797TIP3    H1 8271   1.505   1.657   4.215
 2797TIP3    H2 8272   1.606   1.595   4.312
 2798TIP3   OH2 8273   1.422   1.876   3.917
 2798TIP3    H1 8274   1.518   1.868   3.910
 2798TIP3    H2 8275   1.412   1.954   3.972
 2799TIP3   OH2 8276   3.254   2.318   3.974
 2799TIP3    H1 8277   3.294   2.231   3.957
 2799TIP3    H2 8278   3.207   2.298   4.055
 2800TIP3   OH2 8279   2.394   2.113   4.107
 2800TIP3    H1 8280   2.394   2.205   4.140
 2800TIP3    H2 8281   2.322   2.074   4.161
 2801TIP3   OH2 8282   2.150   2.243   3.058
 2801TIP3    H1 8283   2.106   2.226   2.973
 2801TIP3    H2 8284   2.121   2.333   3.081
 2802TIP3   OH2 8285   1.593   2.093   3.440
 2802TIP3    H1 8286   1.639   2.081   3.526
 2802TIP3    H2 8287   1.530   2.018   3.444
 2803TIP3   OH2 8288   2.355   2.141   2.702
 2803TIP3    H1 8289   2.417   2.073   2.666
 2803TIP3    H2 8290   2.390   2.151   2.793
 2804TIP3   OH2 8291   2.403   2.189   2.972
 2804TIP3    H1 8292   2.316   2.200   3.016
 2804TIP3    H2 8293   2.454   2.146   3.043
 2805TIP3   OH2 8294   3.177   1.457   4.247
 2805TIP3    H1 8295   3.098   1.471   4.192
 2805TIP3    H2 8296   3.192   1.361   4.235
 2806TIP3   OH2 8297   1.774   1.866   4.277
 2806TIP3    H1 8298   1.824   1.848   4.359
 2806TIP3    H2 8299   1.701   1.801   4.284
 2807TIP3   OH2 8300   2.174   0.690   4.054
 2807TIP3    H1 8301   2.085   0.657   4.030
 2807TIP3    H2 8302   2.149   0.773   4.099
 2808TIP3   OH2 8303   2.706   0.806   4.250
 2808TIP3    H1 8304   2.772   0.777   4.316
 2808TIP3    H2 8305   2.620   0.785   4.294
 2809TIP3   OH2 8306   2.949   1.234   4.169
 2809TIP3    H1 8307   2.899   1.229   4.254
 2809TIP3    H2 8308   2.923   1.321   4.134
 2810TIP3   OH2 8309   2.617   1.368   2.731
 2810TIP3    H1 8310   2.581   1.352   2.642
 2810TIP3    H2 8311   2.694   1.425   2.711
 2811TIP3   OH2 8312   2.106   1.204   4.077
 2811TIP3    H1 8313   2.054   1.226   4.157
 2811TIP3    H2 8314   2.089   1.284   4.022
 2812TIP3   OH2 8315   1.986   1.090   3.591
 2812TIP3    H1 8316   1.891   1.071   3.599
 2812TIP3    H2 8317   2.006   1.050   3.503
 2813TIP3   OH2 8318   2.484   1.183   3.315
 2813TIP3    H1 8319   2.426   1.252   3.276
 2813TIP3    H2 8320   2.529   1.150   3.235
 2814TIP3   OH2 8321   2.653   1.458   4.406
 2814TIP3    H1 8322   2.631   1.385   4.467
 2814TIP3    H2 8323   2.747   1.471   4.426
 2815TIP3   OH2 8324   2.638   1.208   3.557
 2815TIP3    H1 8325   2.580   1.238   3.484
 2815TIP3    H2 8326   2.670   1.124   3.517
 2816TIP3   OH2 8327   1.924   1.234   4.285
 2816TIP3    H1 8328   1.947   1.297   4.355
 2816TIP3    H2 8329   1.911   1.151   4.335
 2817TIP3   OH2 8330   2.649   1.455   3.981
 2817TIP3    H1 8331   2.681   1.381   3.924
 2817TIP3    H2 8332   2.620   1.404   4.060
 2818TIP3   OH2 8333   2.315   0.920   3.653
 2818TIP3    H1 8334   2.232   0.911   3.703
 2818TIP3    H2 8335   2.381   0.914   3.723
 2819TIP3   OH2 8336   1.746   0.963   3.668
 2819TIP3    H1 8337   1.656   0.959   3.631
 2819TIP3    H2 8338   1.783   0.878   3.639
 2820TIP3   OH2 8339   2.052   0.980   3.355
 2820TIP3    H1 8340   2.149   0.983   3.340
 2820TIP3    H2 8341   2.015   1.016   3.274
 2821TIP3   OH2 8342   2.806   0.989   3.852
 2821TIP3    H1 8343   2.770   1.000   3.943
 2821TIP3    H2 8344   2.744   0.925   3.814
 2822TIP3   OH2 8345   1.936   1.789   4.494
 2822TIP3    H1 8346   2.015   1.818   4.544
 2822TIP3    H2 8347   1.871   1.785   4.567
 2823TIP3   OH2 8348   2.400   1.241   3.750
 2823TIP3    H1 8349   2.470   1.198   3.697
 2823TIP3    H2 8350   2.412   1.199   3.837
 2824TIP3   OH2 8351   1.947   0.709   3.636
 2824TIP3    H1 8352   1.958   0.616   3.661
 2824TIP3    H2 8353   2.008   0.715   3.561
 2825TIP3   OH2 8354   2.377   1.134   4.040
 2825TIP3    H1 8355   2.287   1.171   4.052
 2825TIP3    H2 8356   2.434   1.194   4.091
 2826TIP3   OH2 8357   2.113   1.551   3.133
 2826TIP3    H1 8358   2.066   1.464   3.133
 2826TIP3    H2 8359   2.101   1.578   3.227
 2827TIP3   OH2 8360   3.015   1.767   3.765
 2827TIP3    H1 8361   3.039   1.813   3.682
 2827TIP3    H2 8362   2.931   1.723   3.742
 2828TIP3   OH2 8363   2.559   0.840   2.977
 2828TIP3    H1 8364   2.466   0.848   3.001
 2828TIP3    H2 8365   2.593   0.930   2.998
 2829TIP3   OH2 8366   2.521   1.852   4.130
 2829TIP3    H1 8367   2.529   1.818   4.220
 2829TIP3    H2 8368   2.471   1.934   4.142
 2830TIP3   OH2 8369   2.646   1.076   3.091
 2830TIP3    H1 8370   2.740   1.091   3.113
 2830TIP3    H2 8371   2.624   1.157   3.040
 2831TIP3   OH2 8372   1.808   1.552   3.812
 2831TIP3    H1 8373   1.841   1.519   3.726
 2831TIP3    H2 8374   1.839   1.483   3.873
 2832TIP3   OH2 8375   2.264   1.689   2.958
 2832TIP3    H1 8376   2.212   1.772   2.966
 2832TIP3    H2 8377   2.211   1.630   3.016
 2833TIP3   OH2 8378   1.684   1.471   4.422
 2833TIP3    H1 8379   1.705   1.458   4.517
 2833TIP3    H2 8380   1.615   1.404   4.408
 2834TIP3   OH2 8381   2.409   1.583   4.442
 2834TIP3    H1 8382   2.350   1.524   4.392
 2834TIP3    H2 8383   2.497   1.550   4.415
 2835TIP3   OH2 8384   2.677   2.125   4.017
 2835TIP3    H1 8385   2.583   2.104   4.031
 2835TIP3    H2 8386   2.700   2.159   4.106
 2836TIP3   OH2 8387   3.086   1.174   2.937
 2836TIP3    H1 8388   3.021   1.129   2.878
 2836TIP3    H2 8389   3.083   1.263   2.896
 2837TIP3   OH2 8390   3.302   2.035   4.016
 2837TIP3    H1 8391   3.204   2.028   4.007
 2837TIP3    H2 8392   3.328   2.003   3.926
 2838TIP3   OH2 8393   2.780   1.996   2.840
 2838TIP3    H1 8394   2.760   1.928   2.906
 2838TIP3    H2 8395   2.794   1.945   2.758
 2839TIP3   OH2 8396   2.779   1.626   3.686
 2839TIP3    H1 8397   2.686   1.599   3.698
 2839TIP3    H2 8398   2.815   1.547   3.640
 2840TIP3   OH2 8399   1.903   1.851   3.432
 2840TIP3    H1 8400   1.904   1.935   3.381
 2840TIP3    H2 8401   1.808   1.836   3.442
 2841TIP3   OH2 8402   2.052   1.624   3.385
 2841TIP3    H1 8403   2.011   1.711   3.401
 2841TIP3    H2 8404   2.013   1.570   3.456
 2842TIP3   OH2 8405   2.173   2.198   3.906
 2842TIP3    H1 8406   2.214   2.270   3.854
 2842TIP3    H2 8407   2.249   2.163   3.955
 2843TIP3   OH2 8408   1.827   2.091   3.286
 2843TIP3    H1 8409   1.740   2.098   3.332
 2843TIP3    H2 8410   1.856   2.185   3.289
 2844TIP3   OH2 8411   2.569   1.834   3.861
 2844TIP3    H1 8412   2.559   1.829   3.959
 2844TIP3    H2 8413   2.645   1.776   3.847
 2845TIP3   OH2 8414   2.538   1.718   2.742
 2845TIP3    H1 8415   2.589   1.696   2.823
 2845TIP3    H2 8416   2.449   1.694   2.772
 2846TIP3   OH2 8417   2.830   2.396   3.917
 2846TIP3    H1 8418   2.772   2.320   3.941
 2846TIP3    H2 8419   2.782   2.428   3.836
 2847TIP3   OH2 8420   2.877   2.201   2.565
 2847TIP3    H1 8421   2.917   2.273   2.514
 2847TIP3    H2 8422   2.797   2.247   2.597
 2848TIP3   OH2 8423   1.899   0.977   4.433
 2848TIP3    H1 8424   1.803   0.982   4.448
 2848TIP3    H2 8425   1.926   0.914   4.502
 2849TIP3   OH2 8426   2.696   1.658   2.960
 2849TIP3    H1 8427   2.684   1.594   3.033
 2849TIP3    H2 8428   2.794   1.656   2.951
 2850TIP3   OH2 8429   1.615   2.063   4.064
 2850TIP3    H1 8430   1.662   1.983   4.091
 2850TIP3    H2 8431   1.642   2.125   4.133
 2851TIP3   OH2 8432   1.892   1.714   2.743
 2851TIP3    H1 8433   1.924   1.631   2.707
 2851TIP3    H2 8434   1.888   1.696   2.840
 2852TIP3   OH2 8435   1.865   1.708   3.013
 2852TIP3    H1 8436   1.925   1.675   3.081
 2852TIP3    H2 8437   1.868   1.806   3.027
 2853TIP3   OH2 8438   1.612   1.439   3.241
 2853TIP3    H1 8439   1.532   1.457   3.295
 2853TIP3    H2 8440   1.593   1.501   3.167
 2854TIP3   OH2 8441   2.730   1.042   4.111
 2854TIP3    H1 8442   2.812   1.078   4.150
 2854TIP3    H2 8443   2.715   0.961   4.165
 2855TIP3   OH2 8444   2.609   0.799   3.270
 2855TIP3    H1 8445   2.601   0.829   3.178
 2855TIP3    H2 8446   2.650   0.877   3.313
 2856TIP3   OH2 8447   2.111   1.911   2.956
 2856TIP3    H1 8448   2.027   1.937   3.000
 2856TIP3    H2 8449   2.133   1.993   2.910
 2857TIP3   OH2 8450   2.325   0.970   3.379
 2857TIP3    H1 8451   2.385   1.046   3.364
 2857TIP3    H2 8452   2.321   0.966   3.477
 2858TIP3   OH2 8453   2.573   1.293   4.187
 2858TIP3    H1 8454   2.588   1.346   4.268
 2858TIP3    H2 8455   2.628   1.214   4.202
 2859TIP3   OH2 8456   2.459   0.702   3.487
 2859TIP3    H1 8457   2.447   0.781   3.543
 2859TIP3    H2 8458   2.512   0.741   3.413
 2860TIP3   OH2 8459   1.853   1.981   3.031
 2860TIP3    H1 8460   1.824   2.052   2.969
 2860TIP3    H2 8461   1.837   2.024   3.118
 2861TIP3   OH2 8462   3.216   1.191   4.167
 2861TIP3    H1 8463   3.118   1.189   4.173
 2861TIP3    H2 8464   3.228   1.152   4.079
 2862TIP3   OH2 8465   2.864   1.387   3.555
 2862TIP3    H1 8466   2.789   1.326   3.567
 2862TIP3    H2 8467   2.937   1.340   3.601
 2863TIP3   OH2 8468   1.590   1.658   3.055
 2863TIP3    H1 8469   1.659   1.725   3.051
 2863TIP3    H2 8470   1.617   1.600   2.984
 2864TIP3   OH2 8471   2.830   2.341   3.509
 2864TIP3    H1 8472   2.788   2.387   3.432
 2864TIP3    H2 8473   2.924   2.358   3.486
 2865TIP3   OH2 8474   1.909   0.603   4.031
 2865TIP3    H1 8475   1.873   0.555   3.955
 2865TIP3    H2 8476   1.906   0.534   4.100
 2866TIP3   OH2 8477   1.454   1.836   3.419
 2866TIP3    H1 8478   1.371   1.864   3.460
 2866TIP3    H2 8479   1.439   1.865   3.327
 2867TIP3   OH2 8480   1.600   2.364   4.486
 2867TIP3    H1 8481   1.687   2.361   4.531
 2867TIP3    H2 8482   1.578   2.269   4.483
 2868TIP3   OH2 8483   2.091   2.340   4.524
 2868TIP3    H1 8484   2.183   2.313   4.537
 2868TIP3    H2 8485   2.064   2.280   4.452
 2869TIP3   OH2 8486   2.072   1.907   2.654
 2869TIP3    H1 8487   2.016   1.847   2.708
 2869TIP3    H2 8488   2.155   1.857   2.651
 2870TIP3   OH2 8489   2.728   2.237   4.260
 2870TIP3    H1 8490   2.714   2.169   4.330
 2870TIP3    H2 8491   2.805   2.286   4.294
 2871TIP3   OH2 8492   2.506   1.953   2.569
 2871TIP3    H1 8493   2.553   1.891   2.628
 2871TIP3    H2 8494   2.565   1.957   2.491
 2872TIP3   OH2 8495   1.736   1.774   4.684
 2872TIP3    H1 8496   1.752   1.678   4.690
 2872TIP3    H2 8497   1.646   1.776   4.643
 2873TIP3   OH2 8498   2.345   1.858   4.456
 2873TIP3    H1 8499   2.300   1.868   4.371
 2873TIP3    H2 8500   2.375   1.765   4.454
 2874TIP3   OH2 8501   2.232   1.645   2.696
 2874TIP3    H1 8502   2.245   1.662   2.792
 2874TIP3    H2 8503   2.224   1.548   2.700
 2875TIP3   OH2 8504   2.837   1.861   4.064
 2875TIP3    H1 8505   2.908   1.910   4.018
 2875TIP3    H2 8506   2.761   1.921   4.052
 2876TIP3   OH2 8507   1.854   1.507   4.663
 2876TIP3    H1 8508   1.925   1.442   4.652
 2876TIP3    H2 8509   1.875   1.540   4.753
 2877TIP3   OH2 8510   2.000   1.308   3.152
 2877TIP3    H1 8511   1.941   1.295   3.229
 2877TIP3    H2 8512   1.959   1.251   3.085
 2878TIP3   OH2 8513   2.189   1.394   4.330
 2878TIP3    H1 8514   2.111   1.453   4.335
 2878TIP3    H2 8515   2.234   1.426   4.249
 2879TIP3   OH2 8516   2.706   1.797   4.463
 2879TIP3    H1 8517   2.788   1.777   4.417
 2879TIP3    H2 8518   2.703   1.728   4.531
 2880TIP3   OH2 8519   2.851   1.468   2.609
 2880TIP3    H1 8520   2.824   1.419   2.530
 2880TIP3    H2 8521   2.818   1.558   2.585
 2881TIP3   OH2 8522   2.313   1.180   4.456
 2881TIP3    H1 8523   2.310   1.099   4.401
 2881TIP3    H2 8524   2.268   1.245   4.398
 2882TIP3   OH2 8525   2.314   0.966   4.261
 2882TIP3    H1 8526   2.340   1.007   4.176
 2882TIP3    H2 8527   2.220   0.943   4.243
 2883TIP3   OH2 8528   2.347   1.506   4.134
 2883TIP3    H1 8529   2.426   1.508   4.078
 2883TIP3    H2 8530   2.289   1.573   4.091
 2884TIP3   OH2 8531   2.928   1.471   4.518
 2884TIP3    H1 8532   2.976   1.388   4.524
 2884TIP3    H2 8533   2.996   1.532   4.485
 2885TIP3   OH2 8534   2.968   1.722   4.253
 2885TIP3    H1 8535   2.909   1.774   4.193
 2885TIP3    H2 8536   3.055   1.742   4.212
 2886TIP3   OH2 8537   2.188   1.299   4.681
 2886TIP3    H1 8538   2.119   1.231   4.697
 2886TIP3    H2 8539   2.223   1.270   4.595
 2887TIP3   OH2 8540   2.447   0.732   4.326
 2887TIP3    H1 8541   2.398   0.815   4.305
 2887TIP3    H2 8542   2.377   0.665   4.315
 2888TIP3   OH2 8543   2.573   1.239   4.544
 2888TIP3    H1 8544   2.561   1.228   4.640
 2888TIP3    H2 8545   2.482   1.213   4.515
 2889TIP3   OH2 8546   2.813   1.186   4.399
 2889TIP3    H1 8547   2.736   1.188   4.460
 2889TIP3    H2 8548   2.884   1.155   4.458
 2890TIP3   OH2 8549   3.046   1.126   4.551
 2890TIP3    H1 8550   3.052   1.030   4.572
 2890TIP3    H2 8551   3.038   1.167   4.639
 2891TIP3   OH2 8552   2.030   1.078   4.733
 2891TIP3    H1 8553   2.035   0.987   4.698
 2891TIP3    H2 8554   2.063   1.065   4.824
 2892TIP3   OH2 8555   2.543   0.741   4.583
 2892TIP3    H1 8556   2.610   0.670   4.576
 2892TIP3    H2 8557   2.501   0.735   4.495
 2893TIP3   OH2 8558   2.609   0.957   4.743
 2893TIP3    H1 8559   2.584   0.886   4.679
 2893TIP3    H2 8560   2.531   1.017   4.738
 2894TIP3   OH2 8561   1.825   2.178   2.840
 2894TIP3    H1 8562   1.921   2.183   2.823
 2894TIP3    H2 8563   1.793   2.235   2.767
 2895TIP3   OH2 8564   1.214   2.177   3.474
 2895TIP3    H1 8565   1.151   2.111   3.438
 2895TIP3    H2 8566   1.262   2.123   3.540
 2896TIP3   OH2 8567   1.355   2.038   3.661
 2896TIP3    H1 8568   1.349   1.959   3.717
 2896TIP3    H2 8569   1.405   2.097   3.721
 2897TIP3   OH2 8570   3.080   2.444   3.458
 2897TIP3    H1 8571   3.135   2.474   3.531
 2897TIP3    H2 8572   3.137   2.464   3.382
 2898TIP3   OH2 8573   3.154   2.135   4.307
 2898TIP3    H1 8574   3.086   2.136   4.376
 2898TIP3    H2 8575   3.203   2.218   4.325
 2899TIP3   OH2 8576   2.977   1.643   2.936
 2899TIP3    H1 8577   3.048   1.705   2.911
 2899TIP3    H2 8578   3.015   1.603   3.017
 2900TIP3   OH2 8579   3.102   1.511   3.138
 2900TIP3    H1 8580   3.038   1.467   3.199
 2900TIP3    H2 8581   3.169   1.548   3.200
 2901TIP3   OH2 8582   3.153   1.898   3.569
 2901TIP3    H1 8583   3.210   1.836   3.519
 2901TIP3    H2 8584   3.144   1.973   3.507
 2902TIP3   OH2 8585   2.988   2.198   3.770
 2902TIP3    H1 8586   2.910   2.230   3.816
 2902TIP3    H2 8587   2.947   2.148   3.696
 2903TIP3   OH2 8588   3.047   1.416   2.791
 2903TIP3    H1 8589   2.974   1.424   2.725
 2903TIP3    H2 8590   3.022   1.490   2.849
 2904TIP3   OH2 8591   2.913   1.090   2.748
 2904TIP3    H1 8592   2.892   1.132   2.664
 2904TIP3    H2 8593   2.886   0.997   2.733
 2905TIP3   OH2 8594   2.920   1.363   3.288
 2905TIP3    H1 8595   2.927   1.266   3.284
 2905TIP3    H2 8596   2.907   1.379   3.384
 2906TIP3   OH2 8597   1.546   1.440   4.031
 2906TIP3    H1 8598   1.544   1.411   3.937
 2906TIP3    H2 8599   1.643   1.440   4.048
 2907TIP3   OH2 8600   3.208   1.791   4.142
 2907TIP3    H1 8601   3.280   1.724   4.135
 2907TIP3    H2 8602   3.238   1.859   4.080
 2908TIP3   OH2 8603   3.392   1.598   4.169
 2908TIP3    H1 8604   3.319   1.544   4.206
 2908TIP3    H2 8605   3.467   1.535   4.179
 2909TIP3   OH2 8606   2.855   0.825   2.735
 2909TIP3    H1 8607   2.942   0.802   2.776
 2909TIP3    H2 8608   2.793   0.776   2.791
 2910TIP3   OH2 8609   2.915   1.080   3.185
 2910TIP3    H1 8610   2.954   0.990   3.200
 2910TIP3    H2 8611   2.975   1.113   3.116
 2911TIP3   OH2 8612   3.077   1.260   3.676
 2911TIP3    H1 8613   3.164   1.286   3.637
 2911TIP3    H2 8614   3.091   1.293   3.767
 2912TIP3   OH2 8615   3.144   1.398   3.912
 2912TIP3    H1 8616   3.065   1.433   3.958
 2912TIP3    H2 8617   3.176   1.478   3.865
 2913TIP3   OH2 8618   1.763   1.128   4.707
 2913TIP3    H1 8619   1.860   1.119   4.708
 2913TIP3    H2 8620   1.737   1.044   4.750
 2914TIP3   OH2 8621   3.592   0.983   4.468
 2914TIP3    H1 8622   3.654   0.919   4.427
 2914TIP3    H2 8623   3.571   1.042   4.392
 2915TIP3   OH2 8624   3.024   0.829   3.218
 2915TIP3    H1 8625   3.073   0.815   3.302
 2915TIP3    H2 8626   2.963   0.753   3.219
 2916TIP3   OH2 8627   1.725   0.818   4.054
 2916TIP3    H1 8628   1.786   0.742   4.053
 2916TIP3    H2 8629   1.785   0.892   4.036
 2917TIP3   OH2 8630   1.534   1.095   4.114
 2917TIP3    H1 8631   1.582   1.083   4.030
 2917TIP3    H2 8632   1.563   1.183   4.140
 2918TIP3   OH2 8633   3.470   1.133   4.275
 2918TIP3    H1 8634   3.380   1.169   4.290
 2918TIP3    H2 8635   3.449   1.061   4.213
 2919TIP3   OH2 8636   3.106   0.778   2.845
 2919TIP3    H1 8637   3.152   0.700   2.807
 2919TIP3    H2 8638   3.178   0.845   2.846
 2920TIP3   OH2 8639   2.669   2.297   3.118
 2920TIP3    H1 8640   2.718   2.279   3.035
 2920TIP3    H2 8641   2.724   2.364   3.160
 2921TIP3   OH2 8642   1.732   0.677   4.428
 2921TIP3    H1 8643   1.681   0.670   4.511
 2921TIP3    H2 8644   1.664   0.714   4.368
 2922TIP3   OH2 8645   1.770   2.103   4.508
 2922TIP3    H1 8646   1.680   2.070   4.488
 2922TIP3    H2 8647   1.778   2.080   4.601
 2923TIP3   OH2 8648   1.946   2.130   4.052
 2923TIP3    H1 8649   1.896   2.204   4.014
 2923TIP3    H2 8650   2.032   2.145   4.008
 2924TIP3   OH2 8651   2.395   2.379   4.191
 2924TIP3    H1 8652   2.436   2.380   4.280
 2924TIP3    H2 8653   2.460   2.431   4.139
 2925TIP3   OH2 8654   2.570   2.531   4.046
 2925TIP3    H1 8655   2.638   2.474   4.008
 2925TIP3    H2 8656   2.621   2.584   4.111
 2926TIP3   OH2 8657   3.366   0.892   4.151
 2926TIP3    H1 8658   3.275   0.888   4.114
 2926TIP3    H2 8659   3.396   0.799   4.137
 2927TIP3   OH2 8660   1.626   2.395   4.073
 2927TIP3    H1 8661   1.537   2.429   4.051
 2927TIP3    H2 8662   1.631   2.418   4.166
 2928TIP3   OH2 8663   1.863   2.371   3.931
 2928TIP3    H1 8664   1.777   2.383   3.978
 2928TIP3    H2 8665   1.840   2.402   3.842
 2929TIP3   OH2 8666   2.290   2.401   3.728
 2929TIP3    H1 8667   2.219   2.421   3.664
 2929TIP3    H2 8668   2.300   2.488   3.772
 2930TIP3   OH2 8669   2.559   2.352   3.780
 2930TIP3    H1 8670   2.462   2.351   3.765
 2930TIP3    H2 8671   2.585   2.428   3.728
 2931TIP3   OH2 8672   2.802   2.544   3.699
 2931TIP3    H1 8673   2.774   2.628   3.655
 2931TIP3    H2 8674   2.801   2.481   3.624
 2932TIP3   OH2 8675   1.538   2.187   3.822
 2932TIP3    H1 8676   1.564   2.161   3.913
 2932TIP3    H2 8677   1.608   2.141   3.771
 2933TIP3   OH2 8678   1.728   2.056   3.675
 2933TIP3    H1 8679   1.744   1.972   3.723
 2933TIP3    H2 8680   1.818   2.093   3.670
 2934TIP3   OH2 8681   1.996   2.154   3.675
 2934TIP3    H1 8682   2.026   2.062   3.663
 2934TIP3    H2 8683   2.034   2.173   3.762
 2935TIP3   OH2 8684   2.571   0.810   3.766
 2935TIP3    H1 8685   2.527   0.741   3.820
 2935TIP3    H2 8686   2.640   0.758   3.720
 2936TIP3   OH2 8687   3.098   0.691   3.675
 2936TIP3    H1 8688   3.134   0.741   3.599
 2936TIP3    H2 8689   3.002   0.704   3.666
 2937TIP3   OH2 8690   3.191   0.791   3.436
 2937TIP3    H1 8691   3.264   0.739   3.396
 2937TIP3    H2 8692   3.225   0.883   3.422
 2938TIP3   OH2 8693   2.244   0.580   3.652
 2938TIP3    H1 8694   2.323   0.613   3.606
 2938TIP3    H2 8695   2.276   0.572   3.743
 2939TIP3   OH2 8696   2.816   0.694   3.647
 2939TIP3    H1 8697   2.808   0.659   3.557
 2939TIP3    H2 8698   2.799   0.614   3.701
 2940TIP3   OH2 8699   2.844   0.615   3.207
 2940TIP3    H1 8700   2.753   0.649   3.207
 2940TIP3    H2 8701   2.830   0.530   3.255
 2941TIP3   OH2 8702   1.314   1.952   3.215
 2941TIP3    H1 8703   1.236   1.914   3.170
 2941TIP3    H2 8704   1.307   2.045   3.184
 2942TIP3   OH2 8705   2.240   0.722   3.307
 2942TIP3    H1 8706   2.299   0.673   3.366
 2942TIP3    H2 8707   2.277   0.812   3.319
 2943TIP3   OH2 8708   2.096   2.149   2.792
 2943TIP3    H1 8709   2.186   2.170   2.758
 2943TIP3    H2 8710   2.074   2.075   2.732
 2944TIP3   OH2 8711   2.813   2.262   2.885
 2944TIP3    H1 8712   2.804   2.165   2.871
 2944TIP3    H2 8713   2.769   2.296   2.805
 2945TIP3   OH2 8714   2.028   0.800   4.675
 2945TIP3    H1 8715   1.994   0.729   4.731
 2945TIP3    H2 8716   2.123   0.800   4.702
 2946TIP3   OH2 8717   2.277   0.796   4.794
 2946TIP3    H1 8718   2.361   0.768   4.755
 2946TIP3    H2 8719   2.263   0.726   4.862
 2947TIP3   OH2 8720   1.421   2.017   2.864
 2947TIP3    H1 8721   1.390   2.022   2.956
 2947TIP3    H2 8722   1.492   1.950   2.868
 2948TIP3   OH2 8723   3.102   0.854   4.585
 2948TIP3    H1 8724   3.129   0.819   4.671
 2948TIP3    H2 8725   3.186   0.852   4.534
 2949TIP3   OH2 8726   4.309   1.784   2.840
 2949TIP3    H1 8727   4.278   1.875   2.821
 2949TIP3    H2 8728   4.231   1.733   2.815
 2950TIP3   OH2 8729   4.301   1.779   3.221
 2950TIP3    H1 8730   4.336   1.738   3.301
 2950TIP3    H2 8731   4.271   1.702   3.171
 2951TIP3   OH2 8732   3.606   1.680   3.588
 2951TIP3    H1 8733   3.640   1.612   3.650
 2951TIP3    H2 8734   3.682   1.738   3.580
 2952TIP3   OH2 8735   4.550   2.081   2.900
 2952TIP3    H1 8736   4.532   2.010   2.962
 2952TIP3    H2 8737   4.572   2.155   2.958
 2953TIP3   OH2 8738   3.566   2.082   3.306
 2953TIP3    H1 8739   3.565   1.984   3.312
 2953TIP3    H2 8740   3.657   2.100   3.334
 2954TIP3   OH2 8741   3.284   1.292   3.099
 2954TIP3    H1 8742   3.236   1.375   3.112
 2954TIP3    H2 8743   3.212   1.234   3.069
 2955TIP3   OH2 8744   3.343   1.575   3.263
 2955TIP3    H1 8745   3.391   1.499   3.305
 2955TIP3    H2 8746   3.407   1.604   3.197
 2956TIP3   OH2 8747   4.193   2.544   2.915
 2956TIP3    H1 8748   4.245   2.472   2.873
 2956TIP3    H2 8749   4.189   2.513   3.007
 2957TIP3   OH2 8750   4.105   2.004   3.266
 2957TIP3    H1 8751   4.143   1.925   3.223
 2957TIP3    H2 8752   4.189   2.049   3.289
 2958TIP3   OH2 8753   5.118   1.325   3.267
 2958TIP3    H1 8754   5.145   1.408   3.311
 2958TIP3    H2 8755   5.129   1.349   3.173
 2959TIP3   OH2 8756   3.846   1.166   3.271
 2959TIP3    H1 8757   3.833   1.239   3.207
 2959TIP3    H2 8758   3.802   1.093   3.223
 2960TIP3   OH2 8759   4.547   1.241   2.888
 2960TIP3    H1 8760   4.617   1.233   2.957
 2960TIP3    H2 8761   4.594   1.297   2.825
 2961TIP3   OH2 8762   3.488   1.371   3.373
 2961TIP3    H1 8763   3.571   1.351   3.422
 2961TIP3    H2 8764   3.501   1.314   3.294
 2962TIP3   OH2 8765   3.933   1.567   3.165
 2962TIP3    H1 8766   4.026   1.540   3.179
 2962TIP3    H2 8767   3.893   1.482   3.134
 2963TIP3   OH2 8768   5.188   1.534   3.436
 2963TIP3    H1 8769   5.102   1.580   3.422
 2963TIP3    H2 8770   5.202   1.549   3.530
 2964TIP3   OH2 8771   3.851   1.150   3.701
 2964TIP3    H1 8772   3.790   1.188   3.635
 2964TIP3    H2 8773   3.801   1.168   3.783
 2965TIP3   OH2 8774   4.206   2.006   2.709
 2965TIP3    H1 8775   4.155   1.974   2.634
 2965TIP3    H2 8776   4.160   2.090   2.729
 2966TIP3   OH2 8777   3.958   1.924   3.504
 2966TIP3    H1 8778   3.889   1.984   3.541
 2966TIP3    H2 8779   3.998   1.982   3.437
 2967TIP3   OH2 8780   4.764   1.256   3.053
 2967TIP3    H1 8781   4.746   1.203   3.132
 2967TIP3    H2 8782   4.809   1.335   3.090
 2968TIP3   OH2 8783   3.719   1.267   3.489
 2968TIP3    H1 8784   3.783   1.338   3.511
 2968TIP3    H2 8785   3.767   1.224   3.414
 2969TIP3   OH2 8786   3.760   2.101   3.571
 2969TIP3    H1 8787   3.765   2.197   3.553
 2969TIP3    H2 8788   3.708   2.105   3.653
 2970TIP3   OH2 8789   3.185   1.808   2.832
 2970TIP3    H1 8790   3.140   1.837   2.750
 2970TIP3    H2 8791   3.214   1.892   2.871
 2971TIP3   OH2 8792   4.623   2.322   3.072
 2971TIP3    H1 8793   4.534   2.313   3.113
 2971TIP3    H2 8794   4.613   2.408   3.027
 2972TIP3   OH2 8795   4.906   1.239   3.440
 2972TIP3    H1 8796   4.817   1.267   3.410
 2972TIP3    H2 8797   4.962   1.260   3.363
 2973TIP3   OH2 8798   4.210   0.867   3.419
 2973TIP3    H1 8799   4.198   0.772   3.439
 2973TIP3    H2 8800   4.131   0.904   3.465
 2974TIP3   OH2 8801   4.329   2.372   2.750
 2974TIP3    H1 8802   4.378   2.289   2.725
 2974TIP3    H2 8803   4.387   2.438   2.705
 2975TIP3   OH2 8804   4.469   2.156   2.647
 2975TIP3    H1 8805   4.420   2.080   2.613
 2975TIP3    H2 8806   4.502   2.121   2.733
 2976TIP3   OH2 8807   4.848   2.239   3.414
 2976TIP3    H1 8808   4.833   2.162   3.355
 2976TIP3    H2 8809   4.828   2.314   3.354
 2977TIP3   OH2 8810   4.137   1.633   2.668
 2977TIP3    H1 8811   4.056   1.682   2.644
 2977TIP3    H2 8812   4.183   1.626   2.582
 2978TIP3   OH2 8813   4.105   1.426   2.388
 2978TIP3    H1 8814   4.177   1.466   2.438
 2978TIP3    H2 8815   4.149   1.347   2.352
 2979TIP3   OH2 8816   5.039   1.873   3.257
 2979TIP3    H1 8817   4.957   1.927   3.264
 2979TIP3    H2 8818   5.070   1.896   3.168
 2980TIP3   OH2 8819   4.487   1.715   2.646
 2980TIP3    H1 8820   4.430   1.740   2.723
 2980TIP3    H2 8821   4.568   1.686   2.693
 2981TIP3   OH2 8822   4.709   1.751   3.571
 2981TIP3    H1 8823   4.713   1.848   3.565
 2981TIP3    H2 8824   4.629   1.732   3.516
 2982TIP3   OH2 8825   3.720   1.713   3.059
 2982TIP3    H1 8826   3.679   1.654   2.992
 2982TIP3    H2 8827   3.797   1.660   3.088
 2983TIP3   OH2 8828   3.854   2.134   3.198
 2983TIP3    H1 8829   3.827   2.070   3.131
 2983TIP3    H2 8830   3.940   2.098   3.227
 2984TIP3   OH2 8831   3.853   1.686   3.412
 2984TIP3    H1 8832   3.890   1.665   3.324
 2984TIP3    H2 8833   3.896   1.771   3.434
 2985TIP3   OH2 8834   4.382   2.320   3.190
 2985TIP3    H1 8835   4.365   2.400   3.243
 2985TIP3    H2 8836   4.366   2.247   3.253
 2986TIP3   OH2 8837   4.333   1.571   2.471
 2986TIP3    H1 8838   4.389   1.632   2.525
 2986TIP3    H2 8839   4.358   1.598   2.379
 2987TIP3   OH2 8840   3.745   1.796   3.836
 2987TIP3    H1 8841   3.750   1.883   3.882
 2987TIP3    H2 8842   3.649   1.781   3.841
 2988TIP3   OH2 8843   4.067   2.254   2.739
 2988TIP3    H1 8844   4.141   2.308   2.772
 2988TIP3    H2 8845   4.003   2.321   2.710
 2989TIP3   OH2 8846   4.840   0.816   2.514
 2989TIP3    H1 8847   4.761   0.830   2.569
 2989TIP3    H2 8848   4.849   0.902   2.470
 2990TIP3   OH2 8849   3.586   1.555   2.860
 2990TIP3    H1 8850   3.517   1.598   2.805
 2990TIP3    H2 8851   3.543   1.472   2.884
 2991TIP3   OH2 8852   4.638   2.182   2.063
 2991TIP3    H1 8853   4.647   2.280   2.051
 2991TIP3    H2 8854   4.731   2.153   2.052
 2992TIP3   OH2 8855   3.362   1.936   3.774
 2992TIP3    H1 8856   3.303   1.911   3.700
 2992TIP3    H2 8857   3.400   1.850   3.801
 2993TIP3   OH2 8858   3.220   2.134   3.403
 2993TIP3    H1 8859   3.315   2.117   3.393
 2993TIP3    H2 8860   3.220   2.207   3.467
 2994TIP3   OH2 8861   5.084   2.580   3.458
 2994TIP3    H1 8862   5.082   2.484   3.474
 2994TIP3    H2 8863   5.001   2.608   3.503
 2995TIP3   OH2 8864   4.184   2.371   3.598
 2995TIP3    H1 8865   4.189   2.464   3.627
 2995TIP3    H2 8866   4.113   2.341   3.659
 2996TIP3   OH2 8867   3.946   2.500   2.545
 2996TIP3    H1 8868   3.902   2.481   2.460
 2996TIP3    H2 8869   3.916   2.590   2.566
 2997TIP3   OH2 8870   3.387   2.349   2.929
 2997TIP3    H1 8871   3.438   2.339   3.013
 2997TIP3    H2 8872   3.326   2.274   2.937
 2998TIP3   OH2 8873   4.151   2.398   2.188
 2998TIP3    H1 8874   4.211   2.330   2.152
 2998TIP3    H2 8875   4.184   2.408   2.279
 2999TIP3   OH2 8876   4.199   2.446   2.459
 2999TIP3    H1 8877   4.111   2.455   2.503
 2999TIP3    H2 8878   4.250   2.404   2.530
 3000TIP3   OH2 8879   3.562   2.129   3.772
 3000TIP3    H1 8880   3.626   2.109   3.843
 3000TIP3    H2 8881   3.501   2.053   3.776
 3001TIP3   OH2 8882   3.968   0.946   3.539
 3001TIP3    H1 8883   3.877   0.916   3.518
 3001TIP3    H2 8884   3.947   1.030   3.584
 3002TIP3   OH2 8885   4.504   1.052   3.737
 3002TIP3    H1 8886   4.570   1.034   3.806
 3002TIP3    H2 8887   4.418   1.041   3.782
 3003TIP3   OH2 8888   4.403   1.622   2.213
 3003TIP3    H1 8889   4.369   1.594   2.126
 3003TIP3    H2 8890   4.478   1.677   2.187
 3004TIP3   OH2 8891   4.124   0.995   2.516
 3004TIP3    H1 8892   4.088   0.995   2.606
 3004TIP3    H2 8893   4.079   0.915   2.481
 3005TIP3   OH2 8894   3.896   1.464   3.562
 3005TIP3    H1 8895   3.846   1.486   3.644
 3005TIP3    H2 8896   3.880   1.544   3.507
 3006TIP3   OH2 8897   3.784   1.347   3.076
 3006TIP3    H1 8898   3.692   1.319   3.093
 3006TIP3    H2 8899   3.800   1.305   2.988
 3007TIP3   OH2 8900   4.272   1.431   2.799
 3007TIP3    H1 8901   4.219   1.505   2.761
 3007TIP3    H2 8902   4.327   1.406   2.723
 3008TIP3   OH2 8903   4.493   1.700   3.888
 3008TIP3    H1 8904   4.438   1.635   3.940
 3008TIP3    H2 8905   4.505   1.769   3.956
 3009TIP3   OH2 8906   4.439   1.489   3.012
 3009TIP3    H1 8907   4.372   1.479   2.941
 3009TIP3    H2 8908   4.461   1.397   3.031
 3010TIP3   OH2 8909   3.718   1.492   3.773
 3010TIP3    H1 8910   3.747   1.555   3.840
 3010TIP3    H2 8911   3.710   1.409   3.824
 3011TIP3   OH2 8912   3.755   0.934   2.483
 3011TIP3    H1 8913   3.748   0.960   2.576
 3011TIP3    H2 8914   3.732   1.015   2.434
 3012TIP3   OH2 8915   3.314   1.016   3.349
 3012TIP3    H1 8916   3.389   1.045   3.405
 3012TIP3    H2 8917   3.358   0.977   3.271
 3013TIP3   OH2 8918   3.291   0.994   2.869
 3013TIP3    H1 8919   3.341   1.033   2.795
 3013TIP3    H2 8920   3.232   1.068   2.892
 3014TIP3   OH2 8921   4.458   1.700   3.465
 3014TIP3    H1 8922   4.483   1.617   3.415
 3014TIP3    H2 8923   4.416   1.655   3.541
 3015TIP3   OH2 8924   4.099   1.182   3.136
 3015TIP3    H1 8925   4.027   1.171   3.201
 3015TIP3    H2 8926   4.178   1.165   3.190
 3016TIP3   OH2 8927   3.547   1.223   3.146
 3016TIP3    H1 8928   3.452   1.228   3.121
 3016TIP3    H2 8929   3.572   1.131   3.125
 3017TIP3   OH2 8930   3.817   1.224   2.830
 3017TIP3    H1 8931   3.914   1.234   2.822
 3017TIP3    H2 8932   3.783   1.252   2.743
 3018TIP3   OH2 8933   3.664   1.264   2.587
 3018TIP3    H1 8934   3.578   1.220   2.592
 3018TIP3    H2 8935   3.688   1.249   2.493
 3019TIP3   OH2 8936   4.771   2.933   3.557
 3019TIP3    H1 8937   4.770   2.957   3.462
 3019TIP3    H2 8938   4.848   2.984   3.589
 3020TIP3   OH2 8939   3.725   2.039   3.977
 3020TIP3    H1 8940   3.808   2.083   4.006
 3020TIP3    H2 8941   3.673   2.044   4.059
 3021TIP3   OH2 8942   4.206   1.492   3.237
 3021TIP3    H1 8943   4.288   1.466   3.192
 3021TIP3    H2 8944   4.222   1.451   3.324
 3022TIP3   OH2 8945   3.719   0.987   3.107
 3022TIP3    H1 8946   3.691   0.906   3.155
 3022TIP3    H2 8947   3.783   0.952   3.043
 3023TIP3   OH2 8948   4.166   1.381   3.538
 3023TIP3    H1 8949   4.080   1.427   3.541
 3023TIP3    H2 8950   4.229   1.449   3.567
 3024TIP3   OH2 8951   3.908   1.787   2.619
 3024TIP3    H1 8952   3.837   1.720   2.610
 3024TIP3    H2 8953   3.892   1.820   2.711
 3025TIP3   OH2 8954   4.810   2.020   3.252
 3025TIP3    H1 8955   4.831   2.068   3.169
 3025TIP3    H2 8956   4.724   1.977   3.230
 3026TIP3   OH2 8957   4.368   1.106   2.463
 3026TIP3    H1 8958   4.274   1.082   2.485
 3026TIP3    H2 8959   4.379   1.195   2.502
 3027TIP3   OH2 8960   4.319   2.111   3.619
 3027TIP3    H1 8961   4.317   2.079   3.710
 3027TIP3    H2 8962   4.264   2.191   3.624
 3028TIP3   OH2 8963   4.440   1.342   2.581
 3028TIP3    H1 8964   4.535   1.348   2.603
 3028TIP3    H2 8965   4.423   1.425   2.533
 3029TIP3   OH2 8966   3.596   1.800   3.298
 3029TIP3    H1 8967   3.638   1.775   3.213
 3029TIP3    H2 8968   3.641   1.741   3.360
 3030TIP3   OH2 8969   4.053   1.934   2.436
 3030TIP3    H1 8970   4.007   2.021   2.446
 3030TIP3    H2 8971   4.001   1.879   2.498
 3031TIP3   OH2 8972   3.478   1.730   3.912
 3031TIP3    H1 8973   3.506   1.716   4.004
 3031TIP3    H2 8974   3.413   1.658   3.899
 3032TIP3   OH2 8975   4.206   1.823   3.933
 3032TIP3    H1 8976   4.142   1.773   3.879
 3032TIP3    H2 8977   4.287   1.813   3.882
 3033TIP3   OH2 8978   4.471   2.366   3.509
 3033TIP3    H1 8979   4.376   2.357   3.524
 3033TIP3    H2 8980   4.497   2.414   3.590
 3034TIP3   OH2 8981   4.884   1.433   2.419
 3034TIP3    H1 8982   4.822   1.385   2.360
 3034TIP3    H2 8983   4.875   1.523   2.380
 3035TIP3   OH2 8984   5.098   2.285   3.504
 3035TIP3    H1 8985   5.000   2.285   3.495
 3035TIP3    H2 8986   5.124   2.260   3.413
 3036TIP3   OH2 8987   4.578   2.253   2.328
 3036TIP3    H1 8988   4.555   2.184   2.392
 3036TIP3    H2 8989   4.591   2.203   2.245
 3037TIP3   OH2 8990   4.577   1.880   3.174
 3037TIP3    H1 8991   4.483   1.854   3.187
 3037TIP3    H2 8992   4.610   1.800   3.128
 3038TIP3   OH2 8993   3.698   2.104   2.912
 3038TIP3    H1 8994   3.703   2.190   2.867
 3038TIP3    H2 8995   3.604   2.097   2.933
 3039TIP3   OH2 8996   3.260   1.416   2.617
 3039TIP3    H1 8997   3.310   1.497   2.640
 3039TIP3    H2 8998   3.187   1.421   2.684
 3040TIP3   OH2 8999   3.846   1.877   2.866
 3040TIP3    H1 9000   3.808   1.965   2.883
 3040TIP3    H2 9001   3.812   1.826   2.941
 3041TIP3   OH2 9002   3.971   2.457   3.389
 3041TIP3    H1 9003   4.018   2.527   3.342
 3041TIP3    H2 9004   4.041   2.421   3.447
 3042TIP3   OH2 9005   3.621   2.349   2.772
 3042TIP3    H1 9006   3.536   2.356   2.819
 3042TIP3    H2 9007   3.653   2.442   2.777
 3043TIP3   OH2 9008   4.363   2.089   3.349
 3043TIP3    H1 9009   4.355   2.089   3.447
 3043TIP3    H2 9010   4.439   2.030   3.336
 3044TIP3   OH2 9011   4.330   1.977   2.231
 3044TIP3    H1 9012   4.384   1.954   2.310
 3044TIP3    H2 9013   4.242   1.954   2.263
 3045TIP3   OH2 9014   4.611   2.623   3.399
 3045TIP3    H1 9015   4.532   2.565   3.394
 3045TIP3    H2 9016   4.592   2.688   3.328
 3046TIP3   OH2 9017   4.674   2.457   2.052
 3046TIP3    H1 9018   4.713   2.529   2.000
 3046TIP3    H2 9019   4.594   2.503   2.084
 3047TIP3   OH2 9020   3.696   1.235   3.921
 3047TIP3    H1 9021   3.599   1.237   3.935
 3047TIP3    H2 9022   3.725   1.170   3.987
 3048TIP3   OH2 9023   4.491   1.913   2.447
 3048TIP3    H1 9024   4.481   1.849   2.520
 3048TIP3    H2 9025   4.589   1.912   2.437
 3049TIP3   OH2 9026   3.407   2.321   3.559
 3049TIP3    H1 9027   3.462   2.241   3.571
 3049TIP3    H2 9028   3.456   2.381   3.617
 3050TIP3   OH2 9029   3.698   1.963   2.230
 3050TIP3    H1 9030   3.718   1.872   2.201
 3050TIP3    H2 9031   3.683   1.950   2.326
 3051TIP3   OH2 9032   3.647   1.965   2.504
 3051TIP3    H1 9033   3.717   1.938   2.565
 3051TIP3    H2 9034   3.652   2.063   2.510
 3052TIP3   OH2 9035   3.382   1.660   2.705
 3052TIP3    H1 9036   3.318   1.705   2.764
 3052TIP3    H2 9037   3.400   1.731   2.641
 3053TIP3   OH2 9038   4.411   1.048   2.754
 3053TIP3    H1 9039   4.397   1.082   2.664
 3053TIP3    H2 9040   4.451   1.125   2.799
 3054TIP3   OH2 9041   3.909   2.164   2.450
 3054TIP3    H1 9042   3.825   2.194   2.488
 3054TIP3    H2 9043   3.929   2.236   2.390
 3055TIP3   OH2 9044   4.096   1.228   2.864
 3055TIP3    H1 9045   4.164   1.297   2.849
 3055TIP3    H2 9046   4.103   1.216   2.962
 3056TIP3   OH2 9047   4.366   1.551   3.672
 3056TIP3    H1 9048   4.382   1.597   3.755
 3056TIP3    H2 9049   4.410   1.465   3.686
 3057TIP3   OH2 9050   4.243   0.956   2.963
 3057TIP3    H1 9051   4.266   1.007   3.044
 3057TIP3    H2 9052   4.302   0.999   2.897
 3058TIP3   OH2 9053   3.651   2.239   2.517
 3058TIP3    H1 9054   3.621   2.310   2.455
 3058TIP3    H2 9055   3.636   2.282   2.604
 3059TIP3   OH2 9056   3.754   0.956   2.763
 3059TIP3    H1 9057   3.759   1.046   2.802
 3059TIP3    H2 9058   3.848   0.931   2.768
 3060TIP3   OH2 9059   4.992   1.455   3.643
 3060TIP3    H1 9060   4.910   1.407   3.661
 3060TIP3    H2 9061   5.019   1.412   3.561
 3061TIP3   OH2 9062   4.664   1.646   3.045
 3061TIP3    H1 9063   4.581   1.592   3.051
 3061TIP3    H2 9064   4.727   1.589   3.094
 3062TIP3   OH2 9065   3.370   1.876   2.512
 3062TIP3    H1 9066   3.433   1.949   2.524
 3062TIP3    H2 9067   3.420   1.824   2.446
 3063TIP3   OH2 9068   3.329   1.152   2.643
 3063TIP3    H1 9069   3.312   1.248   2.639
 3063TIP3    H2 9070   3.248   1.115   2.606
 3064TIP3   OH2 9071   4.629   2.594   2.992
 3064TIP3    H1 9072   4.586   2.641   2.918
 3064TIP3    H2 9073   4.723   2.614   2.971
 3065TIP3   OH2 9074   3.701   0.867   3.523
 3065TIP3    H1 9075   3.673   0.832   3.436
 3065TIP3    H2 9076   3.695   0.787   3.580
 3066TIP3   OH2 9077   3.247   2.086   2.906
 3066TIP3    H1 9078   3.167   2.118   2.949
 3066TIP3    H2 9079   3.234   2.121   2.816
 3067TIP3   OH2 9080   3.395   2.614   3.970
 3067TIP3    H1 9081   3.481   2.620   4.016
 3067TIP3    H2 9082   3.391   2.517   3.963
 3068TIP3   OH2 9083   3.883   2.587   4.004
 3068TIP3    H1 9084   3.977   2.577   4.027
 3068TIP3    H2 9085   3.875   2.520   3.934
 3069TIP3   OH2 9086   3.864   2.167   2.145
 3069TIP3    H1 9087   3.807   2.096   2.184
 3069TIP3    H2 9088   3.939   2.113   2.115
 3070TIP3   OH2 9089   4.523   2.495   3.749
 3070TIP3    H1 9090   4.516   2.424   3.816
 3070TIP3    H2 9091   4.600   2.546   3.780
 3071TIP3   OH2 9092   4.301   2.209   2.054
 3071TIP3    H1 9093   4.348   2.147   2.112
 3071TIP3    H2 9094   4.358   2.211   1.975
 3072TIP3   OH2 9095   3.528   2.031   4.175
 3072TIP3    H1 9096   3.551   1.936   4.174
 3072TIP3    H2 9097   3.442   2.031   4.127
 3073TIP3   OH2 9098   3.504   1.685   2.362
 3073TIP3    H1 9099   3.558   1.650   2.436
 3073TIP3    H2 9100   3.573   1.688   2.292
 3074TIP3   OH2 9101   4.162   2.099   3.953
 3074TIP3    H1 9102   4.101   2.137   3.886
 3074TIP3    H2 9103   4.165   2.004   3.933
 3075TIP3   OH2 9104   4.009   1.880   2.169
 3075TIP3    H1 9105   4.017   1.893   2.266
 3075TIP3    H2 9106   4.011   1.782   2.164
 3076TIP3   OH2 9107   4.638   2.113   3.557
 3076TIP3    H1 9108   4.704   2.169   3.511
 3076TIP3    H2 9109   4.558   2.168   3.550
 3077TIP3   OH2 9110   3.647   1.759   4.152
 3077TIP3    H1 9111   3.725   1.706   4.133
 3077TIP3    H2 9112   3.671   1.795   4.240
 3078TIP3   OH2 9113   3.718   1.580   2.587
 3078TIP3    H1 9114   3.691   1.548   2.675
 3078TIP3    H2 9115   3.746   1.498   2.544
 3079TIP3   OH2 9116   3.983   1.650   3.816
 3079TIP3    H1 9117   3.906   1.710   3.822
 3079TIP3    H2 9118   4.028   1.683   3.735
 3080TIP3   OH2 9119   4.500   2.025   3.936
 3080TIP3    H1 9120   4.588   2.063   3.922
 3080TIP3    H2 9121   4.508   1.987   4.025
 3081TIP3   OH2 9122   4.644   1.712   2.084
 3081TIP3    H1 9123   4.615   1.665   2.003
 3081TIP3    H2 9124   4.611   1.803   2.062
 3082TIP3   OH2 9125   4.106   1.434   3.943
 3082TIP3    H1 9126   4.107   1.353   3.888
 3082TIP3    H2 9127   4.063   1.499   3.884
 3083TIP3   OH2 9128   4.107   1.222   3.754
 3083TIP3    H1 9129   4.137   1.264   3.670
 3083TIP3    H2 9130   4.015   1.198   3.732
 3084TIP3   OH2 9131   4.146   1.768   3.625
 3084TIP3    H1 9132   4.216   1.762   3.559
 3084TIP3    H2 9133   4.085   1.833   3.584
 3085TIP3   OH2 9134   4.769   1.962   3.741
 3085TIP3    H1 9135   4.704   2.019   3.693
 3085TIP3    H2 9136   4.852   1.995   3.699
 3086TIP3   OH2 9137   3.982   1.556   4.169
 3086TIP3    H1 9138   3.915   1.486   4.182
 3086TIP3    H2 9139   4.020   1.529   4.083
 3087TIP3   OH2 9140   4.242   0.989   3.815
 3087TIP3    H1 9141   4.193   1.071   3.792
 3087TIP3    H2 9142   4.173   0.920   3.802
 3088TIP3   OH2 9143   4.354   1.520   4.036
 3088TIP3    H1 9144   4.354   1.489   4.128
 3088TIP3    H2 9145   4.270   1.479   4.006
 3089TIP3   OH2 9146   4.870   1.385   4.033
 3089TIP3    H1 9147   4.854   1.291   4.052
 3089TIP3    H2 9148   4.839   1.429   4.115
 3090TIP3   OH2 9149   3.824   1.335   4.222
 3090TIP3    H1 9150   3.833   1.245   4.184
 3090TIP3    H2 9151   3.860   1.320   4.312
 3091TIP3   OH2 9152   4.339   1.000   4.070
 3091TIP3    H1 9153   4.406   0.928   4.066
 3091TIP3    H2 9154   4.299   0.991   3.981
 3092TIP3   OH2 9155   4.405   1.214   4.230
 3092TIP3    H1 9156   4.383   1.142   4.166
 3092TIP3    H2 9157   4.326   1.272   4.223
 3093TIP3   OH2 9158   3.621   2.443   2.330
 3093TIP3    H1 9159   3.717   2.440   2.312
 3093TIP3    H2 9160   3.591   2.489   2.250
 3094TIP3   OH2 9161   3.103   1.826   2.547
 3094TIP3    H1 9162   3.198   1.850   2.536
 3094TIP3    H2 9163   3.103   1.735   2.510
 3095TIP3   OH2 9164   3.016   2.436   2.959
 3095TIP3    H1 9165   2.948   2.373   2.926
 3095TIP3    H2 9166   3.060   2.381   3.028
 3096TIP3   OH2 9167   3.151   2.294   3.149
 3096TIP3    H1 9168   3.146   2.214   3.203
 3096TIP3    H2 9169   3.209   2.349   3.205
 3097TIP3   OH2 9170   4.879   2.688   2.945
 3097TIP3    H1 9171   4.905   2.722   3.033
 3097TIP3    H2 9172   4.938   2.737   2.886
 3098TIP3   OH2 9173   4.911   2.709   3.226
 3098TIP3    H1 9174   4.869   2.620   3.224
 3098TIP3    H2 9175   4.986   2.690   3.285
 3099TIP3   OH2 9176   4.957   2.384   3.801
 3099TIP3    H1 9177   4.882   2.393   3.864
 3099TIP3    H2 9178   4.997   2.473   3.805
 3100TIP3   OH2 9179   4.772   1.899   2.422
 3100TIP3    H1 9180   4.843   1.962   2.396
 3100TIP3    H2 9181   4.812   1.859   2.502
 3101TIP3   OH2 9182   4.897   1.767   2.626
 3101TIP3    H1 9183   4.831   1.722   2.683
 3101TIP3    H2 9184   4.957   1.808   2.691
 3102TIP3   OH2 9185   4.959   2.152   3.059
 3102TIP3    H1 9186   4.995   2.102   2.985
 3102TIP3    H2 9187   4.934   2.235   3.014
 3103TIP3   OH2 9188   4.787   2.457   3.256
 3103TIP3    H1 9189   4.717   2.502   3.308
 3103TIP3    H2 9190   4.734   2.410   3.187
 3104TIP3   OH2 9191   4.838   1.673   2.274
 3104TIP3    H1 9192   4.767   1.678   2.206
 3104TIP3    H2 9193   4.812   1.749   2.330
 3105TIP3   OH2 9194   4.720   1.344   2.218
 3105TIP3    H1 9195   4.657   1.389   2.162
 3105TIP3    H2 9196   4.687   1.251   2.215
 3106TIP3   OH2 9197   4.718   1.620   2.777
 3106TIP3    H1 9198   4.720   1.523   2.772
 3106TIP3    H2 9199   4.700   1.634   2.874
 3107TIP3   OH2 9200   3.342   1.698   3.518
 3107TIP3    H1 9201   3.343   1.670   3.424
 3107TIP3    H2 9202   3.439   1.699   3.536
 3108TIP3   OH2 9203   5.001   2.046   3.629
 3108TIP3    H1 9204   5.076   1.983   3.623
 3108TIP3    H2 9205   5.030   2.119   3.571
 3109TIP3   OH2 9206   5.175   1.843   3.661
 3109TIP3    H1 9207   5.119   1.768   3.682
 3109TIP3    H2 9208   5.263   1.799   3.668
 3110TIP3   OH2 9209   4.657   1.078   2.209
 3110TIP3    H1 9210   4.732   1.052   2.266
 3110TIP3    H2 9211   4.583   1.024   2.243
 3111TIP3   OH2 9212   4.710   1.339   2.668
 3111TIP3    H1 9213   4.746   1.249   2.688
 3111TIP3    H2 9214   4.775   1.368   2.602
 3112TIP3   OH2 9215   4.880   1.512   3.162
 3112TIP3    H1 9216   4.968   1.541   3.131
 3112TIP3    H2 9217   4.882   1.543   3.254
 3113TIP3   OH2 9218   4.941   1.658   3.402
 3113TIP3    H1 9219   4.859   1.687   3.446
 3113TIP3    H2 9220   4.968   1.738   3.353
 3114TIP3   OH2 9221   3.557   1.384   4.194
 3114TIP3    H1 9222   3.655   1.377   4.193
 3114TIP3    H2 9223   3.533   1.300   4.237
 3115TIP3   OH2 9224   5.389   1.243   3.950
 3115TIP3    H1 9225   5.450   1.178   3.911
 3115TIP3    H2 9226   5.370   1.303   3.875
 3116TIP3   OH2 9227   4.820   1.086   2.704
 3116TIP3    H1 9228   4.867   1.073   2.788
 3116TIP3    H2 9229   4.758   1.010   2.706
 3117TIP3   OH2 9230   3.518   1.075   3.526
 3117TIP3    H1 9231   3.580   0.999   3.536
 3117TIP3    H2 9232   3.582   1.149   3.521
 3118TIP3   OH2 9233   3.324   1.350   3.599
 3118TIP3    H1 9234   3.374   1.339   3.515
 3118TIP3    H2 9235   3.357   1.436   3.629
 3119TIP3   OH2 9236   5.265   1.392   3.754
 3119TIP3    H1 9237   5.180   1.422   3.789
 3119TIP3    H2 9238   5.238   1.315   3.701
 3120TIP3   OH2 9239   4.904   1.030   2.326
 3120TIP3    H1 9240   4.957   0.951   2.306
 3120TIP3    H2 9241   4.975   1.098   2.333
 3121TIP3   OH2 9242   3.305   0.851   3.098
 3121TIP3    H1 9243   3.212   0.851   3.126
 3121TIP3    H2 9244   3.304   0.911   3.020
 3122TIP3   OH2 9245   4.464   2.554   2.604
 3122TIP3    H1 9246   4.516   2.537   2.522
 3122TIP3    H2 9247   4.518   2.620   2.649
 3123TIP3   OH2 9248   3.525   0.936   3.917
 3123TIP3    H1 9249   3.474   0.926   3.999
 3123TIP3    H2 9250   3.457   0.969   3.856
 3124TIP3   OH2 9251   3.539   2.381   4.019
 3124TIP3    H1 9252   3.485   2.313   3.976
 3124TIP3    H2 9253   3.577   2.333   4.094
 3125TIP3   OH2 9254   3.728   2.373   3.506
 3125TIP3    H1 9255   3.698   2.465   3.494
 3125TIP3    H2 9256   3.824   2.386   3.496
 3126TIP3   OH2 9257   4.193   2.639   3.676
 3126TIP3    H1 9258   4.233   2.638   3.766
 3126TIP3    H2 9259   4.261   2.689   3.626
 3127TIP3   OH2 9260   4.372   2.787   3.531
 3127TIP3    H1 9261   4.444   2.734   3.494
 3127TIP3    H2 9262   4.421   2.844   3.594
 3128TIP3   OH2 9263   5.162   1.150   3.635
 3128TIP3    H1 9264   5.070   1.138   3.604
 3128TIP3    H2 9265   5.194   1.058   3.625
 3129TIP3   OH2 9266   3.420   2.650   3.555
 3129TIP3    H1 9267   3.332   2.690   3.541
 3129TIP3    H2 9268   3.436   2.672   3.648
 3130TIP3   OH2 9269   3.661   2.636   3.419
 3130TIP3    H1 9270   3.573   2.642   3.463
 3130TIP3    H2 9271   3.639   2.662   3.328
 3131TIP3   OH2 9272   4.088   2.661   3.212
 3131TIP3    H1 9273   4.014   2.681   3.151
 3131TIP3    H2 9274   4.098   2.746   3.259
 3132TIP3   OH2 9275   4.352   2.597   3.264
 3132TIP3    H1 9276   4.257   2.612   3.247
 3132TIP3    H2 9277   4.392   2.677   3.228
 3133TIP3   OH2 9278   4.563   2.790   3.186
 3133TIP3    H1 9279   4.548   2.875   3.137
 3133TIP3    H2 9280   4.585   2.729   3.113
 3134TIP3   OH2 9281   3.332   2.439   3.310
 3134TIP3    H1 9282   3.363   2.418   3.401
 3134TIP3    H2 9283   3.405   2.396   3.259
 3135TIP3   OH2 9284   3.524   2.313   3.161
 3135TIP3    H1 9285   3.540   2.228   3.208
 3135TIP3    H2 9286   3.615   2.350   3.159
 3136TIP3   OH2 9287   3.791   2.410   3.164
 3136TIP3    H1 9288   3.822   2.317   3.154
 3136TIP3    H2 9289   3.828   2.429   3.252
 3137TIP3   OH2 9290   4.336   1.039   3.215
 3137TIP3    H1 9291   4.313   0.993   3.298
 3137TIP3    H2 9292   4.433   1.036   3.217
 3138TIP3   OH2 9293   4.899   0.947   3.161
 3138TIP3    H1 9294   4.930   1.000   3.084
 3138TIP3    H2 9295   4.802   0.957   3.154
 3139TIP3   OH2 9296   4.988   1.051   2.922
 3139TIP3    H1 9297   5.060   0.998   2.881
 3139TIP3    H2 9298   5.021   1.143   2.907
 3140TIP3   OH2 9299   3.618   0.774   3.272
 3140TIP3    H1 9300   3.526   0.739   3.273
 3140TIP3    H2 9301   3.669   0.690   3.269
 3141TIP3   OH2 9302   3.391   0.641   2.914
 3141TIP3    H1 9303   3.432   0.699   2.846
 3141TIP3    H2 9304   3.372   0.705   2.985
 3142TIP3   OH2 9305   4.056   0.811   3.152
 3142TIP3    H1 9306   4.116   0.863   3.095
 3142TIP3    H2 9307   4.081   0.842   3.240
 3143TIP3   OH2 9308   4.623   0.950   3.137
 3143TIP3    H1 9309   4.594   0.923   3.049
 3143TIP3    H2 9310   4.597   0.871   3.190
 3144TIP3   OH2 9311   4.636   0.872   2.695
 3144TIP3    H1 9312   4.549   0.916   2.708
 3144TIP3    H2 9313   4.622   0.789   2.745
 3145TIP3   OH2 9314   3.120   2.209   2.701
 3145TIP3    H1 9315   3.035   2.178   2.664
 3145TIP3    H2 9316   3.108   2.305   2.689
 3146TIP3   OH2 9317   3.520   0.802   2.687
 3146TIP3    H1 9318   3.571   0.746   2.625
 3146TIP3    H2 9319   3.591   0.859   2.722
 3147TIP3   OH2 9320   4.032   0.976   2.781
 3147TIP3    H1 9321   4.095   0.932   2.842
 3147TIP3    H2 9322   4.053   1.069   2.806
 3148TIP3   OH2 9323   3.891   2.407   2.278
 3148TIP3    H1 9324   3.981   2.427   2.245
 3148TIP3    H2 9325   3.870   2.330   2.221
 3149TIP3   OH2 9326   4.610   2.519   2.372
 3149TIP3    H1 9327   4.601   2.422   2.359
 3149TIP3    H2 9328   4.566   2.552   2.291
 3150TIP3   OH2 9329   3.824   1.056   4.164
 3150TIP3    H1 9330   3.793   0.982   4.219
 3150TIP3    H2 9331   3.919   1.057   4.187
 3151TIP3   OH2 9332   4.074   1.053   4.281
 3151TIP3    H1 9333   4.157   1.026   4.239
 3151TIP3    H2 9334   4.062   0.982   4.348
 3152TIP3   OH2 9335   3.196   2.242   2.340
 3152TIP3    H1 9336   3.193   2.270   2.432
 3152TIP3    H2 9337   3.285   2.202   2.332
 3153TIP3   OH2 9338   4.895   1.109   4.069
 3153TIP3    H1 9339   4.915   1.080   4.161
 3153TIP3    H2 9340   4.984   1.107   4.028
 3154TIP3   OH2 9341   4.840   2.666   3.560
 3154TIP3    H1 9342   4.760   2.633   3.515
 3154TIP3    H2 9343   4.820   2.761   3.563
 3155TIP3   OH2 9344   6.104   2.040   2.328
 3155TIP3    H1 9345   6.074   2.131   2.307
 3155TIP3    H2 9346   6.027   1.989   2.299
 3156TIP3   OH2 9347   6.341   2.339   2.388
 3156TIP3    H1 9348   6.333   2.264   2.449
 3156TIP3    H2 9349   6.372   2.410   2.447
 3157TIP3   OH2 9350   5.371   2.340   2.800
 3157TIP3    H1 9351   5.367   2.243   2.805
 3157TIP3    H2 9352   5.467   2.354   2.797
 3158TIP3   OH2 9353   5.080   1.555   2.592
 3158TIP3    H1 9354   5.024   1.634   2.596
 3158TIP3    H2 9355   5.014   1.489   2.563
 3159TIP3   OH2 9356   5.142   1.838   2.750
 3159TIP3    H1 9357   5.190   1.760   2.784
 3159TIP3    H2 9358   5.188   1.855   2.667
 3160TIP3   OH2 9359   5.990   2.801   2.404
 3160TIP3    H1 9360   6.040   2.730   2.358
 3160TIP3    H2 9361   5.989   2.768   2.495
 3161TIP3   OH2 9362   5.897   2.266   2.755
 3161TIP3    H1 9363   5.926   2.187   2.707
 3161TIP3    H2 9364   5.985   2.302   2.780
 3162TIP3   OH2 9365   6.913   1.583   2.753
 3162TIP3    H1 9366   6.941   1.666   2.797
 3162TIP3    H2 9367   6.931   1.605   2.660
 3163TIP3   OH2 9368   5.629   1.417   2.766
 3163TIP3    H1 9369   5.622   1.481   2.692
 3163TIP3    H2 9370   5.613   1.333   2.720
 3164TIP3   OH2 9371   6.344   1.499   2.378
 3164TIP3    H1 9372   6.417   1.489   2.444
 3164TIP3    H2 9373   6.391   1.551   2.310
 3165TIP3   OH2 9374   5.294   1.636   2.861
 3165TIP3    H1 9375   5.370   1.593   2.902
 3165TIP3    H2 9376   5.287   1.581   2.780
 3166TIP3   OH2 9377   5.710   1.818   2.662
 3166TIP3    H1 9378   5.807   1.811   2.659
 3166TIP3    H2 9379   5.681   1.733   2.623
 3167TIP3   OH2 9380   6.987   1.790   2.923
 3167TIP3    H1 9381   6.903   1.838   2.903
 3167TIP3    H2 9382   6.995   1.808   3.018
 3168TIP3   OH2 9383   5.648   1.413   3.185
 3168TIP3    H1 9384   5.568   1.427   3.133
 3168TIP3    H2 9385   5.609   1.423   3.275
 3169TIP3   OH2 9386   5.997   2.260   2.199
 3169TIP3    H1 9387   5.953   2.232   2.118
 3169TIP3    H2 9388   5.953   2.346   2.217
 3170TIP3   OH2 9389   5.745   2.171   2.991
 3170TIP3    H1 9390   5.685   2.240   3.027
 3170TIP3    H2 9391   5.791   2.219   2.920
 3171TIP3   OH2 9392   6.558   1.511   2.547
 3171TIP3    H1 9393   6.545   1.465   2.631
 3171TIP3    H2 9394   6.608   1.590   2.574
 3172TIP3   OH2 9395   5.547   1.573   2.976
 3172TIP3    H1 9396   5.641   1.559   2.996
 3172TIP3    H2 9397   5.545   1.508   2.900
 3173TIP3   OH2 9398   5.577   2.374   3.080
 3173TIP3    H1 9399   5.554   2.461   3.042
 3173TIP3    H2 9400   5.499   2.361   3.140
 3174TIP3   OH2 9401   4.980   2.064   2.319
 3174TIP3    H1 9402   4.937   2.090   2.236
 3174TIP3    H2 9403   5.008   2.150   2.356
 3175TIP3   OH2 9404   6.417   2.580   2.560
 3175TIP3    H1 9405   6.326   2.570   2.598
 3175TIP3    H2 9406   6.408   2.665   2.515
 3176TIP3   OH2 9407   6.705   1.487   2.924
 3176TIP3    H1 9408   6.614   1.503   2.892
 3176TIP3    H2 9409   6.759   1.516   2.848
 3177TIP3   OH2 9410   6.008   1.132   2.903
 3177TIP3    H1 9411   5.997   1.036   2.911
 3177TIP3    H2 9412   5.928   1.164   2.951
 3178TIP3   OH2 9413   6.121   2.629   2.234
 3178TIP3    H1 9414   6.171   2.546   2.214
 3178TIP3    H2 9415   6.182   2.694   2.191
 3179TIP3   OH2 9416   6.262   2.414   2.135
 3179TIP3    H1 9417   6.225   2.335   2.095
 3179TIP3    H2 9418   6.296   2.379   2.221
 3180TIP3   OH2 9419   6.643   2.497   2.901
 3180TIP3    H1 9420   6.632   2.418   2.843
 3180TIP3    H2 9421   6.628   2.570   2.837
 3181TIP3   OH2 9422   5.933   1.891   2.155
 3181TIP3    H1 9423   5.853   1.939   2.127
 3181TIP3    H2 9424   5.984   1.885   2.072
 3182TIP3   OH2 9425   5.891   1.672   1.876
 3182TIP3    H1 9426   5.960   1.720   1.926
 3182TIP3    H2 9427   5.947   1.606   1.831
 3183TIP3   OH2 9428   6.838   2.131   2.745
 3183TIP3    H1 9429   6.755   2.183   2.752
 3183TIP3    H2 9430   6.865   2.153   2.654
 3184TIP3   OH2 9431   6.281   1.970   2.132
 3184TIP3    H1 9432   6.228   1.995   2.211
 3184TIP3    H2 9433   6.364   1.941   2.176
 3185TIP3   OH2 9434   6.512   2.008   3.031
 3185TIP3    H1 9435   6.499   2.093   3.074
 3185TIP3    H2 9436   6.426   1.997   2.985
 3186TIP3   OH2 9437   5.510   1.974   2.549
 3186TIP3    H1 9438   5.469   1.915   2.482
 3186TIP3    H2 9439   5.586   1.919   2.581
 3187TIP3   OH2 9440   5.641   2.379   2.697
 3187TIP3    H1 9441   5.627   2.332   2.613
 3187TIP3    H2 9442   5.732   2.350   2.720
 3188TIP3   OH2 9443   6.173   2.578   2.676
 3188TIP3    H1 9444   6.163   2.656   2.733
 3188TIP3    H2 9445   6.162   2.503   2.739
 3189TIP3   OH2 9446   5.786   2.498   3.223
 3189TIP3    H1 9447   5.728   2.560   3.272
 3189TIP3    H2 9448   5.721   2.444   3.176
 3190TIP3   OH2 9449   6.122   1.831   1.956
 3190TIP3    H1 9450   6.182   1.887   2.010
 3190TIP3    H2 9451   6.150   1.856   1.865
 3191TIP3   OH2 9452   5.524   2.058   3.304
 3191TIP3    H1 9453   5.542   2.141   3.352
 3191TIP3    H2 9454   5.434   2.038   3.337
 3192TIP3   OH2 9455   5.860   2.513   2.230
 3192TIP3    H1 9456   5.939   2.564   2.256
 3192TIP3    H2 9457   5.801   2.580   2.195
 3193TIP3   OH2 9458   5.582   2.668   3.310
 3193TIP3    H1 9459   5.546   2.664   3.219
 3193TIP3    H2 9460   5.503   2.645   3.365
 3194TIP3   OH2 9461   6.639   1.073   2.006
 3194TIP3    H1 9462   6.556   1.090   2.056
 3194TIP3    H2 9463   6.648   1.157   1.956
 3195TIP3   OH2 9464   5.373   1.816   2.362
 3195TIP3    H1 9465   5.314   1.857   2.295
 3195TIP3    H2 9466   5.345   1.724   2.358
 3196TIP3   OH2 9467   6.436   2.437   1.551
 3196TIP3    H1 9468   6.445   2.534   1.538
 3196TIP3    H2 9469   6.528   2.407   1.539
 3197TIP3   OH2 9470   5.161   2.194   3.258
 3197TIP3    H1 9471   5.090   2.173   3.194
 3197TIP3    H2 9472   5.192   2.106   3.288
 3198TIP3   OH2 9473   5.017   2.386   2.895
 3198TIP3    H1 9474   5.113   2.390   2.883
 3198TIP3    H2 9475   5.002   2.468   2.945
 3199TIP3   OH2 9476   6.880   2.836   2.943
 3199TIP3    H1 9477   6.879   2.740   2.958
 3199TIP3    H2 9478   6.797   2.861   2.990
 3200TIP3   OH2 9479   5.985   2.629   3.079
 3200TIP3    H1 9480   5.987   2.721   3.113
 3200TIP3    H2 9481   5.915   2.589   3.136
 3201TIP3   OH2 9482   5.742   2.756   2.032
 3201TIP3    H1 9483   5.698   2.737   1.947
 3201TIP3    H2 9484   5.712   2.846   2.053
 3202TIP3   OH2 9485   5.183   2.606   2.415
 3202TIP3    H1 9486   5.233   2.596   2.499
 3202TIP3    H2 9487   5.119   2.533   2.424
 3203TIP3   OH2 9488   5.948   2.655   1.674
 3203TIP3    H1 9489   6.008   2.586   1.638
 3203TIP3    H2 9490   5.981   2.664   1.766
 3204TIP3   OH2 9491   5.995   2.704   1.946
 3204TIP3    H1 9492   5.908   2.712   1.990
 3204TIP3    H2 9493   6.047   2.660   2.015
 3205TIP3   OH2 9494   6.769   1.972   3.219
 3205TIP3    H1 9495   6.689   1.985   3.165
 3205TIP3    H2 9496   6.784   1.876   3.207
 3206TIP3   OH2 9497   5.366   2.379   3.251
 3206TIP3    H1 9498   5.418   2.363   3.333
 3206TIP3    H2 9499   5.294   2.314   3.259
 3207TIP3   OH2 9500   5.767   1.201   3.030
 3207TIP3    H1 9501   5.677   1.170   3.006
 3207TIP3    H2 9502   5.745   1.284   3.075
 3208TIP3   OH2 9503   6.300   1.317   3.224
 3208TIP3    H1 9504   6.369   1.289   3.288
 3208TIP3    H2 9505   6.217   1.296   3.270
 3209TIP3   OH2 9506   6.544   1.747   3.144
 3209TIP3    H1 9507   6.493   1.745   3.228
 3209TIP3    H2 9508   6.510   1.827   3.101
 3210TIP3   OH2 9509   6.195   1.883   1.699
 3210TIP3    H1 9510   6.166   1.850   1.612
 3210TIP3    H2 9511   6.278   1.928   1.675
 3211TIP3   OH2 9512   5.910   1.259   1.988
 3211TIP3    H1 9513   5.889   1.256   2.084
 3211TIP3    H2 9514   5.877   1.170   1.963
 3212TIP3   OH2 9515   5.579   1.598   2.571
 3212TIP3    H1 9516   5.485   1.573   2.576
 3212TIP3    H2 9517   5.599   1.574   2.477
 3213TIP3   OH2 9518   6.067   1.687   2.286
 3213TIP3    H1 9519   6.016   1.761   2.246
 3213TIP3    H2 9520   6.126   1.662   2.213
 3214TIP3   OH2 9521   6.248   1.988   3.399
 3214TIP3    H1 9522   6.223   1.900   3.436
 3214TIP3    H2 9523   6.344   1.978   3.396
 3215TIP3   OH2 9524   6.250   1.734   2.505
 3215TIP3    H1 9525   6.171   1.749   2.450
 3215TIP3    H2 9526   6.263   1.639   2.492
 3216TIP3   OH2 9527   5.565   1.220   1.974
 3216TIP3    H1 9528   5.588   1.219   2.068
 3216TIP3    H2 9529   5.483   1.269   1.974
 3217TIP3   OH2 9530   5.111   1.279   2.833
 3217TIP3    H1 9531   5.192   1.297   2.885
 3217TIP3    H2 9532   5.143   1.229   2.756
 3218TIP3   OH2 9533   5.082   1.247   2.352
 3218TIP3    H1 9534   5.149   1.280   2.289
 3218TIP3    H2 9535   5.031   1.326   2.375
 3219TIP3   OH2 9536   5.905   1.440   2.628
 3219TIP3    H1 9537   5.833   1.418   2.689
 3219TIP3    H2 9538   5.984   1.432   2.686
 3220TIP3   OH2 9539   5.336   1.476   2.636
 3220TIP3    H1 9540   5.242   1.492   2.612
 3220TIP3    H2 9541   5.350   1.385   2.607
 3221TIP3   OH2 9542   5.619   1.523   2.319
 3221TIP3    H1 9543   5.712   1.495   2.306
 3221TIP3    H2 9544   5.576   1.499   2.235
 3222TIP3   OH2 9545   6.420   1.482   2.835
 3222TIP3    H1 9546   6.372   1.524   2.910
 3222TIP3    H2 9547   6.345   1.447   2.784
 3223TIP3   OH2 9548   5.442   1.512   2.097
 3223TIP3    H1 9549   5.372   1.473   2.042
 3223TIP3    H2 9550   5.500   1.550   2.028
 3224TIP3   OH2 9551   6.566   3.191   3.044
 3224TIP3    H1 9552   6.567   3.213   2.949
 3224TIP3    H2 9553   6.645   3.239   3.076
 3225TIP3   OH2 9554   5.528   2.297   3.467
 3225TIP3    H1 9555   5.609   2.328   3.514
 3225TIP3    H2 9556   5.464   2.301   3.541
 3226TIP3   OH2 9557   5.943   1.646   3.035
 3226TIP3    H1 9558   5.918   1.739   3.036
 3226TIP3    H2 9559   6.039   1.656   3.027
 3227TIP3   OH2 9560   5.702   2.045   2.105
 3227TIP3    H1 9561   5.631   1.977   2.096
 3227TIP3    H2 9562   5.688   2.075   2.198
 3228TIP3   OH2 9563   6.607   2.279   2.738
 3228TIP3    H1 9564   6.630   2.326   2.655
 3228TIP3    H2 9565   6.522   2.235   2.716
 3229TIP3   OH2 9566   6.162   1.360   1.957
 3229TIP3    H1 9567   6.067   1.342   1.971
 3229TIP3    H2 9568   6.174   1.451   1.991
 3230TIP3   OH2 9569   6.107   2.363   3.102
 3230TIP3    H1 9570   6.125   2.332   3.192
 3230TIP3    H2 9571   6.066   2.450   3.116
 3231TIP3   OH2 9572   6.235   1.600   2.069
 3231TIP3    H1 9573   6.331   1.603   2.089
 3231TIP3    H2 9574   6.222   1.680   2.015
 3232TIP3   OH2 9575   5.394   2.055   2.787
 3232TIP3    H1 9576   5.413   2.055   2.691
 3232TIP3    H2 9577   5.462   1.993   2.814
 3233TIP3   OH2 9578   5.849   2.191   1.923
 3233TIP3    H1 9579   5.803   2.278   1.933
 3233TIP3    H2 9580   5.796   2.135   1.984
 3234TIP3   OH2 9581   5.274   1.982   3.396
 3234TIP3    H1 9582   5.306   1.973   3.488
 3234TIP3    H2 9583   5.205   1.914   3.391
 3235TIP3   OH2 9584   5.999   2.094   3.414
 3235TIP3    H1 9585   5.958   2.041   3.345
 3235TIP3    H2 9586   6.093   2.067   3.402
 3236TIP3   OH2 9587   6.266   2.624   2.995
 3236TIP3    H1 9588   6.171   2.616   3.010
 3236TIP3    H2 9589   6.294   2.671   3.076
 3237TIP3   OH2 9590   6.678   1.687   1.908
 3237TIP3    H1 9591   6.614   1.642   1.849
 3237TIP3    H2 9592   6.676   1.775   1.866
 3238TIP3   OH2 9593   6.894   2.547   2.990
 3238TIP3    H1 9594   6.796   2.542   2.983
 3238TIP3    H2 9595   6.918   2.516   2.900
 3239TIP3   OH2 9596   6.372   2.510   1.815
 3239TIP3    H1 9597   6.353   2.440   1.878
 3239TIP3    H2 9598   6.387   2.461   1.732
 3240TIP3   OH2 9599   6.372   2.134   2.662
 3240TIP3    H1 9600   6.300   2.087   2.709
 3240TIP3    H2 9601   6.409   2.060   2.610
 3241TIP3   OH2 9602   5.495   2.364   2.408
 3241TIP3    H1 9603   5.503   2.446   2.356
 3241TIP3    H2 9604   5.399   2.354   2.413
 3242TIP3   OH2 9605   5.058   1.671   2.107
 3242TIP3    H1 9606   5.108   1.753   2.127
 3242TIP3    H2 9607   4.983   1.679   2.170
 3243TIP3   OH2 9608   5.640   2.133   2.354
 3243TIP3    H1 9609   5.604   2.223   2.371
 3243TIP3    H2 9610   5.604   2.084   2.430
 3244TIP3   OH2 9611   5.765   2.711   2.879
 3244TIP3    H1 9612   5.808   2.783   2.828
 3244TIP3    H2 9613   5.841   2.676   2.928
 3245TIP3   OH2 9614   5.419   2.605   2.261
 3245TIP3    H1 9615   5.332   2.613   2.306
 3245TIP3    H2 9616   5.450   2.698   2.264
 3246TIP3   OH2 9617   6.159   2.344   2.833
 3246TIP3    H1 9618   6.149   2.339   2.931
 3246TIP3    H2 9619   6.237   2.288   2.820
 3247TIP3   OH2 9620   6.126   2.236   1.719
 3247TIP3    H1 9621   6.182   2.211   1.797
 3247TIP3    H2 9622   6.039   2.209   1.752
 3248TIP3   OH2 9623   6.405   2.882   2.889
 3248TIP3    H1 9624   6.328   2.822   2.881
 3248TIP3    H2 9625   6.388   2.945   2.815
 3249TIP3   OH2 9626   6.467   2.711   1.538
 3249TIP3    H1 9627   6.509   2.783   1.489
 3249TIP3    H2 9628   6.389   2.759   1.573
 3250TIP3   OH2 9629   5.497   1.470   3.405
 3250TIP3    H1 9630   5.406   1.497   3.426
 3250TIP3    H2 9631   5.521   1.417   3.483
 3251TIP3   OH2 9632   6.288   2.172   1.937
 3251TIP3    H1 9633   6.277   2.105   2.007
 3251TIP3    H2 9634   6.385   2.169   1.924
 3252TIP3   OH2 9635   5.207   2.575   3.038
 3252TIP3    H1 9636   5.259   2.499   3.068
 3252TIP3    H2 9637   5.234   2.643   3.101
 3253TIP3   OH2 9638   5.496   2.219   1.717
 3253TIP3    H1 9639   5.514   2.128   1.687
 3253TIP3    H2 9640   5.479   2.205   1.812
 3254TIP3   OH2 9641   5.443   2.222   1.991
 3254TIP3    H1 9642   5.515   2.194   2.049
 3254TIP3    H2 9643   5.449   2.320   1.997
 3255TIP3   OH2 9644   5.179   1.916   2.191
 3255TIP3    H1 9645   5.115   1.962   2.249
 3255TIP3    H2 9646   5.197   1.987   2.125
 3256TIP3   OH2 9647   6.315   1.560   3.086
 3256TIP3    H1 9648   6.401   1.594   3.115
 3256TIP3    H2 9649   6.307   1.477   3.137
 3257TIP3   OH2 9650   6.205   1.305   2.244
 3257TIP3    H1 9651   6.192   1.335   2.152
 3257TIP3    H2 9652   6.247   1.383   2.286
 3258TIP3   OH2 9653   5.706   2.421   1.939
 3258TIP3    H1 9654   5.620   2.452   1.975
 3258TIP3    H2 9655   5.725   2.491   1.876
 3259TIP3   OH2 9656   5.895   1.482   2.355
 3259TIP3    H1 9657   5.960   1.553   2.334
 3259TIP3    H2 9658   5.902   1.477   2.452
 3260TIP3   OH2 9659   6.146   1.770   3.221
 3260TIP3    H1 9660   6.166   1.863   3.204
 3260TIP3    H2 9661   6.203   1.727   3.156
 3261TIP3   OH2 9662   6.049   1.217   2.464
 3261TIP3    H1 9663   6.052   1.295   2.521
 3261TIP3    H2 9664   6.099   1.250   2.385
 3262TIP3   OH2 9665   5.447   2.496   2.004
 3262TIP3    H1 9666   5.417   2.566   1.941
 3262TIP3    H2 9667   5.432   2.540   2.090
 3263TIP3   OH2 9668   6.810   1.704   3.138
 3263TIP3    H1 9669   6.712   1.704   3.148
 3263TIP3    H2 9670   6.816   1.660   3.052
 3264TIP3   OH2 9671   6.462   1.905   2.531
 3264TIP3    H1 9672   6.381   1.847   2.538
 3264TIP3    H2 9673   6.529   1.850   2.577
 3265TIP3   OH2 9674   5.167   2.132   1.999
 3265TIP3    H1 9675   5.230   2.205   2.010
 3265TIP3    H2 9676   5.216   2.079   1.932
 3266TIP3   OH2 9677   5.106   1.397   2.098
 3266TIP3    H1 9678   5.115   1.494   2.108
 3266TIP3    H2 9679   5.019   1.381   2.136
 3267TIP3   OH2 9680   6.424   2.852   2.480
 3267TIP3    H1 9681   6.383   2.899   2.404
 3267TIP3    H2 9682   6.518   2.870   2.460
 3268TIP3   OH2 9683   5.499   1.130   3.018
 3268TIP3    H1 9684   5.470   1.094   2.930
 3268TIP3    H2 9685   5.490   1.049   3.073
 3269TIP3   OH2 9686   5.043   2.341   2.394
 3269TIP3    H1 9687   4.963   2.374   2.436
 3269TIP3    H2 9688   5.032   2.377   2.303
 3270TIP3   OH2 9689   5.194   2.877   3.458
 3270TIP3    H1 9690   5.280   2.877   3.505
 3270TIP3    H2 9691   5.173   2.782   3.457
 3271TIP3   OH2 9692   5.681   2.852   3.501
 3271TIP3    H1 9693   5.775   2.830   3.512
 3271TIP3    H2 9694   5.658   2.793   3.426
 3272TIP3   OH2 9695   5.661   2.423   1.633
 3272TIP3    H1 9696   5.603   2.353   1.670
 3272TIP3    H2 9697   5.736   2.370   1.602
 3273TIP3   OH2 9698   6.318   2.752   3.235
 3273TIP3    H1 9699   6.308   2.682   3.304
 3273TIP3    H2 9700   6.396   2.802   3.266
 3274TIP3   OH2 9701   6.098   2.466   1.541
 3274TIP3    H1 9702   6.143   2.402   1.599
 3274TIP3    H2 9703   6.155   2.466   1.462
 3275TIP3   OH2 9704   5.328   2.288   3.658
 3275TIP3    H1 9705   5.344   2.192   3.666
 3275TIP3    H2 9706   5.239   2.289   3.616
 3276TIP3   OH2 9707   5.303   1.941   1.849
 3276TIP3    H1 9708   5.357   1.905   1.922
 3276TIP3    H2 9709   5.371   1.945   1.779
 3277TIP3   OH2 9710   5.935   2.370   3.431
 3277TIP3    H1 9711   5.896   2.383   3.343
 3277TIP3    H2 9712   5.968   2.278   3.427
 3278TIP3   OH2 9713   5.805   2.136   1.655
 3278TIP3    H1 9714   5.813   2.150   1.752
 3278TIP3    H2 9715   5.807   2.038   1.651
 3279TIP3   OH2 9716   6.429   2.376   3.038
 3279TIP3    H1 9717   6.501   2.423   2.993
 3279TIP3    H2 9718   6.355   2.439   3.025
 3280TIP3   OH2 9719   5.438   2.010   3.638
 3280TIP3    H1 9720   5.517   1.957   3.620
 3280TIP3    H2 9721   5.463   2.050   3.724
 3281TIP3   OH2 9722   5.512   1.840   2.076
 3281TIP3    H1 9723   5.495   1.794   2.159
 3281TIP3    H2 9724   5.549   1.767   2.021
 3282TIP3   OH2 9725   5.760   1.886   3.268
 3282TIP3    H1 9726   5.706   1.960   3.302
 3282TIP3    H2 9727   5.830   1.935   3.216
 3283TIP3   OH2 9728   5.610   1.634   1.916
 3283TIP3    H1 9729   5.586   1.633   1.821
 3283TIP3    H2 9730   5.708   1.640   1.911
 3284TIP3   OH2 9731   6.299   2.312   3.438
 3284TIP3    H1 9732   6.378   2.292   3.385
 3284TIP3    H2 9733   6.294   2.236   3.497
 3285TIP3   OH2 9734   6.432   1.968   1.575
 3285TIP3    H1 9735   6.416   1.919   1.493
 3285TIP3    H2 9736   6.404   2.058   1.546
 3286TIP3   OH2 9737   5.899   1.692   3.433
 3286TIP3    H1 9738   5.913   1.610   3.382
 3286TIP3    H2 9739   5.867   1.753   3.364
 3287TIP3   OH2 9740   5.907   1.472   3.247
 3287TIP3    H1 9741   5.935   1.526   3.171
 3287TIP3    H2 9742   5.814   1.452   3.224
 3288TIP3   OH2 9743   5.941   2.008   3.112
 3288TIP3    H1 9744   6.020   1.992   3.055
 3288TIP3    H2 9745   5.894   2.076   3.059
 3289TIP3   OH2 9746   6.527   1.985   3.502
 3289TIP3    H1 9747   6.565   1.899   3.479
 3289TIP3    H2 9748   6.590   2.046   3.461
 3290TIP3   OH2 9749   6.558   2.239   3.230
 3290TIP3    H1 9750   6.500   2.288   3.167
 3290TIP3    H2 9751   6.645   2.254   3.187
 3291TIP3   OH2 9752   5.777   1.812   3.653
 3291TIP3    H1 9753   5.709   1.744   3.670
 3291TIP3    H2 9754   5.815   1.782   3.568
 3292TIP3   OH2 9755   6.042   1.241   3.304
 3292TIP3    H1 9756   5.995   1.326   3.284
 3292TIP3    H2 9757   5.971   1.176   3.290
 3293TIP3   OH2 9758   6.166   1.756   3.530
 3293TIP3    H1 9759   6.122   1.742   3.616
 3293TIP3    H2 9760   6.093   1.731   3.469
 3294TIP3   OH2 9761   6.415   1.717   3.377
 3294TIP3    H1 9762   6.329   1.699   3.418
 3294TIP3    H2 9763   6.479   1.670   3.434
 3295TIP3   OH2 9764   6.633   1.636   3.531
 3295TIP3    H1 9765   6.650   1.540   3.547
 3295TIP3    H2 9766   6.630   1.674   3.622
 3296TIP3   OH2 9767   5.620   1.591   3.708
 3296TIP3    H1 9768   5.631   1.502   3.671
 3296TIP3    H2 9769   5.656   1.578   3.798
 3297TIP3   OH2 9770   6.141   1.264   3.562
 3297TIP3    H1 9771   6.206   1.191   3.559
 3297TIP3    H2 9772   6.100   1.253   3.474
 3298TIP3   OH2 9773   6.215   1.486   3.708
 3298TIP3    H1 9774   6.195   1.407   3.653
 3298TIP3    H2 9775   6.132   1.536   3.696
 3299TIP3   OH2 9776   5.418   2.699   1.817
 3299TIP3    H1 9777   5.513   2.697   1.798
 3299TIP3    H2 9778   5.387   2.745   1.737
 3300TIP3   OH2 9779   4.900   2.080   2.037
 3300TIP3    H1 9780   4.994   2.104   2.023
 3300TIP3    H2 9781   4.896   1.991   1.995
 3301TIP3   OH2 9782   4.812   2.693   2.446
 3301TIP3    H1 9783   4.744   2.630   2.412
 3301TIP3    H2 9784   4.856   2.638   2.514
 3302TIP3   OH2 9785   4.949   2.550   2.633
 3302TIP3    H1 9786   4.938   2.473   2.690
 3302TIP3    H2 9787   5.000   2.609   2.692
 3303TIP3   OH2 9788   6.673   2.951   2.432
 3303TIP3    H1 9789   6.702   2.978   2.520
 3303TIP3    H2 9790   6.739   2.992   2.374
 3304TIP3   OH2 9791   6.708   2.966   2.713
 3304TIP3    H1 9792   6.665   2.877   2.710
 3304TIP3    H2 9793   6.782   2.946   2.772
 3305TIP3   OH2 9794   6.752   2.642   3.287
 3305TIP3    H1 9795   6.679   2.649   3.351
 3305TIP3    H2 9796   6.793   2.731   3.293
 3306TIP3   OH2 9797   6.567   2.158   1.911
 3306TIP3    H1 9798   6.640   2.217   1.883
 3306TIP3    H2 9799   6.607   2.115   1.990
 3307TIP3   OH2 9800   6.694   2.024   2.113
 3307TIP3    H1 9801   6.630   1.979   2.173
 3307TIP3    H2 9802   6.759   2.062   2.176
 3308TIP3   OH2 9803   6.748   2.413   2.544
 3308TIP3    H1 9804   6.802   2.349   2.494
 3308TIP3    H2 9805   6.736   2.486   2.481
 3309TIP3   OH2 9806   6.584   2.716   2.740
 3309TIP3    H1 9807   6.513   2.754   2.795
 3309TIP3    H2 9808   6.534   2.665   2.673
 3310TIP3   OH2 9809   6.635   1.931   1.760
 3310TIP3    H1 9810   6.563   1.934   1.694
 3310TIP3    H2 9811   6.608   2.006   1.817
 3311TIP3   OH2 9812   6.503   1.605   1.717
 3311TIP3    H1 9813   6.468   1.641   1.636
 3311TIP3    H2 9814   6.478   1.510   1.708
 3312TIP3   OH2 9815   6.511   1.877   2.263
 3312TIP3    H1 9816   6.518   1.780   2.258
 3312TIP3    H2 9817   6.497   1.892   2.359
 3313TIP3   OH2 9818   5.164   1.935   3.007
 3313TIP3    H1 9819   5.141   1.907   2.915
 3313TIP3    H2 9820   5.223   2.010   2.988
 3314TIP3   OH2 9821   6.800   2.303   3.116
 3314TIP3    H1 9822   6.872   2.237   3.109
 3314TIP3    H2 9823   6.829   2.372   3.055
 3315TIP3   OH2 9824   6.986   2.112   3.142
 3315TIP3    H1 9825   6.911   2.060   3.178
 3315TIP3    H2 9826   7.059   2.047   3.153
 3316TIP3   OH2 9827   6.450   1.339   1.704
 3316TIP3    H1 9828   6.527   1.309   1.756
 3316TIP3    H2 9829   6.380   1.278   1.732
 3317TIP3   OH2 9830   6.506   1.594   2.155
 3317TIP3    H1 9831   6.544   1.505   2.173
 3317TIP3    H2 9832   6.568   1.625   2.087
 3318TIP3   OH2 9833   6.673   1.769   2.650
 3318TIP3    H1 9834   6.758   1.798   2.612
 3318TIP3    H2 9835   6.683   1.803   2.741
 3319TIP3   OH2 9836   6.738   1.911   2.885
 3319TIP3    H1 9837   6.657   1.944   2.931
 3319TIP3    H2 9838   6.768   1.992   2.840
 3320TIP3   OH2 9839   5.355   1.644   3.682
 3320TIP3    H1 9840   5.452   1.635   3.683
 3320TIP3    H2 9841   5.330   1.557   3.722
 3321TIP3   OH2 9842   7.189   1.501   3.440
 3321TIP3    H1 9843   7.247   1.435   3.397
 3321TIP3    H2 9844   7.163   1.558   3.365
 3322TIP3   OH2 9845   6.616   1.344   2.192
 3322TIP3    H1 9846   6.664   1.329   2.277
 3322TIP3    H2 9847   6.555   1.267   2.193
 3323TIP3   OH2 9848   5.321   1.337   3.004
 3323TIP3    H1 9849   5.372   1.254   3.014
 3323TIP3    H2 9850   5.383   1.403   3.034
 3324TIP3   OH2 9851   5.130   1.606   3.091
 3324TIP3    H1 9852   5.166   1.592   3.002
 3324TIP3    H2 9853   5.135   1.702   3.100
 3325TIP3   OH2 9854   7.063   1.646   3.247
 3325TIP3    H1 9855   6.973   1.682   3.262
 3325TIP3    H2 9856   7.041   1.573   3.186
 3326TIP3   OH2 9857   6.698   1.287   1.827
 3326TIP3    H1 9858   6.733   1.211   1.775
 3326TIP3    H2 9859   6.769   1.353   1.816
 3327TIP3   OH2 9860   5.099   1.123   2.595
 3327TIP3    H1 9861   5.004   1.109   2.612
 3327TIP3    H2 9862   5.100   1.165   2.507
 3328TIP3   OH2 9863   6.259   2.812   2.090
 3328TIP3    H1 9864   6.312   2.793   2.010
 3328TIP3    H2 9865   6.315   2.874   2.138
 3329TIP3   OH2 9866   5.321   1.188   3.401
 3329TIP3    H1 9867   5.272   1.181   3.485
 3329TIP3    H2 9868   5.253   1.226   3.343
 3330TIP3   OH2 9869   5.362   2.613   3.479
 3330TIP3    H1 9870   5.271   2.583   3.463
 3330TIP3    H2 9871   5.372   2.596   3.574
 3331TIP3   OH2 9872   5.537   2.643   3.024
 3331TIP3    H1 9873   5.491   2.720   2.986
 3331TIP3    H2 9874   5.625   2.657   2.983
 3332TIP3   OH2 9875   5.988   2.894   3.164
 3332TIP3    H1 9876   6.030   2.895   3.253
 3332TIP3    H2 9877   6.055   2.943   3.112
 3333TIP3   OH2 9878   6.167   3.042   3.019
 3333TIP3    H1 9879   6.239   2.990   2.980
 3333TIP3    H2 9880   6.217   3.099   3.081
 3334TIP3   OH2 9881   6.959   1.407   3.123
 3334TIP3    H1 9882   6.868   1.404   3.088
 3334TIP3    H2 9883   6.987   1.313   3.110
 3335TIP3   OH2 9884   5.217   2.904   3.047
 3335TIP3    H1 9885   5.129   2.941   3.024
 3335TIP3    H2 9886   5.225   2.933   3.139
 3336TIP3   OH2 9887   5.454   2.882   2.905
 3336TIP3    H1 9888   5.368   2.896   2.951
 3336TIP3    H2 9889   5.433   2.916   2.816
 3337TIP3   OH2 9890   5.880   2.915   2.702
 3337TIP3    H1 9891   5.811   2.938   2.637
 3337TIP3    H2 9892   5.894   3.001   2.747
 3338TIP3   OH2 9893   6.147   2.853   2.753
 3338TIP3    H1 9894   6.053   2.869   2.733
 3338TIP3    H2 9895   6.189   2.932   2.715
 3339TIP3   OH2 9896   6.358   3.046   2.673
 3339TIP3    H1 9897   6.344   3.130   2.623
 3339TIP3    H2 9898   6.382   2.984   2.601
 3340TIP3   OH2 9899   5.129   2.699   2.794
 3340TIP3    H1 9900   5.156   2.676   2.886
 3340TIP3    H2 9901   5.201   2.655   2.744
 3341TIP3   OH2 9902   5.320   2.570   2.647
 3341TIP3    H1 9903   5.339   2.486   2.696
 3341TIP3    H2 9904   5.410   2.609   2.642
 3342TIP3   OH2 9905   5.586   2.667   2.650
 3342TIP3    H1 9906   5.620   2.576   2.637
 3342TIP3    H2 9907   5.627   2.688   2.736
 3343TIP3   OH2 9908   6.152   1.320   2.730
 3343TIP3    H1 9909   6.118   1.252   2.791
 3343TIP3    H2 9910   6.232   1.277   2.694
 3344TIP3   OH2 9911   6.690   1.200   2.647
 3344TIP3    H1 9912   6.726   1.254   2.573
 3344TIP3    H2 9913   6.595   1.219   2.642
 3345TIP3   OH2 9914   6.784   1.304   2.409
 3345TIP3    H1 9915   6.857   1.254   2.368
 3345TIP3    H2 9916   6.816   1.396   2.395
 3346TIP3   OH2 9917   5.408   1.036   2.784
 3346TIP3    H1 9918   5.322   1.000   2.755
 3346TIP3    H2 9919   5.469   0.979   2.731
 3347TIP3   OH2 9920   5.170   0.904   2.391
 3347TIP3    H1 9921   5.248   0.945   2.348
 3347TIP3    H2 9922   5.172   0.954   2.475
 3348TIP3   OH2 9923   5.875   1.060   2.650
 3348TIP3    H1 9924   5.923   1.113   2.583
 3348TIP3    H2 9925   5.899   1.105   2.732
 3349TIP3   OH2 9926   6.407   1.207   2.623
 3349TIP3    H1 9927   6.397   1.175   2.532
 3349TIP3    H2 9928   6.389   1.126   2.675
 3350TIP3   OH2 9929   6.432   1.129   2.183
 3350TIP3    H1 9930   6.344   1.171   2.193
 3350TIP3    H2 9931   6.418   1.045   2.232
 3351TIP3   OH2 9932   4.916   2.466   2.189
 3351TIP3    H1 9933   4.832   2.433   2.152
 3351TIP3    H2 9934   4.903   2.561   2.176
 3352TIP3   OH2 9935   5.322   1.078   2.160
 3352TIP3    H1 9936   5.369   1.004   2.118
 3352TIP3    H2 9937   5.377   1.087   2.241
 3353TIP3   OH2 9938   5.844   1.235   2.247
 3353TIP3    H1 9939   5.846   1.172   2.320
 3353TIP3    H2 9940   5.863   1.320   2.293
 3354TIP3   OH2 9941   5.687   2.664   1.765
 3354TIP3    H1 9942   5.778   2.683   1.731
 3354TIP3    H2 9943   5.666   2.587   1.708
 3355TIP3   OH2 9944   6.407   2.776   1.859
 3355TIP3    H1 9945   6.399   2.678   1.847
 3355TIP3    H2 9946   6.361   2.807   1.778
 3356TIP3   OH2 9947   5.621   1.310   3.648
 3356TIP3    H1 9948   5.589   1.239   3.707
 3356TIP3    H2 9949   5.716   1.312   3.674
 3357TIP3   OH2 9950   5.870   1.308   3.767
 3357TIP3    H1 9951   5.957   1.283   3.731
 3357TIP3    H2 9952   5.858   1.239   3.836
 3358TIP3   OH2 9953   4.992   2.498   1.826
 3358TIP3    H1 9954   4.990   2.526   1.919
 3358TIP3    H2 9955   5.082   2.458   1.818
 3359TIP3   OH2 9956   6.692   1.369   3.557
 3359TIP3    H1 9957   6.710   1.337   3.649
 3359TIP3    H2 9958   6.781   1.361   3.517
 3360TIP3   OH2 9959   6.636   2.923   3.048
 3360TIP3    H1 9960   6.556   2.889   3.002
 3360TIP3    H2 9961   6.615   3.019   3.050
 3361TIP3   OH2 9962   7.900   2.294   1.816
 3361TIP3    H1 9963   7.871   2.386   1.796
 3361TIP3    H2 9964   7.823   2.244   1.783
 3362TIP3   OH2 9965   7.898   2.293   2.192
 3362TIP3    H1 9966   7.926   2.261   2.279
 3362TIP3    H2 9967   7.856   2.214   2.154
 3363TIP3   OH2 9968   7.199   2.192   2.560
 3363TIP3    H1 9969   7.230   2.124   2.623
 3363TIP3    H2 9970   7.277   2.248   2.553
 3364TIP3   OH2 9971   8.145   2.593   1.874
 3364TIP3    H1 9972   8.125   2.521   1.936
 3364TIP3    H2 9973   8.162   2.668   1.933
 3365TIP3   OH2 9974   7.166   2.598   2.287
 3365TIP3    H1 9975   7.158   2.500   2.291
 3365TIP3    H2 9976   7.263   2.607   2.285
 3366TIP3   OH2 9977   6.877   1.806   2.074
 3366TIP3    H1 9978   6.825   1.888   2.084
 3366TIP3    H2 9979   6.807   1.746   2.043
 3367TIP3   OH2 9980   6.937   2.090   2.238
 3367TIP3    H1 9981   6.984   2.013   2.278
 3367TIP3    H2 9982   6.995   2.110   2.163
 3368TIP3   OH2 9983   7.786   3.058   1.891
 3368TIP3    H1 9984   7.837   2.987   1.845
 3368TIP3    H2 9985   7.783   3.024   1.981
 3369TIP3   OH2 9986   7.698   2.519   2.241
 3369TIP3    H1 9987   7.733   2.441   2.194
 3369TIP3    H2 9988   7.783   2.561   2.265
 3370TIP3   OH2 9989   8.644   1.862   2.251
 3370TIP3    H1 9990   8.706   1.916   2.304
 3370TIP3    H2 9991   8.683   1.871   2.163
 3371TIP3   OH2 9992   8.110   2.024   2.278
 3371TIP3    H1 9993   8.151   1.938   2.298
 3371TIP3    H2 9994   8.079   2.008   2.186
 3372TIP3   OH2 9995   7.444   1.680   2.243
 3372TIP3    H1 9996   7.423   1.752   2.180
 3372TIP3    H2 9997   7.397   1.606   2.198
 3373TIP3   OH2 9998   8.139   1.769   1.868
 3373TIP3    H1 9999   8.213   1.749   1.930
 3373TIP3    H210000   8.189   1.803   1.792
 3374TIP3   OH210001   7.081   1.884   2.347
 3374TIP3    H110002   7.163   1.863   2.395
 3374TIP3    H210003   7.091   1.826   2.269
 3375TIP3   OH210004   7.522   2.081   2.138
 3375TIP3    H110005   7.615   2.054   2.153
 3375TIP3    H210006   7.482   1.997   2.107
 3376TIP3   OH210007   8.779   2.045   2.407
 3376TIP3    H110008   8.695   2.095   2.402
 3376TIP3    H210009   8.817   2.076   2.491
 3377TIP3   OH210010   7.444   1.664   2.675
 3377TIP3    H110011   7.382   1.700   2.609
 3377TIP3    H210012   7.394   1.681   2.757
 3378TIP3   OH210013   7.797   2.517   1.685
 3378TIP3    H110014   7.750   2.486   1.606
 3378TIP3    H210015   7.751   2.601   1.703
 3379TIP3   OH210016   7.550   2.438   2.475
 3379TIP3    H110017   7.485   2.500   2.514
 3379TIP3    H210018   7.592   2.493   2.406
 3380TIP3   OH210019   8.360   1.766   2.033
 3380TIP3    H110020   8.343   1.721   2.116
 3380TIP3    H210021   8.410   1.844   2.062
 3381TIP3   OH210022   7.313   1.779   2.461
 3381TIP3    H110023   7.376   1.850   2.484
 3381TIP3    H210024   7.361   1.737   2.386
 3382TIP3   OH210025   7.374   2.628   2.568
 3382TIP3    H110026   7.349   2.715   2.529
 3382TIP3    H210027   7.296   2.614   2.626
 3383TIP3   OH210028   6.775   2.320   1.805
 3383TIP3    H110029   6.734   2.346   1.720
 3383TIP3    H210030   6.805   2.405   1.842
 3384TIP3   OH210031   8.213   2.833   2.045
 3384TIP3    H110032   8.126   2.820   2.090
 3384TIP3    H210033   8.195   2.919   2.002
 3385TIP3   OH210034   8.482   1.731   2.418
 3385TIP3    H110035   8.395   1.764   2.389
 3385TIP3    H210036   8.541   1.772   2.351
 3386TIP3   OH210037   7.804   1.385   2.388
 3386TIP3    H110038   7.792   1.289   2.404
 3386TIP3    H210039   7.725   1.421   2.434
 3387TIP3   OH210040   7.922   2.886   1.725
 3387TIP3    H110041   7.968   2.803   1.701
 3387TIP3    H210042   7.980   2.951   1.679
 3388TIP3   OH210043   8.059   2.671   1.623
 3388TIP3    H110044   8.018   2.594   1.581
 3388TIP3    H210045   8.093   2.632   1.707
 3389TIP3   OH210046   8.440   2.754   2.385
 3389TIP3    H110047   8.424   2.675   2.330
 3389TIP3    H210048   8.420   2.827   2.323
 3390TIP3   OH210049   7.731   2.148   1.643
 3390TIP3    H110050   7.648   2.194   1.619
 3390TIP3    H210051   7.774   2.137   1.557
 3391TIP3   OH210052   7.688   1.923   1.378
 3391TIP3    H110053   7.764   1.974   1.410
 3391TIP3    H210054   7.730   1.859   1.319
 3392TIP3   OH210055   8.634   2.389   2.235
 3392TIP3    H110056   8.549   2.439   2.241
 3392TIP3    H210057   8.657   2.404   2.141
 3393TIP3   OH210058   8.078   2.229   1.618
 3393TIP3    H110059   8.022   2.253   1.696
 3393TIP3    H210060   8.160   2.200   1.664
 3394TIP3   OH210061   8.313   2.270   2.524
 3394TIP3    H110062   8.309   2.352   2.577
 3394TIP3    H210063   8.225   2.273   2.481
 3395TIP3   OH210064   7.310   2.228   2.032
 3395TIP3    H110065   7.267   2.170   1.966
 3395TIP3    H210066   7.387   2.173   2.060
 3396TIP3   OH210067   7.441   2.640   2.181
 3396TIP3    H110068   7.418   2.588   2.102
 3396TIP3    H210069   7.531   2.607   2.201
 3397TIP3   OH210070   7.449   2.196   2.388
 3397TIP3    H110071   7.480   2.178   2.297
 3397TIP3    H210072   7.490   2.282   2.408
 3398TIP3   OH210073   7.974   2.832   2.164
 3398TIP3    H110074   7.961   2.912   2.218
 3398TIP3    H210075   7.958   2.760   2.228
 3399TIP3   OH210076   7.583   2.755   2.709
 3399TIP3    H110077   7.526   2.816   2.759
 3399TIP3    H210078   7.516   2.700   2.664
 3400TIP3   OH210079   7.922   2.081   1.446
 3400TIP3    H110080   7.978   2.142   1.499
 3400TIP3    H210081   7.948   2.108   1.355
 3401TIP3   OH210082   7.336   2.314   2.808
 3401TIP3    H110083   7.340   2.399   2.857
 3401TIP3    H210084   7.241   2.293   2.816
 3402TIP3   OH210085   7.659   2.768   1.718
 3402TIP3    H110086   7.733   2.825   1.746
 3402TIP3    H210087   7.597   2.830   1.678
 3403TIP3   OH210088   7.377   2.925   2.797
 3403TIP3    H110089   7.342   2.918   2.706
 3403TIP3    H210090   7.299   2.903   2.852
 3404TIP3   OH210091   7.174   2.068   1.843
 3404TIP3    H110092   7.112   2.112   1.780
 3404TIP3    H210093   7.133   1.982   1.853
 3405TIP3   OH210094   8.230   2.697   1.038
 3405TIP3    H110095   8.236   2.794   1.024
 3405TIP3    H210096   8.323   2.670   1.024
 3406TIP3   OH210097   6.958   2.452   2.745
 3406TIP3    H110098   6.894   2.426   2.675
 3406TIP3    H210099   6.994   2.365   2.773
 3407TIP3   OH210100   6.811   2.647   2.375
 3407TIP3    H110101   6.906   2.634   2.370
 3407TIP3    H210102   6.805   2.723   2.435
 3408TIP3   OH210103   8.660   3.098   2.427
 3408TIP3    H110104   8.677   3.003   2.434
 3408TIP3    H210105   8.588   3.108   2.491
 3409TIP3   OH210106   7.780   2.886   2.564
 3409TIP3    H110107   7.784   2.977   2.600
 3409TIP3    H210108   7.712   2.846   2.622
 3410TIP3   OH210109   7.538   3.013   1.519
 3410TIP3    H110110   7.495   2.990   1.434
 3410TIP3    H210111   7.508   3.104   1.535
 3411TIP3   OH210112   6.979   2.864   1.903
 3411TIP3    H110113   7.028   2.852   1.988
 3411TIP3    H210114   6.922   2.785   1.907
 3412TIP3   OH210115   7.744   2.913   1.162
 3412TIP3    H110116   7.803   2.844   1.124
 3412TIP3    H210117   7.778   2.919   1.254
 3413TIP3   OH210118   7.792   2.961   1.435
 3413TIP3    H110119   7.703   2.969   1.476
 3413TIP3    H210120   7.840   2.911   1.503
 3414TIP3   OH210121   8.576   2.234   2.699
 3414TIP3    H110122   8.490   2.244   2.655
 3414TIP3    H210123   8.588   2.137   2.694
 3415TIP3   OH210124   7.162   2.636   2.738
 3415TIP3    H110125   7.213   2.618   2.819
 3415TIP3    H210126   7.089   2.570   2.745
 3416TIP3   OH210127   7.562   1.460   2.513
 3416TIP3    H110128   7.473   1.428   2.491
 3416TIP3    H210129   7.538   1.542   2.560
 3417TIP3   OH210130   8.094   1.576   2.711
 3417TIP3    H110131   8.161   1.548   2.776
 3417TIP3    H210132   8.009   1.555   2.755
 3418TIP3   OH210133   8.336   2.005   2.630
 3418TIP3    H110134   8.288   1.998   2.715
 3418TIP3    H210135   8.309   2.092   2.596
 3419TIP3   OH210136   8.007   2.141   1.200
 3419TIP3    H110137   7.960   2.108   1.120
 3419TIP3    H210138   8.074   2.199   1.160
 3420TIP3   OH210139   7.728   1.505   1.494
 3420TIP3    H110140   7.694   1.522   1.584
 3420TIP3    H210141   7.670   1.431   1.469
 3421TIP3   OH210142   7.493   1.974   2.537
 3421TIP3    H110143   7.443   1.996   2.617
 3421TIP3    H210144   7.478   2.054   2.482
 3422TIP3   OH210145   7.377   1.860   2.050
 3422TIP3    H110146   7.284   1.834   2.066
 3422TIP3    H210147   7.391   1.819   1.961
 3423TIP3   OH210148   7.869   1.948   1.776
 3423TIP3    H110149   7.813   2.018   1.736
 3423TIP3    H210150   7.919   1.916   1.699
 3424TIP3   OH210151   8.042   2.227   2.865
 3424TIP3    H110152   8.021   2.154   2.927
 3424TIP3    H210153   8.135   2.243   2.886
 3425TIP3   OH210154   8.027   1.977   2.017
 3425TIP3    H110155   7.967   2.006   1.945
 3425TIP3    H210156   8.058   1.894   1.977
 3426TIP3   OH210157   7.311   2.004   2.745
 3426TIP3    H110158   7.339   2.066   2.814
 3426TIP3    H210159   7.300   1.921   2.795
 3427TIP3   OH210160   7.359   1.478   1.460
 3427TIP3    H110161   7.347   1.478   1.557
 3427TIP3    H210162   7.281   1.530   1.433
 3428TIP3   OH210163   6.906   1.530   2.322
 3428TIP3    H110164   6.983   1.557   2.377
 3428TIP3    H210165   6.946   1.490   2.244
 3429TIP3   OH210166   6.886   1.508   1.847
 3429TIP3    H110167   6.930   1.547   1.768
 3429TIP3    H210168   6.823   1.580   1.868
 3430TIP3   OH210169   8.039   2.224   2.442
 3430TIP3    H110170   8.070   2.150   2.385
 3430TIP3    H210171   8.009   2.174   2.520
 3431TIP3   OH210172   7.702   1.685   2.113
 3431TIP3    H110173   7.618   1.680   2.163
 3431TIP3    H210174   7.768   1.684   2.184
 3432TIP3   OH210175   7.140   1.736   2.121
 3432TIP3    H110176   7.045   1.743   2.094
 3432TIP3    H210177   7.162   1.644   2.098
 3433TIP3   OH210178   7.412   1.735   1.807
 3433TIP3    H110179   7.506   1.752   1.788
 3433TIP3    H210180   7.366   1.759   1.723
 3434TIP3   OH210181   8.193   1.759   2.310
 3434TIP3    H110182   8.159   1.770   2.402
 3434TIP3    H210183   8.129   1.695   2.275
 3435TIP3   OH210184   7.248   1.769   1.589
 3435TIP3    H110185   7.174   1.727   1.540
 3435TIP3    H210186   7.298   1.807   1.513
 3436TIP3   OH210187   7.324   2.558   2.955
 3436TIP3    H110188   7.404   2.586   3.003
 3436TIP3    H210189   7.260   2.557   3.028
 3437TIP3   OH210190   7.789   2.010   2.210
 3437TIP3    H110191   7.859   1.968   2.158
 3437TIP3    H210192   7.800   1.969   2.298
 3438TIP3   OH210193   7.314   1.500   2.084
 3438TIP3    H110194   7.281   1.420   2.130
 3438TIP3    H210195   7.372   1.462   2.016
 3439TIP3   OH210196   7.766   1.904   2.499
 3439TIP3    H110197   7.676   1.941   2.512
 3439TIP3    H210198   7.823   1.964   2.551
 3440TIP3   OH210199   7.500   2.302   1.593
 3440TIP3    H110200   7.430   2.233   1.583
 3440TIP3    H210201   7.483   2.332   1.686
 3441TIP3   OH210202   8.403   2.535   2.225
 3441TIP3    H110203   8.420   2.581   2.140
 3441TIP3    H210204   8.317   2.490   2.207
 3442TIP3   OH210205   7.955   1.635   1.404
 3442TIP3    H110206   7.874   1.591   1.439
 3442TIP3    H210207   7.969   1.709   1.468
 3443TIP3   OH210208   7.903   2.617   2.590
 3443TIP3    H110209   7.922   2.589   2.681
 3443TIP3    H210210   7.864   2.704   2.602
 3444TIP3   OH210211   8.033   1.853   1.557
 3444TIP3    H110212   8.129   1.863   1.575
 3444TIP3    H210213   8.012   1.934   1.506
 3445TIP3   OH210214   7.194   2.321   2.272
 3445TIP3    H110215   7.231   2.290   2.186
 3445TIP3    H210216   7.228   2.254   2.333
 3446TIP3   OH210217   7.648   2.450   1.415
 3446TIP3    H110218   7.601   2.536   1.424
 3446TIP3    H210219   7.593   2.393   1.473
 3447TIP3   OH210220   7.071   2.243   2.884
 3447TIP3    H110221   7.095   2.228   2.978
 3447TIP3    H210222   7.004   2.174   2.869
 3448TIP3   OH210223   7.798   2.351   2.903
 3448TIP3    H110224   7.741   2.293   2.851
 3448TIP3    H210225   7.887   2.321   2.876
 3449TIP3   OH210226   8.060   2.873   2.480
 3449TIP3    H110227   7.964   2.872   2.496
 3449TIP3    H210228   8.090   2.921   2.560
 3450TIP3   OH210229   8.474   1.942   1.400
 3450TIP3    H110230   8.414   1.885   1.348
 3450TIP3    H210231   8.461   2.027   1.353
 3451TIP3   OH210232   8.690   2.800   2.470
 3451TIP3    H110233   8.592   2.797   2.468
 3451TIP3    H210234   8.710   2.765   2.381
 3452TIP3   OH210235   8.173   2.766   1.303
 3452TIP3    H110236   8.148   2.694   1.364
 3452TIP3    H210237   8.184   2.719   1.218
 3453TIP3   OH210238   8.169   2.396   2.146
 3453TIP3    H110239   8.076   2.371   2.160
 3453TIP3    H210240   8.201   2.316   2.099
 3454TIP3   OH210241   7.292   2.621   1.895
 3454TIP3    H110242   7.295   2.702   1.840
 3454TIP3    H210243   7.197   2.605   1.900
 3455TIP3   OH210244   6.856   1.927   1.593
 3455TIP3    H110245   6.904   2.010   1.614
 3455TIP3    H210246   6.780   1.933   1.655
 3456TIP3   OH210247   7.440   2.392   1.843
 3456TIP3    H110248   7.401   2.480   1.861
 3456TIP3    H210249   7.402   2.339   1.915
 3457TIP3   OH210250   7.561   2.968   2.367
 3457TIP3    H110251   7.605   3.039   2.316
 3457TIP3    H210252   7.636   2.932   2.418
 3458TIP3   OH210253   7.214   2.862   1.748
 3458TIP3    H110254   7.127   2.868   1.794
 3458TIP3    H210255   7.243   2.955   1.752
 3459TIP3   OH210256   7.955   2.600   2.322
 3459TIP3    H110257   7.945   2.601   2.420
 3459TIP3    H210258   8.035   2.546   2.311
 3460TIP3   OH210259   7.924   2.491   1.203
 3460TIP3    H110260   7.975   2.468   1.284
 3460TIP3    H210261   7.835   2.466   1.232
 3461TIP3   OH210262   8.213   3.114   2.345
 3461TIP3    H110263   8.129   3.071   2.365
 3461TIP3    H210264   8.186   3.198   2.304
 3462TIP3   OH210265   8.266   2.971   1.025
 3462TIP3    H110266   8.298   3.042   0.966
 3462TIP3    H210267   8.185   3.016   1.059
 3463TIP3   OH210268   7.287   1.747   2.893
 3463TIP3    H110269   7.191   1.751   2.907
 3463TIP3    H210270   7.314   1.683   2.962
 3464TIP3   OH210271   8.084   2.431   1.424
 3464TIP3    H110272   8.073   2.363   1.493
 3464TIP3    H210273   8.181   2.426   1.410
 3465TIP3   OH210274   7.001   2.833   2.525
 3465TIP3    H110275   7.051   2.754   2.551
 3465TIP3    H210276   7.032   2.895   2.592
 3466TIP3   OH210277   7.289   2.483   1.207
 3466TIP3    H110278   7.301   2.397   1.164
 3466TIP3    H210279   7.268   2.456   1.299
 3467TIP3   OH210280   7.235   2.482   1.485
 3467TIP3    H110281   7.310   2.450   1.537
 3467TIP3    H210282   7.247   2.579   1.487
 3468TIP3   OH210283   6.977   2.173   1.679
 3468TIP3    H110284   6.912   2.220   1.735
 3468TIP3    H210285   6.996   2.241   1.611
 3469TIP3   OH210286   8.121   1.810   2.570
 3469TIP3    H110287   8.200   1.847   2.612
 3469TIP3    H210288   8.104   1.730   2.625
 3470TIP3   OH210289   7.970   1.584   1.729
 3470TIP3    H110290   7.990   1.591   1.635
 3470TIP3    H210291   8.032   1.647   1.769
 3471TIP3   OH210292   7.505   2.680   1.430
 3471TIP3    H110293   7.417   2.709   1.461
 3471TIP3    H210294   7.518   2.737   1.353
 3472TIP3   OH210295   7.691   1.739   1.837
 3472TIP3    H110296   7.760   1.806   1.818
 3472TIP3    H210297   7.697   1.733   1.935
 3473TIP3   OH210298   7.962   2.063   2.647
 3473TIP3    H110299   7.977   2.116   2.728
 3473TIP3    H210300   8.017   1.984   2.664
 3474TIP3   OH210301   7.839   1.473   1.944
 3474TIP3    H110302   7.834   1.549   2.004
 3474TIP3    H210303   7.893   1.512   1.870
 3475TIP3   OH210304   7.247   2.756   1.491
 3475TIP3    H110305   7.214   2.823   1.427
 3475TIP3    H210306   7.229   2.798   1.577
 3476TIP3   OH210307   7.349   1.465   1.733
 3476TIP3    H110308   7.343   1.556   1.769
 3476TIP3    H210309   7.445   1.449   1.745
 3477TIP3   OH210310   8.602   1.959   2.625
 3477TIP3    H110311   8.504   1.957   2.632
 3477TIP3    H210312   8.614   1.929   2.535
 3478TIP3   OH210313   8.247   2.160   2.011
 3478TIP3    H110314   8.173   2.098   2.026
 3478TIP3    H210315   8.321   2.115   2.059
 3479TIP3   OH210316   6.963   2.392   1.485
 3479TIP3    H110317   7.032   2.460   1.495
 3479TIP3    H210318   7.011   2.333   1.422
 3480TIP3   OH210319   6.910   1.659   1.622
 3480TIP3    H110320   6.909   1.756   1.611
 3480TIP3    H210321   6.828   1.634   1.579
 3481TIP3   OH210322   8.208   3.106   1.970
 3481TIP3    H110323   8.174   3.154   1.891
 3481TIP3    H210324   8.302   3.105   1.954
 3482TIP3   OH210325   7.297   1.380   2.495
 3482TIP3    H110326   7.266   1.346   2.408
 3482TIP3    H210327   7.287   1.301   2.552
 3483TIP3   OH210328   6.844   2.607   1.881
 3483TIP3    H110329   6.760   2.631   1.922
 3483TIP3    H210330   6.827   2.635   1.789
 3484TIP3   OH210331   6.990   3.134   2.945
 3484TIP3    H110332   7.076   3.133   2.991
 3484TIP3    H210333   6.969   3.039   2.943
 3485TIP3   OH210334   7.478   3.110   2.985
 3485TIP3    H110335   7.570   3.086   3.000
 3485TIP3    H210336   7.455   3.049   2.912
 3486TIP3   OH210337   7.459   2.683   1.126
 3486TIP3    H110338   7.402   2.609   1.158
 3486TIP3    H210339   7.531   2.634   1.083
 3487TIP3   OH210340   8.107   3.003   2.714
 3487TIP3    H110341   8.106   2.941   2.790
 3487TIP3    H210342   8.180   3.063   2.733
 3488TIP3   OH210343   7.897   2.726   1.031
 3488TIP3    H110344   7.943   2.660   1.085
 3488TIP3    H210345   7.949   2.725   0.947
 3489TIP3   OH210346   7.123   2.544   3.145
 3489TIP3    H110347   7.141   2.448   3.149
 3489TIP3    H210348   7.035   2.545   3.102
 3490TIP3   OH210349   7.108   2.216   1.346
 3490TIP3    H110350   7.165   2.164   1.404
 3490TIP3    H210351   7.126   2.172   1.260
 3491TIP3   OH210352   7.731   2.626   2.918
 3491TIP3    H110353   7.691   2.639   2.831
 3491TIP3    H210354   7.764   2.534   2.914
 3492TIP3   OH210355   7.601   2.392   1.148
 3492TIP3    H110356   7.608   2.404   1.245
 3492TIP3    H210357   7.612   2.294   1.142
 3493TIP3   OH210358   8.225   2.632   2.521
 3493TIP3    H110359   8.296   2.685   2.481
 3493TIP3    H210360   8.150   2.694   2.514
 3494TIP3   OH210361   7.242   2.276   3.124
 3494TIP3    H110362   7.315   2.214   3.109
 3494TIP3    H210363   7.264   2.310   3.214
 3495TIP3   OH210364   7.317   2.097   1.566
 3495TIP3    H110365   7.286   2.049   1.644
 3495TIP3    H210366   7.347   2.024   1.508
 3496TIP3   OH210367   7.576   2.162   2.789
 3496TIP3    H110368   7.500   2.223   2.794
 3496TIP3    H210369   7.623   2.195   2.709
 3497TIP3   OH210370   7.405   1.889   1.400
 3497TIP3    H110371   7.380   1.880   1.306
 3497TIP3    H210372   7.503   1.898   1.392
 3498TIP3   OH210373   8.091   2.562   2.922
 3498TIP3    H110374   8.178   2.551   2.881
 3498TIP3    H210375   8.093   2.496   2.993
 3499TIP3   OH210376   8.233   2.220   1.038
 3499TIP3    H110377   8.195   2.180   0.958
 3499TIP3    H210378   8.203   2.313   1.024
 3500TIP3   OH210379   7.700   1.949   2.918
 3500TIP3    H110380   7.700   1.868   2.863
 3500TIP3    H210381   7.657   2.014   2.859
 3501TIP3   OH210382   7.702   1.737   2.721
 3501TIP3    H110383   7.729   1.777   2.636
 3501TIP3    H210384   7.609   1.713   2.704
 3502TIP3   OH210385   7.735   2.274   2.594
 3502TIP3    H110386   7.815   2.279   2.540
 3502TIP3    H210387   7.678   2.342   2.552
 3503TIP3   OH210388   8.315   2.242   2.978
 3503TIP3    H110389   8.365   2.159   2.988
 3503TIP3    H210390   8.384   2.304   2.950
 3504TIP3   OH210391   8.355   2.491   2.710
 3504TIP3    H110392   8.296   2.543   2.651
 3504TIP3    H210393   8.442   2.511   2.668
 3505TIP3   OH210394   7.574   2.069   3.142
 3505TIP3    H110395   7.507   1.999   3.156
 3505TIP3    H210396   7.612   2.042   3.056
 3506TIP3   OH210397   7.835   1.502   2.785
 3506TIP3    H110398   7.786   1.584   2.765
 3506TIP3    H210399   7.765   1.434   2.775
 3507TIP3   OH210400   7.961   2.009   3.004
 3507TIP3    H110401   7.953   1.998   3.101
 3507TIP3    H210402   7.871   1.983   2.977
 3508TIP3   OH210403   8.201   1.954   2.859
 3508TIP3    H110404   8.125   1.957   2.920
 3508TIP3    H210405   8.273   1.923   2.917
 3509TIP3   OH210406   8.432   1.894   3.012
 3509TIP3    H110407   8.441   1.799   3.033
 3509TIP3    H210408   8.426   1.936   3.101
 3510TIP3   OH210409   7.418   1.848   3.194
 3510TIP3    H110410   7.425   1.757   3.158
 3510TIP3    H210411   7.453   1.833   3.285
 3511TIP3   OH210412   7.932   1.513   3.042
 3511TIP3    H110413   7.998   1.441   3.038
 3511TIP3    H210414   7.891   1.503   2.953
 3512TIP3   OH210415   7.996   1.726   3.203
 3512TIP3    H110416   7.973   1.656   3.139
 3512TIP3    H210417   7.919   1.786   3.197
 3513TIP3   OH210418   7.214   2.960   1.306
 3513TIP3    H110419   7.310   2.953   1.288
 3513TIP3    H210420   7.185   2.999   1.222
 3514TIP3   OH210421   6.696   2.338   1.525
 3514TIP3    H110422   6.790   2.360   1.507
 3514TIP3    H210423   6.690   2.248   1.486
 3515TIP3   OH210424   6.608   2.952   1.932
 3515TIP3    H110425   6.542   2.887   1.899
 3515TIP3    H210426   6.653   2.897   2.000
 3516TIP3   OH210427   6.742   2.810   2.122
 3516TIP3    H110428   6.736   2.729   2.175
 3516TIP3    H210429   6.795   2.866   2.182
 3517TIP3   OH210430   8.519   3.213   2.164
 3517TIP3    H110431   8.459   3.137   2.181
 3517TIP3    H210432   8.577   3.201   2.241
 3518TIP3   OH210433   8.546   2.900   2.775
 3518TIP3    H110434   8.468   2.907   2.835
 3518TIP3    H210435   8.583   2.990   2.783
 3519TIP3   OH210436   8.361   2.408   1.390
 3519TIP3    H110437   8.430   2.475   1.368
 3519TIP3    H210438   8.401   2.370   1.471
 3520TIP3   OH210439   8.480   2.277   1.596
 3520TIP3    H110440   8.413   2.233   1.654
 3520TIP3    H210441   8.539   2.319   1.661
 3521TIP3   OH210442   8.546   2.666   2.029
 3521TIP3    H110443   8.591   2.609   1.964
 3521TIP3    H210444   8.510   2.737   1.973
 3522TIP3   OH210445   8.389   2.967   2.214
 3522TIP3    H110446   8.325   3.015   2.273
 3522TIP3    H210447   8.327   2.916   2.159
 3523TIP3   OH210448   8.401   2.165   1.250
 3523TIP3    H110449   8.331   2.184   1.183
 3523TIP3    H210450   8.391   2.244   1.307
 3524TIP3   OH210451   8.277   1.844   1.223
 3524TIP3    H110452   8.295   1.915   1.160
 3524TIP3    H210453   8.308   1.765   1.177
 3525TIP3   OH210454   8.308   2.131   1.748
 3525TIP3    H110455   8.315   2.035   1.745
 3525TIP3    H210456   8.293   2.147   1.844
 3526TIP3   OH210457   6.935   2.212   2.490
 3526TIP3    H110458   6.934   2.182   2.397
 3526TIP3    H210459   7.031   2.212   2.509
 3527TIP3   OH210460   8.596   2.558   2.601
 3527TIP3    H110461   8.671   2.495   2.594
 3527TIP3    H210462   8.627   2.631   2.545
 3528TIP3   OH210463   8.795   2.376   2.626
 3528TIP3    H110464   8.716   2.328   2.660
 3528TIP3    H210465   8.860   2.303   2.636
 3529TIP3   OH210466   8.306   1.845   1.642
 3529TIP3    H110467   8.349   1.758   1.659
 3529TIP3    H210468   8.368   1.881   1.576
 3530TIP3   OH210469   8.457   2.042   2.131
 3530TIP3    H110470   8.542   2.072   2.093
 3530TIP3    H210471   8.475   2.055   2.226
 3531TIP3   OH210472   8.532   2.169   2.374
 3531TIP3    H110473   8.452   2.201   2.421
 3531TIP3    H210474   8.562   2.249   2.328
 3532TIP3   OH210475   7.151   1.899   3.171
 3532TIP3    H110476   7.249   1.889   3.169
 3532TIP3    H210477   7.126   1.814   3.211
 3533TIP3   OH210478   8.421   1.596   1.689
 3533TIP3    H110479   8.451   1.589   1.782
 3533TIP3    H210480   8.354   1.524   1.689
 3534TIP3   OH210481   7.112   1.587   2.498
 3534TIP3    H110482   7.173   1.512   2.509
 3534TIP3    H210483   7.175   1.661   2.494
 3535TIP3   OH210484   6.919   1.864   2.574
 3535TIP3    H110485   6.965   1.852   2.489
 3535TIP3    H210486   6.951   1.950   2.602
 3536TIP3   OH210487   8.843   1.892   2.749
 3536TIP3    H110488   8.762   1.942   2.770
 3536TIP3    H210489   8.809   1.839   2.675
 3537TIP3   OH210490   6.898   1.367   2.075
 3537TIP3    H110491   6.804   1.364   2.099
 3537TIP3    H210492   6.897   1.424   1.995
 3538TIP3   OH210493   8.060   3.066   1.579
 3538TIP3    H110494   8.105   3.046   1.495
 3538TIP3    H210495   8.115   3.137   1.614
 3539TIP3   OH210496   7.119   1.447   2.890
 3539TIP3    H110497   7.067   1.439   2.972
 3539TIP3    H210498   7.051   1.484   2.829
 3540TIP3   OH210499   7.157   2.873   2.966
 3540TIP3    H110500   7.068   2.839   2.949
 3540TIP3    H210501   7.169   2.851   3.060
 3541TIP3   OH210502   7.333   2.899   2.511
 3541TIP3    H110503   7.287   2.976   2.473
 3541TIP3    H210504   7.421   2.913   2.470
 3542TIP3   OH210505   7.786   3.153   2.648
 3542TIP3    H110506   7.825   3.150   2.739
 3542TIP3    H210507   7.857   3.202   2.601
 3543TIP3   OH210508   7.972   3.299   2.508
 3543TIP3    H110509   8.033   3.235   2.471
 3543TIP3    H210510   8.036   3.346   2.566
 3544TIP3   OH210511   8.750   1.666   2.613
 3544TIP3    H110512   8.662   1.670   2.574
 3544TIP3    H210513   8.781   1.578   2.583
 3545TIP3   OH210514   7.014   3.164   2.532
 3545TIP3    H110515   6.925   3.199   2.512
 3545TIP3    H210516   7.021   3.186   2.625
 3546TIP3   OH210517   7.251   3.141   2.392
 3546TIP3    H110518   7.165   3.153   2.438
 3546TIP3    H210519   7.229   3.172   2.302
 3547TIP3   OH210520   7.676   3.173   2.188
 3547TIP3    H110521   7.605   3.194   2.124
 3547TIP3    H210522   7.688   3.258   2.234
 3548TIP3   OH210523   7.940   3.111   2.236
 3548TIP3    H110524   7.845   3.124   2.217
 3548TIP3    H210525   7.977   3.196   2.208
 3549TIP3   OH210526   8.164   3.313   2.159
 3549TIP3    H110527   8.144   3.393   2.105
 3549TIP3    H210528   8.164   3.242   2.091
 3550TIP3   OH210529   6.926   2.957   2.282
 3550TIP3    H110530   6.952   2.931   2.373
 3550TIP3    H210531   6.996   2.910   2.232
 3551TIP3   OH210532   7.117   2.826   2.135
 3551TIP3    H110533   7.133   2.741   2.182
 3551TIP3    H210534   7.207   2.862   2.130
 3552TIP3   OH210535   7.384   2.924   2.136
 3552TIP3    H110536   7.414   2.832   2.123
 3552TIP3    H210537   7.424   2.942   2.223
 3553TIP3   OH210538   7.959   1.578   2.226
 3553TIP3    H110539   7.915   1.511   2.281
 3553TIP3    H210540   8.027   1.526   2.180
 3554TIP3   OH210541   8.483   1.449   2.143
 3554TIP3    H110542   8.521   1.502   2.069
 3554TIP3    H210543   8.388   1.470   2.136
 3555TIP3   OH210544   8.584   1.552   1.914
 3555TIP3    H110545   8.663   1.523   1.865
 3555TIP3    H210546   8.595   1.650   1.906
 3556TIP3   OH210547   7.209   1.289   2.245
 3556TIP3    H110548   7.117   1.254   2.245
 3556TIP3    H210549   7.259   1.204   2.244
 3557TIP3   OH210550   6.990   1.154   1.884
 3557TIP3    H110551   7.023   1.217   1.816
 3557TIP3    H210552   6.964   1.215   1.955
 3558TIP3   OH210553   7.648   1.326   2.120
 3558TIP3    H110554   7.714   1.376   2.070
 3558TIP3    H210555   7.666   1.353   2.211
 3559TIP3   OH210556   8.208   1.465   2.103
 3559TIP3    H110557   8.192   1.438   2.011
 3559TIP3    H210558   8.185   1.383   2.154
 3560TIP3   OH210559   8.219   1.426   1.775
 3560TIP3    H110560   8.166   1.434   1.694
 3560TIP3    H210561   8.216   1.329   1.787
 3561TIP3   OH210562   6.712   2.720   1.675
 3561TIP3    H110563   6.629   2.684   1.638
 3561TIP3    H210564   6.696   2.815   1.661
 3562TIP3   OH210565   7.109   1.318   1.661
 3562TIP3    H110566   7.156   1.261   1.598
 3562TIP3    H210567   7.182   1.372   1.697
 3563TIP3   OH210568   7.629   1.484   1.759
 3563TIP3    H110569   7.690   1.448   1.825
 3563TIP3    H210570   7.644   1.580   1.776
 3564TIP3   OH210571   7.483   2.924   1.252
 3564TIP3    H110572   7.573   2.941   1.217
 3564TIP3    H210573   7.461   2.845   1.196
 3565TIP3   OH210574   8.202   3.032   1.346
 3565TIP3    H110575   8.194   2.934   1.333
 3565TIP3    H210576   8.158   3.065   1.265
 3566TIP3   OH210577   7.417   1.569   3.137
 3566TIP3    H110578   7.384   1.497   3.193
 3566TIP3    H210579   7.512   1.569   3.162
 3567TIP3   OH210580   7.666   1.566   3.255
 3567TIP3    H110581   7.750   1.537   3.216
 3567TIP3    H210582   7.653   1.496   3.323
 3568TIP3   OH210583   6.794   2.767   1.319
 3568TIP3    H110584   6.795   2.766   1.416
 3568TIP3    H210585   6.876   2.717   1.298
 3569TIP3   OH210586   8.487   1.622   3.044
 3569TIP3    H110587   8.508   1.593   3.135
 3569TIP3    H210588   8.575   1.620   3.001
 3570TIP3   OH210589   8.654   2.061   1.575
 3570TIP3    H110590   8.588   2.133   1.575
 3570TIP3    H210591   8.605   1.994   1.523
 3571TIP3   OH210592   8.708   2.351   1.728
 3571TIP3    H110593   8.747   2.270   1.763
 3571TIP3    H210594   8.742   2.347   1.637
 3572TIP3   OH210595   8.558   2.590   1.322
 3572TIP3    H110596   8.554   2.579   1.226
 3572TIP3    H210597   8.598   2.678   1.333
 3573TIP3   OH210598   8.755   2.692   2.216
 3573TIP3    H110599   8.678   2.662   2.163
 3573TIP3    H210600   8.786   2.608   2.257
 3574TIP3   OH210601   8.615   2.915   1.868
 3574TIP3    H110602   8.705   2.890   1.842
 3574TIP3    H210603   8.633   2.964   1.950
 3575TIP3   OH210604   8.734   3.125   1.414
 3575TIP3    H110605   8.801   3.113   1.485
 3575TIP3    H210606   8.703   3.033   1.401
 3576TIP3   OH210607   8.893   2.919   2.253
 3576TIP3    H110608   8.934   2.883   2.333
 3576TIP3    H210609   8.832   2.845   2.231
 3577TIP3   OH210610   8.660   1.806   1.850
 3577TIP3    H110611   8.730   1.844   1.906
 3577TIP3    H210612   8.696   1.821   1.761
 3578TIP3   OH210613   8.856   2.492   2.373
 3578TIP3    H110614   8.877   2.464   2.464
 3578TIP3    H210615   8.788   2.427   2.350
 3579TIP3   OH210616   8.637   2.293   1.176
 3579TIP3    H110617   8.676   2.256   1.096
 3579TIP3    H210618   8.557   2.239   1.188
 3580TIP3   OH210619   8.767   3.094   2.031
 3580TIP3    H110620   8.823   3.016   2.045
 3580TIP3    H210621   8.821   3.161   2.073
 3581TIP3   OH210622   8.633   2.866   1.373
 3581TIP3    H110623   8.540   2.883   1.392
 3581TIP3    H210624   8.633   2.893   1.279
 3582TIP3   OH210625   8.788   3.386   2.426
 3582TIP3    H110626   8.873   3.372   2.470
 3582TIP3    H210627   8.755   3.294   2.426
 3583TIP3   OH210628   8.922   2.824   2.616
 3583TIP3    H110629   8.947   2.740   2.657
 3583TIP3    H210630   8.833   2.804   2.579
 3584TIP3   OH210631   8.489   2.602   0.994
 3584TIP3    H110632   8.585   2.594   1.012
 3584TIP3    H210633   8.470   2.511   0.963
 3585TIP3   OH210634   8.402   3.206   1.421
 3585TIP3    H110635   8.337   3.142   1.385
 3585TIP3    H210636   8.443   3.154   1.493
 3586TIP3   OH210637   8.529   3.077   1.629
 3586TIP3    H110638   8.523   2.987   1.665
 3586TIP3    H210639   8.623   3.095   1.640
 3587TIP3   OH210640   8.752   2.459   1.977
 3587TIP3    H110641   8.727   2.432   1.886
 3587TIP3    H210642   8.837   2.503   1.961
 3588TIP3   OH210643   8.930   2.142   2.637
 3588TIP3    H110644   9.021   2.174   2.649
 3588TIP3    H210645   8.926   2.068   2.701
 3589TIP3   OH210646   8.698   2.142   2.035
 3589TIP3    H110647   8.764   2.072   2.020
 3589TIP3    H210648   8.751   2.216   2.069
 3590TIP3   OH210649   8.945   3.140   2.474
 3590TIP3    H110650   8.872   3.092   2.432
 3590TIP3    H210651   8.955   3.094   2.558
 3591TIP3   OH210652   8.774   3.399   2.031
 3591TIP3    H110653   8.730   3.480   2.001
 3591TIP3    H210654   8.826   3.435   2.105
 3592TIP3   OH210655   9.046   3.403   1.897
 3592TIP3    H110656   8.952   3.404   1.914
 3592TIP3    H210657   9.049   3.426   1.802
 3593TIP3   OH210658   8.918   3.097   1.606
 3593TIP3    H110659   8.939   3.005   1.626
 3593TIP3    H210660   9.004   3.141   1.621
 3594TIP3   OH210661   8.505   2.977   1.162
 3594TIP3    H110662   8.420   2.947   1.126
 3594TIP3    H210663   8.497   3.073   1.147
 3595TIP3   OH210664   8.607   3.021   0.809
 3595TIP3    H110665   8.573   3.047   0.896
 3595TIP3    H210666   8.669   2.950   0.833
 3596TIP3   OH210667   0.371   3.099   3.526
 3596TIP3    H110668   0.339   3.188   3.500
 3596TIP3    H210669   0.298   3.044   3.492
 3597TIP3   OH210670   0.347   3.081   3.883
 3597TIP3    H110671   0.379   3.050   3.970
 3597TIP3    H210672   0.311   3.000   3.844
 3598TIP3   OH210673  -0.349   2.980   4.246
 3598TIP3    H110674  -0.324   2.911   4.310
 3598TIP3    H210675  -0.277   3.043   4.257
 3599TIP3   OH210676   0.590   3.384   3.563
 3599TIP3    H110677   0.579   3.312   3.627
 3599TIP3    H210678   0.620   3.457   3.620
 3600TIP3   OH210679  -0.375   3.385   3.969
 3600TIP3    H110680  -0.391   3.289   3.982
 3600TIP3    H210681  -0.278   3.390   3.976
 3601TIP3   OH210682   0.235   3.840   3.579
 3601TIP3    H110683   0.287   3.771   3.534
 3601TIP3    H210684   0.239   3.813   3.671
 3602TIP3   OH210685   0.151   3.306   3.929
 3602TIP3    H110686   0.190   3.228   3.885
 3602TIP3    H210687   0.234   3.351   3.954
 3603TIP3   OH210688   1.161   2.630   3.930
 3603TIP3    H110689   1.189   2.714   3.972
 3603TIP3    H210690   1.179   2.649   3.836
 3604TIP3   OH210691   0.565   2.812   3.970
 3604TIP3    H110692   0.603   2.724   3.988
 3604TIP3    H210693   0.530   2.798   3.880
 3605TIP3   OH210694  -0.097   2.492   3.909
 3605TIP3    H110695  -0.128   2.537   3.830
 3605TIP3    H210696  -0.082   2.402   3.873
 3606TIP3   OH210697   0.591   2.572   3.580
 3606TIP3    H110698   0.670   2.552   3.635
 3606TIP3    H210699   0.633   2.606   3.499
 3607TIP3   OH210700  -0.472   2.665   4.035
 3607TIP3    H110701  -0.394   2.645   4.091
 3607TIP3    H210702  -0.436   2.650   3.947
 3608TIP3   OH210703  -0.020   2.869   3.820
 3608TIP3    H110704   0.074   2.853   3.842
 3608TIP3    H210705  -0.052   2.779   3.809
 3609TIP3   OH210706   1.238   2.840   4.102
 3609TIP3    H110707   1.156   2.887   4.076
 3609TIP3    H210708   1.220   2.830   4.197
 3610TIP3   OH210709  -0.109   2.452   4.359
 3610TIP3    H110710  -0.177   2.489   4.299
 3610TIP3    H210711  -0.153   2.468   4.446
 3611TIP3   OH210712   0.256   3.307   3.378
 3611TIP3    H110713   0.210   3.286   3.293
 3611TIP3    H210714   0.210   3.390   3.402
 3612TIP3   OH210715   0.002   3.224   4.164
 3612TIP3    H110716  -0.063   3.285   4.205
 3612TIP3    H210717   0.043   3.281   4.097
 3613TIP3   OH210718   0.816   2.556   3.724
 3613TIP3    H110719   0.801   2.505   3.805
 3613TIP3    H210720   0.866   2.633   3.756
 3614TIP3   OH210721  -0.227   2.577   4.139
 3614TIP3    H110722  -0.174   2.650   4.177
 3614TIP3    H210723  -0.161   2.539   4.078
 3615TIP3   OH210724  -0.171   3.414   4.253
 3615TIP3    H110725  -0.195   3.503   4.219
 3615TIP3    H210726  -0.247   3.402   4.315
 3616TIP3   OH210727   0.665   3.623   3.735
 3616TIP3    H110728   0.575   3.616   3.774
 3616TIP3    H210729   0.659   3.710   3.690
 3617TIP3   OH210730   0.954   2.535   4.100
 3617TIP3    H110731   0.864   2.558   4.069
 3617TIP3    H210732   1.010   2.560   4.023
 3618TIP3   OH210733   0.265   2.183   4.083
 3618TIP3    H110734   0.249   2.087   4.093
 3618TIP3    H210735   0.181   2.215   4.120
 3619TIP3   OH210736   0.372   3.671   3.411
 3619TIP3    H110737   0.423   3.590   3.388
 3619TIP3    H210738   0.431   3.739   3.370
 3620TIP3   OH210739   0.515   3.455   3.309
 3620TIP3    H110740   0.461   3.380   3.281
 3620TIP3    H210741   0.548   3.423   3.395
 3621TIP3   OH210742   0.894   3.540   4.078
 3621TIP3    H110743   0.881   3.463   4.019
 3621TIP3    H210744   0.875   3.615   4.018
 3622TIP3   OH210745   0.207   2.964   3.359
 3622TIP3    H110746   0.120   3.005   3.339
 3622TIP3    H210747   0.259   2.990   3.281
 3623TIP3   OH210748   1.089   3.177   3.923
 3623TIP3    H110749   1.005   3.228   3.929
 3623TIP3    H210750   1.115   3.199   3.831
 3624TIP3   OH210751   0.535   3.027   3.315
 3624TIP3    H110752   0.485   3.053   3.396
 3624TIP3    H210753   0.615   2.988   3.356
 3625TIP3   OH210754   0.766   3.058   4.213
 3625TIP3    H110755   0.761   3.141   4.264
 3625TIP3    H210756   0.679   3.060   4.169
 3626TIP3   OH210757  -0.225   3.023   3.723
 3626TIP3    H110758  -0.284   2.952   3.692
 3626TIP3    H210759  -0.148   2.972   3.755
 3627TIP3   OH210760  -0.103   3.429   3.868
 3627TIP3    H110761  -0.127   3.374   3.793
 3627TIP3    H210762  -0.013   3.395   3.890
 3628TIP3   OH210763  -0.096   2.985   4.072
 3628TIP3    H110764  -0.059   2.974   3.983
 3628TIP3    H210765  -0.058   3.070   4.102
 3629TIP3   OH210766   0.423   3.622   3.853
 3629TIP3    H110767   0.410   3.702   3.907
 3629TIP3    H210768   0.410   3.549   3.917
 3630TIP3   OH210769   0.034   3.542   4.400
 3630TIP3    H110770  -0.024   3.605   4.448
 3630TIP3    H210771  -0.032   3.489   4.353
 3631TIP3   OH210772   0.368   2.895   3.141
 3631TIP3    H110773   0.443   2.933   3.192
 3631TIP3    H210774   0.401   2.902   3.049
 3632TIP3   OH210775  -0.201   3.106   4.488
 3632TIP3    H110776  -0.201   3.192   4.536
 3632TIP3    H210777  -0.293   3.076   4.508
 3633TIP3   OH210778   0.107   3.559   3.401
 3633TIP3    H110779   0.186   3.608   3.431
 3633TIP3    H210780   0.048   3.631   3.376
 3634TIP3   OH210781  -0.167   3.716   4.488
 3634TIP3    H110782  -0.204   3.706   4.398
 3634TIP3    H210783  -0.238   3.677   4.544
 3635TIP3   OH210784   0.684   3.480   2.717
 3635TIP3    H110785   0.692   3.579   2.716
 3635TIP3    H210786   0.779   3.455   2.713
 3636TIP3   OH210787  -0.582   3.255   4.425
 3636TIP3    H110788  -0.647   3.216   4.366
 3636TIP3    H210789  -0.554   3.176   4.475
 3637TIP3   OH210790   1.132   3.882   4.125
 3637TIP3    H110791   1.126   3.786   4.135
 3637TIP3    H210792   1.047   3.910   4.167
 3638TIP3   OH210793   0.234   3.671   4.256
 3638TIP3    H110794   0.235   3.764   4.290
 3638TIP3    H210795   0.163   3.632   4.312
 3639TIP3   OH210796   0.002   3.805   3.222
 3639TIP3    H110797  -0.047   3.776   3.143
 3639TIP3    H210798  -0.031   3.895   3.236
 3640TIP3   OH210799  -0.545   3.638   3.570
 3640TIP3    H110800  -0.504   3.626   3.658
 3640TIP3    H210801  -0.601   3.557   3.564
 3641TIP3   OH210802   0.208   3.702   2.846
 3641TIP3    H110803   0.261   3.625   2.819
 3641TIP3    H210804   0.236   3.714   2.940
 3642TIP3   OH210805   0.246   3.743   3.119
 3642TIP3    H110806   0.160   3.759   3.163
 3642TIP3    H210807   0.298   3.709   3.193
 3643TIP3   OH210808   1.020   3.018   4.395
 3643TIP3    H110809   0.937   3.033   4.347
 3643TIP3    H210810   1.030   2.921   4.385
 3644TIP3   OH210811  -0.375   3.429   4.425
 3644TIP3    H110812  -0.332   3.419   4.513
 3644TIP3    H210813  -0.447   3.363   4.431
 3645TIP3   OH210814   0.011   2.253   4.203
 3645TIP3    H110815  -0.072   2.220   4.167
 3645TIP3    H210816  -0.021   2.329   4.258
 3646TIP3   OH210817   0.546   2.366   4.402
 3646TIP3    H110818   0.613   2.335   4.466
 3646TIP3    H210819   0.461   2.343   4.445
 3647TIP3   OH210820   0.795   2.795   4.325
 3647TIP3    H110821   0.742   2.786   4.407
 3647TIP3    H210822   0.762   2.878   4.286
 3648TIP3   OH210823   0.456   2.926   2.887
 3648TIP3    H110824   0.397   2.899   2.816
 3648TIP3    H210825   0.526   2.977   2.843
 3649TIP3   OH210826  -0.051   2.766   4.227
 3649TIP3    H110827  -0.103   2.786   4.309
 3649TIP3    H210828  -0.070   2.846   4.174
 3650TIP3   OH210829   0.310   2.745   3.481
 3650TIP3    H110830   0.267   2.822   3.438
 3650TIP3    H210831   0.378   2.722   3.413
 3651TIP3   OH210832   0.494   3.016   4.555
 3651TIP3    H110833   0.472   2.942   4.617
 3651TIP3    H210834   0.588   3.029   4.577
 3652TIP3   OH210835   0.474   2.776   3.714
 3652TIP3    H110836   0.414   2.801   3.640
 3652TIP3    H210837   0.509   2.692   3.676
 3653TIP3   OH210838  -0.230   2.792   4.433
 3653TIP3    H110839  -0.222   2.857   4.504
 3653TIP3    H210840  -0.247   2.710   4.483
 3654TIP3   OH210841   0.491   3.012   4.132
 3654TIP3    H110842   0.523   2.938   4.075
 3654TIP3    H210843   0.461   2.962   4.210
 3655TIP3   OH210844   0.175   2.489   3.814
 3655TIP3    H110845   0.098   2.505   3.872
 3655TIP3    H210846   0.247   2.478   3.879
 3656TIP3   OH210847   0.648   2.546   4.001
 3656TIP3    H110848   0.614   2.557   4.092
 3656TIP3    H210849   0.585   2.480   3.966
 3657TIP3   OH210850   0.815   4.235   4.221
 3657TIP3    H110851   0.815   4.256   4.125
 3657TIP3    H210852   0.893   4.285   4.251
 3658TIP3   OH210853  -0.215   3.339   4.643
 3658TIP3    H110854  -0.138   3.376   4.690
 3658TIP3    H210855  -0.283   3.350   4.712
 3659TIP3   OH210856   0.237   2.799   3.901
 3659TIP3    H110857   0.305   2.756   3.847
 3659TIP3    H210858   0.251   2.760   3.989
 3660TIP3   OH210859   0.217   2.694   4.187
 3660TIP3    H110860   0.128   2.730   4.204
 3660TIP3    H210861   0.275   2.751   4.240
 3661TIP3   OH210862  -0.029   3.079   3.308
 3661TIP3    H110863  -0.109   3.028   3.290
 3661TIP3    H210864  -0.052   3.124   3.393
 3662TIP3   OH210865   0.857   3.322   3.916
 3662TIP3    H110866   0.880   3.370   3.833
 3662TIP3    H210867   0.771   3.281   3.893
 3663TIP3   OH210868   0.357   3.405   4.281
 3663TIP3    H110869   0.370   3.377   4.372
 3663TIP3    H210870   0.315   3.492   4.290
 3664TIP3   OH210871   0.499   2.682   3.300
 3664TIP3    H110872   0.595   2.666   3.292
 3664TIP3    H210873   0.471   2.694   3.208
 3665TIP3   OH210874  -0.358   3.104   3.960
 3665TIP3    H110875  -0.310   3.078   3.879
 3665TIP3    H210876  -0.322   3.044   4.027
 3666TIP3   OH210877   0.106   3.259   3.151
 3666TIP3    H110878   0.044   3.336   3.142
 3666TIP3    H210879   0.048   3.195   3.197
 3667TIP3   OH210880  -0.443   3.020   4.574
 3667TIP3    H110881  -0.436   3.017   4.671
 3667TIP3    H210882  -0.537   2.996   4.559
 3668TIP3   OH210883   0.249   3.141   4.592
 3668TIP3    H110884   0.191   3.081   4.543
 3668TIP3    H210885   0.338   3.108   4.564
 3669TIP3   OH210886   0.516   3.663   4.174
 3669TIP3    H110887   0.419   3.661   4.187
 3669TIP3    H210888   0.543   3.715   4.253
 3670TIP3   OH210889   0.925   2.731   3.086
 3670TIP3    H110890   0.866   2.689   3.019
 3670TIP3    H210891   0.925   2.821   3.049
 3671TIP3   OH210892   1.144   3.589   4.168
 3671TIP3    H110893   1.045   3.587   4.161
 3671TIP3    H210894   1.167   3.560   4.077
 3672TIP3   OH210895   0.610   3.552   2.984
 3672TIP3    H110896   0.600   3.493   3.060
 3672TIP3    H210897   0.641   3.494   2.913
 3673TIP3   OH210898   0.621   3.183   3.837
 3673TIP3    H110899   0.527   3.158   3.848
 3673TIP3    H210900   0.655   3.105   3.789
 3674TIP3   OH210901  -0.256   3.407   3.574
 3674TIP3    H110902  -0.255   3.496   3.535
 3674TIP3    H210903  -0.349   3.396   3.598
 3675TIP3   OH210904  -0.108   3.185   3.536
 3675TIP3    H110905  -0.148   3.274   3.553
 3675TIP3    H210906  -0.149   3.133   3.607
 3676TIP3   OH210907   0.015   3.758   4.053
 3676TIP3    H110908   0.059   3.829   4.003
 3676TIP3    H210909   0.089   3.722   4.104
 3677TIP3   OH210910  -0.312   3.650   3.440
 3677TIP3    H110911  -0.401   3.655   3.483
 3677TIP3    H210912  -0.284   3.744   3.446
 3678TIP3   OH210913   0.407   3.389   4.012
 3678TIP3    H110914   0.399   3.388   4.110
 3678TIP3    H210915   0.487   3.336   3.999
 3679TIP3   OH210916   0.384   3.269   2.886
 3679TIP3    H110917   0.426   3.250   2.974
 3679TIP3    H210918   0.295   3.230   2.901
 3680TIP3   OH210919   0.654   3.926   4.063
 3680TIP3    H110920   0.575   3.869   4.054
 3680TIP3    H210921   0.639   3.991   3.991
 3681TIP3   OH210922   0.714   3.755   2.716
 3681TIP3    H110923   0.758   3.826   2.667
 3681TIP3    H210924   0.637   3.807   2.749
 3682TIP3   OH210925  -0.253   2.531   4.587
 3682TIP3    H110926  -0.344   2.545   4.617
 3682TIP3    H210927  -0.222   2.466   4.654
 3683TIP3   OH210928   0.538   3.213   3.108
 3683TIP3    H110929   0.524   3.151   3.182
 3683TIP3    H210930   0.636   3.214   3.106
 3684TIP3   OH210931  -0.511   3.640   4.208
 3684TIP3    H110932  -0.489   3.547   4.224
 3684TIP3    H210933  -0.514   3.673   4.298
 3685TIP3   OH210934  -0.316   3.285   3.240
 3685TIP3    H110935  -0.284   3.290   3.332
 3685TIP3    H210936  -0.313   3.378   3.214
 3686TIP3   OH210937   0.574   2.599   4.260
 3686TIP3    H110938   0.652   2.633   4.306
 3686TIP3    H210939   0.554   2.518   4.313
 3687TIP3   OH210940   0.545   2.386   3.392
 3687TIP3    H110941   0.451   2.387   3.368
 3687TIP3    H210942   0.546   2.450   3.466
 3688TIP3   OH210943  -0.063   3.463   3.097
 3688TIP3    H110944  -0.130   3.512   3.149
 3688TIP3    H210945  -0.019   3.540   3.056
 3689TIP3   OH210946   0.223   2.490   3.525
 3689TIP3    H110947   0.250   2.582   3.502
 3689TIP3    H210948   0.178   2.508   3.609
 3690TIP3   OH210949   0.415   2.850   4.337
 3690TIP3    H110950   0.428   2.904   4.417
 3690TIP3    H210951   0.469   2.772   4.355
 3691TIP3   OH210952   0.344   2.269   3.654
 3691TIP3    H110953   0.304   2.318   3.727
 3691TIP3    H210954   0.369   2.341   3.595
 3692TIP3   OH210955  -0.266   3.612   3.177
 3692TIP3    H110956  -0.344   3.618   3.120
 3692TIP3    H210957  -0.299   3.631   3.268
 3693TIP3   OH210958   1.059   2.749   4.305
 3693TIP3    H110959   0.963   2.751   4.325
 3693TIP3    H210960   1.056   2.696   4.225
 3694TIP3   OH210961   0.707   2.943   3.703
 3694TIP3    H110962   0.629   2.887   3.718
 3694TIP3    H210963   0.777   2.895   3.752
 3695TIP3   OH210964   0.672   3.894   3.655
 3695TIP3    H110965   0.630   3.941   3.580
 3695TIP3    H210966   0.766   3.917   3.637
 3696TIP3   OH210967   4.951   9.077   9.204
 3696TIP3    H110968   4.854   9.077   9.202
 3696TIP3    H210969   4.972   9.033   9.120
 3697TIP3   OH210970  -0.070   3.902   4.675
 3697TIP3    H110971   0.021   3.873   4.689
 3697TIP3    H210972  -0.098   3.841   4.604
 3698TIP3   OH210973   0.567   3.796   4.411
 3698TIP3    H110974   0.557   3.727   4.481
 3698TIP3    H210975   0.644   3.847   4.443
 3699TIP3   OH210976   0.347   3.495   2.710
 3699TIP3    H110977   0.380   3.450   2.791
 3699TIP3    H210978   0.423   3.549   2.682
 3700TIP3   OH210979  -0.404   3.316   4.843
 3700TIP3    H110980  -0.373   3.223   4.838
 3700TIP3    H210981  -0.499   3.302   4.825
 3701TIP3   OH210982   0.186   3.416   4.606
 3701TIP3    H110983   0.141   3.427   4.521
 3701TIP3    H210984   0.216   3.322   4.603
 3702TIP3   OH210985   0.677   3.420   4.213
 3702TIP3    H110986   0.749   3.470   4.169
 3702TIP3    H210987   0.603   3.483   4.204
 3703TIP3   OH210988  -0.317   3.050   4.830
 3703TIP3    H110989  -0.240   2.999   4.802
 3703TIP3    H210990  -0.286   3.086   4.916
 3704TIP3   OH210991   0.033   2.954   4.481
 3704TIP3    H110992  -0.047   3.011   4.483
 3704TIP3    H210993   0.077   2.984   4.399
 3705TIP3   OH210994   0.546   3.353   4.614
 3705TIP3    H110995   0.628   3.334   4.567
 3705TIP3    H210996   0.544   3.285   4.683
 3706TIP3   OH210997   0.672   3.011   2.731
 3706TIP3    H110998   0.711   2.986   2.646
 3706TIP3    H210999   0.675   3.108   2.727
 3707TIP3   OH211000   0.153   2.738   4.607
 3707TIP3    H111001   0.151   2.657   4.553
 3707TIP3    H211002   0.109   2.803   4.549
 3708TIP3   OH211003   0.152   2.525   4.411
 3708TIP3    H111004   0.181   2.563   4.326
 3708TIP3    H211005   0.058   2.502   4.391
 3709TIP3   OH211006   0.188   3.062   4.281
 3709TIP3    H111007   0.268   3.069   4.228
 3709TIP3    H211008   0.131   3.131   4.241
 3710TIP3   OH211009   0.765   3.029   4.667
 3710TIP3    H111010   0.814   2.947   4.681
 3710TIP3    H211011   0.835   3.089   4.636
 3711TIP3   OH211012   0.808   3.281   4.403
 3711TIP3    H111013   0.748   3.332   4.343
 3711TIP3    H211014   0.894   3.301   4.360
 3712TIP3   OH211015   0.025   2.858   4.831
 3712TIP3    H111016  -0.040   2.787   4.847
 3712TIP3    H211017   0.064   2.830   4.746
 3713TIP3   OH211018   0.289   2.291   4.475
 3713TIP3    H111019   0.238   2.373   4.455
 3713TIP3    H211020   0.220   2.222   4.465
 3714TIP3   OH211021   0.414   2.797   4.694
 3714TIP3    H111022   0.405   2.785   4.790
 3714TIP3    H211023   0.323   2.771   4.667
 3715TIP3   OH211024   0.653   2.742   4.549
 3715TIP3    H111025   0.577   2.745   4.609
 3715TIP3    H211026   0.725   2.710   4.607
 3716TIP3   OH211027   0.890   2.683   4.700
 3716TIP3    H111028   0.896   2.587   4.722
 3716TIP3    H211029   0.880   2.724   4.788
 3717TIP3   OH211030  -0.131   2.638   4.885
 3717TIP3    H111031  -0.122   2.547   4.849
 3717TIP3    H211032  -0.094   2.624   4.975
 3718TIP3   OH211033   0.384   2.300   4.733
 3718TIP3    H111034   0.451   2.229   4.729
 3718TIP3    H211035   0.343   2.292   4.644
 3719TIP3   OH211036   0.449   2.515   4.892
 3719TIP3    H111037   0.425   2.444   4.829
 3719TIP3    H211038   0.371   2.574   4.887
 3720TIP3   OH211039  -0.301   3.733   2.907
 3720TIP3    H111040  -0.244   3.768   2.977
 3720TIP3    H211041  -0.386   3.779   2.923
 3721TIP3   OH211042   0.918   3.996   3.610
 3721TIP3    H111043   0.953   4.034   3.692
 3721TIP3    H211044   0.986   4.022   3.545
 3722TIP3   OH211045   0.952   4.012   3.894
 3722TIP3    H111046   0.914   3.922   3.886
 3722TIP3    H211047   1.032   3.992   3.945
 3723TIP3   OH211048   1.003   3.684   4.466
 3723TIP3    H111049   0.927   3.694   4.528
 3723TIP3    H211050   1.042   3.774   4.469
 3724TIP3   OH211051   0.820   3.201   3.084
 3724TIP3    H111052   0.890   3.265   3.062
 3724TIP3    H211053   0.857   3.162   3.166
 3725TIP3   OH211054   0.943   3.068   3.287
 3725TIP3    H111055   0.878   3.024   3.347
 3725TIP3    H211056   1.006   3.108   3.350
 3726TIP3   OH211057   0.997   3.456   3.723
 3726TIP3    H111058   1.050   3.397   3.667
 3726TIP3    H211059   0.988   3.536   3.666
 3727TIP3   OH211060   0.832   3.757   3.920
 3727TIP3    H111061   0.761   3.803   3.969
 3727TIP3    H211062   0.781   3.710   3.850
 3728TIP3   OH211063   0.881   2.976   2.937
 3728TIP3    H111064   0.802   2.977   2.881
 3728TIP3    H211065   0.860   3.050   2.999
 3729TIP3   OH211066   0.764   2.652   2.878
 3729TIP3    H111067   0.680   2.686   2.847
 3729TIP3    H211068   0.744   2.556   2.887
 3730TIP3   OH211069   0.763   2.920   3.437
 3730TIP3    H111070   0.767   2.823   3.431
 3730TIP3    H211071   0.748   2.935   3.533
 3731TIP3   OH211072  -0.605   3.023   4.144
 3731TIP3    H111073  -0.587   2.945   4.091
 3731TIP3    H211074  -0.522   3.024   4.197
 3732TIP3   OH211075   1.049   3.346   4.293
 3732TIP3    H111076   1.123   3.282   4.282
 3732TIP3    H211077   1.073   3.417   4.231
 3733TIP3   OH211078   1.239   3.152   4.313
 3733TIP3    H111079   1.161   3.105   4.352
 3733TIP3    H211080   1.311   3.090   4.335
 3734TIP3   OH211081   0.773   2.638   3.334
 3734TIP3    H111082   0.806   2.548   3.350
 3734TIP3    H211083   0.833   2.667   3.264
 3735TIP3   OH211084   0.920   2.815   3.827
 3735TIP3    H111085   1.006   2.843   3.789
 3735TIP3    H211086   0.931   2.851   3.917
 3736TIP3   OH211087   0.985   2.956   4.059
 3736TIP3    H111088   0.907   2.989   4.109
 3736TIP3    H211089   1.017   3.038   4.016
 3737TIP3   OH211090  -0.403   2.665   4.859
 3737TIP3    H111091  -0.307   2.682   4.848
 3737TIP3    H211092  -0.400   2.599   4.930
 3738TIP3   OH211093   1.436   2.548   4.613
 3738TIP3    H111094   1.495   2.480   4.574
 3738TIP3    H211095   1.415   2.605   4.537
 3739TIP3   OH211096   0.871   2.379   3.363
 3739TIP3    H111097   0.919   2.373   3.449
 3739TIP3    H211098   0.802   2.314   3.376
 3740TIP3   OH211099  -0.597   2.657   4.290
 3740TIP3    H111100  -0.579   2.652   4.195
 3740TIP3    H211101  -0.640   2.743   4.299
 3741TIP3   OH211102   1.313   2.697   4.418
 3741TIP3    H111103   1.225   2.727   4.447
 3741TIP3    H211104   1.287   2.621   4.363
 3742TIP3   OH211105   1.014   2.311   3.004
 3742TIP3    H111106   1.040   2.262   2.925
 3742TIP3    H211107   1.069   2.392   2.994
 3743TIP3   OH211108   0.509   3.853   3.268
 3743TIP3    H111109   0.562   3.841   3.187
 3743TIP3    H211110   0.558   3.923   3.314
 3744TIP3   OH211111  -0.434   2.240   4.589
 3744TIP3    H111112  -0.487   2.222   4.668
 3744TIP3    H211113  -0.499   2.280   4.531
 3745TIP3   OH211114  -0.357   3.620   4.662
 3745TIP3    H111115  -0.445   3.656   4.643
 3745TIP3    H211116  -0.359   3.619   4.760
 3746TIP3   OH211117  -0.204   3.683   4.205
 3746TIP3    H111118  -0.264   3.751   4.169
 3746TIP3    H211119  -0.122   3.707   4.157
 3747TIP3   OH211120   0.237   3.937   4.341
 3747TIP3    H111121   0.278   3.939   4.430
 3747TIP3    H211122   0.304   3.987   4.289
 3748TIP3   OH211123   0.415   4.087   4.196
 3748TIP3    H111124   0.487   4.036   4.156
 3748TIP3    H211125   0.466   4.144   4.258
 3749TIP3   OH211126   1.208   2.452   4.299
 3749TIP3    H111127   1.116   2.447   4.268
 3749TIP3    H211128   1.236   2.358   4.288
 3750TIP3   OH211129  -0.300   3.929   4.090
 3750TIP3    H111130  -0.387   3.933   4.132
 3750TIP3    H211131  -0.319   3.960   3.999
 3751TIP3   OH211132   0.129   3.959   3.879
 3751TIP3    H111133   0.063   3.982   3.812
 3751TIP3    H211134   0.143   4.046   3.924
 3752TIP3   OH211135   0.396   3.897   3.930
 3752TIP3    H111136   0.302   3.915   3.910
 3752TIP3    H211137   0.440   3.975   3.890
 3753TIP3   OH211138   0.604   4.090   3.848
 3753TIP3    H111139   0.591   4.175   3.801
 3753TIP3    H211140   0.631   4.031   3.775
 3754TIP3   OH211141  -0.573   3.763   3.956
 3754TIP3    H111142  -0.556   3.723   4.045
 3754TIP3    H211143  -0.519   3.702   3.902
 3755TIP3   OH211144  -0.420   3.597   3.806
 3755TIP3    H111145  -0.409   3.518   3.864
 3755TIP3    H211146  -0.331   3.637   3.811
 3756TIP3   OH211147  -0.163   3.712   3.829
 3756TIP3    H111148  -0.131   3.621   3.814
 3756TIP3    H211149  -0.120   3.731   3.914
 3757TIP3   OH211150   0.413   2.368   3.924
 3757TIP3    H111151   0.368   2.300   3.979
 3757TIP3    H211152   0.473   2.314   3.871
 3758TIP3   OH211153   0.943   2.251   3.827
 3758TIP3    H111154   0.974   2.303   3.750
 3758TIP3    H211155   0.846   2.260   3.818
 3759TIP3   OH211156   1.031   2.351   3.585
 3759TIP3    H111157   1.104   2.299   3.545
 3759TIP3    H211158   1.065   2.442   3.573
 3760TIP3   OH211159   0.665   2.255   3.798
 3760TIP3    H111160   0.644   2.219   3.711
 3760TIP3    H211161   0.646   2.177   3.856
 3761TIP3   OH211162  -0.037   3.700   2.959
 3761TIP3    H111163   0.043   3.715   2.906
 3761TIP3    H211164  -0.108   3.695   2.893
 3762TIP3   OH211165   0.654   3.819   3.035
 3762TIP3    H111166   0.641   3.723   3.019
 3762TIP3    H211167   0.609   3.857   2.956
 3763TIP3   OH211168  -0.132   2.360   4.827
 3763TIP3    H111169  -0.166   2.285   4.880
 3763TIP3    H211170  -0.038   2.357   4.853
 3764TIP3   OH211171   0.118   2.352   4.945
 3764TIP3    H111172   0.203   2.325   4.905
 3764TIP3    H211173   0.105   2.280   5.010
 3765TIP3   OH211174   0.941   2.411   4.733
 3765TIP3    H111175   0.960   2.380   4.824
 3765TIP3    H211176   1.029   2.406   4.691
 3766TIP3   OH211177   0.885   3.967   4.224
 3766TIP3    H111178   0.805   3.934   4.178
 3766TIP3    H211179   0.866   4.063   4.225
 3767TIP3   OH211180   2.148   3.341   2.994
 3767TIP3    H111181   2.116   3.431   2.969
 3767TIP3    H211182   2.074   3.287   2.961
 3768TIP3   OH211183   2.156   3.339   3.368
 3768TIP3    H111184   2.175   3.300   3.455
 3768TIP3    H211185   2.109   3.266   3.324
 3769TIP3   OH211186   1.449   3.237   3.736
 3769TIP3    H111187   1.483   3.169   3.797
 3769TIP3    H211188   1.526   3.296   3.727
 3770TIP3   OH211189   2.327   3.626   3.013
 3770TIP3    H111190   2.389   3.581   3.082
 3770TIP3    H211191   2.352   3.716   3.059
 3771TIP3   OH211192   1.417   3.642   3.467
 3771TIP3    H111193   1.408   3.544   3.470
 3771TIP3    H211194   1.513   3.651   3.458
 3772TIP3   OH211195   1.127   2.852   3.249
 3772TIP3    H111196   1.076   2.934   3.263
 3772TIP3    H211197   1.056   2.790   3.226
 3773TIP3   OH211198   1.185   3.135   3.414
 3773TIP3    H111199   1.233   3.058   3.454
 3773TIP3    H211200   1.244   3.159   3.342
 3774TIP3   OH211201   2.033   4.101   3.063
 3774TIP3    H111202   2.088   4.030   3.024
 3774TIP3    H211203   2.028   4.075   3.156
 3775TIP3   OH211204   1.947   3.561   3.420
 3775TIP3    H111205   1.979   3.487   3.366
 3775TIP3    H211206   2.032   3.604   3.441
 3776TIP3   OH211207   2.957   2.885   3.414
 3776TIP3    H111208   2.986   2.967   3.458
 3776TIP3    H211209   2.981   2.903   3.322
 3777TIP3   OH211210   2.359   3.068   3.455
 3777TIP3    H111211   2.400   2.982   3.474
 3777TIP3    H211212   2.328   3.054   3.364
 3778TIP3   OH211213   1.693   2.725   3.420
 3778TIP3    H111214   1.671   2.797   3.356
 3778TIP3    H211215   1.647   2.650   3.376
 3779TIP3   OH211216   2.387   2.816   3.044
 3779TIP3    H111217   2.461   2.799   3.106
 3779TIP3    H211218   2.436   2.851   2.968
 3780TIP3   OH211219   1.329   2.929   3.524
 3780TIP3    H111220   1.411   2.906   3.572
 3780TIP3    H211221   1.339   2.871   3.445
 3781TIP3   OH211222   1.771   3.125   3.314
 3781TIP3    H111223   1.864   3.098   3.329
 3781TIP3    H211224   1.731   3.041   3.283
 3782TIP3   OH211225   3.031   3.089   3.592
 3782TIP3    H111226   2.947   3.136   3.571
 3782TIP3    H211227   3.053   3.129   3.678
 3783TIP3   OH211228   1.693   2.710   3.854
 3783TIP3    H111229   1.631   2.745   3.787
 3783TIP3    H211230   1.642   2.725   3.936
 3784TIP3   OH211231   2.043   3.561   2.865
 3784TIP3    H111232   2.001   3.536   2.782
 3784TIP3    H211233   2.000   3.647   2.883
 3785TIP3   OH211234   1.800   3.483   3.653
 3785TIP3    H111235   1.733   3.544   3.691
 3785TIP3    H211236   1.837   3.537   3.581
 3786TIP3   OH211237   2.603   2.815   3.209
 3786TIP3    H111238   2.597   2.761   3.289
 3786TIP3    H211239   2.659   2.889   3.237
 3787TIP3   OH211240   1.562   2.823   3.638
 3787TIP3    H111241   1.626   2.895   3.660
 3787TIP3    H211242   1.609   2.781   3.563
 3788TIP3   OH211243   1.625   3.673   3.744
 3788TIP3    H111244   1.600   3.758   3.703
 3788TIP3    H211245   1.545   3.660   3.801
 3789TIP3   OH211246   1.026   3.366   2.982
 3789TIP3    H111247   0.984   3.399   2.901
 3789TIP3    H211248   1.055   3.451   3.024
 3790TIP3   OH211249   2.745   2.787   3.580
 3790TIP3    H111250   2.657   2.815   3.550
 3790TIP3    H211251   2.804   2.816   3.507
 3791TIP3   OH211252   2.053   2.430   3.566
 3791TIP3    H111253   2.040   2.334   3.582
 3791TIP3    H211254   1.974   2.466   3.611
 3792TIP3   OH211255   2.177   3.927   2.908
 3792TIP3    H111256   2.218   3.847   2.867
 3792TIP3    H211257   2.231   3.996   2.862
 3793TIP3   OH211258   2.307   3.717   2.777
 3793TIP3    H111259   2.264   3.644   2.734
 3793TIP3    H211260   2.342   3.667   2.858
 3794TIP3   OH211261   2.677   3.793   3.555
 3794TIP3    H111262   2.742   3.747   3.500
 3794TIP3    H211263   2.664   3.878   3.506
 3795TIP3   OH211264   1.980   3.191   2.821
 3795TIP3    H111265   1.899   3.241   2.798
 3795TIP3    H211266   2.025   3.185   2.735
 3796TIP3   OH211267   1.939   2.970   2.544
 3796TIP3    H111268   2.009   3.021   2.588
 3796TIP3    H211269   1.994   2.905   2.496
 3797TIP3   OH211270   2.875   3.425   3.406
 3797TIP3    H111271   2.812   3.497   3.408
 3797TIP3    H211272   2.916   3.442   3.318
 3798TIP3   OH211273   2.326   3.271   2.795
 3798TIP3    H111274   2.270   3.297   2.873
 3798TIP3    H211275   2.408   3.243   2.840
 3799TIP3   OH211276   2.563   3.318   3.697
 3799TIP3    H111277   2.557   3.395   3.758
 3799TIP3    H211278   2.472   3.316   3.660
 3800TIP3   OH211279   1.558   3.271   3.210
 3800TIP3    H111280   1.516   3.214   3.142
 3800TIP3    H211281   1.636   3.217   3.236
 3801TIP3   OH211282   1.686   3.679   3.360
 3801TIP3    H111283   1.664   3.636   3.277
 3801TIP3    H211284   1.778   3.648   3.376
 3802TIP3   OH211285   1.700   3.240   3.565
 3802TIP3    H111286   1.728   3.224   3.473
 3802TIP3    H211287   1.738   3.328   3.584
 3803TIP3   OH211288   2.270   3.864   3.346
 3803TIP3    H111289   2.233   3.952   3.365
 3803TIP3    H211290   2.217   3.807   3.405
 3804TIP3   OH211291   1.832   3.795   3.889
 3804TIP3    H111292   1.774   3.860   3.935
 3804TIP3    H211293   1.764   3.745   3.839
 3805TIP3   OH211294   2.167   3.129   2.620
 3805TIP3    H111295   2.226   3.189   2.672
 3805TIP3    H211296   2.195   3.152   2.528
 3806TIP3   OH211297   1.586   3.353   3.994
 3806TIP3    H111298   1.588   3.444   4.031
 3806TIP3    H211299   1.489   3.338   3.992
 3807TIP3   OH211300   1.910   3.812   2.898
 3807TIP3    H111301   1.977   3.877   2.925
 3807TIP3    H211302   1.845   3.866   2.852
 3808TIP3   OH211303   1.628   3.966   3.973
 3808TIP3    H111304   1.592   3.966   3.883
 3808TIP3    H211305   1.550   3.945   4.028
 3809TIP3   OH211306   2.682   2.371   2.666
 3809TIP3    H111307   2.602   2.391   2.718
 3809TIP3    H211308   2.695   2.456   2.618
 3810TIP3   OH211309   1.424   3.113   3.016
 3810TIP3    H111310   1.361   3.158   2.957
 3810TIP3    H211311   1.381   3.028   3.030
 3811TIP3   OH211312   2.478   3.742   2.214
 3811TIP3    H111313   2.486   3.839   2.200
 3811TIP3    H211314   2.571   3.713   2.204
 3812TIP3   OH211315   1.207   3.496   3.923
 3812TIP3    H111316   1.141   3.477   3.852
 3812TIP3    H211317   1.240   3.407   3.945
 3813TIP3   OH211318   1.061   3.686   3.562
 3813TIP3    H111319   1.155   3.689   3.543
 3813TIP3    H211320   1.048   3.773   3.604
 3814TIP3   OH211321   2.925   4.136   3.607
 3814TIP3    H111322   2.926   4.042   3.633
 3814TIP3    H211323   2.843   4.167   3.653
 3815TIP3   OH211324   2.033   3.926   3.745
 3815TIP3    H111325   2.035   4.019   3.776
 3815TIP3    H211326   1.960   3.890   3.800
 3816TIP3   OH211327   1.787   4.060   2.694
 3816TIP3    H111328   1.730   4.040   2.619
 3816TIP3    H211329   1.760   4.150   2.719
 3817TIP3   OH211330   1.229   3.904   3.076
 3817TIP3    H111331   1.281   3.895   3.159
 3817TIP3    H211332   1.150   3.854   3.100
 3818TIP3   OH211333   2.046   3.984   2.347
 3818TIP3    H111334   2.050   3.900   2.298
 3818TIP3    H211335   2.033   3.956   2.439
 3819TIP3   OH211336   2.043   4.005   2.624
 3819TIP3    H111337   1.951   4.015   2.657
 3819TIP3    H211338   2.085   3.954   2.695
 3820TIP3   OH211339   2.816   3.271   3.881
 3820TIP3    H111340   2.734   3.285   3.833
 3820TIP3    H211341   2.825   3.174   3.878
 3821TIP3   OH211342   1.413   3.676   3.913
 3821TIP3    H111343   1.459   3.664   3.998
 3821TIP3    H211344   1.337   3.615   3.921
 3822TIP3   OH211345   1.811   2.505   3.690
 3822TIP3    H111346   1.722   2.472   3.667
 3822TIP3    H211347   1.786   2.587   3.735
 3823TIP3   OH211348   2.342   2.621   3.887
 3823TIP3    H111349   2.408   2.592   3.953
 3823TIP3    H211350   2.257   2.599   3.931
 3824TIP3   OH211351   2.594   3.053   3.811
 3824TIP3    H111352   2.540   3.043   3.893
 3824TIP3    H211353   2.559   3.135   3.773
 3825TIP3   OH211354   2.249   3.181   2.370
 3825TIP3    H111355   2.208   3.157   2.284
 3825TIP3    H211356   2.321   3.240   2.340
 3826TIP3   OH211357   1.956   2.557   2.665
 3826TIP3    H111358   1.926   2.553   2.758
 3826TIP3    H211359   1.918   2.473   2.632
 3827TIP3   OH211360   1.744   3.018   3.714
 3827TIP3    H111361   1.690   3.039   3.793
 3827TIP3    H211362   1.728   3.098   3.658
 3828TIP3   OH211363   1.626   2.905   3.227
 3828TIP3    H111364   1.533   2.879   3.243
 3828TIP3    H211365   1.640   2.865   3.138
 3829TIP3   OH211366   2.118   2.992   2.954
 3829TIP3    H111367   2.062   3.062   2.912
 3829TIP3    H211368   2.171   2.962   2.877
 3830TIP3   OH211369   2.292   3.272   4.039
 3830TIP3    H111370   2.270   3.199   4.102
 3830TIP3    H211371   2.385   3.289   4.063
 3831TIP3   OH211372   2.277   3.023   3.193
 3831TIP3    H111373   2.216   3.051   3.121
 3831TIP3    H211374   2.309   2.940   3.153
 3832TIP3   OH211375   1.563   3.048   3.920
 3832TIP3    H111376   1.577   3.116   3.988
 3832TIP3    H211377   1.546   2.968   3.973
 3833TIP3   OH211378   1.604   2.523   2.632
 3833TIP3    H111379   1.604   2.516   2.729
 3833TIP3    H211380   1.528   2.580   2.617
 3834TIP3   OH211381   1.152   2.579   3.504
 3834TIP3    H111382   1.233   2.601   3.553
 3834TIP3    H211383   1.183   2.538   3.421
 3835TIP3   OH211384   1.140   2.558   3.023
 3835TIP3    H111385   1.184   2.601   2.946
 3835TIP3    H211386   1.079   2.630   3.049
 3836TIP3   OH211387   2.293   3.270   3.620
 3836TIP3    H111388   2.320   3.195   3.562
 3836TIP3    H211389   2.259   3.220   3.697
 3837TIP3   OH211390   1.951   2.731   3.290
 3837TIP3    H111391   1.866   2.725   3.339
 3837TIP3    H211392   2.015   2.728   3.362
 3838TIP3   OH211393   1.388   2.781   3.298
 3838TIP3    H111394   1.294   2.789   3.271
 3838TIP3    H211395   1.410   2.688   3.275
 3839TIP3   OH211396   1.661   2.783   2.984
 3839TIP3    H111397   1.755   2.796   2.962
 3839TIP3    H211398   1.615   2.804   2.899
 3840TIP3   OH211399   2.445   2.803   3.489
 3840TIP3    H111400   2.408   2.814   3.580
 3840TIP3    H211401   2.382   2.739   3.451
 3841TIP3   OH211402   1.495   2.810   2.765
 3841TIP3    H111403   1.417   2.775   2.719
 3841TIP3    H211404   1.545   2.847   2.689
 3842TIP3   OH211405   2.613   4.489   3.707
 3842TIP3    H111406   2.612   4.516   3.614
 3842TIP3    H211407   2.688   4.541   3.741
 3843TIP3   OH211408   1.574   3.594   4.136
 3843TIP3    H111409   1.653   3.632   4.180
 3843TIP3    H211410   1.506   3.608   4.205
 3844TIP3   OH211411   2.039   3.056   3.389
 3844TIP3    H111412   2.106   3.012   3.335
 3844TIP3    H211413   2.049   3.012   3.475
 3845TIP3   OH211414   1.566   2.544   3.261
 3845TIP3    H111415   1.530   2.464   3.305
 3845TIP3    H211416   1.616   2.506   3.187
 3846TIP3   OH211417   2.015   2.949   3.675
 3846TIP3    H111418   1.925   2.984   3.688
 3846TIP3    H211419   2.071   3.009   3.728
 3847TIP3   OH211420   1.750   3.343   2.772
 3847TIP3    H111421   1.677   3.279   2.760
 3847TIP3    H211422   1.733   3.376   2.864
 3848TIP3   OH211423   2.210   2.653   2.638
 3848TIP3    H111424   2.112   2.640   2.635
 3848TIP3    H211425   2.219   2.750   2.645
 3849TIP3   OH211426   2.155   3.664   3.764
 3849TIP3    H111427   2.167   3.636   3.856
 3849TIP3    H211428   2.111   3.751   3.775
 3850TIP3   OH211429   2.280   2.904   2.737
 3850TIP3    H111430   2.376   2.909   2.748
 3850TIP3    H211431   2.260   2.980   2.678
 3851TIP3   OH211432   1.443   3.363   3.449
 3851TIP3    H111433   1.478   3.335   3.362
 3851TIP3    H211434   1.477   3.294   3.508
 3852TIP3   OH211435   1.895   3.496   2.591
 3852TIP3    H111436   1.852   3.584   2.599
 3852TIP3    H211437   1.840   3.442   2.651
 3853TIP3   OH211438   1.321   3.281   4.062
 3853TIP3    H111439   1.332   3.261   4.157
 3853TIP3    H211440   1.248   3.220   4.038
 3854TIP3   OH211441   2.046   3.393   4.083
 3854TIP3    H111442   1.990   3.340   4.024
 3854TIP3    H211443   2.135   3.365   4.054
 3855TIP3   OH211444   2.314   3.910   3.664
 3855TIP3    H111445   2.218   3.919   3.673
 3855TIP3    H211446   2.343   3.967   3.740
 3856TIP3   OH211447   2.724   2.989   2.572
 3856TIP3    H111448   2.662   2.943   2.511
 3856TIP3    H211449   2.719   3.078   2.531
 3857TIP3   OH211450   2.936   3.844   3.658
 3857TIP3    H111451   2.839   3.848   3.659
 3857TIP3    H211452   2.956   3.816   3.566
 3858TIP3   OH211453   2.428   3.807   2.481
 3858TIP3    H111454   2.393   3.737   2.536
 3858TIP3    H211455   2.433   3.767   2.393
 3859TIP3   OH211456   2.419   3.462   3.325
 3859TIP3    H111457   2.327   3.427   3.332
 3859TIP3    H211458   2.458   3.384   3.279
 3860TIP3   OH211459   1.541   3.665   3.068
 3860TIP3    H111460   1.544   3.748   3.017
 3860TIP3    H211461   1.446   3.658   3.085
 3861TIP3   OH211462   1.109   2.982   2.784
 3861TIP3    H111463   1.157   3.064   2.807
 3861TIP3    H211464   1.034   2.985   2.847
 3862TIP3   OH211465   1.689   3.436   3.020
 3862TIP3    H111466   1.650   3.524   3.034
 3862TIP3    H211467   1.648   3.386   3.093
 3863TIP3   OH211468   1.811   4.011   3.544
 3863TIP3    H111469   1.846   4.085   3.492
 3863TIP3    H211470   1.889   3.983   3.595
 3864TIP3   OH211471   1.466   3.904   2.925
 3864TIP3    H111472   1.379   3.911   2.970
 3864TIP3    H211473   1.494   3.998   2.926
 3865TIP3   OH211474   2.222   3.639   3.502
 3865TIP3    H111475   2.192   3.652   3.596
 3865TIP3    H211476   2.268   3.555   3.510
 3866TIP3   OH211477   2.175   3.528   2.383
 3866TIP3    H111478   2.222   3.509   2.466
 3866TIP3    H211479   2.083   3.514   2.409
 3867TIP3   OH211480   2.453   4.178   3.546
 3867TIP3    H111481   2.372   4.126   3.537
 3867TIP3    H211482   2.438   4.247   3.477
 3868TIP3   OH211483   2.515   4.015   2.202
 3868TIP3    H111484   2.549   4.087   2.146
 3868TIP3    H211485   2.435   4.060   2.237
 3869TIP3   OH211486   1.535   2.800   4.086
 3869TIP3    H111487   1.439   2.787   4.084
 3869TIP3    H211488   1.564   2.727   4.145
 3870TIP3   OH211489   2.333   3.479   2.607
 3870TIP3    H111490   2.324   3.406   2.672
 3870TIP3    H211491   2.429   3.473   2.587
 3871TIP3   OH211492   1.251   3.875   3.710
 3871TIP3    H111493   1.305   3.800   3.739
 3871TIP3    H211494   1.283   3.946   3.767
 3872TIP3   OH211495   1.536   3.511   2.379
 3872TIP3    H111496   1.557   3.419   2.352
 3872TIP3    H211497   1.520   3.500   2.475
 3873TIP3   OH211498   1.489   3.522   2.655
 3873TIP3    H111499   1.558   3.501   2.719
 3873TIP3    H211500   1.490   3.621   2.658
 3874TIP3   OH211501   1.225   3.221   2.857
 3874TIP3    H111502   1.162   3.269   2.915
 3874TIP3    H211503   1.243   3.291   2.791
 3875TIP3   OH211504   2.369   2.856   3.749
 3875TIP3    H111505   2.448   2.890   3.793
 3875TIP3    H211506   2.350   2.775   3.801
 3876TIP3   OH211507   2.248   2.609   2.912
 3876TIP3    H111508   2.233   2.630   2.817
 3876TIP3    H211509   2.286   2.693   2.946
 3877TIP3   OH211510   1.757   3.732   2.600
 3877TIP3    H111511   1.669   3.760   2.630
 3877TIP3    H211512   1.753   3.754   2.505
 3878TIP3   OH211513   1.944   2.783   3.014
 3878TIP3    H111514   2.009   2.855   2.996
 3878TIP3    H211515   1.947   2.779   3.112
 3879TIP3   OH211516   2.211   3.109   3.823
 3879TIP3    H111517   2.227   3.162   3.904
 3879TIP3    H211518   2.264   3.029   3.841
 3880TIP3   OH211519   2.089   2.519   3.122
 3880TIP3    H111520   2.080   2.597   3.179
 3880TIP3    H211521   2.147   2.555   3.050
 3881TIP3   OH211522   1.491   3.795   2.666
 3881TIP3    H111523   1.473   3.867   2.602
 3881TIP3    H211524   1.477   3.840   2.752
 3882TIP3   OH211525   1.599   2.510   2.908
 3882TIP3    H111526   1.594   2.601   2.943
 3882TIP3    H211527   1.695   2.493   2.917
 3883TIP3   OH211528   2.857   2.989   3.802
 3883TIP3    H111529   2.759   2.994   3.816
 3883TIP3    H211530   2.859   2.968   3.708
 3884TIP3   OH211531   2.501   3.206   3.197
 3884TIP3    H111532   2.426   3.145   3.204
 3884TIP3    H211533   2.573   3.155   3.240
 3885TIP3   OH211534   1.208   3.433   2.661
 3885TIP3    H111535   1.266   3.511   2.674
 3885TIP3    H211536   1.263   3.384   2.596
 3886TIP3   OH211537   1.164   2.714   2.804
 3886TIP3    H111538   1.153   2.811   2.796
 3886TIP3    H211539   1.089   2.679   2.756
 3887TIP3   OH211540   2.477   4.156   3.155
 3887TIP3    H111541   2.426   4.190   3.078
 3887TIP3    H211542   2.568   4.175   3.122
 3888TIP3   OH211543   1.546   2.425   3.672
 3888TIP3    H111544   1.514   2.391   3.585
 3888TIP3    H211545   1.536   2.346   3.729
 3889TIP3   OH211546   1.081   3.625   3.056
 3889TIP3    H111547   1.014   3.674   3.106
 3889TIP3    H211548   1.083   3.676   2.973
 3890TIP3   OH211549   1.238   4.179   4.124
 3890TIP3    H111550   1.324   4.178   4.170
 3890TIP3    H211551   1.217   4.084   4.121
 3891TIP3   OH211552   1.725   4.151   4.166
 3891TIP3    H111553   1.820   4.135   4.175
 3891TIP3    H211554   1.703   4.094   4.089
 3892TIP3   OH211555   1.711   3.715   2.327
 3892TIP3    H111556   1.649   3.640   2.337
 3892TIP3    H211557   1.775   3.679   2.265
 3893TIP3   OH211558   2.370   4.047   3.893
 3893TIP3    H111559   2.356   3.984   3.967
 3893TIP3    H211560   2.441   4.105   3.929
 3894TIP3   OH211561   2.134   3.754   2.201
 3894TIP3    H111562   2.194   3.706   2.260
 3894TIP3    H211563   2.191   3.776   2.125
 3895TIP3   OH211564   1.372   3.583   4.322
 3895TIP3    H111565   1.374   3.487   4.320
 3895TIP3    H211566   1.283   3.599   4.283
 3896TIP3   OH211567   1.349   3.241   2.515
 3896TIP3    H111568   1.405   3.208   2.587
 3896TIP3    H211569   1.416   3.247   2.443
 3897TIP3   OH211570   1.982   3.672   4.094
 3897TIP3    H111571   1.937   3.687   4.009
 3897TIP3    H211572   2.011   3.578   4.088
 3898TIP3   OH211573   1.852   3.437   2.320
 3898TIP3    H111574   1.857   3.453   2.416
 3898TIP3    H211575   1.855   3.339   2.318
 3899TIP3   OH211576   2.469   3.670   3.678
 3899TIP3    H111577   2.544   3.732   3.665
 3899TIP3    H211578   2.396   3.733   3.697
 3900TIP3   OH211579   1.501   3.296   4.317
 3900TIP3    H111580   1.576   3.297   4.256
 3900TIP3    H211581   1.521   3.370   4.378
 3901TIP3   OH211582   1.557   3.142   2.739
 3901TIP3    H111583   1.533   3.098   2.822
 3901TIP3    H211584   1.594   3.067   2.686
 3902TIP3   OH211585   1.825   3.211   3.971
 3902TIP3    H111586   1.746   3.268   3.970
 3902TIP3    H211587   1.871   3.239   3.888
 3903TIP3   OH211588   1.656   2.934   2.582
 3903TIP3    H111589   1.630   2.936   2.488
 3903TIP3    H211590   1.754   2.941   2.574
 3904TIP3   OH211591   2.339   3.605   4.098
 3904TIP3    H111592   2.428   3.598   4.062
 3904TIP3    H211593   2.341   3.541   4.171
 3905TIP3   OH211594   2.488   3.269   2.233
 3905TIP3    H111595   2.454   3.221   2.155
 3905TIP3    H211596   2.453   3.359   2.212
 3906TIP3   OH211597   1.944   2.995   4.102
 3906TIP3    H111598   1.946   2.915   4.046
 3906TIP3    H211599   1.903   3.060   4.041
 3907TIP3   OH211600   1.951   2.784   3.900
 3907TIP3    H111601   1.978   2.822   3.814
 3907TIP3    H211602   1.858   2.759   3.882
 3908TIP3   OH211603   1.983   3.321   3.774
 3908TIP3    H111604   2.060   3.323   3.716
 3908TIP3    H211605   1.924   3.387   3.731
 3909TIP3   OH211606   2.561   3.286   4.151
 3909TIP3    H111607   2.612   3.206   4.172
 3909TIP3    H211608   2.631   3.349   4.128
 3910TIP3   OH211609   2.605   3.536   3.883
 3910TIP3    H111610   2.544   3.587   3.826
 3910TIP3    H211611   2.691   3.556   3.841
 3911TIP3   OH211612   1.788   3.099   4.325
 3911TIP3    H111613   1.752   3.016   4.289
 3911TIP3    H211614   1.854   3.118   4.256
 3912TIP3   OH211615   2.084   2.547   3.960
 3912TIP3    H111616   2.034   2.629   3.941
 3912TIP3    H211617   2.014   2.479   3.951
 3913TIP3   OH211618   2.211   3.054   4.180
 3913TIP3    H111619   2.206   3.042   4.277
 3913TIP3    H211620   2.120   3.026   4.156
 3914TIP3   OH211621   2.449   2.996   4.034
 3914TIP3    H111622   2.374   3.002   4.095
 3914TIP3    H211623   2.522   2.967   4.093
 3915TIP3   OH211624   2.681   2.935   4.188
 3915TIP3    H111625   2.682   2.842   4.217
 3915TIP3    H211626   2.674   2.984   4.273
 3916TIP3   OH211627   2.182   2.559   4.217
 3916TIP3    H111628   2.246   2.486   4.216
 3916TIP3    H211629   2.139   2.547   4.129
 3917TIP3   OH211630   2.246   2.771   4.379
 3917TIP3    H111631   2.222   2.699   4.316
 3917TIP3    H211632   2.169   2.831   4.372
 3918TIP3   OH211633   1.492   3.996   2.477
 3918TIP3    H111634   1.568   3.993   2.417
 3918TIP3    H211635   1.430   4.040   2.414
 3919TIP3   OH211636   0.942   3.381   2.698
 3919TIP3    H111637   1.036   3.409   2.689
 3919TIP3    H211638   0.946   3.291   2.660
 3920TIP3   OH211639   0.858   3.994   3.109
 3920TIP3    H111640   0.789   3.932   3.077
 3920TIP3    H211641   0.901   3.939   3.179
 3921TIP3   OH211642   0.997   3.844   3.289
 3921TIP3    H111643   0.982   3.774   3.355
 3921TIP3    H211644   1.048   3.907   3.344
 3922TIP3   OH211645   2.725   4.245   3.098
 3922TIP3    H111646   2.750   4.289   3.180
 3922TIP3    H211647   2.777   4.294   3.032
 3923TIP3   OH211648   2.750   4.269   3.381
 3923TIP3    H111649   2.719   4.179   3.367
 3923TIP3    H211650   2.829   4.254   3.436
 3924TIP3   OH211651   2.795   3.941   3.947
 3924TIP3    H111652   2.723   3.950   4.013
 3924TIP3    H211653   2.838   4.030   3.954
 3925TIP3   OH211654   2.613   3.457   2.573
 3925TIP3    H111655   2.681   3.521   2.545
 3925TIP3    H211656   2.656   3.416   2.652
 3926TIP3   OH211657   2.740   3.325   2.776
 3926TIP3    H111658   2.677   3.280   2.836
 3926TIP3    H211659   2.807   3.362   2.838
 3927TIP3   OH211660   2.603   4.005   3.396
 3927TIP3    H111661   2.561   4.063   3.464
 3927TIP3    H211662   2.552   4.031   3.317
 3928TIP3   OH211663   2.680   3.231   2.424
 3928TIP3    H111664   2.610   3.234   2.355
 3928TIP3    H211665   2.652   3.307   2.479
 3929TIP3   OH211666   2.557   2.903   2.379
 3929TIP3    H111667   2.508   2.949   2.310
 3929TIP3    H211668   2.526   2.810   2.367
 3930TIP3   OH211669   2.557   3.178   2.927
 3930TIP3    H111670   2.564   3.081   2.918
 3930TIP3    H211671   2.545   3.189   3.023
 3931TIP3   OH211672   1.184   3.250   3.669
 3931TIP3    H111673   1.182   3.226   3.574
 3931TIP3    H211674   1.281   3.253   3.685
 3932TIP3   OH211675   2.843   3.603   3.768
 3932TIP3    H111676   2.916   3.537   3.769
 3932TIP3    H211677   2.887   3.680   3.726
 3933TIP3   OH211678   3.029   3.414   3.802
 3933TIP3    H111679   2.958   3.360   3.841
 3933TIP3    H211680   3.105   3.353   3.814
 3934TIP3   OH211681   2.502   2.637   2.367
 3934TIP3    H111682   2.567   2.603   2.431
 3934TIP3    H211683   2.420   2.585   2.384
 3935TIP3   OH211684   2.554   2.896   2.822
 3935TIP3    H111685   2.592   2.806   2.837
 3935TIP3    H211686   2.611   2.926   2.750
 3936TIP3   OH211687   2.715   3.075   3.313
 3936TIP3    H111688   2.802   3.101   3.274
 3936TIP3    H211689   2.729   3.106   3.404
 3937TIP3   OH211690   2.782   3.209   3.550
 3937TIP3    H111691   2.704   3.245   3.597
 3937TIP3    H211692   2.814   3.288   3.501
 3938TIP3   OH211693   1.430   2.950   4.369
 3938TIP3    H111694   1.487   2.900   4.309
 3938TIP3    H211695   1.378   2.876   4.406
 3939TIP3   OH211696   3.233   2.792   4.107
 3939TIP3    H111697   3.296   2.733   4.062
 3939TIP3    H211698   3.203   2.851   4.035
 3940TIP3   OH211699   2.661   2.644   2.857
 3940TIP3    H111700   2.709   2.628   2.940
 3940TIP3    H211701   2.600   2.568   2.855
 3941TIP3   OH211702   1.362   2.632   3.676
 3941TIP3    H111703   1.423   2.556   3.686
 3941TIP3    H211704   1.425   2.706   3.671
 3942TIP3   OH211705   1.168   2.907   3.752
 3942TIP3    H111706   1.214   2.897   3.667
 3942TIP3    H211707   1.193   2.997   3.776
 3943TIP3   OH211708   3.110   2.950   3.917
 3943TIP3    H111709   3.024   2.984   3.950
 3943TIP3    H211710   3.087   2.927   3.827
 3944TIP3   OH211711   2.749   2.580   2.494
 3944TIP3    H111712   2.786   2.509   2.439
 3944TIP3    H211713   2.813   2.653   2.479
 3945TIP3   OH211714   1.149   2.433   3.265
 3945TIP3    H111715   1.056   2.410   3.276
 3945TIP3    H211716   1.152   2.472   3.176
 3946TIP3   OH211717   2.312   4.106   2.762
 3946TIP3    H111718   2.354   4.093   2.674
 3946TIP3    H211719   2.361   4.182   2.795
 3947TIP3   OH211720   1.368   2.497   4.066
 3947TIP3    H111721   1.318   2.484   4.148
 3947TIP3    H211722   1.298   2.529   4.006
 3948TIP3   OH211723   1.410   3.905   4.144
 3948TIP3    H111724   1.316   3.885   4.126
 3948TIP3    H211725   1.412   3.903   4.240
 3949TIP3   OH211726   1.582   3.945   3.688
 3949TIP3    H111727   1.530   4.017   3.649
 3949TIP3    H211728   1.668   3.963   3.643
 3950TIP3   OH211729   2.034   4.191   3.825
 3950TIP3    H111730   2.072   4.195   3.915
 3950TIP3    H211731   2.099   4.245   3.775
 3951TIP3   OH211732   2.212   4.342   3.683
 3951TIP3    H111733   2.287   4.294   3.646
 3951TIP3    H211734   2.259   4.402   3.746
 3952TIP3   OH211735   1.271   4.194   3.724
 3952TIP3    H111736   1.199   4.233   3.671
 3952TIP3    H211737   1.255   4.239   3.808
 3953TIP3   OH211738   1.493   4.187   3.560
 3953TIP3    H111739   1.418   4.195   3.623
 3953TIP3    H211740   1.449   4.225   3.480
 3954TIP3   OH211741   1.928   4.215   3.365
 3954TIP3    H111742   1.855   4.235   3.302
 3954TIP3    H211743   1.938   4.302   3.409
 3955TIP3   OH211744   2.193   4.147   3.409
 3955TIP3    H111745   2.098   4.169   3.397
 3955TIP3    H211746   2.235   4.229   3.378
 3956TIP3   OH211747   2.401   4.348   3.338
 3956TIP3    H111748   2.387   4.433   3.291
 3956TIP3    H211749   2.426   4.289   3.264
 3957TIP3   OH211750   1.157   3.982   3.465
 3957TIP3    H111751   1.200   3.968   3.551
 3957TIP3    H211752   1.235   3.989   3.406
 3958TIP3   OH211753   1.368   3.867   3.303
 3958TIP3    H111754   1.383   3.790   3.362
 3958TIP3    H211755   1.455   3.912   3.305
 3959TIP3   OH211756   1.635   3.970   3.309
 3959TIP3    H111757   1.664   3.878   3.300
 3959TIP3    H211758   1.668   3.991   3.399
 3960TIP3   OH211759   2.209   2.624   3.405
 3960TIP3    H111760   2.164   2.556   3.458
 3960TIP3    H211761   2.276   2.572   3.357
 3961TIP3   OH211762   2.735   2.505   3.313
 3961TIP3    H111763   2.771   2.555   3.236
 3961TIP3    H211764   2.639   2.519   3.303
 3962TIP3   OH211765   2.828   2.605   3.074
 3962TIP3    H111766   2.901   2.553   3.033
 3962TIP3    H211767   2.861   2.696   3.058
 3963TIP3   OH211768   1.459   2.332   3.424
 3963TIP3    H111769   1.367   2.301   3.417
 3963TIP3    H211770   1.507   2.247   3.419
 3964TIP3   OH211771   1.273   2.188   3.081
 3964TIP3    H111772   1.302   2.242   3.005
 3964TIP3    H211773   1.206   2.246   3.121
 3965TIP3   OH211774   1.900   2.365   3.299
 3965TIP3    H111775   1.961   2.418   3.246
 3965TIP3    H211776   1.915   2.400   3.388
 3966TIP3   OH211777   2.455   2.509   3.285
 3966TIP3    H111778   2.444   2.476   3.195
 3966TIP3    H211779   2.437   2.428   3.339
 3967TIP3   OH211780   2.478   2.430   2.847
 3967TIP3    H111781   2.390   2.472   2.853
 3967TIP3    H211782   2.462   2.347   2.896
 3968TIP3   OH211783   0.960   3.766   2.850
 3968TIP3    H111784   0.873   3.742   2.814
 3968TIP3    H211785   0.954   3.863   2.847
 3969TIP3   OH211786   1.364   2.347   2.869
 3969TIP3    H111787   1.401   2.291   2.798
 3969TIP3    H211788   1.441   2.404   2.891
 3970TIP3   OH211789   1.874   2.533   2.933
 3970TIP3    H111790   1.934   2.487   2.994
 3970TIP3    H211791   1.897   2.626   2.956
 3971TIP3   OH211792   2.450   4.077   2.524
 3971TIP3    H111793   2.443   3.980   2.509
 3971TIP3    H211794   2.405   4.112   2.445
 3972TIP3   OH211795   1.657   2.607   4.309
 3972TIP3    H111796   1.632   2.538   4.372
 3972TIP3    H211797   1.748   2.626   4.339
 3973TIP3   OH211798   1.911   2.615   4.433
 3973TIP3    H111799   1.994   2.582   4.393
 3973TIP3    H211800   1.896   2.546   4.501
 3974TIP3   OH211801   1.034   3.789   2.492
 3974TIP3    H111802   1.036   3.829   2.580
 3974TIP3    H211803   1.126   3.756   2.481
 3975TIP3   OH211804   2.735   2.660   4.225
 3975TIP3    H111805   2.741   2.633   4.319
 3975TIP3    H211806   2.828   2.673   4.205
 3976TIP3   OH211807   2.682   4.222   3.707
 3976TIP3    H111808   2.598   4.194   3.666
 3976TIP3    H211809   2.666   4.319   3.712
 3977TIP3   OH211810   3.944   3.593   2.480
 3977TIP3    H111811   3.919   3.686   2.462
 3977TIP3    H211812   3.865   3.547   2.448
 3978TIP3   OH211813   3.941   3.593   2.855
 3978TIP3    H111814   3.971   3.563   2.942
 3978TIP3    H211815   3.900   3.513   2.819
 3979TIP3   OH211816   3.244   3.496   3.228
 3979TIP3    H111817   3.278   3.427   3.288
 3979TIP3    H211818   3.324   3.549   3.212
 3980TIP3   OH211819   4.183   3.895   2.538
 3980TIP3    H111820   4.174   3.825   2.605
 3980TIP3    H211821   4.212   3.971   2.592
 3981TIP3   OH211822   3.212   3.897   2.953
 3981TIP3    H111823   3.205   3.799   2.955
 3981TIP3    H211824   3.308   3.908   2.946
 3982TIP3   OH211825   2.920   3.105   2.738
 3982TIP3    H111826   2.872   3.189   2.748
 3982TIP3    H211827   2.850   3.048   2.703
 3983TIP3   OH211828   2.979   3.391   2.904
 3983TIP3    H111829   3.029   3.316   2.943
 3983TIP3    H211830   3.038   3.419   2.833
 3984TIP3   OH211831   3.830   4.357   2.553
 3984TIP3    H111832   3.881   4.286   2.509
 3984TIP3    H211833   3.829   4.327   2.644
 3985TIP3   OH211834   3.743   3.819   2.905
 3985TIP3    H111835   3.780   3.743   2.858
 3985TIP3    H211836   3.827   3.863   2.929
 3986TIP3   OH211837   4.752   3.142   2.903
 3986TIP3    H111838   4.781   3.223   2.949
 3986TIP3    H211839   4.774   3.164   2.811
 3987TIP3   OH211840   4.153   3.324   2.942
 3987TIP3    H111841   4.196   3.239   2.962
 3987TIP3    H211842   4.125   3.309   2.850
 3988TIP3   OH211843   3.487   2.981   2.907
 3988TIP3    H111844   3.469   3.053   2.843
 3988TIP3    H211845   3.441   2.907   2.861
 3989TIP3   OH211846   4.183   3.071   2.530
 3989TIP3    H111847   4.256   3.054   2.594
 3989TIP3    H211848   4.235   3.108   2.456
 3990TIP3   OH211849   3.125   3.184   3.011
 3990TIP3    H111850   3.208   3.164   3.058
 3990TIP3    H211851   3.136   3.129   2.931
 3991TIP3   OH211852   3.567   3.382   2.802
 3991TIP3    H111853   3.661   3.356   2.816
 3991TIP3    H211854   3.528   3.297   2.771
 3992TIP3   OH211855   4.826   3.347   3.074
 3992TIP3    H111856   4.743   3.396   3.055
 3992TIP3    H211857   4.840   3.369   3.167
 3993TIP3   OH211858   3.488   2.964   3.337
 3993TIP3    H111859   3.428   3.002   3.271
 3993TIP3    H211860   3.439   2.983   3.419
 3994TIP3   OH211861   3.840   3.816   2.348
 3994TIP3    H111862   3.793   3.792   2.268
 3994TIP3    H211863   3.798   3.902   2.370
 3995TIP3   OH211864   3.594   3.739   3.138
 3995TIP3    H111865   3.530   3.802   3.177
 3995TIP3    H211866   3.637   3.792   3.069
 3996TIP3   OH211867   4.399   3.071   2.696
 3996TIP3    H111868   4.391   3.021   2.778
 3996TIP3    H211869   4.453   3.147   2.723
 3997TIP3   OH211870   3.357   3.080   3.124
 3997TIP3    H111871   3.420   3.152   3.147
 3997TIP3    H211872   3.406   3.038   3.049
 3998TIP3   OH211873   3.419   3.930   3.231
 3998TIP3    H111874   3.396   4.016   3.191
 3998TIP3    H211875   3.341   3.917   3.289
 3999TIP3   OH211876   2.820   3.621   2.468
 3999TIP3    H111877   2.776   3.648   2.385
 3999TIP3    H211878   2.847   3.707   2.506
 4000TIP3   OH211879   4.258   4.136   2.709
 4000TIP3    H111880   4.168   4.129   2.748
 4000TIP3    H211881   4.250   4.223   2.664
 4001TIP3   OH211882   4.546   3.042   3.070
 4001TIP3    H111883   4.458   3.074   3.042
 4001TIP3    H211884   4.604   3.073   2.998
 4002TIP3   OH211885   3.848   2.685   3.050
 4002TIP3    H111886   3.839   2.590   3.071
 4002TIP3    H211887   3.769   2.721   3.097
 4003TIP3   OH211888   3.965   4.186   2.386
 4003TIP3    H111889   4.014   4.104   2.362
 4003TIP3    H211890   4.023   4.252   2.343
 4004TIP3   OH211891   4.105   3.971   2.285
 4004TIP3    H111892   4.062   3.893   2.247
 4004TIP3    H211893   4.137   3.935   2.371
 4005TIP3   OH211894   4.484   4.054   3.052
 4005TIP3    H111895   4.474   3.976   2.993
 4005TIP3    H211896   4.468   4.128   2.990
 4006TIP3   OH211897   3.773   3.444   2.306
 4006TIP3    H111898   3.694   3.497   2.284
 4006TIP3    H211899   3.822   3.445   2.222
 4007TIP3   OH211900   3.734   3.229   2.026
 4007TIP3    H111901   3.801   3.279   2.077
 4007TIP3    H211902   3.792   3.165   1.980
 4008TIP3   OH211903   4.679   3.687   2.894
 4008TIP3    H111904   4.597   3.740   2.902
 4008TIP3    H211905   4.708   3.712   2.804
 4009TIP3   OH211906   4.121   3.527   2.282
 4009TIP3    H111907   4.067   3.553   2.360
 4009TIP3    H211908   4.205   3.501   2.326
 4010TIP3   OH211909   4.358   3.571   3.188
 4010TIP3    H111910   4.356   3.653   3.240
 4010TIP3    H211911   4.271   3.576   3.143
 4011TIP3   OH211912   3.354   3.528   2.697
 4011TIP3    H111913   3.313   3.470   2.629
 4011TIP3    H211914   3.432   3.475   2.724
 4012TIP3   OH211915   3.483   3.936   2.847
 4012TIP3    H111916   3.464   3.890   2.764
 4012TIP3    H211917   3.574   3.906   2.866
 4013TIP3   OH211918   3.490   3.498   3.051
 4013TIP3    H111919   3.524   3.479   2.961
 4013TIP3    H211920   3.534   3.584   3.073
 4014TIP3   OH211921   4.016   4.135   2.827
 4014TIP3    H111922   4.002   4.215   2.880
 4014TIP3    H211923   4.002   4.063   2.892
 4015TIP3   OH211924   3.628   4.054   3.374
 4015TIP3    H111925   3.570   4.118   3.422
 4015TIP3    H211926   3.561   4.002   3.327
 4016TIP3   OH211927   3.965   3.386   2.106
 4016TIP3    H111928   4.023   3.445   2.160
 4016TIP3    H211929   3.992   3.412   2.014
 4017TIP3   OH211930   3.383   3.615   3.474
 4017TIP3    H111931   3.387   3.700   3.522
 4017TIP3    H211932   3.287   3.596   3.478
 4018TIP3   OH211933   3.703   4.069   2.381
 4018TIP3    H111934   3.779   4.124   2.407
 4018TIP3    H211935   3.642   4.134   2.344
 4019TIP3   OH211936   3.424   4.224   3.460
 4019TIP3    H111937   3.387   4.222   3.369
 4019TIP3    H211938   3.345   4.203   3.515
 4020TIP3   OH211939   4.479   2.629   2.152
 4020TIP3    H111940   4.398   2.647   2.205
 4020TIP3    H211941   4.490   2.714   2.105
 4021TIP3   OH211942   3.221   3.369   2.501
 4021TIP3    H111943   3.157   3.415   2.443
 4021TIP3    H211944   3.176   3.285   2.516
 4022TIP3   OH211945   4.276   3.997   1.700
 4022TIP3    H111946   4.284   4.094   1.688
 4022TIP3    H211947   4.368   3.968   1.689
 4023TIP3   OH211948   2.981   3.740   3.409
 4023TIP3    H111949   2.985   3.720   3.314
 4023TIP3    H211950   3.037   3.666   3.445
 4024TIP3   OH211951   2.854   3.948   3.049
 4024TIP3    H111952   2.949   3.935   3.033
 4024TIP3    H211953   2.852   4.032   3.096
 4025TIP3   OH211954   4.722   4.394   3.095
 4025TIP3    H111955   4.720   4.298   3.110
 4025TIP3    H211956   4.639   4.421   3.140
 4026TIP3   OH211957   3.828   4.185   3.230
 4026TIP3    H111958   3.829   4.277   3.263
 4026TIP3    H211959   3.757   4.146   3.287
 4027TIP3   OH211960   3.584   4.313   2.183
 4027TIP3    H111961   3.540   4.295   2.098
 4027TIP3    H211962   3.554   4.404   2.204
 4028TIP3   OH211963   3.025   4.163   2.564
 4028TIP3    H111964   3.073   4.153   2.649
 4028TIP3    H211965   2.959   4.092   2.573
 4029TIP3   OH211966   3.788   4.213   1.825
 4029TIP3    H111967   3.849   4.144   1.788
 4029TIP3    H211968   3.822   4.223   1.916
 4030TIP3   OH211969   3.837   4.260   2.096
 4030TIP3    H111970   3.749   4.271   2.139
 4030TIP3    H211971   3.888   4.220   2.167
 4031TIP3   OH211972   4.613   3.530   3.370
 4031TIP3    H111973   4.532   3.544   3.318
 4031TIP3    H211974   4.626   3.434   3.360
 4032TIP3   OH211975   3.205   3.930   3.400
 4032TIP3    H111976   3.259   3.922   3.482
 4032TIP3    H211977   3.130   3.872   3.419
 4033TIP3   OH211978   3.605   2.761   3.174
 4033TIP3    H111979   3.515   2.731   3.153
 4033TIP3    H211980   3.584   2.843   3.222
 4034TIP3   OH211981   4.140   2.877   3.375
 4034TIP3    H111982   4.207   2.848   3.440
 4034TIP3    H211983   4.055   2.855   3.420
 4035TIP3   OH211984   4.382   3.305   3.293
 4035TIP3    H111985   4.334   3.299   3.378
 4035TIP3    H211986   4.356   3.393   3.259
 4036TIP3   OH211987   4.037   3.436   1.849
 4036TIP3    H111988   4.007   3.408   1.761
 4036TIP3    H211989   4.116   3.489   1.826
 4037TIP3   OH211990   3.751   2.813   2.150
 4037TIP3    H111991   3.722   2.811   2.243
 4037TIP3    H211992   3.716   2.727   2.120
 4038TIP3   OH211993   3.536   3.275   3.199
 4038TIP3    H111994   3.490   3.300   3.281
 4038TIP3    H211995   3.523   3.355   3.144
 4039TIP3   OH211996   3.422   3.161   2.714
 4039TIP3    H111997   3.329   3.135   2.730
 4039TIP3    H211998   3.436   3.120   2.625
 4040TIP3   OH211999   3.913   3.247   2.439
 4040TIP3    H112000   3.858   3.319   2.400
 4040TIP3    H212001   3.967   3.221   2.362
 4041TIP3   OH212002   4.086   3.529   3.528
 4041TIP3    H112003   4.065   3.455   3.590
 4041TIP3    H212004   4.180   3.544   3.549
 4042TIP3   OH212005   4.071   3.278   2.682
 4042TIP3    H112006   4.013   3.309   2.610
 4042TIP3    H212007   4.102   3.194   2.640
 4043TIP3   OH212008   3.353   3.307   3.411
 4043TIP3    H112009   3.391   3.368   3.475
 4043TIP3    H212010   3.348   3.223   3.461
 4044TIP3   OH212011   3.404   2.779   2.118
 4044TIP3    H112012   3.405   2.776   2.215
 4044TIP3    H212013   3.324   2.831   2.102
 4045TIP3   OH212014   2.950   2.830   2.989
 4045TIP3    H112015   3.028   2.859   3.041
 4045TIP3    H212016   2.988   2.794   2.907
 4046TIP3   OH212017   2.931   2.810   2.508
 4046TIP3    H112018   2.977   2.849   2.431
 4046TIP3    H212019   2.868   2.882   2.530
 4047TIP3   OH212020   4.080   3.525   3.105
 4047TIP3    H112021   4.113   3.451   3.048
 4047TIP3    H212022   4.053   3.474   3.184
 4048TIP3   OH212023   3.745   2.987   2.776
 4048TIP3    H112024   3.663   2.982   2.829
 4048TIP3    H212025   3.813   2.985   2.845
 4049TIP3   OH212026   3.183   3.037   2.786
 4049TIP3    H112027   3.089   3.044   2.758
 4049TIP3    H212028   3.207   2.946   2.761
 4050TIP3   OH212029   3.457   3.037   2.471
 4050TIP3    H112030   3.552   3.051   2.452
 4050TIP3    H212031   3.412   3.061   2.387
 4051TIP3   OH212032   4.240   3.060   2.975
 4051TIP3    H112033   4.206   3.071   3.066
 4051TIP3    H212034   4.177   2.996   2.939
 4052TIP3   OH212035   3.290   3.066   2.251
 4052TIP3    H112036   3.213   3.029   2.204
 4052TIP3    H212037   3.341   3.102   2.176
 4053TIP3   OH212038   4.408   4.747   3.194
 4053TIP3    H112039   4.407   4.772   3.100
 4053TIP3    H212040   4.484   4.799   3.227
 4054TIP3   OH212041   3.368   3.858   3.618
 4054TIP3    H112042   3.450   3.888   3.664
 4054TIP3    H212043   3.305   3.861   3.693
 4055TIP3   OH212044   3.833   3.310   2.872
 4055TIP3    H112045   3.906   3.270   2.821
 4055TIP3    H212046   3.846   3.271   2.960
 4056TIP3   OH212047   3.358   2.801   2.746
 4056TIP3    H112048   3.328   2.720   2.792
 4056TIP3    H212049   3.418   2.766   2.678
 4057TIP3   OH212050   3.810   3.204   3.164
 4057TIP3    H112051   3.722   3.243   3.176
 4057TIP3    H212052   3.869   3.264   3.215
 4058TIP3   OH212053   3.547   3.600   2.258
 4058TIP3    H112054   3.474   3.536   2.247
 4058TIP3    H212055   3.530   3.634   2.349
 4059TIP3   OH212056   4.449   3.836   2.889
 4059TIP3    H112057   4.472   3.884   2.807
 4059TIP3    H212058   4.363   3.795   2.866
 4060TIP3   OH212059   4.005   2.915   2.111
 4060TIP3    H112060   3.908   2.900   2.122
 4060TIP3    H212061   4.017   3.008   2.140
 4061TIP3   OH212062   3.945   3.916   3.255
 4061TIP3    H112063   3.966   3.893   3.346
 4061TIP3    H212064   3.908   4.006   3.263
 4062TIP3   OH212065   4.076   3.157   2.219
 4062TIP3    H112066   4.172   3.163   2.237
 4062TIP3    H212067   4.059   3.238   2.167
 4063TIP3   OH212068   3.236   3.617   2.936
 4063TIP3    H112069   3.273   3.592   2.849
 4063TIP3    H212070   3.280   3.554   2.995
 4064TIP3   OH212071   3.690   3.749   2.075
 4064TIP3    H112072   3.645   3.836   2.083
 4064TIP3    H212073   3.637   3.694   2.136
 4065TIP3   OH212074   3.113   3.549   3.550
 4065TIP3    H112075   3.148   3.537   3.641
 4065TIP3    H212076   3.058   3.470   3.541
 4066TIP3   OH212077   3.842   3.653   3.566
 4066TIP3    H112078   3.788   3.595   3.511
 4066TIP3    H212079   3.932   3.623   3.541
 4067TIP3   OH212080   4.107   4.175   3.149
 4067TIP3    H112081   4.011   4.175   3.161
 4067TIP3    H212082   4.136   4.227   3.227
 4068TIP3   OH212083   4.519   3.245   2.059
 4068TIP3    H112084   4.455   3.200   1.998
 4068TIP3    H212085   4.516   3.334   2.017
 4069TIP3   OH212086   4.735   4.103   3.141
 4069TIP3    H112087   4.637   4.100   3.133
 4069TIP3    H212088   4.759   4.074   3.050
 4070TIP3   OH212089   4.214   4.067   1.965
 4070TIP3    H112090   4.193   3.997   2.028
 4070TIP3    H212091   4.228   4.019   1.881
 4071TIP3   OH212092   4.213   3.697   2.810
 4071TIP3    H112093   4.119   3.671   2.822
 4071TIP3    H212094   4.247   3.618   2.763
 4072TIP3   OH212095   3.337   3.922   2.556
 4072TIP3    H112096   3.342   4.005   2.505
 4072TIP3    H212097   3.242   3.911   2.565
 4073TIP3   OH212098   2.899   3.229   2.256
 4073TIP3    H112099   2.947   3.312   2.277
 4073TIP3    H212100   2.823   3.235   2.318
 4074TIP3   OH212101   3.482   3.692   2.504
 4074TIP3    H112102   3.446   3.781   2.521
 4074TIP3    H212103   3.445   3.642   2.579
 4075TIP3   OH212104   3.606   4.268   3.030
 4075TIP3    H112105   3.646   4.341   2.978
 4075TIP3    H212106   3.683   4.236   3.079
 4076TIP3   OH212107   3.261   4.162   2.412
 4076TIP3    H112108   3.174   4.170   2.456
 4076TIP3    H212109   3.292   4.255   2.414
 4077TIP3   OH212110   3.999   3.901   2.986
 4077TIP3    H112111   3.991   3.900   3.084
 4077TIP3    H212112   4.081   3.851   2.973
 4078TIP3   OH212113   3.968   3.790   1.868
 4078TIP3    H112114   4.021   3.767   1.948
 4078TIP3    H212115   3.879   3.770   1.901
 4079TIP3   OH212116   4.246   4.438   3.036
 4079TIP3    H112117   4.167   4.381   3.028
 4079TIP3    H212118   4.231   4.503   2.965
 4080TIP3   OH212119   4.311   4.271   1.690
 4080TIP3    H112120   4.349   4.343   1.636
 4080TIP3    H212121   4.231   4.318   1.722
 4081TIP3   OH212122   3.334   3.047   3.556
 4081TIP3    H112123   3.239   3.055   3.576
 4081TIP3    H212124   3.365   2.989   3.627
 4082TIP3   OH212125   4.128   3.728   2.086
 4082TIP3    H112126   4.119   3.662   2.158
 4082TIP3    H212127   4.225   3.728   2.074
 4083TIP3   OH212128   3.044   4.133   3.192
 4083TIP3    H112129   3.102   4.059   3.214
 4083TIP3    H212130   3.077   4.202   3.250
 4084TIP3   OH212131   3.339   3.776   1.867
 4084TIP3    H112132   3.353   3.685   1.838
 4084TIP3    H212133   3.321   3.764   1.962
 4085TIP3   OH212134   3.286   3.780   2.140
 4085TIP3    H112135   3.353   3.755   2.204
 4085TIP3    H212136   3.289   3.878   2.145
 4086TIP3   OH212137   3.021   3.476   2.343
 4086TIP3    H112138   2.955   3.520   2.400
 4086TIP3    H212139   3.035   3.546   2.276
 4087TIP3   OH212140   4.165   3.111   3.234
 4087TIP3    H112141   4.244   3.149   3.276
 4087TIP3    H212142   4.149   3.031   3.289
 4088TIP3   OH212143   4.045   2.867   2.396
 4088TIP3    H112144   4.033   2.892   2.303
 4088TIP3    H212145   4.084   2.948   2.435
 4089TIP3   OH212146   3.548   3.978   2.088
 4089TIP3    H112147   3.462   4.008   2.125
 4089TIP3    H212148   3.566   4.050   2.026
 4090TIP3   OH212149   3.738   3.041   2.501
 4090TIP3    H112150   3.804   3.112   2.484
 4090TIP3    H212151   3.743   3.034   2.599
 4091TIP3   OH212152   4.006   3.363   3.312
 4091TIP3    H112153   4.023   3.417   3.392
 4091TIP3    H212154   4.062   3.285   3.328
 4092TIP3   OH212155   3.884   2.775   2.606
 4092TIP3    H112156   3.881   2.849   2.669
 4092TIP3    H212157   3.942   2.812   2.537
 4093TIP3   OH212158   3.289   4.053   2.155
 4093TIP3    H112159   3.259   4.122   2.091
 4093TIP3    H212160   3.273   4.098   2.240
 4094TIP3   OH212161   3.393   2.766   2.393
 4094TIP3    H112162   3.391   2.856   2.430
 4094TIP3    H212163   3.489   2.746   2.404
 4095TIP3   OH212164   4.649   3.261   3.289
 4095TIP3    H112165   4.551   3.259   3.298
 4095TIP3    H212166   4.659   3.223   3.201
 4096TIP3   OH212167   4.298   3.457   2.678
 4096TIP3    H112168   4.223   3.397   2.692
 4096TIP3    H212169   4.371   3.410   2.726
 4097TIP3   OH212170   3.008   3.688   2.151
 4097TIP3    H112171   3.066   3.766   2.160
 4097TIP3    H212172   3.058   3.639   2.082
 4098TIP3   OH212173   2.956   2.961   2.278
 4098TIP3    H112174   2.953   3.058   2.274
 4098TIP3    H212175   2.868   2.936   2.249
 4099TIP3   OH212176   4.266   4.408   2.629
 4099TIP3    H112177   4.223   4.455   2.555
 4099TIP3    H212178   4.360   4.428   2.609
 4100TIP3   OH212179   3.338   2.681   3.160
 4100TIP3    H112180   3.310   2.647   3.073
 4100TIP3    H212181   3.333   2.601   3.216
 4101TIP3   OH212182   2.883   3.898   2.544
 4101TIP3    H112183   2.803   3.932   2.585
 4101TIP3    H212184   2.873   3.935   2.453
 4102TIP3   OH212185   3.036   4.436   3.608
 4102TIP3    H112186   3.121   4.438   3.656
 4102TIP3    H212187   3.016   4.341   3.608
 4103TIP3   OH212188   3.522   4.409   3.652
 4103TIP3    H112189   3.616   4.390   3.663
 4103TIP3    H212190   3.500   4.351   3.576
 4104TIP3   OH212191   3.502   3.982   1.783
 4104TIP3    H112192   3.444   3.911   1.820
 4104TIP3    H212193   3.576   3.929   1.750
 4105TIP3   OH212194   4.161   4.308   3.384
 4105TIP3    H112195   4.150   4.240   3.454
 4105TIP3    H212196   4.236   4.361   3.416
 4106TIP3   OH212197   3.938   4.023   1.691
 4106TIP3    H112198   3.988   3.963   1.748
 4106TIP3    H212199   3.993   4.027   1.610
 4107TIP3   OH212200   3.169   3.844   3.809
 4107TIP3    H112201   3.187   3.749   3.816
 4107TIP3    H212202   3.080   3.846   3.769
 4108TIP3   OH212203   3.144   3.498   1.999
 4108TIP3    H112204   3.197   3.466   2.073
 4108TIP3    H212205   3.213   3.505   1.929
 4109TIP3   OH212206   3.778   3.929   3.581
 4109TIP3    H112207   3.736   3.942   3.494
 4109TIP3    H212208   3.809   3.836   3.577
 4110TIP3   OH212209   3.649   3.693   1.806
 4110TIP3    H112210   3.653   3.708   1.902
 4110TIP3    H212211   3.646   3.595   1.803
 4111TIP3   OH212212   4.268   3.934   3.186
 4111TIP3    H112213   4.342   3.981   3.143
 4111TIP3    H212214   4.197   3.999   3.176
 4112TIP3   OH212215   3.286   3.572   3.788
 4112TIP3    H112216   3.364   3.518   3.773
 4112TIP3    H212217   3.307   3.610   3.876
 4113TIP3   OH212218   3.355   3.399   2.226
 4113TIP3    H112219   3.327   3.359   2.310
 4113TIP3    H212220   3.389   3.322   2.176
 4114TIP3   OH212221   3.618   3.460   3.448
 4114TIP3    H112222   3.546   3.526   3.457
 4114TIP3    H212223   3.669   3.495   3.372
 4115TIP3   OH212224   3.452   3.189   2.067
 4115TIP3    H112225   3.426   3.195   1.973
 4115TIP3    H212226   3.549   3.199   2.061
 4116TIP3   OH212227   4.137   3.865   3.586
 4116TIP3    H112228   4.221   3.850   3.541
 4116TIP3    H212229   4.139   3.798   3.657
 4117TIP3   OH212230   4.278   3.526   1.723
 4117TIP3    H112231   4.255   3.479   1.641
 4117TIP3    H212232   4.247   3.616   1.699
 4118TIP3   OH212233   3.742   3.250   3.582
 4118TIP3    H112234   3.746   3.169   3.526
 4118TIP3    H212235   3.701   3.315   3.521
 4119TIP3   OH212236   3.746   3.039   3.386
 4119TIP3    H112237   3.775   3.078   3.301
 4119TIP3    H212238   3.653   3.014   3.366
 4120TIP3   OH212239   3.778   3.574   3.257
 4120TIP3    H112240   3.860   3.580   3.207
 4120TIP3    H212241   3.723   3.644   3.215
 4121TIP3   OH212242   4.359   3.542   3.641
 4121TIP3    H112243   4.409   3.460   3.653
 4121TIP3    H212244   4.428   3.603   3.610
 4122TIP3   OH212245   4.400   3.793   3.375
 4122TIP3    H112246   4.341   3.845   3.316
 4122TIP3    H212247   4.487   3.813   3.334
 4123TIP3   OH212248   3.616   3.372   3.804
 4123TIP3    H112249   3.550   3.302   3.820
 4123TIP3    H212250   3.657   3.341   3.720
 4124TIP3   OH212251   3.882   2.804   3.447
 4124TIP3    H112252   3.830   2.886   3.428
 4124TIP3    H212253   3.812   2.736   3.439
 4125TIP3   OH212254   4.006   3.310   3.668
 4125TIP3    H112255   4.000   3.299   3.764
 4125TIP3    H212256   3.915   3.283   3.643
 4126TIP3   OH212257   4.246   3.255   3.522
 4126TIP3    H112258   4.170   3.258   3.584
 4126TIP3    H212259   4.319   3.225   3.580
 4127TIP3   OH212260   4.475   3.195   3.674
 4127TIP3    H112261   4.486   3.100   3.696
 4127TIP3    H212262   4.471   3.237   3.763
 4128TIP3   OH212263   3.460   3.150   3.859
 4128TIP3    H112264   3.475   3.060   3.823
 4128TIP3    H212265   3.496   3.139   3.949
 4129TIP3   OH212266   3.976   2.815   3.705
 4129TIP3    H112267   4.042   2.742   3.704
 4129TIP3    H212268   3.937   2.803   3.616
 4130TIP3   OH212269   4.041   3.027   3.868
 4130TIP3    H112270   4.019   2.957   3.803
 4130TIP3    H212271   3.963   3.087   3.860
 4131TIP3   OH212272   3.258   4.255   1.967
 4131TIP3    H112273   3.354   4.256   1.948
 4131TIP3    H212274   3.226   4.302   1.888
 4132TIP3   OH212275   2.741   3.637   2.188
 4132TIP3    H112276   2.835   3.660   2.174
 4132TIP3    H212277   2.736   3.549   2.145
 4133TIP3   OH212278   2.653   4.251   2.596
 4133TIP3    H112279   2.585   4.189   2.561
 4133TIP3    H212280   2.696   4.195   2.664
 4134TIP3   OH212281   2.791   4.108   2.783
 4134TIP3    H112282   2.780   4.031   2.840
 4134TIP3    H212283   2.842   4.167   2.842
 4135TIP3   OH212284   4.516   4.503   2.583
 4135TIP3    H112285   4.542   4.537   2.670
 4135TIP3    H212286   4.574   4.553   2.523
 4136TIP3   OH212287   4.548   4.523   2.864
 4136TIP3    H112288   4.506   4.435   2.860
 4136TIP3    H212289   4.622   4.504   2.924
 4137TIP3   OH212290   4.594   4.199   3.438
 4137TIP3    H112291   4.519   4.207   3.501
 4137TIP3    H212292   4.634   4.288   3.442
 4138TIP3   OH212293   4.409   3.714   2.060
 4138TIP3    H112294   4.479   3.777   2.033
 4138TIP3    H212295   4.451   3.673   2.139
 4139TIP3   OH212296   4.537   3.581   2.262
 4139TIP3    H112297   4.471   3.538   2.322
 4139TIP3    H212298   4.600   3.621   2.325
 4140TIP3   OH212299   4.589   3.970   2.696
 4140TIP3    H112300   4.643   3.909   2.642
 4140TIP3    H212301   4.578   4.046   2.636
 4141TIP3   OH212302   4.425   4.272   2.892
 4141TIP3    H112303   4.354   4.315   2.944
 4141TIP3    H212304   4.373   4.224   2.824
 4142TIP3   OH212305   4.476   3.487   1.911
 4142TIP3    H112306   4.405   3.491   1.843
 4142TIP3    H212307   4.449   3.564   1.967
 4143TIP3   OH212308   4.347   3.161   1.867
 4143TIP3    H112309   4.307   3.203   1.790
 4143TIP3    H212310   4.319   3.067   1.855
 4144TIP3   OH212311   4.353   3.435   2.411
 4144TIP3    H112312   4.361   3.338   2.408
 4144TIP3    H212313   4.340   3.451   2.508
 4145TIP3   OH212314   2.979   3.504   3.169
 4145TIP3    H112315   2.970   3.490   3.073
 4145TIP3    H212316   3.077   3.507   3.177
 4146TIP3   OH212317   4.641   3.860   3.265
 4146TIP3    H112318   4.715   3.796   3.258
 4146TIP3    H212319   4.669   3.932   3.206
 4147TIP3   OH212320   4.828   3.670   3.289
 4147TIP3    H112321   4.754   3.619   3.328
 4147TIP3    H212322   4.901   3.605   3.301
 4148TIP3   OH212323   4.291   2.895   1.853
 4148TIP3    H112324   4.369   2.867   1.906
 4148TIP3    H212325   4.220   2.836   1.883
 4149TIP3   OH212326   4.347   3.150   2.308
 4149TIP3    H112327   4.387   3.062   2.323
 4149TIP3    H212328   4.406   3.184   2.239
 4150TIP3   OH212329   4.511   3.330   2.800
 4150TIP3    H112330   4.598   3.356   2.761
 4150TIP3    H212331   4.524   3.365   2.891
 4151TIP3   OH212332   4.576   3.469   3.034
 4151TIP3    H112333   4.498   3.504   3.082
 4151TIP3    H212334   4.609   3.550   2.989
 4152TIP3   OH212335   3.193   3.196   3.823
 4152TIP3    H112336   3.291   3.194   3.827
 4152TIP3    H212337   3.172   3.121   3.882
 4153TIP3   OH212338   5.030   3.058   3.590
 4153TIP3    H112339   5.088   2.993   3.546
 4153TIP3    H212340   5.004   3.116   3.516
 4154TIP3   OH212341   4.457   2.901   2.343
 4154TIP3    H112342   4.506   2.886   2.427
 4154TIP3    H212343   4.397   2.823   2.343
 4155TIP3   OH212344   3.156   2.889   3.167
 4155TIP3    H112345   3.218   2.814   3.173
 4155TIP3    H212346   3.220   2.963   3.158
 4156TIP3   OH212347   2.963   3.165   3.238
 4156TIP3    H112348   3.009   3.150   3.153
 4156TIP3    H212349   2.997   3.252   3.260
 4157TIP3   OH212350   4.905   3.204   3.398
 4157TIP3    H112351   4.817   3.241   3.421
 4157TIP3    H212352   4.877   3.132   3.337
 4158TIP3   OH212353   4.540   2.841   1.973
 4158TIP3    H112354   4.581   2.766   1.925
 4158TIP3    H212355   4.609   2.910   1.966
 4159TIP3   OH212356   2.942   2.671   2.739
 4159TIP3    H112357   2.848   2.666   2.760
 4159TIP3    H212358   2.942   2.726   2.658
 4160TIP3   OH212359   4.102   4.367   2.242
 4160TIP3    H112360   4.153   4.352   2.160
 4160TIP3    H212361   4.154   4.435   2.286
 4161TIP3   OH212362   3.151   2.742   3.561
 4161TIP3    H112363   3.078   2.746   3.623
 4161TIP3    H212364   3.108   2.780   3.482
 4162TIP3   OH212365   3.204   4.166   3.628
 4162TIP3    H112366   3.110   4.142   3.614
 4162TIP3    H212367   3.213   4.157   3.724
 4163TIP3   OH212368   3.378   4.201   3.175
 4163TIP3    H112369   3.331   4.278   3.136
 4163TIP3    H212370   3.465   4.215   3.132
 4164TIP3   OH212371   3.829   4.450   3.313
 4164TIP3    H112372   3.870   4.452   3.403
 4164TIP3    H212373   3.896   4.501   3.262
 4165TIP3   OH212374   4.008   4.599   3.170
 4165TIP3    H112375   4.081   4.549   3.131
 4165TIP3    H212376   4.057   4.657   3.232
 4166TIP3   OH212377   4.800   2.965   3.272
 4166TIP3    H112378   4.708   2.962   3.241
 4166TIP3    H212379   4.828   2.871   3.260
 4167TIP3   OH212380   3.058   4.459   3.200
 4167TIP3    H112381   2.971   4.496   3.174
 4167TIP3    H212382   3.067   4.495   3.289
 4168TIP3   OH212383   3.294   4.439   3.055
 4168TIP3    H112384   3.208   4.453   3.101
 4168TIP3    H212385   3.275   4.474   2.966
 4169TIP3   OH212386   3.721   4.472   2.853
 4169TIP3    H112387   3.652   4.494   2.788
 4169TIP3    H212388   3.734   4.558   2.897
 4170TIP3   OH212389   3.988   4.410   2.902
 4170TIP3    H112390   3.894   4.427   2.884
 4170TIP3    H212391   4.030   4.489   2.865
 4171TIP3   OH212392   4.199   4.604   2.823
 4171TIP3    H112393   4.185   4.689   2.775
 4171TIP3    H212394   4.223   4.543   2.750
 4172TIP3   OH212395   2.970   4.257   2.944
 4172TIP3    H112396   2.996   4.234   3.036
 4172TIP3    H212397   3.042   4.212   2.894
 4173TIP3   OH212398   3.161   4.127   2.798
 4173TIP3    H112399   3.180   4.043   2.847
 4173TIP3    H212400   3.251   4.166   2.793
 4174TIP3   OH212401   3.426   4.224   2.800
 4174TIP3    H112402   3.460   4.134   2.788
 4174TIP3    H212403   3.467   4.246   2.886
 4175TIP3   OH212404   4.002   2.878   2.885
 4175TIP3    H112405   3.960   2.812   2.943
 4175TIP3    H212406   4.075   2.828   2.846
 4176TIP3   OH212407   4.532   2.757   2.797
 4176TIP3    H112408   4.567   2.811   2.723
 4176TIP3    H212409   4.436   2.776   2.792
 4177TIP3   OH212410   4.624   2.862   2.560
 4177TIP3    H112411   4.697   2.811   2.519
 4177TIP3    H212412   4.657   2.954   2.546
 4178TIP3   OH212413   3.255   2.589   2.910
 4178TIP3    H112414   3.163   2.555   2.909
 4178TIP3    H212415   3.305   2.504   2.906
 4179TIP3   OH212416   3.037   2.455   2.552
 4179TIP3    H112417   3.068   2.515   2.483
 4179TIP3    H212418   3.007   2.518   2.621
 4180TIP3   OH212419   3.693   2.625   2.788
 4180TIP3    H112420   3.755   2.674   2.733
 4180TIP3    H212421   3.716   2.656   2.876
 4181TIP3   OH212422   4.249   2.766   2.773
 4181TIP3    H112423   4.242   2.731   2.683
 4181TIP3    H212424   4.232   2.685   2.827
 4182TIP3   OH212425   4.273   2.686   2.333
 4182TIP3    H112426   4.186   2.728   2.342
 4182TIP3    H212427   4.260   2.603   2.382
 4183TIP3   OH212428   2.757   4.024   2.339
 4183TIP3    H112429   2.673   3.992   2.302
 4183TIP3    H212430   2.745   4.120   2.323
 4184TIP3   OH212431   3.155   2.619   2.318
 4184TIP3    H112432   3.206   2.556   2.264
 4184TIP3    H212433   3.226   2.673   2.357
 4185TIP3   OH212434   3.671   2.790   2.418
 4185TIP3    H112435   3.730   2.743   2.479
 4185TIP3    H212436   3.692   2.883   2.443
 4186TIP3   OH212437   3.529   4.221   1.917
 4186TIP3    H112438   3.618   4.242   1.882
 4186TIP3    H212439   3.507   4.145   1.859
 4187TIP3   OH212440   4.246   4.334   2.009
 4187TIP3    H112441   4.238   4.236   1.996
 4187TIP3    H212442   4.203   4.368   1.928
 4188TIP3   OH212443   3.461   2.866   3.798
 4188TIP3    H112444   3.433   2.795   3.859
 4188TIP3    H212445   3.556   2.870   3.819
 4189TIP3   OH212446   3.710   2.867   3.915
 4189TIP3    H112447   3.795   2.839   3.876
 4189TIP3    H212448   3.698   2.798   3.984
 4190TIP3   OH212449   2.833   4.054   1.976
 4190TIP3    H112450   2.828   4.087   2.067
 4190TIP3    H212451   2.923   4.017   1.971
 4191TIP3   OH212452   4.534   2.924   3.706
 4191TIP3    H112453   4.553   2.894   3.798
 4191TIP3    H212454   4.622   2.920   3.664
 4192TIP3   OH212455   4.478   4.481   3.196
 4192TIP3    H112456   4.398   4.447   3.152
 4192TIP3    H212457   4.457   4.576   3.199
 4193TIP3   OH212458   5.740   3.851   1.967
 4193TIP3    H112459   5.713   3.943   1.947
 4193TIP3    H212460   5.662   3.803   1.934
 4194TIP3   OH212461   5.737   3.852   2.345
 4194TIP3    H112462   5.768   3.817   2.430
 4194TIP3    H212463   5.697   3.774   2.304
 4195TIP3   OH212464   5.041   3.748   2.708
 4195TIP3    H112465   5.071   3.682   2.773
 4195TIP3    H212466   5.117   3.808   2.706
 4196TIP3   OH212467   5.978   4.151   2.025
 4196TIP3    H112468   5.972   4.079   2.090
 4196TIP3    H212469   6.012   4.224   2.078
 4197TIP3   OH212470   5.009   4.155   2.438
 4197TIP3    H112471   4.999   4.058   2.442
 4197TIP3    H212472   5.105   4.163   2.434
 4198TIP3   OH212473   4.717   3.362   2.224
 4198TIP3    H112474   4.668   3.446   2.236
 4198TIP3    H212475   4.647   3.305   2.191
 4199TIP3   OH212476   4.778   3.648   2.388
 4199TIP3    H112477   4.825   3.571   2.428
 4199TIP3    H212478   4.836   3.671   2.315
 4200TIP3   OH212479   5.624   4.614   2.038
 4200TIP3    H112480   5.676   4.544   1.994
 4200TIP3    H212481   5.621   4.584   2.129
 4201TIP3   OH212482   5.540   4.077   2.392
 4201TIP3    H112483   5.570   3.998   2.344
 4201TIP3    H212484   5.627   4.116   2.413
 4202TIP3   OH212485   6.546   3.400   2.389
 4202TIP3    H112486   6.577   3.479   2.438
 4202TIP3    H212487   6.569   3.423   2.298
 4203TIP3   OH212488   5.950   3.583   2.428
 4203TIP3    H112489   5.992   3.497   2.450
 4203TIP3    H212490   5.921   3.565   2.337
 4204TIP3   OH212491   5.285   3.238   2.393
 4204TIP3    H112492   5.264   3.310   2.330
 4204TIP3    H212493   5.237   3.164   2.348
 4205TIP3   OH212494   5.979   3.328   2.017
 4205TIP3    H112495   6.052   3.310   2.081
 4205TIP3    H212496   6.031   3.364   1.943
 4206TIP3   OH212497   4.921   3.442   2.497
 4206TIP3    H112498   5.004   3.421   2.546
 4206TIP3    H212499   4.933   3.384   2.419
 4207TIP3   OH212500   5.364   3.639   2.288
 4207TIP3    H112501   5.457   3.611   2.303
 4207TIP3    H212502   5.324   3.555   2.257
 4208TIP3   OH212503   6.622   3.604   2.560
 4208TIP3    H112504   6.539   3.652   2.543
 4208TIP3    H212505   6.636   3.624   2.654
 4209TIP3   OH212506   5.285   3.221   2.825
 4209TIP3    H112507   5.223   3.258   2.759
 4209TIP3    H212508   5.235   3.238   2.908
 4210TIP3   OH212509   5.636   4.073   1.836
 4210TIP3    H112510   5.590   4.047   1.755
 4210TIP3    H212511   5.593   4.158   1.856
 4211TIP3   OH212512   5.393   3.996   2.625
 4211TIP3    H112513   5.326   4.056   2.665
 4211TIP3    H212514   5.428   4.051   2.552
 4212TIP3   OH212515   6.196   3.328   2.182
 4212TIP3    H112516   6.187   3.277   2.263
 4212TIP3    H212517   6.249   3.404   2.212
 4213TIP3   OH212518   5.153   3.337   2.611
 4213TIP3    H112519   5.217   3.408   2.635
 4213TIP3    H212520   5.202   3.295   2.537
 4214TIP3   OH212521   5.217   4.186   2.719
 4214TIP3    H112522   5.190   4.272   2.680
 4214TIP3    H212523   5.139   4.171   2.777
 4215TIP3   OH212524   4.617   3.878   1.955
 4215TIP3    H112525   4.574   3.905   1.872
 4215TIP3    H212526   4.645   3.964   1.993
 4216TIP3   OH212527   6.055   4.393   2.195
 4216TIP3    H112528   5.965   4.389   2.234
 4216TIP3    H212529   6.050   4.477   2.146
 4217TIP3   OH212530   6.342   3.299   2.557
 4217TIP3    H112531   6.255   3.331   2.529
 4217TIP3    H212532   6.401   3.329   2.485
 4218TIP3   OH212533   5.644   2.944   2.536
 4218TIP3    H112534   5.634   2.849   2.555
 4218TIP3    H212535   5.566   2.979   2.584
 4219TIP3   OH212536   5.763   4.443   1.876
 4219TIP3    H112537   5.810   4.361   1.850
 4219TIP3    H212538   5.820   4.509   1.831
 4220TIP3   OH212539   5.899   4.228   1.772
 4220TIP3    H112540   5.859   4.150   1.731
 4220TIP3    H212541   5.932   4.190   1.857
 4221TIP3   OH212542   6.274   4.313   2.538
 4221TIP3    H112543   6.271   4.232   2.482
 4221TIP3    H212544   6.271   4.384   2.471
 4222TIP3   OH212545   5.571   3.703   1.793
 4222TIP3    H112546   5.490   3.753   1.771
 4222TIP3    H212547   5.617   3.700   1.708
 4223TIP3   OH212548   5.530   3.485   1.516
 4223TIP3    H112549   5.599   3.535   1.563
 4223TIP3    H212550   5.586   3.421   1.468
 4224TIP3   OH212551   6.474   3.943   2.380
 4224TIP3    H112552   6.393   3.997   2.389
 4224TIP3    H212553   6.504   3.968   2.290
 4225TIP3   OH212554   5.918   3.784   1.769
 4225TIP3    H112555   5.863   3.810   1.847
 4225TIP3    H212556   6.001   3.758   1.814
 4226TIP3   OH212557   6.155   3.827   2.675
 4226TIP3    H112558   6.153   3.908   2.729
 4226TIP3    H212559   6.068   3.832   2.631
 4227TIP3   OH212560   5.151   3.785   2.183
 4227TIP3    H112561   5.108   3.727   2.116
 4227TIP3    H212562   5.228   3.731   2.210
 4228TIP3   OH212563   5.282   4.195   2.332
 4228TIP3    H112564   5.256   4.149   2.251
 4228TIP3    H212565   5.372   4.160   2.349
 4229TIP3   OH212566   5.292   3.753   2.538
 4229TIP3    H112567   5.322   3.736   2.447
 4229TIP3    H212568   5.331   3.840   2.558
 4230TIP3   OH212569   5.818   4.396   2.325
 4230TIP3    H112570   5.761   4.446   2.384
 4230TIP3    H212571   5.808   4.305   2.362
 4231TIP3   OH212572   5.426   4.314   2.851
 4231TIP3    H112573   5.370   4.373   2.906
 4231TIP3    H212574   5.357   4.259   2.809
 4232TIP3   OH212575   5.762   3.642   1.593
 4232TIP3    H112576   5.819   3.702   1.646
 4232TIP3    H212577   5.788   3.668   1.501
 4233TIP3   OH212578   5.176   3.873   2.956
 4233TIP3    H112579   5.180   3.956   3.007
 4233TIP3    H212580   5.081   3.851   2.967
 4234TIP3   OH212581   5.500   4.326   1.870
 4234TIP3    H112582   5.575   4.384   1.893
 4234TIP3    H212583   5.437   4.388   1.829
 4235TIP3   OH212584   5.221   4.481   2.948
 4235TIP3    H112585   5.183   4.476   2.858
 4235TIP3    H212586   5.143   4.460   3.004
 4236TIP3   OH212587   6.274   2.884   1.640
 4236TIP3    H112588   6.193   2.901   1.694
 4236TIP3    H212589   6.287   2.971   1.597
 4237TIP3   OH212590   5.016   3.626   1.990
 4237TIP3    H112591   4.953   3.671   1.930
 4237TIP3    H212592   4.973   3.541   2.003
 4238TIP3   OH212593   6.072   4.254   1.188
 4238TIP3    H112594   6.080   4.351   1.175
 4238TIP3    H212595   6.165   4.225   1.177
 4239TIP3   OH212596   4.799   4.010   2.895
 4239TIP3    H112597   4.735   3.986   2.826
 4239TIP3    H212598   4.835   3.923   2.922
 4240TIP3   OH212599   4.652   4.202   2.531
 4240TIP3    H112600   4.748   4.198   2.521
 4240TIP3    H212601   4.640   4.283   2.582
 4241TIP3   OH212602   6.523   4.648   2.577
 4241TIP3    H112603   6.520   4.553   2.599
 4241TIP3    H212604   6.441   4.678   2.623
 4242TIP3   OH212605   5.607   4.467   2.722
 4242TIP3    H112606   5.628   4.519   2.801
 4242TIP3    H212607   5.539   4.406   2.759
 4243TIP3   OH212608   5.381   4.570   1.670
 4243TIP3    H112609   5.336   4.551   1.585
 4243TIP3    H212610   5.351   4.660   1.690
 4244TIP3   OH212611   4.820   4.420   2.051
 4244TIP3    H112612   4.869   4.410   2.136
 4244TIP3    H212613   4.756   4.348   2.060
 4245TIP3   OH212614   5.585   4.470   1.311
 4245TIP3    H112615   5.645   4.401   1.275
 4245TIP3    H212616   5.619   4.479   1.403
 4246TIP3   OH212617   5.633   4.517   1.583
 4246TIP3    H112618   5.545   4.527   1.625
 4246TIP3    H212619   5.683   4.475   1.654
 4247TIP3   OH212620   6.409   3.787   2.856
 4247TIP3    H112621   6.327   3.799   2.806
 4247TIP3    H212622   6.424   3.690   2.848
 4248TIP3   OH212623   5.004   4.192   2.887
 4248TIP3    H112624   5.053   4.176   2.970
 4248TIP3    H212625   4.930   4.128   2.895
 4249TIP3   OH212626   5.403   3.017   2.665
 4249TIP3    H112627   5.313   2.986   2.642
 4249TIP3    H212628   5.380   3.100   2.710
 4250TIP3   OH212629   5.936   3.133   2.861
 4250TIP3    H112630   6.004   3.106   2.925
 4250TIP3    H212631   5.852   3.112   2.907
 4251TIP3   OH212632   6.177   3.561   2.779
 4251TIP3    H112633   6.130   3.555   2.865
 4251TIP3    H212634   6.152   3.649   2.747
 4252TIP3   OH212635   5.837   3.692   1.337
 4252TIP3    H112636   5.803   3.665   1.250
 4252TIP3    H212637   5.912   3.748   1.311
 4253TIP3   OH212638   5.550   3.068   1.638
 4253TIP3    H112639   5.518   3.066   1.730
 4253TIP3    H212640   5.512   2.984   1.606
 4254TIP3   OH212641   5.334   3.531   2.687
 4254TIP3    H112642   5.283   3.554   2.768
 4254TIP3    H212643   5.318   3.611   2.632
 4255TIP3   OH212644   5.219   3.418   2.200
 4255TIP3    H112645   5.125   3.392   2.217
 4255TIP3    H212646   5.232   3.377   2.112
 4256TIP3   OH212647   5.710   3.505   1.926
 4256TIP3    H112648   5.654   3.576   1.887
 4256TIP3    H212649   5.762   3.477   1.849
 4257TIP3   OH212650   5.882   3.786   3.015
 4257TIP3    H112651   5.862   3.712   3.077
 4257TIP3    H212652   5.976   3.802   3.037
 4258TIP3   OH212653   5.868   3.535   2.167
 4258TIP3    H112654   5.809   3.565   2.095
 4258TIP3    H212655   5.899   3.451   2.128
 4259TIP3   OH212656   5.153   3.562   2.896
 4259TIP3    H112657   5.178   3.624   2.965
 4259TIP3    H212658   5.141   3.479   2.947
 4260TIP3   OH212659   5.203   3.037   1.604
 4260TIP3    H112660   5.198   3.034   1.702
 4260TIP3    H212661   5.123   3.088   1.583
 4261TIP3   OH212662   4.746   3.086   2.474
 4261TIP3    H112663   4.823   3.116   2.528
 4261TIP3    H212664   4.787   3.050   2.394
 4262TIP3   OH212665   4.726   3.065   1.995
 4262TIP3    H112666   4.772   3.105   1.918
 4262TIP3    H212667   4.664   3.138   2.017
 4263TIP3   OH212668   5.875   3.783   2.591
 4263TIP3    H112669   5.909   3.709   2.535
 4263TIP3    H212670   5.850   3.732   2.671
 4264TIP3   OH212671   5.542   3.245   2.263
 4264TIP3    H112672   5.459   3.239   2.315
 4264TIP3    H212673   5.609   3.241   2.333
 4265TIP3   OH212674   4.980   3.294   2.271
 4265TIP3    H112675   4.886   3.302   2.245
 4265TIP3    H212676   5.003   3.203   2.248
 4266TIP3   OH212677   5.253   3.294   1.957
 4266TIP3    H112678   5.347   3.308   1.937
 4266TIP3    H212679   5.207   3.317   1.873
 4267TIP3   OH212680   6.035   3.318   2.460
 4267TIP3    H112681   6.002   3.328   2.553
 4267TIP3    H212682   5.972   3.252   2.426
 4268TIP3   OH212683   5.087   3.325   1.738
 4268TIP3    H112684   5.013   3.283   1.691
 4268TIP3    H212685   5.138   3.360   1.663
 4269TIP3   OH212686   6.202   5.001   2.679
 4269TIP3    H112687   6.204   5.029   2.585
 4269TIP3    H212688   6.277   5.052   2.715
 4270TIP3   OH212689   5.166   4.115   3.105
 4270TIP3    H112690   5.245   4.145   3.156
 4270TIP3    H212691   5.100   4.114   3.177
 4271TIP3   OH212692   5.630   3.568   2.360
 4271TIP3    H112693   5.701   3.526   2.309
 4271TIP3    H212694   5.641   3.527   2.448
 4272TIP3   OH212695   5.155   3.058   2.233
 4272TIP3    H112696   5.124   2.977   2.278
 4272TIP3    H212697   5.212   3.022   2.163
 4273TIP3   OH212698   5.607   3.462   2.649
 4273TIP3    H112699   5.517   3.499   2.663
 4273TIP3    H212700   5.664   3.520   2.702
 4274TIP3   OH212701   5.343   3.857   1.745
 4274TIP3    H112702   5.270   3.792   1.734
 4274TIP3    H212703   5.325   3.890   1.837
 4275TIP3   OH212704   6.245   4.094   2.376
 4275TIP3    H112705   6.269   4.141   2.293
 4275TIP3    H212706   6.161   4.050   2.352
 4276TIP3   OH212707   5.801   3.172   1.599
 4276TIP3    H112708   5.705   3.155   1.610
 4276TIP3    H212709   5.811   3.265   1.627
 4277TIP3   OH212710   5.758   4.192   2.744
 4277TIP3    H112711   5.770   4.137   2.823
 4277TIP3    H212712   5.688   4.252   2.772
 4278TIP3   OH212713   5.872   3.414   1.706
 4278TIP3    H112714   5.968   3.421   1.724
 4278TIP3    H212715   5.854   3.495   1.654
 4279TIP3   OH212716   5.036   3.878   2.423
 4279TIP3    H112717   5.071   3.847   2.337
 4279TIP3    H212718   5.069   3.810   2.484
 4280TIP3   OH212719   5.488   4.006   1.564
 4280TIP3    H112720   5.441   4.093   1.571
 4280TIP3    H212721   5.433   3.951   1.624
 4281TIP3   OH212722   4.914   3.799   3.033
 4281TIP3    H112723   4.936   3.786   3.128
 4281TIP3    H212724   4.845   3.732   3.020
 4282TIP3   OH212725   5.639   3.912   3.051
 4282TIP3    H112726   5.582   3.850   3.002
 4282TIP3    H212727   5.728   3.878   3.027
 4283TIP3   OH212728   5.873   4.509   2.620
 4283TIP3    H112729   5.813   4.434   2.635
 4283TIP3    H212730   5.924   4.506   2.704
 4284TIP3   OH212731   6.321   3.494   1.544
 4284TIP3    H112732   6.259   3.450   1.482
 4284TIP3    H212733   6.320   3.583   1.503
 4285TIP3   OH212734   6.528   4.358   2.628
 4285TIP3    H112735   6.430   4.356   2.621
 4285TIP3    H212736   6.553   4.330   2.538
 4286TIP3   OH212737   6.012   4.323   1.452
 4286TIP3    H112738   5.988   4.252   1.513
 4286TIP3    H212739   6.024   4.277   1.367
 4287TIP3   OH212740   6.007   3.954   2.296
 4287TIP3    H112741   5.914   3.924   2.308
 4287TIP3    H212742   6.045   3.877   2.251
 4288TIP3   OH212743   5.134   4.179   2.045
 4288TIP3    H112744   5.136   4.262   1.992
 4288TIP3    H212745   5.038   4.166   2.052
 4289TIP3   OH212746   4.697   3.486   1.745
 4289TIP3    H112747   4.744   3.569   1.765
 4289TIP3    H212748   4.620   3.492   1.806
 4290TIP3   OH212749   5.280   3.949   1.992
 4290TIP3    H112750   5.242   4.038   2.009
 4290TIP3    H212751   5.241   3.898   2.065
 4291TIP3   OH212752   5.400   4.524   2.515
 4291TIP3    H112753   5.439   4.595   2.459
 4291TIP3    H212754   5.476   4.496   2.568
 4292TIP3   OH212755   5.057   4.418   1.899
 4292TIP3    H112756   4.970   4.427   1.943
 4292TIP3    H212757   5.088   4.512   1.900
 4293TIP3   OH212758   5.803   4.164   2.473
 4293TIP3    H112759   5.792   4.153   2.571
 4293TIP3    H212760   5.875   4.101   2.455
 4294TIP3   OH212761   5.764   4.047   1.355
 4294TIP3    H112762   5.816   4.024   1.435
 4294TIP3    H212763   5.674   4.026   1.385
 4295TIP3   OH212764   6.107   4.528   1.176
 4295TIP3    H112765   6.145   4.599   1.121
 4295TIP3    H212766   6.027   4.575   1.208
 4296TIP3   OH212767   5.129   3.303   3.043
 4296TIP3    H112768   5.033   3.310   3.061
 4296TIP3    H212769   5.157   3.243   3.114
 4297TIP3   OH212770   5.925   3.987   1.574
 4297TIP3    H112771   5.915   3.919   1.645
 4297TIP3    H212772   6.022   3.984   1.561
 4298TIP3   OH212773   4.845   4.390   2.674
 4298TIP3    H112774   4.893   4.312   2.705
 4298TIP3    H212775   4.870   4.454   2.742
 4299TIP3   OH212776   5.135   4.033   1.354
 4299TIP3    H112777   5.149   3.941   1.323
 4299TIP3    H212778   5.116   4.019   1.449
 4300TIP3   OH212779   5.081   4.037   1.627
 4300TIP3    H112780   5.150   4.011   1.690
 4300TIP3    H212781   5.085   4.135   1.632
 4301TIP3   OH212782   4.818   3.733   1.829
 4301TIP3    H112783   4.752   3.777   1.887
 4301TIP3    H212784   4.832   3.802   1.763
 4302TIP3   OH212785   5.961   3.368   2.720
 4302TIP3    H112786   6.040   3.406   2.762
 4302TIP3    H212787   5.946   3.288   2.775
 4303TIP3   OH212788   5.841   3.123   1.883
 4303TIP3    H112789   5.828   3.148   1.790
 4303TIP3    H212790   5.880   3.205   1.921
 4304TIP3   OH212791   5.345   4.236   1.577
 4304TIP3    H112792   5.258   4.265   1.612
 4304TIP3    H212793   5.362   4.304   1.511
 4305TIP3   OH212794   5.536   3.297   1.988
 4305TIP3    H112795   5.601   3.369   1.971
 4305TIP3    H212796   5.539   3.291   2.086
 4306TIP3   OH212797   5.804   3.621   2.798
 4306TIP3    H112798   5.818   3.674   2.879
 4306TIP3    H212799   5.858   3.542   2.815
 4307TIP3   OH212800   5.680   3.032   2.093
 4307TIP3    H112801   5.676   3.107   2.156
 4307TIP3    H212802   5.739   3.068   2.024
 4308TIP3   OH212803   5.086   4.310   1.641
 4308TIP3    H112804   5.055   4.379   1.577
 4308TIP3    H212805   5.070   4.355   1.727
 4309TIP3   OH212806   5.189   3.022   1.881
 4309TIP3    H112807   5.187   3.113   1.917
 4309TIP3    H212808   5.284   3.003   1.891
 4310TIP3   OH212809   6.445   3.519   2.775
 4310TIP3    H112810   6.347   3.516   2.784
 4310TIP3    H212811   6.454   3.477   2.689
 4311TIP3   OH212812   6.094   3.715   2.166
 4311TIP3    H112813   6.019   3.654   2.179
 4311TIP3    H212814   6.167   3.668   2.213
 4312TIP3   OH212815   4.804   3.945   1.637
 4312TIP3    H112816   4.864   4.021   1.646
 4312TIP3    H212817   4.853   3.894   1.569
 4313TIP3   OH212818   4.753   3.217   1.768
 4313TIP3    H112819   4.750   3.315   1.762
 4313TIP3    H212820   4.667   3.193   1.732
 4314TIP3   OH212821   6.061   4.664   2.118
 4314TIP3    H112822   6.018   4.713   2.045
 4314TIP3    H212823   6.155   4.685   2.098
 4315TIP3   OH212824   5.138   2.938   2.646
 4315TIP3    H112825   5.106   2.904   2.559
 4315TIP3    H212826   5.128   2.859   2.703
 4316TIP3   OH212827   4.681   4.155   2.030
 4316TIP3    H112828   4.602   4.188   2.074
 4316TIP3    H212829   4.667   4.192   1.940
 4317TIP3   OH212830   4.831   4.691   3.094
 4317TIP3    H112831   4.916   4.691   3.142
 4317TIP3    H212832   4.809   4.597   3.094
 4318TIP3   OH212833   5.321   4.670   3.131
 4318TIP3    H112834   5.412   4.641   3.150
 4318TIP3    H212835   5.294   4.604   3.064
 4319TIP3   OH212836   5.299   4.238   1.272
 4319TIP3    H112837   5.241   4.166   1.307
 4319TIP3    H212838   5.372   4.185   1.235
 4320TIP3   OH212839   5.967   4.559   2.865
 4320TIP3    H112840   5.948   4.497   2.939
 4320TIP3    H212841   6.038   4.614   2.906
 4321TIP3   OH212842   5.734   4.280   1.178
 4321TIP3    H112843   5.784   4.219   1.234
 4321TIP3    H212844   5.789   4.284   1.097
 4322TIP3   OH212845   4.965   4.102   3.294
 4322TIP3    H112846   4.981   4.006   3.301
 4322TIP3    H212847   4.876   4.104   3.253
 4323TIP3   OH212848   4.940   3.756   1.485
 4323TIP3    H112849   4.993   3.721   1.558
 4323TIP3    H212850   5.008   3.761   1.415
 4324TIP3   OH212851   5.575   4.186   3.065
 4324TIP3    H112852   5.526   4.189   2.981
 4324TIP3    H212853   5.607   4.093   3.067
 4325TIP3   OH212854   5.446   3.951   1.294
 4325TIP3    H112855   5.449   3.965   1.390
 4325TIP3    H212856   5.444   3.853   1.289
 4326TIP3   OH212857   6.068   4.181   2.671
 4326TIP3    H112858   6.139   4.235   2.629
 4326TIP3    H212859   5.991   4.237   2.667
 4327TIP3   OH212860   5.084   3.833   3.274
 4327TIP3    H112861   5.157   3.771   3.262
 4327TIP3    H212862   5.105   3.868   3.364
 4328TIP3   OH212863   5.153   3.655   1.714
 4328TIP3    H112864   5.124   3.613   1.795
 4328TIP3    H212865   5.186   3.579   1.661
 4329TIP3   OH212866   5.417   3.720   2.939
 4329TIP3    H112867   5.341   3.781   2.945
 4329TIP3    H212868   5.464   3.754   2.860
 4330TIP3   OH212869   5.247   3.447   1.553
 4330TIP3    H112870   5.221   3.448   1.459
 4330TIP3    H212871   5.344   3.456   1.545
 4331TIP3   OH212872   5.934   4.121   3.069
 4331TIP3    H112873   6.024   4.110   3.035
 4331TIP3    H212874   5.932   4.058   3.142
 4332TIP3   OH212875   6.077   3.782   1.210
 4332TIP3    H112876   6.051   3.736   1.128
 4332TIP3    H212877   6.044   3.873   1.187
 4333TIP3   OH212878   5.540   3.507   3.068
 4333TIP3    H112879   5.541   3.426   3.013
 4333TIP3    H212880   5.497   3.572   3.009
 4334TIP3   OH212881   5.543   3.294   2.871
 4334TIP3    H112882   5.570   3.334   2.786
 4334TIP3    H212883   5.449   3.272   2.854
 4335TIP3   OH212884   5.577   3.835   2.746
 4335TIP3    H112885   5.655   3.832   2.688
 4335TIP3    H212886   5.518   3.899   2.700
 4336TIP3   OH212887   6.154   3.798   3.126
 4336TIP3    H112888   6.205   3.717   3.141
 4336TIP3    H212889   6.223   3.861   3.101
 4337TIP3   OH212890   6.199   4.046   2.861
 4337TIP3    H112891   6.140   4.098   2.801
 4337TIP3    H212892   6.286   4.066   2.820
 4338TIP3   OH212893   5.414   3.628   3.291
 4338TIP3    H112894   5.347   3.558   3.307
 4338TIP3    H212895   5.453   3.598   3.206
 4339TIP3   OH212896   5.676   3.060   2.935
 4339TIP3    H112897   5.627   3.142   2.915
 4339TIP3    H212898   5.606   2.992   2.925
 4340TIP3   OH212899   5.802   3.568   3.155
 4340TIP3    H112900   5.797   3.556   3.251
 4340TIP3    H212901   5.711   3.540   3.130
 4341TIP3   OH212902   6.041   3.510   3.008
 4341TIP3    H112903   5.967   3.514   3.071
 4341TIP3    H212904   6.115   3.482   3.066
 4342TIP3   OH212905   6.269   3.451   3.160
 4342TIP3    H112906   6.282   3.357   3.182
 4342TIP3    H212907   6.266   3.494   3.249
 4343TIP3   OH212908   5.259   3.405   3.345
 4343TIP3    H112909   5.267   3.315   3.309
 4343TIP3    H212910   5.293   3.393   3.435
 4344TIP3   OH212911   5.771   3.069   3.193
 4344TIP3    H112912   5.840   3.000   3.190
 4344TIP3    H212913   5.732   3.060   3.103
 4345TIP3   OH212914   5.836   3.283   3.355
 4345TIP3    H112915   5.813   3.213   3.290
 4345TIP3    H212916   5.759   3.344   3.348
 4346TIP3   OH212917   5.055   4.512   1.454
 4346TIP3    H112918   5.150   4.512   1.435
 4346TIP3    H212919   5.022   4.559   1.375
 4347TIP3   OH212920   4.537   3.894   1.674
 4347TIP3    H112921   4.631   3.917   1.660
 4347TIP3    H212922   4.532   3.805   1.632
 4348TIP3   OH212923   4.450   4.507   2.083
 4348TIP3    H112924   4.382   4.445   2.049
 4348TIP3    H212925   4.493   4.451   2.151
 4349TIP3   OH212926   4.587   4.364   2.270
 4349TIP3    H112927   4.576   4.287   2.328
 4349TIP3    H212928   4.636   4.423   2.330
 4350TIP3   OH212929   6.311   4.759   2.071
 4350TIP3    H112930   6.340   4.797   2.156
 4350TIP3    H212931   6.368   4.806   2.008
 4351TIP3   OH212932   6.344   4.780   2.352
 4351TIP3    H112933   6.307   4.690   2.345
 4351TIP3    H212934   6.419   4.763   2.411
 4352TIP3   OH212935   6.384   4.456   2.922
 4352TIP3    H112936   6.319   4.461   2.995
 4352TIP3    H212937   6.428   4.543   2.929
 4353TIP3   OH212938   6.206   3.969   1.547
 4353TIP3    H112939   6.275   4.033   1.520
 4353TIP3    H212940   6.247   3.929   1.626
 4354TIP3   OH212941   6.334   3.836   1.749
 4354TIP3    H112942   6.268   3.794   1.809
 4354TIP3    H212943   6.397   3.876   1.812
 4355TIP3   OH212944   6.382   4.226   2.180
 4355TIP3    H112945   6.439   4.164   2.130
 4355TIP3    H212946   6.377   4.303   2.120
 4356TIP3   OH212947   6.222   4.526   2.373
 4356TIP3    H112948   6.144   4.562   2.417
 4356TIP3    H212949   6.181   4.475   2.300
 4357TIP3   OH212950   6.275   3.744   1.395
 4357TIP3    H112951   6.202   3.748   1.329
 4357TIP3    H212952   6.248   3.818   1.452
 4358TIP3   OH212953   6.151   3.413   1.348
 4358TIP3    H112954   6.102   3.462   1.281
 4358TIP3    H212955   6.115   3.323   1.338
 4359TIP3   OH212956   6.149   3.691   1.899
 4359TIP3    H112957   6.157   3.594   1.896
 4359TIP3    H212958   6.136   3.707   1.995
 4360TIP3   OH212959   4.776   3.767   2.642
 4360TIP3    H112960   4.775   3.739   2.548
 4360TIP3    H212961   4.873   3.767   2.659
 4361TIP3   OH212962   6.436   4.116   2.748
 4361TIP3    H112963   6.510   4.051   2.745
 4361TIP3    H212964   6.471   4.190   2.695
 4362TIP3   OH212965   6.624   3.927   2.774
 4362TIP3    H112966   6.551   3.875   2.814
 4362TIP3    H212967   6.698   3.863   2.787
 4363TIP3   OH212968   6.087   3.148   1.343
 4363TIP3    H112969   6.154   3.115   1.405
 4363TIP3    H212970   6.009   3.094   1.363
 4364TIP3   OH212971   6.144   3.406   1.795
 4364TIP3    H112972   6.184   3.317   1.810
 4364TIP3    H212973   6.203   3.440   1.726
 4365TIP3   OH212974   6.307   3.587   2.286
 4365TIP3    H112975   6.394   3.613   2.248
 4365TIP3    H212976   6.319   3.621   2.377
 4366TIP3   OH212977   6.372   3.725   2.520
 4366TIP3    H112978   6.295   3.760   2.569
 4366TIP3    H212979   6.406   3.806   2.476
 4367TIP3   OH212980   4.992   3.455   3.316
 4367TIP3    H112981   5.089   3.447   3.319
 4367TIP3    H212982   4.966   3.371   3.360
 4368TIP3   OH212983   6.825   3.314   3.077
 4368TIP3    H112984   6.884   3.249   3.034
 4368TIP3    H212985   6.801   3.372   3.002
 4369TIP3   OH212986   6.257   3.156   1.828
 4369TIP3    H112987   6.301   3.142   1.915
 4369TIP3    H212988   6.194   3.081   1.828
 4370TIP3   OH212989   4.953   3.145   2.649
 4370TIP3    H112990   5.015   3.070   2.660
 4370TIP3    H212991   5.015   3.220   2.645
 4371TIP3   OH212992   4.758   3.420   2.723
 4371TIP3    H112993   4.807   3.412   2.639
 4371TIP3    H212994   4.787   3.507   2.753
 4372TIP3   OH212995   6.701   3.461   2.883
 4372TIP3    H112996   6.614   3.497   2.909
 4372TIP3    H212997   6.673   3.388   2.824
 4373TIP3   OH212998   6.335   3.093   1.464
 4373TIP3    H112999   6.367   3.014   1.414
 4373TIP3    H213000   6.374   3.165   1.414
 4374TIP3   OH213001   4.739   2.925   2.224
 4374TIP3    H113002   4.645   2.923   2.248
 4374TIP3    H213003   4.738   2.982   2.145
 4375TIP3   OH213004   5.899   4.622   1.730
 4375TIP3    H113005   5.948   4.607   1.646
 4375TIP3    H213006   5.951   4.693   1.771
 4376TIP3   OH213007   4.958   3.003   3.038
 4376TIP3    H113008   4.910   2.997   3.122
 4376TIP3    H213009   4.891   3.041   2.979
 4377TIP3   OH213010   5.001   4.428   3.117
 4377TIP3    H113011   4.910   4.398   3.099
 4377TIP3    H213012   5.008   4.410   3.212
 4378TIP3   OH213013   5.175   4.457   2.663
 4378TIP3    H113014   5.122   4.531   2.626
 4378TIP3    H213015   5.259   4.474   2.616
 4379TIP3   OH213016   6.597   3.221   2.759
 4379TIP3    H113017   6.504   3.216   2.728
 4379TIP3    H213018   6.625   3.128   2.747
 4380TIP3   OH213019   4.857   4.719   2.685
 4380TIP3    H113020   4.768   4.755   2.660
 4380TIP3    H213021   4.860   4.747   2.777
 4381TIP3   OH213022   5.093   4.698   2.542
 4381TIP3    H113023   5.007   4.711   2.589
 4381TIP3    H213024   5.071   4.732   2.453
 4382TIP3   OH213025   5.518   4.715   2.346
 4382TIP3    H113026   5.453   4.738   2.276
 4382TIP3    H213027   5.542   4.803   2.380
 4383TIP3   OH213028   5.986   4.857   2.320
 4383TIP3    H113029   5.973   4.941   2.271
 4383TIP3    H213030   6.012   4.797   2.247
 4384TIP3   OH213031   4.766   4.514   2.432
 4384TIP3    H113032   4.793   4.489   2.523
 4384TIP3    H213033   4.837   4.468   2.381
 4385TIP3   OH213034   4.957   4.383   2.285
 4385TIP3    H113035   4.974   4.300   2.334
 4385TIP3    H213036   5.047   4.422   2.279
 4386TIP3   OH213037   5.223   4.481   2.285
 4386TIP3    H113038   5.255   4.390   2.272
 4386TIP3    H213039   5.260   4.500   2.373
 4387TIP3   OH213040   5.799   3.136   2.373
 4387TIP3    H113041   5.756   3.069   2.430
 4387TIP3    H213042   5.871   3.085   2.332
 4388TIP3   OH213043   6.327   3.015   2.283
 4388TIP3    H113044   6.362   3.068   2.209
 4388TIP3    H213045   6.231   3.032   2.278
 4389TIP3   OH213046   6.420   3.120   2.047
 4389TIP3    H113047   6.494   3.067   2.010
 4389TIP3    H213048   6.455   3.211   2.033
 4390TIP3   OH213049   5.051   2.845   2.396
 4390TIP3    H113050   4.959   2.812   2.396
 4390TIP3    H213051   5.100   2.761   2.392
 4391TIP3   OH213052   4.832   2.713   2.039
 4391TIP3    H113053   4.865   2.772   1.969
 4391TIP3    H213054   4.805   2.776   2.108
 4392TIP3   OH213055   5.490   2.880   2.274
 4392TIP3    H113056   5.551   2.930   2.218
 4392TIP3    H213057   5.511   2.914   2.362
 4393TIP3   OH213058   6.044   3.022   2.259
 4393TIP3    H113059   6.038   2.986   2.170
 4393TIP3    H213060   6.029   2.942   2.314
 4394TIP3   OH213061   6.070   2.944   1.820
 4394TIP3    H113062   5.982   2.984   1.829
 4394TIP3    H213063   6.057   2.860   1.869
 4395TIP3   OH213064   4.553   4.281   1.826
 4395TIP3    H113065   4.469   4.248   1.789
 4395TIP3    H213066   4.541   4.376   1.812
 4396TIP3   OH213067   4.951   2.875   1.806
 4396TIP3    H113068   5.001   2.812   1.751
 4396TIP3    H213069   5.023   2.929   1.844
 4397TIP3   OH213070   5.466   3.047   1.905
 4397TIP3    H113071   5.525   3.000   1.965
 4397TIP3    H213072   5.489   3.139   1.930
 4398TIP3   OH213073   5.325   4.478   1.404
 4398TIP3    H113074   5.414   4.499   1.368
 4398TIP3    H213075   5.303   4.402   1.346
 4399TIP3   OH213076   6.042   4.590   1.497
 4399TIP3    H113077   6.034   4.493   1.482
 4399TIP3    H213078   5.999   4.624   1.415
 4400TIP3   OH213079   5.258   3.125   3.284
 4400TIP3    H113080   5.225   3.056   3.343
 4400TIP3    H213081   5.353   3.126   3.311
 4401TIP3   OH213082   5.506   3.122   3.405
 4401TIP3    H113083   5.592   3.097   3.366
 4401TIP3    H213084   5.495   3.052   3.472
 4402TIP3   OH213085   4.629   4.311   1.463
 4402TIP3    H113086   4.627   4.342   1.555
 4402TIP3    H213087   4.719   4.272   1.455
 4403TIP3   OH213088   6.330   3.181   3.193
 4403TIP3    H113089   6.350   3.149   3.284
 4403TIP3    H213090   6.418   3.177   3.151
 4404TIP3   OH213091   6.281   4.740   2.669
 4404TIP3    H113092   6.198   4.695   2.682
 4404TIP3    H213093   6.256   4.834   2.678
 4405TIP3   OH213094   7.536   4.108   1.455
 4405TIP3    H113095   7.507   4.199   1.434
 4405TIP3    H213096   7.460   4.058   1.421
 4406TIP3   OH213097   7.535   4.108   1.830
 4406TIP3    H113098   7.563   4.073   1.916
 4406TIP3    H213099   7.494   4.031   1.788
 4407TIP3   OH213100   6.837   4.004   2.195
 4407TIP3    H113101   6.867   3.938   2.260
 4407TIP3    H213102   6.912   4.065   2.194
 4408TIP3   OH213103   7.774   4.396   1.508
 4408TIP3    H113104   7.766   4.324   1.571
 4408TIP3    H213105   7.783   4.473   1.564
 4409TIP3   OH213106   6.804   4.411   1.924
 4409TIP3    H113107   6.796   4.313   1.929
 4409TIP3    H213108   6.900   4.421   1.921
 4410TIP3   OH213109   6.515   3.616   1.708
 4410TIP3    H113110   6.466   3.699   1.724
 4410TIP3    H213111   6.443   3.560   1.672
 4411TIP3   OH213112   6.573   3.904   1.875
 4411TIP3    H113113   6.622   3.829   1.916
 4411TIP3    H213114   6.635   3.932   1.806
 4412TIP3   OH213115   7.425   4.879   1.526
 4412TIP3    H113116   7.472   4.803   1.485
 4412TIP3    H213117   7.400   4.846   1.613
 4413TIP3   OH213118   7.336   4.334   1.878
 4413TIP3    H113119   7.372   4.256   1.832
 4413TIP3    H213120   7.421   4.379   1.899
 4414TIP3   OH213121   8.353   3.652   1.874
 4414TIP3    H113122   8.370   3.736   1.920
 4414TIP3    H213123   8.370   3.677   1.781
 4415TIP3   OH213124   7.747   3.838   1.915
 4415TIP3    H113125   7.787   3.751   1.935
 4415TIP3    H213126   7.717   3.824   1.824
 4416TIP3   OH213127   7.078   3.491   1.879
 4416TIP3    H113128   7.061   3.565   1.817
 4416TIP3    H213129   7.029   3.420   1.834
 4417TIP3   OH213130   7.776   3.586   1.504
 4417TIP3    H113131   7.850   3.567   1.567
 4417TIP3    H213132   7.826   3.620   1.428
 4418TIP3   OH213133   6.718   3.699   1.984
 4418TIP3    H113134   6.800   3.678   2.033
 4418TIP3    H213135   6.731   3.641   1.906
 4419TIP3   OH213136   7.161   3.897   1.774
 4419TIP3    H113137   7.254   3.870   1.790
 4419TIP3    H213138   7.121   3.812   1.745
 4420TIP3   OH213139   8.413   3.860   2.056
 4420TIP3    H113140   8.328   3.896   2.023
 4420TIP3    H213141   8.413   3.899   2.144
 4421TIP3   OH213142   7.081   3.478   2.311
 4421TIP3    H113143   7.018   3.516   2.247
 4421TIP3    H213144   7.032   3.493   2.395
 4422TIP3   OH213145   7.427   4.327   1.327
 4422TIP3    H113146   7.391   4.304   1.241
 4422TIP3    H213147   7.386   4.415   1.342
 4423TIP3   OH213148   7.188   4.252   2.112
 4423TIP3    H113149   7.122   4.313   2.152
 4423TIP3    H213150   7.227   4.308   2.042
 4424TIP3   OH213151   7.991   3.584   1.670
 4424TIP3    H113152   7.983   3.533   1.752
 4424TIP3    H213153   8.046   3.659   1.698
 4425TIP3   OH213154   6.949   3.594   2.098
 4425TIP3    H113155   7.013   3.665   2.122
 4425TIP3    H213156   7.000   3.551   2.024
 4426TIP3   OH213157   7.012   4.443   2.205
 4426TIP3    H113158   6.987   4.529   2.166
 4426TIP3    H213159   6.934   4.428   2.263
 4427TIP3   OH213160   6.414   4.134   1.442
 4427TIP3    H113161   6.370   4.161   1.359
 4427TIP3    H213162   6.441   4.220   1.480
 4428TIP3   OH213163   8.133   3.552   2.035
 4428TIP3    H113164   8.047   3.593   2.014
 4428TIP3    H213165   8.193   3.591   1.968
 4429TIP3   OH213166   7.439   3.199   2.022
 4429TIP3    H113167   7.431   3.104   2.043
 4429TIP3    H213168   7.361   3.235   2.071
 4430TIP3   OH213169   7.564   4.700   1.372
 4430TIP3    H113170   7.605   4.617   1.339
 4430TIP3    H213171   7.615   4.765   1.319
 4431TIP3   OH213172   7.689   4.485   1.261
 4431TIP3    H113173   7.667   4.409   1.205
 4431TIP3    H213174   7.727   4.441   1.340
 4432TIP3   OH213175   8.070   4.578   2.015
 4432TIP3    H113176   8.064   4.489   1.973
 4432TIP3    H213177   8.085   4.634   1.938
 4433TIP3   OH213178   7.367   3.959   1.280
 4433TIP3    H113179   7.288   4.012   1.256
 4433TIP3    H213180   7.416   3.955   1.196
 4434TIP3   OH213181   7.325   3.739   1.006
 4434TIP3    H113182   7.395   3.792   1.049
 4434TIP3    H213183   7.381   3.677   0.955
 4435TIP3   OH213184   8.271   4.202   1.870
 4435TIP3    H113185   8.190   4.256   1.875
 4435TIP3    H213186   8.301   4.224   1.779
 4436TIP3   OH213187   7.713   4.040   1.256
 4436TIP3    H113188   7.660   4.066   1.335
 4436TIP3    H213189   7.797   4.014   1.298
 4437TIP3   OH213190   7.951   4.088   2.155
 4437TIP3    H113191   7.944   4.168   2.210
 4437TIP3    H213192   7.862   4.086   2.115
 4438TIP3   OH213193   6.947   4.040   1.670
 4438TIP3    H113194   6.908   3.982   1.601
 4438TIP3    H213195   7.025   3.988   1.698
 4439TIP3   OH213196   7.077   4.452   1.819
 4439TIP3    H113197   7.055   4.404   1.738
 4439TIP3    H213198   7.167   4.419   1.838
 4440TIP3   OH213199   7.087   4.011   2.024
 4440TIP3    H113200   7.119   3.993   1.933
 4440TIP3    H213201   7.127   4.097   2.046
 4441TIP3   OH213202   7.220   4.568   2.347
 4441TIP3    H113203   7.162   4.631   2.395
 4441TIP3    H213204   7.153   4.515   2.300
 4442TIP3   OH213205   7.555   3.900   1.079
 4442TIP3    H113206   7.615   3.958   1.132
 4442TIP3    H213207   7.583   3.924   0.987
 4443TIP3   OH213208   6.972   4.129   2.443
 4443TIP3    H113209   6.977   4.213   2.493
 4443TIP3    H213210   6.878   4.108   2.455
 4444TIP3   OH213211   7.297   4.584   1.355
 4444TIP3    H113212   7.368   4.644   1.382
 4444TIP3    H213213   7.233   4.643   1.314
 4445TIP3   OH213214   7.016   4.738   2.435
 4445TIP3    H113215   6.979   4.734   2.345
 4445TIP3    H213216   6.938   4.717   2.490
 4446TIP3   OH213217   8.073   3.143   1.128
 4446TIP3    H113218   7.990   3.160   1.178
 4446TIP3    H213219   8.083   3.226   1.077
 4447TIP3   OH213220   6.816   3.878   1.469
 4447TIP3    H113221   6.751   3.929   1.414
 4447TIP3    H213222   6.761   3.806   1.500
 4448TIP3   OH213223   6.593   4.265   2.383
 4448TIP3    H113224   6.533   4.240   2.311
 4448TIP3    H213225   6.632   4.180   2.411
 4449TIP3   OH213226   6.448   4.457   2.021
 4449TIP3    H113227   6.543   4.453   2.006
 4449TIP3    H213228   6.439   4.541   2.069
 4450TIP3   OH213229   8.327   4.903   2.085
 4450TIP3    H113230   8.317   4.807   2.095
 4450TIP3    H213231   8.239   4.935   2.112
 4451TIP3   OH213232   7.420   4.696   2.205
 4451TIP3    H113233   7.423   4.788   2.238
 4451TIP3    H213234   7.348   4.658   2.260
 4452TIP3   OH213235   7.177   4.826   1.157
 4452TIP3    H113236   7.134   4.806   1.072
 4452TIP3    H213237   7.146   4.916   1.177
 4453TIP3   OH213238   6.617   4.676   1.538
 4453TIP3    H113239   6.665   4.666   1.623
 4453TIP3    H213240   6.552   4.605   1.547
 4454TIP3   OH213241   7.390   4.716   0.801
 4454TIP3    H113242   7.458   4.653   0.773
 4454TIP3    H213243   7.418   4.734   0.893
 4455TIP3   OH213244   7.429   4.778   1.068
 4455TIP3    H113245   7.340   4.785   1.111
 4455TIP3    H213246   7.478   4.727   1.135
 4456TIP3   OH213247   8.206   4.022   2.336
 4456TIP3    H113248   8.138   4.077   2.292
 4456TIP3    H213249   8.158   3.936   2.332
 4457TIP3   OH213250   6.800   4.448   2.374
 4457TIP3    H113251   6.850   4.433   2.457
 4457TIP3    H213252   6.726   4.385   2.383
 4458TIP3   OH213253   7.199   3.275   2.150
 4458TIP3    H113254   7.109   3.243   2.128
 4458TIP3    H213255   7.174   3.357   2.199
 4459TIP3   OH213256   7.733   3.391   2.348
 4459TIP3    H113257   7.800   3.362   2.413
 4459TIP3    H213258   7.649   3.368   2.394
 4460TIP3   OH213259   8.011   3.837   2.289
 4460TIP3    H113260   7.945   3.813   2.358
 4460TIP3    H213261   7.961   3.900   2.234
 4461TIP3   OH213262   7.631   3.950   0.825
 4461TIP3    H113263   7.601   3.921   0.736
 4461TIP3    H213264   7.705   4.008   0.801
 4462TIP3   OH213265   7.340   3.327   1.121
 4462TIP3    H113266   7.316   3.322   1.216
 4462TIP3    H213267   7.312   3.239   1.092
 4463TIP3   OH213268   7.130   3.788   2.174
 4463TIP3    H113269   7.080   3.810   2.255
 4463TIP3    H213270   7.114   3.868   2.119
 4464TIP3   OH213271   7.015   3.677   1.691
 4464TIP3    H113272   6.922   3.650   1.705
 4464TIP3    H213273   7.031   3.640   1.601
 4465TIP3   OH213274   7.505   3.760   1.413
 4465TIP3    H113275   7.451   3.832   1.372
 4465TIP3    H213276   7.560   3.732   1.337
 4466TIP3   OH213277   7.679   4.043   2.503
 4466TIP3    H113278   7.656   3.969   2.564
 4466TIP3    H213279   7.773   4.055   2.524
 4467TIP3   OH213280   7.664   3.793   1.654
 4467TIP3    H113281   7.606   3.822   1.582
 4467TIP3    H213282   7.697   3.709   1.614
 4468TIP3   OH213283   6.949   3.818   2.383
 4468TIP3    H113284   6.974   3.880   2.452
 4468TIP3    H213285   6.938   3.735   2.434
 4469TIP3   OH213286   7.009   3.296   1.085
 4469TIP3    H113287   7.023   3.296   1.180
 4469TIP3    H213288   6.925   3.342   1.069
 4470TIP3   OH213289   6.546   3.343   1.956
 4470TIP3    H113290   6.616   3.374   2.018
 4470TIP3    H213291   6.595   3.300   1.886
 4471TIP3   OH213292   7.678   4.039   2.080
 4471TIP3    H113293   7.708   3.965   2.022
 4471TIP3    H213294   7.647   3.988   2.158
 4472TIP3   OH213295   7.339   3.503   1.751
 4472TIP3    H113296   7.257   3.495   1.804
 4472TIP3    H213297   7.407   3.497   1.820
 4473TIP3   OH213298   6.777   3.552   1.754
 4473TIP3    H113299   6.680   3.558   1.735
 4473TIP3    H213300   6.798   3.458   1.740
 4474TIP3   OH213301   7.050   3.566   1.445
 4474TIP3    H113302   7.148   3.560   1.441
 4474TIP3    H213303   7.026   3.579   1.353
 4475TIP3   OH213304   7.830   3.575   1.948
 4475TIP3    H113305   7.797   3.583   2.040
 4475TIP3    H213306   7.769   3.509   1.912
 4476TIP3   OH213307   6.865   3.556   1.208
 4476TIP3    H113308   6.816   3.552   1.121
 4476TIP3    H213309   6.941   3.607   1.177
 4477TIP3   OH213310   8.001   5.257   2.167
 4477TIP3    H113311   8.002   5.284   2.073
 4477TIP3    H213312   8.077   5.308   2.201
 4478TIP3   OH213313   6.962   4.372   2.591
 4478TIP3    H113314   7.041   4.402   2.641
 4478TIP3    H213315   6.896   4.370   2.664
 4479TIP3   OH213316   7.426   3.825   1.848
 4479TIP3    H113317   7.496   3.782   1.796
 4479TIP3    H213318   7.437   3.783   1.935
 4480TIP3   OH213319   6.945   3.312   1.711
 4480TIP3    H113320   6.920   3.232   1.762
 4480TIP3    H213321   7.024   3.281   1.664
 4481TIP3   OH213322   7.403   3.719   2.135
 4481TIP3    H113323   7.313   3.755   2.149
 4481TIP3    H213324   7.460   3.778   2.188
 4482TIP3   OH213325   7.139   4.113   1.231
 4482TIP3    H113326   7.064   4.051   1.220
 4482TIP3    H213327   7.122   4.147   1.323
 4483TIP3   OH213328   8.042   4.352   1.863
 4483TIP3    H113329   8.066   4.393   1.777
 4483TIP3    H213330   7.959   4.304   1.840
 4484TIP3   OH213331   7.597   3.425   1.093
 4484TIP3    H113332   7.499   3.413   1.095
 4484TIP3    H213333   7.608   3.521   1.112
 4485TIP3   OH213334   7.554   4.441   2.225
 4485TIP3    H113335   7.554   4.402   2.313
 4485TIP3    H213336   7.497   4.520   2.236
 4486TIP3   OH213337   7.668   3.673   1.195
 4486TIP3    H113338   7.765   3.677   1.209
 4486TIP3    H213339   7.651   3.751   1.138
 4487TIP3   OH213340   6.829   4.132   1.909
 4487TIP3    H113341   6.868   4.103   1.824
 4487TIP3    H213342   6.868   4.068   1.972
 4488TIP3   OH213343   7.284   4.262   1.049
 4488TIP3    H113344   7.238   4.349   1.057
 4488TIP3    H213345   7.230   4.208   1.110
 4489TIP3   OH213346   6.710   4.056   2.520
 4489TIP3    H113347   6.734   4.044   2.614
 4489TIP3    H213348   6.642   3.987   2.509
 4490TIP3   OH213349   7.434   4.168   2.538
 4490TIP3    H113350   7.376   4.107   2.490
 4490TIP3    H213351   7.523   4.134   2.512
 4491TIP3   OH213352   7.705   4.727   2.094
 4491TIP3    H113353   7.616   4.691   2.111
 4491TIP3    H213354   7.730   4.754   2.185
 4492TIP3   OH213355   8.112   3.759   1.033
 4492TIP3    H113356   8.048   3.714   0.972
 4492TIP3    H213357   8.108   3.847   0.990
 4493TIP3   OH213358   8.322   4.611   2.119
 4493TIP3    H113359   8.225   4.613   2.109
 4493TIP3    H213360   8.349   4.585   2.028
 4494TIP3   OH213361   7.813   4.579   0.934
 4494TIP3    H113362   7.790   4.503   0.988
 4494TIP3    H213363   7.813   4.541   0.844
 4495TIP3   OH213364   7.806   4.211   1.782
 4495TIP3    H113365   7.713   4.184   1.796
 4495TIP3    H213366   7.841   4.132   1.737
 4496TIP3   OH213367   6.929   4.435   1.530
 4496TIP3    H113368   6.933   4.518   1.479
 4496TIP3    H213369   6.834   4.423   1.539
 4497TIP3   OH213370   6.503   3.729   1.240
 4497TIP3    H113371   6.542   3.819   1.251
 4497TIP3    H213372   6.420   3.740   1.292
 4498TIP3   OH213373   7.074   4.205   1.478
 4498TIP3    H113374   7.038   4.294   1.495
 4498TIP3    H213375   7.038   4.155   1.553
 4499TIP3   OH213376   7.198   4.783   2.002
 4499TIP3    H113377   7.239   4.854   1.949
 4499TIP3    H213378   7.275   4.751   2.052
 4500TIP3   OH213379   6.854   4.675   1.386
 4500TIP3    H113380   6.766   4.684   1.430
 4500TIP3    H213381   6.884   4.769   1.388
 4501TIP3   OH213382   7.596   4.418   1.955
 4501TIP3    H113383   7.586   4.420   2.052
 4501TIP3    H213384   7.672   4.360   1.943
 4502TIP3   OH213385   7.544   4.295   0.848
 4502TIP3    H113386   7.607   4.281   0.921
 4502TIP3    H213387   7.460   4.277   0.892
 4503TIP3   OH213388   7.919   4.817   0.674
 4503TIP3    H113389   7.924   4.789   0.580
 4503TIP3    H213390   7.823   4.829   0.686
 4504TIP3   OH213391   6.925   3.560   2.530
 4504TIP3    H113392   6.830   3.566   2.548
 4504TIP3    H213393   6.955   3.499   2.600
 4505TIP3   OH213394   7.720   4.250   1.067
 4505TIP3    H113395   7.712   4.177   1.132
 4505TIP3    H213396   7.816   4.244   1.045
 4506TIP3   OH213397   6.639   4.646   2.163
 4506TIP3    H113398   6.690   4.569   2.192
 4506TIP3    H213399   6.668   4.712   2.227
 4507TIP3   OH213400   6.928   4.289   0.840
 4507TIP3    H113401   6.948   4.199   0.810
 4507TIP3    H213402   6.912   4.276   0.935
 4508TIP3   OH213403   6.878   4.293   1.114
 4508TIP3    H113404   6.948   4.269   1.177
 4508TIP3    H213405   6.881   4.391   1.119
 4509TIP3   OH213406   6.613   3.988   1.316
 4509TIP3    H113407   6.547   4.033   1.373
 4509TIP3    H213408   6.628   4.058   1.249
 4510TIP3   OH213409   7.761   3.625   2.211
 4510TIP3    H113410   7.839   3.653   2.260
 4510TIP3    H213411   7.737   3.543   2.259
 4511TIP3   OH213412   7.633   3.382   1.372
 4511TIP3    H113413   7.623   3.402   1.277
 4511TIP3    H213414   7.675   3.463   1.406
 4512TIP3   OH213415   7.141   4.493   1.065
 4512TIP3    H113416   7.054   4.522   1.098
 4512TIP3    H213417   7.158   4.560   0.997
 4513TIP3   OH213418   7.326   3.557   1.477
 4513TIP3    H113419   7.395   3.624   1.457
 4513TIP3    H213420   7.336   3.549   1.575
 4514TIP3   OH213421   7.600   3.877   2.284
 4514TIP3    H113422   7.613   3.931   2.365
 4514TIP3    H213423   7.653   3.798   2.302
 4515TIP3   OH213424   7.476   3.290   1.582
 4515TIP3    H113425   7.473   3.366   1.642
 4515TIP3    H213426   7.534   3.324   1.510
 4516TIP3   OH213427   6.881   4.566   1.128
 4516TIP3    H113428   6.852   4.635   1.064
 4516TIP3    H213429   6.865   4.611   1.214
 4517TIP3   OH213430   7.891   3.971   1.655
 4517TIP3    H113431   7.815   3.910   1.664
 4517TIP3    H213432   7.962   3.921   1.700
 4518TIP3   OH213433   6.600   4.201   1.125
 4518TIP3    H113434   6.659   4.278   1.133
 4518TIP3    H213435   6.650   4.151   1.056
 4519TIP3   OH213436   6.566   3.466   1.264
 4519TIP3    H113437   6.547   3.563   1.261
 4519TIP3    H213438   6.477   3.433   1.242
 4520TIP3   OH213439   7.864   4.910   1.627
 4520TIP3    H113440   7.828   4.946   1.543
 4520TIP3    H213441   7.960   4.924   1.608
 4521TIP3   OH213442   6.933   3.194   2.132
 4521TIP3    H113443   6.902   3.158   2.046
 4521TIP3    H213444   6.926   3.116   2.191
 4522TIP3   OH213445   6.476   4.411   1.517
 4522TIP3    H113446   6.397   4.445   1.560
 4522TIP3    H213447   6.464   4.448   1.427
 4523TIP3   OH213448   6.627   4.948   2.583
 4523TIP3    H113449   6.713   4.947   2.629
 4523TIP3    H213450   6.606   4.853   2.581
 4524TIP3   OH213451   7.116   4.923   2.624
 4524TIP3    H113452   7.209   4.898   2.634
 4524TIP3    H213453   7.090   4.865   2.550
 4525TIP3   OH213454   7.094   4.494   0.758
 4525TIP3    H113455   7.039   4.420   0.793
 4525TIP3    H213456   7.170   4.445   0.722
 4526TIP3   OH213457   7.764   4.814   2.350
 4526TIP3    H113458   7.743   4.750   2.422
 4526TIP3    H213459   7.832   4.870   2.392
 4527TIP3   OH213460   6.762   4.358   2.780
 4527TIP3    H113461   6.777   4.263   2.790
 4527TIP3    H213462   6.671   4.360   2.742
 4528TIP3   OH213463   6.736   4.010   0.974
 4528TIP3    H113464   6.793   3.982   1.046
 4528TIP3    H213465   6.803   4.017   0.901
 4529TIP3   OH213466   7.372   4.443   2.554
 4529TIP3    H113467   7.325   4.453   2.469
 4529TIP3    H213468   7.401   4.349   2.551
 4530TIP3   OH213469   7.232   4.205   0.779
 4530TIP3    H113470   7.245   4.221   0.875
 4530TIP3    H213471   7.239   4.107   0.776
 4531TIP3   OH213472   7.866   4.442   2.163
 4531TIP3    H113473   7.929   4.500   2.117
 4531TIP3    H213474   7.783   4.491   2.155
 4532TIP3   OH213475   6.880   4.088   2.761
 4532TIP3    H113476   6.952   4.026   2.751
 4532TIP3    H213477   6.900   4.124   2.850
 4533TIP3   OH213478   6.944   3.914   1.198
 4533TIP3    H113479   6.925   3.876   1.285
 4533TIP3    H213480   6.983   3.839   1.148
 4534TIP3   OH213481   7.213   3.977   2.425
 4534TIP3    H113482   7.137   4.038   2.432
 4534TIP3    H213483   7.259   4.011   2.346
 4535TIP3   OH213484   7.040   3.696   1.049
 4535TIP3    H113485   7.015   3.703   0.954
 4535TIP3    H213486   7.138   3.707   1.041
 4536TIP3   OH213487   7.731   4.381   2.561
 4536TIP3    H113488   7.814   4.360   2.517
 4536TIP3    H213489   7.727   4.312   2.630
 4537TIP3   OH213490   7.876   4.038   0.694
 4537TIP3    H113491   7.844   3.994   0.614
 4537TIP3    H213492   7.846   4.131   0.678
 4538TIP3   OH213493   7.338   3.764   2.554
 4538TIP3    H113494   7.336   3.682   2.500
 4538TIP3    H213495   7.293   3.828   2.496
 4539TIP3   OH213496   7.339   3.552   2.358
 4539TIP3    H113497   7.365   3.590   2.272
 4539TIP3    H213498   7.245   3.528   2.341
 4540TIP3   OH213499   7.373   4.091   2.231
 4540TIP3    H113500   7.451   4.093   2.174
 4540TIP3    H213501   7.314   4.157   2.188
 4541TIP3   OH213502   7.947   4.057   2.611
 4541TIP3    H113503   7.993   3.975   2.637
 4541TIP3    H213504   8.019   4.116   2.588
 4542TIP3   OH213505   7.998   4.304   2.351
 4542TIP3    H113506   7.935   4.354   2.294
 4542TIP3    H213507   8.082   4.329   2.306
 4543TIP3   OH213508   7.211   3.885   2.777
 4543TIP3    H113509   7.143   3.816   2.794
 4543TIP3    H213510   7.249   3.853   2.693
 4544TIP3   OH213511   7.473   3.316   2.420
 4544TIP3    H113512   7.423   3.399   2.402
 4544TIP3    H213513   7.403   3.248   2.412
 4545TIP3   OH213514   7.599   3.824   2.641
 4545TIP3    H113515   7.592   3.811   2.737
 4545TIP3    H213516   7.508   3.797   2.615
 4546TIP3   OH213517   7.841   3.766   2.492
 4546TIP3    H113518   7.763   3.771   2.551
 4546TIP3    H213519   7.909   3.729   2.552
 4547TIP3   OH213520   8.092   3.699   2.651
 4547TIP3    H113521   8.100   3.607   2.680
 4547TIP3    H213522   8.068   3.746   2.734
 4548TIP3   OH213523   7.055   3.662   2.831
 4548TIP3    H113524   7.063   3.570   2.797
 4548TIP3    H213525   7.090   3.650   2.922
 4549TIP3   OH213526   7.569   3.328   2.678
 4549TIP3    H113527   7.637   3.258   2.678
 4549TIP3    H213528   7.529   3.315   2.590
 4550TIP3   OH213529   7.635   3.544   2.837
 4550TIP3    H113530   7.611   3.470   2.776
 4550TIP3    H213531   7.555   3.600   2.833
 4551TIP3   OH213532   6.852   4.767   0.941
 4551TIP3    H113533   6.947   4.769   0.921
 4551TIP3    H213534   6.819   4.816   0.863
 4552TIP3   OH213535   6.333   4.150   1.162
 4552TIP3    H113536   6.427   4.173   1.147
 4552TIP3    H213537   6.328   4.062   1.118
 4553TIP3   OH213538   6.246   4.763   1.570
 4553TIP3    H113539   6.177   4.701   1.536
 4553TIP3    H213540   6.289   4.708   1.638
 4554TIP3   OH213541   6.383   4.620   1.757
 4554TIP3    H113542   6.373   4.543   1.815
 4554TIP3    H213543   6.433   4.680   1.816
 4555TIP3   OH213544   8.185   4.712   2.411
 4555TIP3    H113545   8.111   4.721   2.475
 4555TIP3    H213546   8.227   4.800   2.415
 4556TIP3   OH213547   7.999   4.227   1.035
 4556TIP3    H113548   8.066   4.290   1.004
 4556TIP3    H213549   8.045   4.187   1.112
 4557TIP3   OH213550   8.131   4.094   1.236
 4557TIP3    H113551   8.064   4.051   1.295
 4557TIP3    H213552   8.193   4.134   1.300
 4558TIP3   OH213553   8.171   4.482   1.661
 4558TIP3    H113554   8.229   4.418   1.616
 4558TIP3    H213555   8.186   4.563   1.608
 4559TIP3   OH213556   8.070   4.001   0.886
 4559TIP3    H113557   8.000   4.002   0.817
 4559TIP3    H213558   8.041   4.078   0.939
 4560TIP3   OH213559   7.938   3.676   0.842
 4560TIP3    H113560   7.902   3.716   0.762
 4560TIP3    H213561   7.911   3.583   0.832
 4561TIP3   OH213562   7.945   3.948   1.386
 4561TIP3    H113563   7.953   3.852   1.379
 4561TIP3    H213564   7.933   3.961   1.482
 4562TIP3   OH213565   6.572   4.026   2.129
 4562TIP3    H113566   6.571   3.997   2.035
 4562TIP3    H213567   6.669   4.025   2.147
 4563TIP3   OH213568   8.234   4.374   2.237
 4563TIP3    H113569   8.306   4.308   2.228
 4563TIP3    H213570   8.266   4.448   2.182
 4564TIP3   OH213571   8.417   4.178   2.257
 4564TIP3    H113572   8.353   4.116   2.298
 4564TIP3    H213573   8.503   4.148   2.290
 4565TIP3   OH213574   7.881   3.412   0.836
 4565TIP3    H113575   7.959   3.376   0.882
 4565TIP3    H213576   7.811   3.347   0.852
 4566TIP3   OH213577   7.941   3.665   1.282
 4566TIP3    H113578   7.981   3.576   1.297
 4566TIP3    H213579   7.998   3.697   1.210
 4567TIP3   OH213580   8.105   3.842   1.775
 4567TIP3    H113581   8.191   3.870   1.735
 4567TIP3    H213582   8.117   3.878   1.865
 4568TIP3   OH213583   8.170   3.982   2.006
 4568TIP3    H113584   8.093   4.016   2.057
 4568TIP3    H213585   8.202   4.064   1.962
 4569TIP3   OH213586   6.788   3.712   2.802
 4569TIP3    H113587   6.886   3.704   2.806
 4569TIP3    H213588   6.763   3.629   2.846
 4570TIP3   OH213589   8.614   3.590   2.529
 4570TIP3    H113590   8.647   3.499   2.546
 4570TIP3    H213591   8.685   3.623   2.473
 4571TIP3   OH213592   8.048   3.415   1.319
 4571TIP3    H113593   8.097   3.398   1.402
 4571TIP3    H213594   7.989   3.337   1.316
 4572TIP3   OH213595   6.748   3.401   2.132
 4572TIP3    H113596   6.810   3.326   2.146
 4572TIP3    H213597   6.811   3.476   2.132
 4573TIP3   OH213598   6.554   3.677   2.209
 4573TIP3    H113599   6.604   3.670   2.125
 4573TIP3    H213600   6.584   3.762   2.243
 4574TIP3   OH213601   8.135   3.351   0.950
 4574TIP3    H113602   8.170   3.278   0.895
 4574TIP3    H213603   8.200   3.422   0.934
 4575TIP3   OH213604   6.526   3.187   1.692
 4575TIP3    H113605   6.444   3.167   1.741
 4575TIP3    H213606   6.500   3.268   1.646
 4576TIP3   OH213607   7.691   4.880   1.215
 4576TIP3    H113608   7.741   4.860   1.132
 4576TIP3    H213609   7.755   4.932   1.266
 4577TIP3   OH213610   6.755   3.262   2.525
 4577TIP3    H113611   6.707   3.253   2.609
 4577TIP3    H213612   6.686   3.297   2.467
 4578TIP3   OH213613   6.797   4.685   2.605
 4578TIP3    H113614   6.706   4.655   2.586
 4578TIP3    H213615   6.804   4.665   2.700
 4579TIP3   OH213616   6.971   4.713   2.149
 4579TIP3    H113617   6.923   4.789   2.111
 4579TIP3    H213618   7.058   4.729   2.105
 4580TIP3   OH213619   7.421   4.962   2.289
 4580TIP3    H113620   7.461   4.965   2.378
 4580TIP3    H213621   7.486   5.014   2.237
 4581TIP3   OH213622   7.597   5.112   2.144
 4581TIP3    H113623   7.672   5.069   2.102
 4581TIP3    H213624   7.643   5.173   2.207
 4582TIP3   OH213625   8.390   3.498   2.254
 4582TIP3    H113626   8.297   3.486   2.225
 4582TIP3    H213627   8.415   3.405   2.264
 4583TIP3   OH213628   6.651   4.975   2.172
 4583TIP3    H113629   6.564   5.011   2.147
 4583TIP3    H213630   6.657   5.005   2.263
 4584TIP3   OH213631   6.887   4.953   2.028
 4584TIP3    H113632   6.802   4.967   2.075
 4584TIP3    H213633   6.867   4.988   1.940
 4585TIP3   OH213634   7.312   4.978   1.824
 4585TIP3    H113635   7.244   5.010   1.763
 4585TIP3    H213636   7.340   5.061   1.867
 4586TIP3   OH213637   7.790   5.100   1.797
 4586TIP3    H113638   7.765   5.194   1.779
 4586TIP3    H213639   7.829   5.080   1.711
 4587TIP3   OH213640   6.561   4.769   1.919
 4587TIP3    H113641   6.589   4.747   2.010
 4587TIP3    H213642   6.634   4.725   1.868
 4588TIP3   OH213643   6.753   4.640   1.772
 4588TIP3    H113644   6.771   4.556   1.821
 4588TIP3    H213645   6.843   4.679   1.766
 4589TIP3   OH213646   7.020   4.737   1.773
 4589TIP3    H113647   7.051   4.646   1.763
 4589TIP3    H213648   7.060   4.759   1.859
 4590TIP3   OH213649   7.596   3.393   1.862
 4590TIP3    H113650   7.552   3.326   1.918
 4590TIP3    H213651   7.664   3.340   1.818
 4591TIP3   OH213652   8.132   3.276   1.775
 4591TIP3    H113653   8.162   3.327   1.696
 4591TIP3    H213654   8.035   3.286   1.769
 4592TIP3   OH213655   8.218   3.375   1.535
 4592TIP3    H113656   8.290   3.323   1.492
 4592TIP3    H213657   8.250   3.466   1.519
 4593TIP3   OH213658   6.846   3.102   1.880
 4593TIP3    H113659   6.756   3.064   1.885
 4593TIP3    H213660   6.899   3.019   1.879
 4594TIP3   OH213661   6.624   2.958   1.547
 4594TIP3    H113662   6.655   3.008   1.470
 4594TIP3    H213663   6.592   3.028   1.607
 4595TIP3   OH213664   7.279   3.146   1.762
 4595TIP3    H113665   7.347   3.186   1.705
 4595TIP3    H213666   7.311   3.169   1.850
 4596TIP3   OH213667   7.849   3.278   1.747
 4596TIP3    H113668   7.835   3.245   1.657
 4596TIP3    H213669   7.829   3.197   1.801
 4597TIP3   OH213670   7.867   3.200   1.308
 4597TIP3    H113671   7.777   3.238   1.312
 4597TIP3    H213672   7.853   3.116   1.356
 4598TIP3   OH213673   6.349   4.538   1.313
 4598TIP3    H113674   6.265   4.505   1.276
 4598TIP3    H213675   6.337   4.633   1.298
 4599TIP3   OH213676   7.264   3.309   1.384
 4599TIP3    H113677   7.314   3.253   1.445
 4599TIP3    H213678   7.289   3.398   1.417
 4600TIP3   OH213679   7.124   4.734   0.890
 4600TIP3    H113680   7.211   4.756   0.852
 4600TIP3    H213681   7.100   4.659   0.832
 4601TIP3   OH213682   7.839   4.846   0.987
 4601TIP3    H113683   7.838   4.749   0.971
 4601TIP3    H213684   7.799   4.876   0.902
 4602TIP3   OH213685   7.055   3.383   2.772
 4602TIP3    H113686   7.021   3.313   2.829
 4602TIP3    H213687   7.149   3.383   2.799
 4603TIP3   OH213688   7.303   3.378   2.891
 4603TIP3    H113689   7.389   3.351   2.854
 4603TIP3    H213690   7.290   3.309   2.959
 4604TIP3   OH213691   6.425   4.566   0.950
 4604TIP3    H113692   6.423   4.601   1.041
 4604TIP3    H213693   6.516   4.529   0.943
 4605TIP3   OH213694   8.074   4.992   2.161
 4605TIP3    H113695   7.986   4.954   2.166
 4605TIP3    H213696   8.054   5.088   2.166
 4606TIP3   OH213697   8.632   4.263   1.685
 4606TIP3    H113698   8.666   4.196   1.746
 4606TIP3    H213699   8.708   4.322   1.676
 4607TIP3   OH213700   8.595   4.667   1.413
 4607TIP3    H113701   8.593   4.569   1.417
 4607TIP3    H213702   8.690   4.682   1.402
 4608TIP3   OH213703   8.308   3.874   1.199
 4608TIP3    H113704   8.258   3.958   1.208
 4608TIP3    H213705   8.239   3.817   1.161
 4609TIP3   OH213706   8.371   4.163   1.366
 4609TIP3    H113707   8.419   4.085   1.401
 4609TIP3    H213708   8.423   4.185   1.288
 4610TIP3   OH213709   9.125   5.076   1.028
 4610TIP3    H113710   9.201   5.087   0.969
 4610TIP3    H213711   9.165   5.078   1.116
 4611TIP3   OH213712   9.082   4.602   1.366
 4611TIP3    H113713   9.088   4.539   1.293
 4611TIP3    H213714   9.177   4.607   1.391
 4612TIP3   OH213715   8.860   3.753   1.377
 4612TIP3    H113716   8.862   3.818   1.305
 4612TIP3    H213717   8.832   3.674   1.326
 4613TIP3   OH213718   8.513   3.954   1.471
 4613TIP3    H113719   8.595   3.933   1.519
 4613TIP3    H213720   8.524   3.898   1.392
 4614TIP3   OH213721   8.915   4.169   1.251
 4614TIP3    H113722   9.011   4.151   1.262
 4614TIP3    H213723   8.884   4.080   1.222
 4615TIP3   OH213724   8.869   3.731   1.804
 4615TIP3    H113725   8.815   3.770   1.733
 4615TIP3    H213726   8.821   3.762   1.883
 4616TIP3   OH213727   8.959   4.517   1.591
 4616TIP3    H113728   8.900   4.584   1.632
 4616TIP3    H213729   9.001   4.569   1.520
 4617TIP3   OH213730   8.740   3.850   1.593
 4617TIP3    H113731   8.805   3.922   1.611
 4617TIP3    H213732   8.783   3.809   1.514
 4618TIP3   OH213733   8.804   4.707   1.694
 4618TIP3    H113734   8.778   4.794   1.656
 4618TIP3    H213735   8.725   4.692   1.752
 4619TIP3   OH213736   8.208   4.388   0.941
 4619TIP3    H113737   8.170   4.399   0.851
 4619TIP3    H213738   8.234   4.479   0.965
 4620TIP3   OH213739   8.719   4.315   1.143
 4620TIP3    H113740   8.680   4.253   1.077
 4620TIP3    H213741   8.794   4.262   1.178
 4621TIP3   OH213742   8.848   4.724   1.296
 4621TIP3    H113743   8.829   4.674   1.215
 4621TIP3    H213744   8.933   4.685   1.326
 4622TIP3   OH213745   8.889   4.266   1.515
 4622TIP3    H113746   8.901   4.256   1.419
 4622TIP3    H213747   8.914   4.360   1.531
 4623TIP3   OH213748   9.013   4.827   1.837
 4623TIP3    H113749   8.952   4.889   1.882
 4623TIP3    H213750   8.948   4.774   1.786
 4624TIP3   OH213751   8.770   4.384   1.937
 4624TIP3    H113752   8.772   4.472   1.981
 4624TIP3    H213753   8.673   4.367   1.937
 4625TIP3   OH213754   9.079   4.860   0.853
 4625TIP3    H113755   9.108   4.917   0.926
 4625TIP3    H213756   8.999   4.907   0.827
 4626TIP3   OH213757   8.811   4.997   1.921
 4626TIP3    H113758   8.776   4.992   1.830
 4626TIP3    H213759   8.733   4.971   1.975
 4627TIP3   OH213760   8.609   4.135   0.961
 4627TIP3    H113761   8.544   4.184   0.906
 4627TIP3    H213762   8.562   4.052   0.974
 4628TIP3   OH213763   8.382   4.523   1.874
 4628TIP3    H113764   8.337   4.501   1.790
 4628TIP3    H213765   8.426   4.438   1.897
 4629TIP3   OH213766   8.251   4.704   1.524
 4629TIP3    H113767   8.343   4.712   1.496
 4629TIP3    H213768   8.228   4.797   1.546
 4630TIP3   OH213769   9.207   4.955   1.691
 4630TIP3    H113770   9.208   5.047   1.726
 4630TIP3    H213771   9.137   4.914   1.746
 4631TIP3   OH213772   8.413   4.936   1.021
 4631TIP3    H113773   8.461   4.925   1.106
 4631TIP3    H213774   8.355   4.858   1.025
 4632TIP3   OH213775   8.601   4.696   1.868
 4632TIP3    H113776   8.646   4.680   1.953
 4632TIP3    H213777   8.519   4.644   1.874
 4633TIP3   OH213778   8.982   3.523   1.652
 4633TIP3    H113779   8.892   3.506   1.619
 4633TIP3    H213780   8.972   3.613   1.686
 4634TIP3   OH213781   8.927   4.038   1.654
 4634TIP3    H113782   8.882   4.063   1.737
 4634TIP3    H213783   8.917   4.121   1.602
 4635TIP3   OH213784   8.810   3.928   1.173
 4635TIP3    H113785   8.718   3.901   1.197
 4635TIP3    H213786   8.814   3.896   1.080
 4636TIP3   OH213787   8.744   4.073   1.869
 4636TIP3    H113788   8.780   4.136   1.933
 4636TIP3    H213789   8.737   3.992   1.922
 4637TIP3   OH213790   8.776   3.573   0.581
 4637TIP3    H113791   8.756   3.538   0.669
 4637TIP3    H213792   8.689   3.599   0.547
 4638TIP3   OH213793   8.338   3.601   1.450
 4638TIP3    H113794   8.417   3.629   1.500
 4638TIP3    H213795   8.373   3.566   1.367
 4639TIP3   OH213796   8.321   3.581   0.972
 4639TIP3    H113797   8.362   3.620   0.891
 4639TIP3    H213798   8.256   3.651   0.992
 4640TIP3   OH213799   8.570   3.809   1.246
 4640TIP3    H113800   8.476   3.815   1.218
 4640TIP3    H213801   8.595   3.718   1.223
 4641TIP3   OH213802   8.819   3.835   0.915
 4641TIP3    H113803   8.896   3.843   0.857
 4641TIP3    H213804   8.747   3.844   0.848
 4642TIP3   OH213805   8.661   3.846   0.702
 4642TIP3    H113806   8.594   3.795   0.653
 4642TIP3    H213807   8.727   3.863   0.631
 4643TIP3   OH213808   8.759   4.621   2.086
 4643TIP3    H113809   8.838   4.657   2.131
 4643TIP3    H213810   8.693   4.632   2.157
 4644TIP3   OH213811   8.748   3.573   1.202
 4644TIP3    H113812   8.715   3.493   1.249
 4644TIP3    H213813   8.803   3.535   1.132
 4645TIP3   OH213814   8.893   4.394   0.709
 4645TIP3    H113815   8.846   4.308   0.711
 4645TIP3    H213816   8.918   4.407   0.803
 4646TIP3   OH213817   9.284   4.687   1.732
 4646TIP3    H113818   9.320   4.670   1.821
 4646TIP3    H213819   9.264   4.782   1.735
 4647TIP3   OH213820   8.630   4.391   1.399
 4647TIP3    H113821   8.655   4.365   1.308
 4647TIP3    H213822   8.661   4.316   1.452
 4648TIP3   OH213823   8.505   4.316   2.007
 4648TIP3    H113824   8.531   4.299   2.099
 4648TIP3    H213825   8.437   4.247   1.992
 4649TIP3   OH213826   9.197   4.386   2.049
 4649TIP3    H113827   9.120   4.345   2.006
 4649TIP3    H213828   9.265   4.321   2.025
 4650TIP3   OH213829   8.727   4.689   1.015
 4650TIP3    H113830   8.727   4.774   0.966
 4650TIP3    H213831   8.632   4.676   1.026
 4651TIP3   OH213832   8.289   4.001   0.717
 4651TIP3    H113833   8.335   4.085   0.739
 4651TIP3    H213834   8.213   4.006   0.779
 4652TIP3   OH213835   8.898   4.474   0.991
 4652TIP3    H113836   8.843   4.555   0.985
 4652TIP3    H213837   8.837   4.417   1.041
 4653TIP3   OH213838   8.996   5.037   1.489
 4653TIP3    H113839   9.033   5.110   1.436
 4653TIP3    H213840   9.074   5.007   1.539
 4654TIP3   OH213841   8.653   4.931   0.876
 4654TIP3    H113842   8.566   4.938   0.919
 4654TIP3    H213843   8.682   5.025   0.877
 4655TIP3   OH213844   8.718   3.815   2.017
 4655TIP3    H113845   8.621   3.818   2.028
 4655TIP3    H213846   8.746   3.762   2.093
 4656TIP3   OH213847   8.640   4.548   0.666
 4656TIP3    H113848   8.729   4.510   0.672
 4656TIP3    H213849   8.659   4.640   0.641
 4657TIP3   OH213850   8.410   4.245   0.812
 4657TIP3    H113851   8.341   4.291   0.864
 4657TIP3    H213852   8.424   4.308   0.740
 4658TIP3   OH213853   8.615   4.819   0.622
 4658TIP3    H113854   8.668   4.885   0.571
 4658TIP3    H213855   8.628   4.853   0.713
 4659TIP3   OH213856   8.784   3.543   0.861
 4659TIP3    H113857   8.749   3.625   0.898
 4659TIP3    H213858   8.870   3.575   0.828
 4660TIP3   OH213859   8.382   4.484   0.619
 4660TIP3    H113860   8.462   4.531   0.653
 4660TIP3    H213861   8.429   4.409   0.576
 4661TIP3   OH213862   8.346   3.733   0.747
 4661TIP3    H113863   8.339   3.830   0.739
 4661TIP3    H213864   8.270   3.702   0.697
 4662TIP3   OH213865   8.716   3.439   1.624
 4662TIP3    H113866   8.688   3.423   1.532
 4662TIP3    H213867   8.759   3.355   1.646
 4663TIP3   OH213868   8.277   4.675   1.009
 4663TIP3    H113869   8.189   4.701   1.041
 4663TIP3    H213870   8.268   4.704   0.916
 4664TIP3   OH213871   8.422   5.205   2.071
 4664TIP3    H113872   8.508   5.201   2.116
 4664TIP3    H213873   8.401   5.111   2.058
 4665TIP3   OH213874   8.911   5.180   2.109
 4665TIP3    H113875   9.003   5.154   2.123
 4665TIP3    H213876   8.885   5.120   2.036
 4666TIP3   OH213877   8.555   4.614   2.270
 4666TIP3    H113878   8.571   4.519   2.273
 4666TIP3    H213879   8.467   4.619   2.227
 4667TIP3   OH213880   8.500   4.261   0.533
 4667TIP3    H113881   8.568   4.242   0.599
 4667TIP3    H213882   8.550   4.232   0.454
 4668TIP3   OH213883   9.155   4.695   2.043
 4668TIP3    H113884   9.119   4.716   1.954
 4668TIP3    H213885   9.165   4.599   2.040
 4669TIP3   OH213886   8.675   4.327   2.256
 4669TIP3    H113887   8.762   4.292   2.232
 4669TIP3    H213888   8.698   4.376   2.338
 4670TIP3   OH213889   8.745   4.162   0.690
 4670TIP3    H113890   8.716   4.119   0.772
 4670TIP3    H213891   8.773   4.085   0.635
 4671TIP3   OH213892   8.988   4.226   1.926
 4671TIP3    H113893   8.911   4.287   1.932
 4671TIP3    H213894   9.033   4.266   1.847
 4672TIP3   OH213895   8.847   3.948   0.527
 4672TIP3    H113896   8.812   3.939   0.437
 4672TIP3    H213897   8.939   3.975   0.511
 4673TIP3   OH213898   9.096   4.019   2.063
 4673TIP3    H113899   9.126   3.940   2.013
 4673TIP3    H213900   9.051   4.072   1.996
 4674TIP3   OH213901   9.120   3.828   1.861
 4674TIP3    H113902   9.164   3.819   1.775
 4674TIP3    H213903   9.037   3.778   1.845
 4675TIP3   OH213904   9.113   4.354   1.734
 4675TIP3    H113905   9.152   4.312   1.657
 4675TIP3    H213906   9.064   4.428   1.692
 4676TIP3   OH213907   8.983   4.155   2.267
 4676TIP3    H113908   8.922   4.080   2.284
 4676TIP3    H213909   9.029   4.122   2.187
 4677TIP3   OH213910   8.846   3.926   2.323
 4677TIP3    H113911   8.864   3.845   2.275
 4677TIP3    H213912   8.880   3.905   2.413
 4678TIP3   OH213913   8.139   4.380   0.683
 4678TIP3    H113914   8.217   4.429   0.649
 4678TIP3    H213915   8.120   4.317   0.612
 4679TIP3   OH213916   8.023   5.041   1.065
 4679TIP3    H113917   7.965   4.970   1.029
 4679TIP3    H213918   8.074   4.989   1.130
 4680TIP3   OH213919   8.173   4.898   1.251
 4680TIP3    H113920   8.178   4.806   1.281
 4680TIP3    H213921   8.192   4.944   1.334
 4681TIP3   OH213922   8.366   4.282   1.619
 4681TIP3    H113923   8.364   4.254   1.525
 4681TIP3    H213924   8.464   4.283   1.634
 4682TIP3   OH213925   8.543   3.660   1.629
 4682TIP3    H113926   8.603   3.583   1.635
 4682TIP3    H213927   8.607   3.733   1.620
 4683TIP3   OH213928   8.353   3.934   1.701
 4683TIP3    H113929   8.398   3.920   1.615
 4683TIP3    H213930   8.382   4.023   1.723
 4684TIP3   OH213931   8.331   3.444   1.203
 4684TIP3    H113932   8.236   3.435   1.220
 4684TIP3    H213933   8.332   3.497   1.120
 4685TIP3   OH213934   8.518   3.473   1.997
 4685TIP3    H113935   8.485   3.504   2.084
 4685TIP3    H213936   8.472   3.536   1.938
 4686TIP3   OH213937   8.599   4.936   2.093
 4686TIP3    H113938   8.506   4.913   2.069
 4686TIP3    H213939   8.595   4.928   2.189
 4687TIP3   OH213940   8.771   4.972   1.638
 4687TIP3    H113941   8.714   5.042   1.601
 4687TIP3    H213942   8.854   4.992   1.589
 4688TIP3   OH213943   9.229   5.225   1.768
 4688TIP3    H113944   9.251   5.220   1.864
 4688TIP3    H213945   9.308   5.269   1.734
 4689TIP3   OH213946   8.458   5.246   1.650
 4689TIP3    H113947   8.366   5.260   1.624
 4689TIP3    H213948   8.448   5.230   1.745
 4690TIP3   OH213949   8.691   5.214   1.515
 4690TIP3    H113950   8.607   5.230   1.564
 4690TIP3    H213951   8.666   5.243   1.425
 4691TIP3   OH213952   9.097   5.243   1.308
 4691TIP3    H113953   9.026   5.260   1.243
 4691TIP3    H213954   9.107   5.331   1.350
 4692TIP3   OH213955   9.358   5.203   1.360
 4692TIP3    H113956   9.261   5.195   1.347
 4692TIP3    H213957   9.378   5.281   1.307
 4693TIP3   OH213958   8.551   4.890   1.245
 4693TIP3    H113959   8.560   4.815   1.307
 4693TIP3    H213960   8.637   4.935   1.254
 4694TIP3   OH213961   8.816   5.001   1.258
 4694TIP3    H113962   8.838   4.906   1.246
 4694TIP3    H213963   8.854   5.015   1.347
 4695TIP3   OH213964   8.637   3.371   1.367
 4695TIP3    H113965   8.543   3.343   1.363
 4695TIP3    H213966   8.678   3.281   1.372
 4696TIP3   OH213967   8.433   3.224   1.013
 4696TIP3    H113968   8.458   3.285   0.941
 4696TIP3    H213969   8.397   3.286   1.079
 4697TIP3   OH213970   8.157   4.797   0.804
 4697TIP3    H113971   8.074   4.761   0.766
 4697TIP3    H213972   8.143   4.891   0.781
 4698TIP3   OH213973   8.539   3.387   0.789
 4698TIP3    H113974   8.580   3.324   0.725
 4698TIP3    H213975   8.616   3.435   0.824
 4699TIP3   OH213976   8.809   3.621   2.246
 4699TIP3    H113977   8.792   3.546   2.307
 4699TIP3    H213978   8.903   3.639   2.270
 4700TIP3   OH213979   9.051   3.639   2.366
 4700TIP3    H113980   9.147   3.646   2.352
 4700TIP3    H213981   9.050   3.570   2.435
 4701TIP3   OH213982   8.243   4.829   0.503
 4701TIP3    H113983   8.252   4.871   0.590
 4701TIP3    H213984   8.334   4.804   0.481
 4702TIP3   OH213985  -0.014   4.897   3.515
 4702TIP3    H113986   0.013   4.854   3.598
 4702TIP3    H213987  -0.040   4.821   3.460
 4703TIP3   OH213988   0.231   5.202   3.199
 4703TIP3    H113989   0.217   5.124   3.254
 4703TIP3    H213990   0.258   5.269   3.263
 4704TIP3   OH213991  -0.124   5.662   3.214
 4704TIP3    H113992  -0.077   5.587   3.170
 4704TIP3    H213993  -0.135   5.628   3.304
 4705TIP3   OH213994  -0.223   5.079   3.554
 4705TIP3    H113995  -0.152   5.022   3.518
 4705TIP3    H213996  -0.169   5.153   3.586
 4706TIP3   OH213997   0.798   4.438   3.568
 4706TIP3    H113998   0.825   4.522   3.611
 4706TIP3    H213999   0.818   4.458   3.475
 4707TIP3   OH214000   0.180   4.618   3.606
 4707TIP3    H114001   0.234   4.539   3.621
 4707TIP3    H214002   0.204   4.640   3.514
 4708TIP3   OH214003  -0.431   4.282   3.575
 4708TIP3    H114004  -0.468   4.360   3.528
 4708TIP3    H214005  -0.467   4.211   3.518
 4709TIP3   OH214006   0.231   4.344   3.189
 4709TIP3    H114007   0.304   4.352   3.254
 4709TIP3    H214008   0.226   4.436   3.158
 4710TIP3   OH214009  -0.391   4.690   3.488
 4710TIP3    H114010  -0.297   4.663   3.485
 4710TIP3    H214011  -0.433   4.618   3.437
 4711TIP3   OH214012   0.869   4.646   3.737
 4711TIP3    H114013   0.787   4.697   3.719
 4711TIP3    H214014   0.887   4.672   3.828
 4712TIP3   OH214015  -0.097   5.144   2.986
 4712TIP3    H114016  -0.154   5.070   2.963
 4712TIP3    H214017  -0.161   5.209   3.020
 4713TIP3   OH214018   0.447   4.371   3.362
 4713TIP3    H114019   0.440   4.326   3.447
 4713TIP3    H214020   0.497   4.451   3.385
 4714TIP3   OH214021   0.305   5.440   3.376
 4714TIP3    H114022   0.215   5.430   3.415
 4714TIP3    H214023   0.295   5.524   3.328
 4715TIP3   OH214024   0.591   4.343   3.734
 4715TIP3    H114025   0.504   4.373   3.702
 4715TIP3    H214026   0.651   4.374   3.663
 4716TIP3   OH214027  -0.109   3.985   3.713
 4716TIP3    H114028  -0.114   3.889   3.731
 4716TIP3    H214029  -0.182   4.018   3.768
 4717TIP3   OH214030   0.007   5.485   3.047
 4717TIP3    H114031   0.057   5.403   3.027
 4717TIP3    H214032   0.067   5.551   3.005
 4718TIP3   OH214033   0.154   5.272   2.945
 4718TIP3    H114034   0.082   5.209   2.928
 4718TIP3    H214035   0.188   5.239   3.031
 4719TIP3   OH214036   0.529   5.355   3.714
 4719TIP3    H114037   0.518   5.277   3.656
 4719TIP3    H214038   0.513   5.429   3.652
 4720TIP3   OH214039  -0.216   4.713   2.951
 4720TIP3    H114040  -0.266   4.793   2.927
 4720TIP3    H214041  -0.131   4.725   2.908
 4721TIP3   OH214042  -0.224   4.529   2.692
 4721TIP3    H114043  -0.166   4.578   2.752
 4721TIP3    H214044  -0.159   4.474   2.644
 4722TIP3   OH214045   0.724   4.991   3.561
 4722TIP3    H114046   0.640   5.043   3.566
 4722TIP3    H214047   0.750   5.010   3.469
 4723TIP3   OH214048   0.402   4.871   3.852
 4723TIP3    H114049   0.398   4.956   3.900
 4723TIP3    H214050   0.317   4.875   3.804
 4724TIP3   OH214051  -0.463   4.795   3.727
 4724TIP3    H114052  -0.429   4.753   3.644
 4724TIP3    H214053  -0.406   4.873   3.732
 4725TIP3   OH214054   0.062   5.439   3.491
 4725TIP3    H114055   0.045   5.514   3.550
 4725TIP3    H214056   0.049   5.361   3.550
 4726TIP3   OH214057   0.012   4.688   2.780
 4726TIP3    H114058   0.073   4.737   2.837
 4726TIP3    H214059   0.041   4.715   2.689
 4727TIP3   OH214060  -0.262   5.378   3.055
 4727TIP3    H114061  -0.175   5.415   3.073
 4727TIP3    H214062  -0.303   5.448   3.002
 4728TIP3   OH214063   0.521   3.928   2.814
 4728TIP3    H114064   0.443   3.950   2.869
 4728TIP3    H214065   0.537   4.014   2.770
 4729TIP3   OH214066   0.320   5.298   2.364
 4729TIP3    H114067   0.329   5.395   2.352
 4729TIP3    H214068   0.413   5.269   2.352
 4730TIP3   OH214069   0.765   5.696   3.757
 4730TIP3    H114070   0.764   5.599   3.770
 4730TIP3    H214071   0.682   5.720   3.804
 4731TIP3   OH214072  -0.108   5.466   3.909
 4731TIP3    H114073  -0.104   5.562   3.931
 4731TIP3    H214074  -0.202   5.453   3.895
 4732TIP3   OH214075  -0.345   5.598   2.868
 4732TIP3    H114076  -0.373   5.575   2.777
 4732TIP3    H214077  -0.365   5.692   2.873
 4733TIP3   OH214078  -0.163   5.516   2.489
 4733TIP3    H114079  -0.106   5.447   2.449
 4733TIP3    H214080  -0.124   5.523   2.579
 4734TIP3   OH214081  -0.103   5.558   2.757
 4734TIP3    H114082  -0.187   5.561   2.807
 4734TIP3    H214083  -0.046   5.512   2.821
 4735TIP3   OH214084   0.655   4.831   4.034
 4735TIP3    H114085   0.578   4.844   3.976
 4735TIP3    H214086   0.672   4.735   4.023
 4736TIP3   OH214087  -0.356   4.063   3.849
 4736TIP3    H114088  -0.433   4.028   3.803
 4736TIP3    H214089  -0.359   4.157   3.826
 4737TIP3   OH214090   0.186   4.178   4.037
 4737TIP3    H114091   0.254   4.150   4.102
 4737TIP3    H214092   0.102   4.156   4.083
 4738TIP3   OH214093   0.425   4.604   3.955
 4738TIP3    H114094   0.377   4.601   4.041
 4738TIP3    H214095   0.403   4.693   3.921
 4739TIP3   OH214096   0.085   4.740   2.516
 4739TIP3    H114097   0.052   4.709   2.430
 4739TIP3    H214098   0.163   4.792   2.488
 4740TIP3   OH214099  -0.195   4.106   2.812
 4740TIP3    H114100  -0.228   4.118   2.903
 4740TIP3    H214101  -0.261   4.044   2.778
 4741TIP3   OH214102  -0.424   4.563   3.870
 4741TIP3    H114103  -0.476   4.592   3.946
 4741TIP3    H214104  -0.435   4.640   3.810
 4742TIP3   OH214105  -0.542   4.450   3.381
 4742TIP3    H114106  -0.638   4.454   3.364
 4742TIP3    H214107  -0.512   4.413   3.295
 4743TIP3   OH214108   0.133   4.832   4.195
 4743TIP3    H114109   0.111   4.756   4.255
 4743TIP3    H214110   0.229   4.840   4.212
 4744TIP3   OH214111  -0.480   4.092   2.804
 4744TIP3    H114112  -0.504   4.060   2.893
 4744TIP3    H214113  -0.567   4.109   2.765
 4745TIP3   OH214114   0.125   4.824   3.771
 4745TIP3    H114115   0.153   4.752   3.711
 4745TIP3    H214116   0.100   4.772   3.850
 4746TIP3   OH214117  -0.196   4.286   3.433
 4746TIP3    H114118  -0.278   4.289   3.488
 4746TIP3    H214119  -0.128   4.288   3.502
 4747TIP3   OH214120  -0.491   4.343   3.135
 4747TIP3    H114121  -0.397   4.357   3.114
 4747TIP3    H214122  -0.537   4.368   3.053
 4748TIP3   OH214123   0.289   4.361   3.644
 4748TIP3    H114124   0.246   4.372   3.731
 4748TIP3    H214125   0.227   4.301   3.599
 4749TIP3   OH214126  -0.676   4.405   2.911
 4749TIP3    H114127  -0.711   4.324   2.869
 4749TIP3    H214128  -0.605   4.427   2.847
 4750TIP3   OH214129   0.452   6.050   3.857
 4750TIP3    H114130   0.451   6.071   3.762
 4750TIP3    H214131   0.530   6.099   3.887
 4751TIP3   OH214132  -0.127   4.605   3.536
 4751TIP3    H114133  -0.060   4.572   3.475
 4751TIP3    H214134  -0.094   4.570   3.621
 4752TIP3   OH214135  -0.558   4.101   3.418
 4752TIP3    H114136  -0.627   4.032   3.431
 4752TIP3    H214137  -0.527   4.079   3.330
 4753TIP3   OH214138  -0.145   4.498   3.839
 4753TIP3    H114139  -0.231   4.542   3.838
 4753TIP3    H214140  -0.084   4.564   3.878
 4754TIP3   OH214141  -0.410   4.906   2.906
 4754TIP3    H114142  -0.479   4.837   2.905
 4754TIP3    H214143  -0.417   4.937   2.999
 4755TIP3   OH214144   0.493   5.137   3.553
 4755TIP3    H114145   0.515   5.184   3.470
 4755TIP3    H214146   0.407   5.095   3.530
 4756TIP3   OH214147   0.052   4.208   2.765
 4756TIP3    H114148  -0.044   4.201   2.783
 4756TIP3    H214149   0.074   4.302   2.790
 4757TIP3   OH214150  -0.014   5.208   3.923
 4757TIP3    H114151   0.014   5.199   4.015
 4757TIP3    H214152  -0.044   5.301   3.920
 4758TIP3   OH214153   0.134   4.446   2.856
 4758TIP3    H114154   0.215   4.466   2.907
 4758TIP3    H214155   0.093   4.534   2.847
 4759TIP3   OH214156  -0.262   5.044   2.726
 4759TIP3    H114157  -0.296   5.133   2.747
 4759TIP3    H214158  -0.314   4.990   2.791
 4760TIP3   OH214159  -0.103   4.963   4.234
 4760TIP3    H114160  -0.158   4.891   4.197
 4760TIP3    H214161  -0.014   4.933   4.207
 4761TIP3   OH214162   0.157   5.482   3.812
 4761TIP3    H114163   0.061   5.471   3.826
 4761TIP3    H214164   0.181   5.533   3.892
 4762TIP3   OH214165   0.567   4.545   2.719
 4762TIP3    H114166   0.501   4.501   2.661
 4762TIP3    H214167   0.561   4.634   2.680
 4763TIP3   OH214168   0.780   5.406   3.803
 4763TIP3    H114169   0.682   5.401   3.795
 4763TIP3    H214170   0.805   5.375   3.713
 4764TIP3   OH214171   0.262   5.368   2.630
 4764TIP3    H114172   0.235   5.300   2.693
 4764TIP3    H214173   0.271   5.319   2.547
 4765TIP3   OH214174   0.254   5.007   3.482
 4765TIP3    H114175   0.160   4.978   3.485
 4765TIP3    H214176   0.294   4.924   3.447
 4766TIP3   OH214177  -0.438   4.995   3.156
 4766TIP3    H114178  -0.459   5.086   3.177
 4766TIP3    H214179  -0.460   4.949   3.238
 4767TIP3   OH214180   0.050   5.208   3.650
 4767TIP3    H114181   0.038   5.197   3.747
 4767TIP3    H214182   0.123   5.147   3.631
 4768TIP3   OH214183   0.012   5.096   2.530
 4768TIP3    H114184   0.065   5.068   2.608
 4768TIP3    H214185  -0.076   5.069   2.560
 4769TIP3   OH214186   0.292   5.741   3.703
 4769TIP3    H114187   0.214   5.682   3.696
 4769TIP3    H214188   0.274   5.804   3.630
 4770TIP3   OH214189   0.357   5.573   2.353
 4770TIP3    H114190   0.395   5.646   2.302
 4770TIP3    H214191   0.276   5.618   2.385
 4771TIP3   OH214192   0.174   5.023   2.741
 4771TIP3    H114193   0.160   4.986   2.828
 4771TIP3    H214194   0.272   5.026   2.736
 4772TIP3   OH214195  -0.562   5.052   2.559
 4772TIP3    H114196  -0.540   4.966   2.516
 4772TIP3    H214197  -0.584   5.024   2.648
 4773TIP3   OH214198   0.204   4.418   3.903
 4773TIP3    H114199   0.290   4.451   3.933
 4773TIP3    H214200   0.194   4.334   3.954
 4774TIP3   OH214201   0.086   4.162   3.054
 4774TIP3    H114202   0.079   4.197   2.964
 4774TIP3    H214203   0.136   4.236   3.098
 4775TIP3   OH214204  -0.393   5.277   2.765
 4775TIP3    H114205  -0.488   5.285   2.781
 4775TIP3    H214206  -0.382   5.326   2.681
 4776TIP3   OH214207  -0.212   4.344   3.160
 4776TIP3    H114208  -0.144   4.410   3.139
 4776TIP3    H214209  -0.204   4.339   3.258
 4777TIP3   OH214210   0.046   4.666   3.977
 4777TIP3    H114211   0.068   4.715   4.059
 4777TIP3    H214212   0.102   4.587   3.985
 4778TIP3   OH214213  -0.068   4.077   3.272
 4778TIP3    H114214  -0.075   4.154   3.332
 4778TIP3    H214215  -0.009   4.114   3.202
 4779TIP3   OH214216  -0.535   4.045   3.065
 4779TIP3    H114217  -0.571   4.127   3.104
 4779TIP3    H214218  -0.438   4.059   3.076
 4780TIP3   OH214219   0.693   4.564   3.955
 4780TIP3    H114220   0.595   4.560   3.959
 4780TIP3    H214221   0.708   4.527   3.866
 4781TIP3   OH214222   0.337   4.766   3.393
 4781TIP3    H114223   0.282   4.734   3.318
 4781TIP3    H214224   0.413   4.704   3.389
 4782TIP3   OH214225   0.310   5.712   3.294
 4782TIP3    H114226   0.268   5.759   3.219
 4782TIP3    H214227   0.404   5.729   3.273
 4783TIP3   OH214228  -0.420   5.272   2.465
 4783TIP3    H114229  -0.472   5.194   2.494
 4783TIP3    H214230  -0.363   5.232   2.398
 4784TIP3   OH214231   0.207   5.612   4.050
 4784TIP3    H114232   0.199   5.540   4.116
 4784TIP3    H214233   0.286   5.661   4.081
 4785TIP3   OH214234  -0.016   5.325   2.356
 4785TIP3    H114235   0.028   5.260   2.414
 4785TIP3    H214236   0.042   5.326   2.278
 4786TIP3   OH214237  -0.166   5.238   4.235
 4786TIP3    H114238  -0.224   5.217   4.162
 4786TIP3    H214239  -0.132   5.149   4.256
 4787TIP3   OH214240  -0.292   4.989   2.462
 4787TIP3    H114241  -0.292   5.007   2.559
 4787TIP3    H214242  -0.294   4.890   2.462
 4788TIP3   OH214243   0.314   5.237   3.854
 4788TIP3    H114244   0.387   5.281   3.807
 4788TIP3    H214245   0.242   5.299   3.836
 4789TIP3   OH214246  -0.600   4.702   2.892
 4789TIP3    H114247  -0.612   4.644   2.968
 4789TIP3    H214248  -0.561   4.638   2.828
 4790TIP3   OH214249  -0.260   4.771   4.112
 4790TIP3    H114250  -0.343   4.822   4.115
 4790TIP3    H214251  -0.229   4.793   4.021
 4791TIP3   OH214252  -0.494   4.494   2.741
 4791TIP3    H114253  -0.522   4.494   2.647
 4791TIP3    H214254  -0.396   4.502   2.730
 4792TIP3   OH214255   0.183   5.164   4.253
 4792TIP3    H114256   0.262   5.147   4.199
 4792TIP3    H214257   0.187   5.093   4.319
 4793TIP3   OH214258   0.324   4.829   2.385
 4793TIP3    H114259   0.300   4.780   2.305
 4793TIP3    H214260   0.291   4.918   2.361
 4794TIP3   OH214261  -0.198   4.537   4.255
 4794TIP3    H114262  -0.211   4.461   4.195
 4794TIP3    H214263  -0.231   4.613   4.203
 4795TIP3   OH214264  -0.216   4.330   4.045
 4795TIP3    H114265  -0.177   4.379   3.968
 4795TIP3    H214266  -0.310   4.334   4.026
 4796TIP3   OH214267  -0.184   4.894   3.875
 4796TIP3    H114268  -0.093   4.873   3.848
 4796TIP3    H214269  -0.185   4.989   3.858
 4797TIP3   OH214270   0.407   4.845   4.308
 4797TIP3    H114271   0.452   4.760   4.313
 4797TIP3    H214272   0.476   4.901   4.269
 4798TIP3   OH214273   0.444   5.097   4.044
 4798TIP3    H114274   0.387   5.149   3.982
 4798TIP3    H214275   0.532   5.114   4.002
 4799TIP3   OH214276  -0.074   4.103   4.112
 4799TIP3    H114277  -0.124   4.185   4.092
 4799TIP3    H214278  -0.144   4.035   4.107
 4800TIP3   OH214279   0.051   4.613   4.334
 4800TIP3    H114280   0.042   4.602   4.430
 4800TIP3    H214281  -0.038   4.583   4.306
 4801TIP3   OH214282   0.292   4.563   4.188
 4801TIP3    H114283   0.215   4.558   4.249
 4801TIP3    H214284   0.364   4.528   4.244
 4802TIP3   OH214285   0.518   4.497   4.339
 4802TIP3    H114286   0.531   4.401   4.359
 4802TIP3    H214287   0.517   4.537   4.429
 4803TIP3   OH214288   0.023   4.116   4.369
 4803TIP3    H114289   0.090   4.044   4.367
 4803TIP3    H214290  -0.018   4.105   4.281
 4804TIP3   OH214291   0.084   4.329   4.531
 4804TIP3    H114292   0.062   4.258   4.467
 4804TIP3    H214293   0.009   4.391   4.520
 4805TIP3   OH214294   0.560   5.806   3.246
 4805TIP3    H114295   0.589   5.838   3.333
 4805TIP3    H214296   0.621   5.851   3.186
 4806TIP3   OH214297   0.594   5.824   3.528
 4806TIP3    H114298   0.549   5.737   3.523
 4806TIP3    H214299   0.668   5.801   3.586
 4807TIP3   OH214300   0.639   5.502   4.101
 4807TIP3    H114301   0.564   5.509   4.164
 4807TIP3    H214302   0.679   5.591   4.107
 4808TIP3   OH214303   0.454   5.016   2.725
 4808TIP3    H114304   0.526   5.077   2.699
 4808TIP3    H214305   0.495   4.974   2.805
 4809TIP3   OH214306   0.585   4.887   2.926
 4809TIP3    H114307   0.527   4.831   2.983
 4809TIP3    H214308   0.645   4.927   2.993
 4810TIP3   OH214309   0.635   5.272   3.361
 4810TIP3    H114310   0.687   5.208   3.309
 4810TIP3    H214311   0.620   5.344   3.297
 4811TIP3   OH214312   0.470   5.575   3.555
 4811TIP3    H114313   0.397   5.613   3.607
 4811TIP3    H214314   0.421   5.525   3.486
 4812TIP3   OH214315   0.522   4.791   2.573
 4812TIP3    H114316   0.450   4.793   2.506
 4812TIP3    H214317   0.493   4.865   2.631
 4813TIP3   OH214318   0.398   4.460   2.524
 4813TIP3    H114319   0.348   4.504   2.455
 4813TIP3    H214320   0.365   4.367   2.515
 4814TIP3   OH214321   0.433   4.726   3.078
 4814TIP3    H114322   0.407   4.634   3.060
 4814TIP3    H214323   0.351   4.754   3.122
 4815TIP3   OH214324   0.685   5.162   3.931
 4815TIP3    H114325   0.758   5.096   3.923
 4815TIP3    H214326   0.712   5.230   3.867
 4816TIP3   OH214327   0.872   4.972   3.956
 4816TIP3    H114328   0.798   4.919   3.992
 4816TIP3    H214329   0.945   4.907   3.968
 4817TIP3   OH214330   0.338   4.193   2.511
 4817TIP3    H114331   0.413   4.170   2.569
 4817TIP3    H214332   0.264   4.141   2.547
 4818TIP3   OH214333   0.396   4.460   2.965
 4818TIP3    H114334   0.426   4.370   2.989
 4818TIP3    H214335   0.461   4.485   2.898
 4819TIP3   OH214336   0.564   4.617   3.466
 4819TIP3    H114337   0.646   4.650   3.424
 4819TIP3    H214338   0.571   4.662   3.552
 4820TIP3   OH214339   0.622   4.772   3.700
 4820TIP3    H114340   0.542   4.807   3.743
 4820TIP3    H214341   0.654   4.851   3.652
 4821TIP3   OH214342   1.073   4.359   4.254
 4821TIP3    H114343   1.133   4.295   4.210
 4821TIP3    H214344   1.048   4.418   4.179
 4822TIP3   OH214345   0.509   4.198   3.001
 4822TIP3    H114346   0.551   4.190   3.089
 4822TIP3    H214347   0.441   4.129   3.006
 4823TIP3   OH214348   0.948   4.506   4.062
 4823TIP3    H114349   0.858   4.541   4.078
 4823TIP3    H214350   0.928   4.435   3.999
 4824TIP3   OH214351   0.585   4.142   2.636
 4824TIP3    H114352   0.631   4.068   2.592
 4824TIP3    H214353   0.652   4.213   2.633
 4825TIP3   OH214354   0.147   5.670   2.907
 4825TIP3    H114355   0.195   5.652   2.824
 4825TIP3    H214356   0.204   5.736   2.948
 4826TIP3   OH214357  -0.094   5.727   3.985
 4826TIP3    H114358  -0.080   5.764   4.073
 4826TIP3    H214359  -0.050   5.794   3.929
 4827TIP3   OH214360   0.049   5.908   3.833
 4827TIP3    H114361   0.114   5.850   3.790
 4827TIP3    H214362   0.106   5.958   3.895
 4828TIP3   OH214363   0.842   4.266   3.939
 4828TIP3    H114364   0.752   4.263   3.902
 4828TIP3    H214365   0.872   4.173   3.924
 4829TIP3   OH214366  -0.224   5.790   3.488
 4829TIP3    H114367  -0.317   5.805   3.464
 4829TIP3    H214368  -0.204   5.871   3.538
 4830TIP3   OH214369   0.034   5.719   3.572
 4830TIP3    H114370  -0.057   5.728   3.537
 4830TIP3    H214371   0.080   5.791   3.526
 4831TIP3   OH214372   0.245   5.905   3.487
 4831TIP3    H114373   0.231   5.990   3.439
 4831TIP3    H214374   0.269   5.844   3.414
 4832TIP3   OH214375   0.047   4.181   3.553
 4832TIP3    H114376   0.007   4.109   3.605
 4832TIP3    H214377   0.122   4.136   3.509
 4833TIP3   OH214378   0.575   4.056   3.459
 4833TIP3    H114379   0.614   4.112   3.388
 4833TIP3    H214380   0.481   4.081   3.455
 4834TIP3   OH214381   0.671   4.164   3.225
 4834TIP3    H114382   0.744   4.115   3.183
 4834TIP3    H214383   0.701   4.257   3.211
 4835TIP3   OH214384  -0.253   3.921   3.449
 4835TIP3    H114385  -0.198   3.978   3.393
 4835TIP3    H214386  -0.233   3.956   3.537
 4836TIP3   OH214387   0.290   4.068   3.442
 4836TIP3    H114388   0.285   4.043   3.349
 4836TIP3    H214389   0.274   3.983   3.488
 4837TIP3   OH214390   0.318   3.987   2.995
 4837TIP3    H114391   0.233   4.035   3.007
 4837TIP3    H214392   0.301   3.905   3.046
 4838TIP3   OH214393  -0.268   4.089   3.086
 4838TIP3    H114394  -0.204   4.056   3.151
 4838TIP3    H214395  -0.253   4.185   3.101
 4839TIP3   OH214396  -0.413   5.526   2.609
 4839TIP3    H114397  -0.326   5.530   2.564
 4839TIP3    H214398  -0.465   5.485   2.537
 4840TIP3   OH214399   0.291   5.635   2.674
 4840TIP3    H114400   0.284   5.538   2.660
 4840TIP3    H214401   0.247   5.668   2.592
 4841TIP3   OH214402  -0.248   4.148   4.569
 4841TIP3    H114403  -0.161   4.131   4.531
 4841TIP3    H214404  -0.244   4.095   4.650
 4842TIP3   OH214405   0.579   4.227   4.370
 4842TIP3    H114406   0.599   4.195   4.460
 4842TIP3    H214407   0.667   4.222   4.327
 4843TIP3   OH214408   0.521   5.782   3.863
 4843TIP3    H114409   0.442   5.747   3.816
 4843TIP3    H214410   0.499   5.878   3.862
 4844TIP3   OH214411   1.781   5.149   2.630
 4844TIP3    H114412   1.758   5.243   2.616
 4844TIP3    H214413   1.705   5.107   2.587
 4845TIP3   OH214414   1.776   5.149   3.009
 4845TIP3    H114415   1.813   5.126   3.096
 4845TIP3    H214416   1.745   5.063   2.977
 4846TIP3   OH214417   1.088   5.049   3.369
 4846TIP3    H114418   1.115   4.980   3.433
 4846TIP3    H214419   1.160   5.113   3.381
 4847TIP3   OH214420   2.023   5.451   2.690
 4847TIP3    H114421   2.017   5.382   2.757
 4847TIP3    H214422   2.053   5.528   2.741
 4848TIP3   OH214423   1.052   5.459   3.103
 4848TIP3    H114424   1.043   5.361   3.107
 4848TIP3    H214425   1.149   5.467   3.098
 4849TIP3   OH214426   0.768   4.670   2.888
 4849TIP3    H114427   0.711   4.749   2.901
 4849TIP3    H214428   0.699   4.605   2.866
 4850TIP3   OH214429   0.826   4.955   3.055
 4850TIP3    H114430   0.867   4.875   3.095
 4850TIP3    H214431   0.872   4.961   2.971
 4851TIP3   OH214432   1.672   5.915   2.705
 4851TIP3    H114433   1.721   5.845   2.657
 4851TIP3    H214434   1.671   5.881   2.795
 4852TIP3   OH214435   1.586   5.375   3.053
 4852TIP3    H114436   1.628   5.299   3.010
 4852TIP3    H214437   1.667   5.423   3.079
 4853TIP3   OH214438   2.593   4.699   3.054
 4853TIP3    H114439   2.622   4.781   3.099
 4853TIP3    H214440   2.614   4.721   2.961
 4854TIP3   OH214441   1.997   4.882   3.092
 4854TIP3    H114442   2.038   4.797   3.113
 4854TIP3    H214443   1.967   4.866   3.001
 4855TIP3   OH214444   1.349   4.541   3.033
 4855TIP3    H114445   1.285   4.610   3.015
 4855TIP3    H214446   1.293   4.461   3.026
 4856TIP3   OH214447   2.026   4.631   2.679
 4856TIP3    H114448   2.098   4.613   2.744
 4856TIP3    H214449   2.078   4.665   2.605
 4857TIP3   OH214450   0.963   4.746   3.159
 4857TIP3    H114451   1.047   4.725   3.205
 4857TIP3    H214452   0.969   4.682   3.085
 4858TIP3   OH214453   2.667   4.904   3.225
 4858TIP3    H114454   2.585   4.954   3.206
 4858TIP3    H214455   2.682   4.929   3.318
 4859TIP3   OH214456   1.675   5.370   2.500
 4859TIP3    H114457   1.638   5.353   2.412
 4859TIP3    H214458   1.637   5.457   2.521
 4860TIP3   OH214459   1.432   5.295   3.290
 4860TIP3    H114460   1.368   5.359   3.329
 4860TIP3    H214461   1.475   5.350   3.222
 4861TIP3   OH214462   2.240   4.629   2.847
 4861TIP3    H114463   2.233   4.578   2.929
 4861TIP3    H214464   2.295   4.704   2.873
 4862TIP3   OH214465   1.197   4.647   3.259
 4862TIP3    H114466   1.266   4.704   3.299
 4862TIP3    H214467   1.249   4.566   3.245
 4863TIP3   OH214468   1.260   5.487   3.383
 4863TIP3    H114469   1.235   5.573   3.343
 4863TIP3    H214470   1.182   5.473   3.440
 4864TIP3   OH214471   0.664   5.179   2.618
 4864TIP3    H114472   0.617   5.204   2.537
 4864TIP3    H214473   0.690   5.265   2.656
 4865TIP3   OH214474   2.099   5.695   2.861
 4865TIP3    H114475   2.008   5.687   2.898
 4865TIP3    H214476   2.091   5.780   2.813
 4866TIP3   OH214477   2.387   4.599   3.221
 4866TIP3    H114478   2.300   4.631   3.193
 4866TIP3    H214479   2.445   4.630   3.149
 4867TIP3   OH214480   1.693   4.244   3.205
 4867TIP3    H114481   1.676   4.148   3.218
 4867TIP3    H214482   1.614   4.282   3.246
 4868TIP3   OH214483   1.804   5.745   2.536
 4868TIP3    H114484   1.852   5.662   2.512
 4868TIP3    H214485   1.864   5.810   2.493
 4869TIP3   OH214486   1.941   5.529   2.438
 4869TIP3    H114487   1.912   5.449   2.391
 4869TIP3    H214488   1.975   5.491   2.522
 4870TIP3   OH214489   2.324   5.613   3.202
 4870TIP3    H114490   2.315   5.534   3.144
 4870TIP3    H214491   2.310   5.686   3.138
 4871TIP3   OH214492   1.609   5.002   2.458
 4871TIP3    H114493   1.534   5.058   2.429
 4871TIP3    H214494   1.661   4.997   2.375
 4872TIP3   OH214495   1.575   4.785   2.183
 4872TIP3    H114496   1.647   4.837   2.223
 4872TIP3    H214497   1.628   4.719   2.134
 4873TIP3   OH214498   2.520   5.244   3.045
 4873TIP3    H114499   2.438   5.298   3.052
 4873TIP3    H214500   2.549   5.269   2.955
 4874TIP3   OH214501   1.962   5.085   2.434
 4874TIP3    H114502   1.910   5.112   2.513
 4874TIP3    H214503   2.047   5.058   2.476
 4875TIP3   OH214504   2.199   5.128   3.338
 4875TIP3    H114505   2.196   5.211   3.391
 4875TIP3    H214506   2.112   5.133   3.293
 4876TIP3   OH214507   1.203   5.072   2.848
 4876TIP3    H114508   1.147   5.033   2.777
 4876TIP3    H214509   1.227   4.993   2.898
 4877TIP3   OH214510   1.326   5.496   2.996
 4877TIP3    H114511   1.305   5.450   2.914
 4877TIP3    H214512   1.417   5.465   3.015
 4878TIP3   OH214513   1.342   5.056   3.191
 4878TIP3    H114514   1.399   5.061   3.113
 4878TIP3    H214515   1.367   5.140   3.236
 4879TIP3   OH214516   1.855   5.694   2.978
 4879TIP3    H114517   1.844   5.772   3.034
 4879TIP3    H214518   1.844   5.620   3.041
 4880TIP3   OH214519   1.468   5.615   3.523
 4880TIP3    H114520   1.410   5.676   3.572
 4880TIP3    H214521   1.401   5.560   3.477
 4881TIP3   OH214522   1.801   4.947   2.258
 4881TIP3    H114523   1.862   5.004   2.310
 4881TIP3    H214524   1.828   4.971   2.166
 4882TIP3   OH214525   1.220   5.176   3.617
 4882TIP3    H114526   1.225   5.258   3.670
 4882TIP3    H214527   1.126   5.152   3.631
 4883TIP3   OH214528   1.543   5.628   2.535
 4883TIP3    H114529   1.621   5.682   2.556
 4883TIP3    H214530   1.483   5.692   2.493
 4884TIP3   OH214531   1.263   5.785   3.612
 4884TIP3    H114532   1.229   5.779   3.520
 4884TIP3    H214533   1.185   5.762   3.665
 4885TIP3   OH214534   2.325   4.188   2.306
 4885TIP3    H114535   2.237   4.194   2.349
 4885TIP3    H214536   2.328   4.272   2.256
 4886TIP3   OH214537   1.062   4.926   2.658
 4886TIP3    H114538   1.001   4.973   2.597
 4886TIP3    H214539   1.016   4.842   2.668
 4887TIP3   OH214540   2.117   5.556   1.850
 4887TIP3    H114541   2.128   5.653   1.841
 4887TIP3    H214542   2.210   5.526   1.841
 4888TIP3   OH214543   0.844   5.311   3.558
 4888TIP3    H114544   0.779   5.288   3.489
 4888TIP3    H214545   0.879   5.224   3.586
 4889TIP3   OH214546   0.696   5.506   3.190
 4889TIP3    H114547   0.792   5.497   3.183
 4889TIP3    H214548   0.687   5.584   3.246
 4890TIP3   OH214549   2.561   5.952   3.244
 4890TIP3    H114550   2.561   5.856   3.258
 4890TIP3    H214551   2.479   5.977   3.291
 4891TIP3   OH214552   1.668   5.744   3.380
 4891TIP3    H114553   1.668   5.835   3.414
 4891TIP3    H214554   1.597   5.703   3.436
 4892TIP3   OH214555   1.423   5.870   2.334
 4892TIP3    H114556   1.382   5.852   2.248
 4892TIP3    H214557   1.395   5.961   2.353
 4893TIP3   OH214558   0.865   5.722   2.715
 4893TIP3    H114559   0.913   5.711   2.800
 4893TIP3    H214560   0.803   5.648   2.721
 4894TIP3   OH214561   1.629   5.770   1.975
 4894TIP3    H114562   1.689   5.702   1.938
 4894TIP3    H214563   1.664   5.780   2.066
 4895TIP3   OH214564   1.677   5.819   2.247
 4895TIP3    H114565   1.589   5.827   2.291
 4895TIP3    H214566   1.730   5.777   2.317
 4896TIP3   OH214567   2.454   5.088   3.520
 4896TIP3    H114568   2.372   5.101   3.469
 4896TIP3    H214569   2.467   4.991   3.512
 4897TIP3   OH214570   1.047   5.496   3.552
 4897TIP3    H114571   1.099   5.476   3.633
 4897TIP3    H214572   0.975   5.430   3.557
 4898TIP3   OH214573   1.978   4.433   3.524
 4898TIP3    H114574   2.045   4.409   3.592
 4898TIP3    H214575   1.893   4.415   3.569
 4899TIP3   OH214576   2.223   4.863   3.444
 4899TIP3    H114577   2.175   4.857   3.529
 4899TIP3    H214578   2.197   4.950   3.410
 4900TIP3   OH214579   1.880   4.995   2.003
 4900TIP3    H114580   1.847   4.966   1.916
 4900TIP3    H214581   1.959   5.046   1.976
 4901TIP3   OH214582   1.593   4.374   2.299
 4901TIP3    H114583   1.555   4.356   2.387
 4901TIP3    H214584   1.597   4.284   2.260
 4902TIP3   OH214585   1.383   4.835   3.354
 4902TIP3    H114586   1.326   4.851   3.433
 4902TIP3    H214587   1.361   4.912   3.298
 4903TIP3   OH214588   1.264   4.747   2.837
 4903TIP3    H114589   1.181   4.730   2.884
 4903TIP3    H214590   1.256   4.673   2.771
 4904TIP3   OH214591   1.755   4.807   2.588
 4904TIP3    H114592   1.708   4.880   2.542
 4904TIP3    H214593   1.814   4.774   2.517
 4905TIP3   OH214594   1.927   5.087   3.679
 4905TIP3    H114595   1.906   5.014   3.741
 4905TIP3    H214596   2.021   5.102   3.701
 4906TIP3   OH214597   1.915   4.835   2.832
 4906TIP3    H114598   1.859   4.868   2.758
 4906TIP3    H214599   1.947   4.752   2.790
 4907TIP3   OH214600   1.198   4.863   3.559
 4907TIP3    H114601   1.223   4.920   3.632
 4907TIP3    H214602   1.188   4.777   3.605
 4908TIP3   OH214603   1.249   4.360   2.265
 4908TIP3    H114604   1.245   4.336   2.359
 4908TIP3    H214605   1.161   4.396   2.249
 4909TIP3   OH214606   0.798   4.388   3.137
 4909TIP3    H114607   0.874   4.411   3.194
 4909TIP3    H214608   0.839   4.345   3.061
 4910TIP3   OH214609   0.771   4.367   2.658
 4910TIP3    H114610   0.816   4.407   2.581
 4910TIP3    H214611   0.708   4.438   2.680
 4911TIP3   OH214612   1.919   5.084   3.253
 4911TIP3    H114613   1.953   5.009   3.197
 4911TIP3    H214614   1.893   5.034   3.333
 4912TIP3   OH214615   1.593   4.551   2.922
 4912TIP3    H114616   1.506   4.543   2.969
 4912TIP3    H214617   1.654   4.545   2.997
 4913TIP3   OH214618   1.039   4.604   2.925
 4913TIP3    H114619   0.942   4.609   2.904
 4913TIP3    H214620   1.059   4.509   2.913
 4914TIP3   OH214621   1.309   4.634   2.604
 4914TIP3    H114622   1.391   4.590   2.575
 4914TIP3    H214623   1.249   4.620   2.526
 4915TIP3   OH214624   2.081   4.617   3.125
 4915TIP3    H114625   2.047   4.629   3.216
 4915TIP3    H214626   2.017   4.554   3.089
 4916TIP3   OH214627   1.132   4.626   2.402
 4916TIP3    H114628   1.056   4.583   2.357
 4916TIP3    H214629   1.182   4.658   2.324
 4917TIP3   OH214630   2.247   6.308   3.344
 4917TIP3    H114631   2.249   6.326   3.248
 4917TIP3    H214632   2.328   6.354   3.375
 4918TIP3   OH214633   1.209   5.418   3.769
 4918TIP3    H114634   1.290   5.446   3.818
 4918TIP3    H214635   1.145   5.415   3.843
 4919TIP3   OH214636   1.681   4.872   3.016
 4919TIP3    H114637   1.755   4.825   2.974
 4919TIP3    H214638   1.680   4.833   3.106
 4920TIP3   OH214639   1.194   4.360   2.888
 4920TIP3    H114640   1.155   4.287   2.942
 4920TIP3    H214641   1.258   4.310   2.836
 4921TIP3   OH214642   1.652   4.765   3.311
 4921TIP3    H114643   1.562   4.799   3.327
 4921TIP3    H214644   1.709   4.824   3.365
 4922TIP3   OH214645   1.386   5.162   2.406
 4922TIP3    H114646   1.316   5.093   2.397
 4922TIP3    H214647   1.369   5.195   2.498
 4923TIP3   OH214648   2.290   5.394   3.040
 4923TIP3    H114649   2.314   5.442   2.957
 4923TIP3    H214650   2.205   5.353   3.016
 4924TIP3   OH214651   1.845   4.474   2.266
 4924TIP3    H114652   1.748   4.454   2.271
 4924TIP3    H214653   1.851   4.568   2.290
 4925TIP3   OH214654   1.787   5.475   3.405
 4925TIP3    H114655   1.807   5.448   3.495
 4925TIP3    H214656   1.749   5.563   3.416
 4926TIP3   OH214657   1.915   4.719   2.376
 4926TIP3    H114658   2.012   4.720   2.388
 4926TIP3    H214659   1.901   4.795   2.317
 4927TIP3   OH214660   1.080   5.184   3.089
 4927TIP3    H114661   1.118   5.151   3.006
 4927TIP3    H214662   1.106   5.115   3.153
 4928TIP3   OH214663   1.534   5.309   2.227
 4928TIP3    H114664   1.487   5.395   2.234
 4928TIP3    H214665   1.479   5.253   2.287
 4929TIP3   OH214666   0.958   5.102   3.697
 4929TIP3    H114667   0.980   5.085   3.791
 4929TIP3    H214668   0.890   5.034   3.680
 4930TIP3   OH214669   1.683   5.212   3.716
 4930TIP3    H114670   1.625   5.151   3.668
 4930TIP3    H214671   1.771   5.179   3.689
 4931TIP3   OH214672   1.948   5.737   3.298
 4931TIP3    H114673   1.852   5.733   3.311
 4931TIP3    H214674   1.976   5.786   3.378
 4932TIP3   OH214675   2.360   4.803   2.209
 4932TIP3    H114676   2.297   4.758   2.148
 4932TIP3    H214677   2.356   4.892   2.167
 4933TIP3   OH214678   2.575   5.662   3.291
 4933TIP3    H114679   2.477   5.658   3.283
 4933TIP3    H214680   2.600   5.632   3.201
 4934TIP3   OH214681   2.048   5.622   2.113
 4934TIP3    H114682   2.037   5.550   2.176
 4934TIP3    H214683   2.070   5.576   2.029
 4935TIP3   OH214684   2.054   5.255   2.960
 4935TIP3    H114685   1.961   5.228   2.972
 4935TIP3    H214686   2.089   5.176   2.914
 4936TIP3   OH214687   1.179   5.478   2.706
 4936TIP3    H114688   1.183   5.561   2.654
 4936TIP3    H214689   1.084   5.467   2.715
 4937TIP3   OH214690   0.742   4.787   2.409
 4937TIP3    H114691   0.787   4.871   2.430
 4937TIP3    H214692   0.665   4.792   2.470
 4938TIP3   OH214693   1.326   5.246   2.656
 4938TIP3    H114694   1.294   5.338   2.669
 4938TIP3    H214695   1.285   5.200   2.731
 4939TIP3   OH214696   1.447   5.827   3.180
 4939TIP3    H114697   1.489   5.898   3.127
 4939TIP3    H214698   1.524   5.793   3.229
 4940TIP3   OH214699   1.102   5.720   2.564
 4940TIP3    H114700   1.015   5.728   2.607
 4940TIP3    H214701   1.132   5.813   2.564
 4941TIP3   OH214702   1.841   5.460   3.136
 4941TIP3    H114703   1.832   5.458   3.234
 4941TIP3    H214704   1.922   5.410   3.122
 4942TIP3   OH214705   1.809   5.348   2.019
 4942TIP3    H114706   1.862   5.326   2.099
 4942TIP3    H214707   1.720   5.326   2.049
 4943TIP3   OH214708   2.085   5.999   3.190
 4943TIP3    H114709   2.009   5.939   3.181
 4943TIP3    H214710   2.070   6.061   3.115
 4944TIP3   OH214711   2.151   5.832   1.841
 4944TIP3    H114712   2.175   5.890   1.768
 4944TIP3    H214713   2.073   5.880   1.875
 4945TIP3   OH214714   1.170   4.631   3.723
 4945TIP3    H114715   1.075   4.610   3.717
 4945TIP3    H214716   1.207   4.547   3.755
 4946TIP3   OH214717   1.970   5.290   2.240
 4946TIP3    H114718   1.961   5.220   2.309
 4946TIP3    H214719   2.066   5.286   2.224
 4947TIP3   OH214720   0.888   5.692   3.340
 4947TIP3    H114721   0.936   5.612   3.364
 4947TIP3    H214722   0.920   5.753   3.407
 4948TIP3   OH214723   1.179   5.334   2.017
 4948TIP3    H114724   1.194   5.244   1.986
 4948TIP3    H214725   1.161   5.319   2.112
 4949TIP3   OH214726   1.125   5.338   2.292
 4949TIP3    H114727   1.195   5.314   2.354
 4949TIP3    H214728   1.130   5.437   2.294
 4950TIP3   OH214729   0.868   5.036   2.495
 4950TIP3    H114730   0.799   5.077   2.551
 4950TIP3    H214731   0.877   5.105   2.426
 4951TIP3   OH214732   2.007   4.668   3.383
 4951TIP3    H114733   2.084   4.708   3.427
 4951TIP3    H214734   1.990   4.589   3.439
 4952TIP3   OH214735   1.865   4.438   2.550
 4952TIP3    H114736   1.869   4.446   2.453
 4952TIP3    H214737   1.924   4.510   2.579
 4953TIP3   OH214738   1.389   5.536   2.241
 4953TIP3    H114739   1.303   5.567   2.275
 4953TIP3    H214740   1.408   5.604   2.174
 4954TIP3   OH214741   1.570   4.620   2.665
 4954TIP3    H114742   1.655   4.661   2.636
 4954TIP3    H214743   1.594   4.586   2.755
 4955TIP3   OH214744   1.849   4.923   3.462
 4955TIP3    H114745   1.863   4.977   3.542
 4955TIP3    H214746   1.903   4.844   3.480
 4956TIP3   OH214747   1.724   4.335   2.759
 4956TIP3    H114748   1.731   4.407   2.825
 4956TIP3    H214749   1.782   4.370   2.687
 4957TIP3   OH214750   1.130   5.612   2.305
 4957TIP3    H114751   1.100   5.680   2.241
 4957TIP3    H214752   1.114   5.656   2.391
 4958TIP3   OH214753   1.231   4.318   2.540
 4958TIP3    H114754   1.223   4.402   2.586
 4958TIP3    H214755   1.327   4.300   2.550
 4959TIP3   OH214756   2.490   4.818   3.440
 4959TIP3    H114757   2.392   4.816   3.448
 4959TIP3    H214758   2.500   4.784   3.350
 4960TIP3   OH214759   2.139   5.015   2.830
 4960TIP3    H114760   2.065   4.953   2.843
 4960TIP3    H214761   2.212   4.969   2.876
 4961TIP3   OH214762   0.849   5.246   2.301
 4961TIP3    H114763   0.909   5.322   2.309
 4961TIP3    H214764   0.897   5.195   2.233
 4962TIP3   OH214765   0.799   4.520   2.431
 4962TIP3    H114766   0.793   4.617   2.425
 4962TIP3    H214767   0.712   4.492   2.401
 4963TIP3   OH214768   2.106   5.967   2.781
 4963TIP3    H114769   2.063   6.015   2.706
 4963TIP3    H214770   2.200   5.986   2.760
 4964TIP3   OH214771   0.727   5.460   2.693
 4964TIP3    H114772   0.647   5.489   2.738
 4964TIP3    H214773   0.710   5.494   2.603
 4965TIP3   OH214774   0.875   5.992   3.759
 4965TIP3    H114775   0.962   5.989   3.804
 4965TIP3    H214776   0.853   5.898   3.755
 4966TIP3   OH214777   1.365   5.970   3.798
 4966TIP3    H114778   1.457   5.942   3.812
 4966TIP3    H214779   1.339   5.909   3.725
 4967TIP3   OH214780   1.343   5.539   1.935
 4967TIP3    H114781   1.286   5.467   1.970
 4967TIP3    H214782   1.417   5.487   1.899
 4968TIP3   OH214783   2.000   5.868   3.536
 4968TIP3    H114784   1.989   5.798   3.604
 4968TIP3    H214785   2.078   5.916   3.567
 4969TIP3   OH214786   1.779   5.581   1.841
 4969TIP3    H114787   1.828   5.522   1.899
 4969TIP3    H214788   1.836   5.585   1.761
 4970TIP3   OH214789   1.008   5.403   3.959
 4970TIP3    H114790   1.027   5.307   3.964
 4970TIP3    H214791   0.921   5.404   3.915
 4971TIP3   OH214792   0.983   5.059   2.147
 4971TIP3    H114793   1.036   5.019   2.218
 4971TIP3    H214794   1.051   5.063   2.076
 4972TIP3   OH214795   1.617   5.487   3.732
 4972TIP3    H114796   1.576   5.497   3.644
 4972TIP3    H214797   1.650   5.394   3.729
 4973TIP3   OH214798   1.489   5.253   1.957
 4973TIP3    H114799   1.495   5.266   2.054
 4973TIP3    H214800   1.490   5.155   1.953
 4974TIP3   OH214801   2.109   5.491   3.336
 4974TIP3    H114802   2.183   5.539   3.293
 4974TIP3    H214803   2.038   5.556   3.326
 4975TIP3   OH214804   1.128   5.136   3.937
 4975TIP3    H114805   1.198   5.072   3.923
 4975TIP3    H214806   1.151   5.169   4.027
 4976TIP3   OH214807   1.206   4.952   2.386
 4976TIP3    H114808   1.155   4.903   2.452
 4976TIP3    H214809   1.237   4.881   2.326
 4977TIP3   OH214810   1.464   5.025   3.606
 4977TIP3    H114811   1.385   5.083   3.608
 4977TIP3    H214812   1.508   5.053   3.524
 4978TIP3   OH214813   1.292   4.751   2.216
 4978TIP3    H114814   1.266   4.748   2.122
 4978TIP3    H214815   1.390   4.757   2.208
 4979TIP3   OH214816   1.979   5.424   3.737
 4979TIP3    H114817   2.063   5.407   3.693
 4979TIP3    H214818   1.978   5.357   3.807
 4980TIP3   OH214819   2.119   5.084   1.874
 4980TIP3    H114820   2.096   5.036   1.792
 4980TIP3    H214821   2.088   5.174   1.849
 4981TIP3   OH214822   1.587   4.808   3.730
 4981TIP3    H114823   1.579   4.727   3.677
 4981TIP3    H214824   1.542   4.874   3.673
 4982TIP3   OH214825   1.575   4.590   3.529
 4982TIP3    H114826   1.607   4.632   3.447
 4982TIP3    H214827   1.489   4.554   3.500
 4983TIP3   OH214828   1.621   5.132   3.405
 4983TIP3    H114829   1.702   5.138   3.353
 4983TIP3    H214830   1.566   5.203   3.364
 4984TIP3   OH214831   2.199   5.100   3.789
 4984TIP3    H114832   2.249   5.019   3.808
 4984TIP3    H214833   2.269   5.160   3.761
 4985TIP3   OH214834   2.241   5.351   3.525
 4985TIP3    H114835   2.183   5.403   3.465
 4985TIP3    H214836   2.329   5.371   3.484
 4986TIP3   OH214837   1.460   4.929   3.955
 4986TIP3    H114838   1.393   4.859   3.971
 4986TIP3    H214839   1.497   4.901   3.869
 4987TIP3   OH214840   1.717   4.361   3.598
 4987TIP3    H114841   1.668   4.444   3.578
 4987TIP3    H214842   1.646   4.295   3.583
 4988TIP3   OH214843   1.848   4.868   3.818
 4988TIP3    H114844   1.840   4.857   3.914
 4988TIP3    H214845   1.757   4.842   3.791
 4989TIP3   OH214846   2.085   4.810   3.672
 4989TIP3    H114847   2.011   4.816   3.734
 4989TIP3    H214848   2.159   4.783   3.730
 4990TIP3   OH214849   2.315   4.751   3.823
 4990TIP3    H114850   2.326   4.657   3.848
 4990TIP3    H214851   2.311   4.796   3.911
 4991TIP3   OH214852   1.305   4.709   4.010
 4991TIP3    H114853   1.305   4.621   3.967
 4991TIP3    H214854   1.339   4.688   4.099
 4992TIP3   OH214855   1.817   4.370   3.854
 4992TIP3    H114856   1.884   4.299   3.850
 4992TIP3    H214857   1.774   4.362   3.767
 4993TIP3   OH214858   1.881   4.585   4.018
 4993TIP3    H114859   1.857   4.515   3.953
 4993TIP3    H214860   1.805   4.646   4.012
 4994TIP3   OH214861   1.100   5.814   2.118
 4994TIP3    H114862   1.195   5.813   2.099
 4994TIP3    H214863   1.068   5.860   2.038
 4995TIP3   OH214864   0.581   5.195   2.336
 4995TIP3    H114865   0.676   5.218   2.323
 4995TIP3    H214866   0.576   5.107   2.295
 4996TIP3   OH214867   0.494   5.808   2.746
 4996TIP3    H114868   0.426   5.746   2.713
 4996TIP3    H214869   0.538   5.753   2.814
 4997TIP3   OH214870   0.630   5.666   2.935
 4997TIP3    H114871   0.620   5.587   2.991
 4997TIP3    H214872   0.681   5.724   2.995
 4998TIP3   OH214873   2.355   6.063   2.734
 4998TIP3    H114874   2.388   6.096   2.819
 4998TIP3    H214875   2.416   6.104   2.670
 4999TIP3   OH214876   2.389   6.083   3.017
 4999TIP3    H114877   2.347   5.995   3.010
 4999TIP3    H214878   2.465   6.059   3.073
 5000TIP3   OH214879   2.433   5.758   3.587
 5000TIP3    H114880   2.361   5.765   3.652
 5000TIP3    H214881   2.475   5.846   3.593
 5001TIP3   OH214882   2.249   5.273   2.211
 5001TIP3    H114883   2.319   5.336   2.183
 5001TIP3    H214884   2.292   5.232   2.289
 5002TIP3   OH214885   2.377   5.139   2.413
 5002TIP3    H114886   2.313   5.096   2.473
 5002TIP3    H214887   2.442   5.178   2.475
 5003TIP3   OH214888   2.428   5.527   2.845
 5003TIP3    H114889   2.483   5.466   2.793
 5003TIP3    H214890   2.421   5.604   2.786
 5004TIP3   OH214891   2.266   5.831   3.041
 5004TIP3    H114892   2.194   5.870   3.094
 5004TIP3    H214893   2.216   5.781   2.973
 5005TIP3   OH214894   2.317   5.045   2.062
 5005TIP3    H114895   2.246   5.049   1.994
 5005TIP3    H214896   2.290   5.122   2.116
 5006TIP3   OH214897   2.188   4.718   2.017
 5006TIP3    H114898   2.147   4.758   1.939
 5006TIP3    H214899   2.160   4.625   2.008
 5007TIP3   OH214900   2.193   4.993   2.562
 5007TIP3    H114901   2.202   4.896   2.557
 5007TIP3    H214902   2.181   5.007   2.658
 5008TIP3   OH214903   0.821   5.070   3.306
 5008TIP3    H114904   0.819   5.041   3.213
 5008TIP3    H214905   0.918   5.069   3.323
 5009TIP3   OH214906   2.482   5.418   3.415
 5009TIP3    H114907   2.555   5.353   3.408
 5009TIP3    H214908   2.512   5.489   3.356
 5010TIP3   OH214909   2.669   5.228   3.439
 5010TIP3    H114910   2.595   5.176   3.478
 5010TIP3    H214911   2.742   5.163   3.451
 5011TIP3   OH214912   2.130   4.452   2.006
 5011TIP3    H114913   2.205   4.421   2.060
 5011TIP3    H214914   2.058   4.390   2.029
 5012TIP3   OH214915   2.188   4.708   2.458
 5012TIP3    H114916   2.229   4.619   2.473
 5012TIP3    H214917   2.247   4.741   2.388
 5013TIP3   OH214918   2.352   4.888   2.950
 5013TIP3    H114919   2.439   4.914   2.911
 5013TIP3    H214920   2.365   4.923   3.041
 5014TIP3   OH214921   2.417   5.027   3.185
 5014TIP3    H114922   2.339   5.062   3.232
 5014TIP3    H214923   2.450   5.107   3.139
 5015TIP3   OH214924   1.035   4.760   3.989
 5015TIP3    H114925   1.132   4.748   3.976
 5015TIP3    H214926   1.012   4.673   4.027
 5016TIP3   OH214927   2.869   4.614   3.740
 5016TIP3    H114928   2.929   4.551   3.695
 5016TIP3    H214929   2.844   4.675   3.667
 5017TIP3   OH214930   2.298   4.460   2.495
 5017TIP3    H114931   2.346   4.443   2.578
 5017TIP3    H214932   2.238   4.382   2.493
 5018TIP3   OH214933   1.010   4.440   3.310
 5018TIP3    H114934   1.080   4.374   3.327
 5018TIP3    H214935   1.064   4.520   3.314
 5019TIP3   OH214936   0.804   4.724   3.389
 5019TIP3    H114937   0.849   4.709   3.303
 5019TIP3    H214938   0.839   4.810   3.412
 5020TIP3   OH214939   2.746   4.762   3.548
 5020TIP3    H114940   2.659   4.800   3.574
 5020TIP3    H214941   2.716   4.692   3.488
 5021TIP3   OH214942   2.383   4.399   2.124
 5021TIP3    H114943   2.421   4.324   2.074
 5021TIP3    H214944   2.450   4.468   2.114
 5022TIP3   OH214945   0.780   4.219   2.884
 5022TIP3    H114946   0.687   4.223   2.913
 5022TIP3    H214947   0.780   4.281   2.808
 5023TIP3   OH214948   1.943   5.927   2.393
 5023TIP3    H114949   1.990   5.907   2.309
 5023TIP3    H214950   2.002   5.994   2.431
 5024TIP3   OH214951   1.005   4.309   3.709
 5024TIP3    H114952   0.950   4.302   3.788
 5024TIP3    H214953   0.941   4.341   3.643
 5025TIP3   OH214954   1.043   5.735   3.782
 5025TIP3    H114955   0.954   5.699   3.761
 5025TIP3    H214956   1.054   5.707   3.874
 5026TIP3   OH214957   1.220   5.759   3.327
 5026TIP3    H114958   1.172   5.834   3.287
 5026TIP3    H214959   1.307   5.773   3.283
 5027TIP3   OH214960   1.669   6.010   3.465
 5027TIP3    H114961   1.712   6.009   3.554
 5027TIP3    H214962   1.737   6.058   3.413
 5028TIP3   OH214963   1.849   6.159   3.320
 5028TIP3    H114964   1.919   6.106   3.279
 5028TIP3    H214965   1.901   6.214   3.382
 5029TIP3   OH214966   2.641   4.525   3.423
 5029TIP3    H114967   2.549   4.525   3.390
 5029TIP3    H214968   2.667   4.431   3.410
 5030TIP3   OH214969   0.901   6.025   3.347
 5030TIP3    H114970   0.812   6.059   3.323
 5030TIP3    H214971   0.901   6.040   3.441
 5031TIP3   OH214972   1.137   6.000   3.206
 5031TIP3    H114973   1.051   6.013   3.252
 5031TIP3    H214974   1.116   6.031   3.116
 5032TIP3   OH214975   1.562   6.031   3.004
 5032TIP3    H114976   1.493   6.050   2.938
 5032TIP3    H214977   1.574   6.118   3.046
 5033TIP3   OH214978   1.829   5.970   3.055
 5033TIP3    H114979   1.735   5.985   3.034
 5033TIP3    H214980   1.872   6.045   3.012
 5034TIP3   OH214981   2.040   6.163   2.972
 5034TIP3    H114982   2.025   6.246   2.923
 5034TIP3    H214983   2.065   6.101   2.900
 5035TIP3   OH214984   0.812   5.816   3.096
 5035TIP3    H114985   0.838   5.789   3.187
 5035TIP3    H214986   0.882   5.770   3.045
 5036TIP3   OH214987   1.001   5.685   2.949
 5036TIP3    H114988   1.018   5.601   2.998
 5036TIP3    H214989   1.092   5.723   2.943
 5037TIP3   OH214990   1.268   5.783   2.951
 5037TIP3    H114991   1.301   5.692   2.937
 5037TIP3    H214992   1.309   5.803   3.037
 5038TIP3   OH214993   1.843   4.436   3.034
 5038TIP3    H114994   1.801   4.370   3.094
 5038TIP3    H214995   1.916   4.385   2.995
 5039TIP3   OH214996   2.373   4.316   2.952
 5039TIP3    H114997   2.410   4.368   2.877
 5039TIP3    H214998   2.278   4.332   2.943
 5040TIP3   OH214999   2.466   4.418   2.713
 5040TIP3    H115000   2.538   4.368   2.669
 5040TIP3    H215001   2.497   4.511   2.697
 5041TIP3   OH215002   1.090   4.149   3.025
 5041TIP3    H115003   1.003   4.113   3.050
 5041TIP3    H215004   1.150   4.081   3.060
 5042TIP3   OH215005   0.870   4.013   2.700
 5042TIP3    H115006   0.908   4.073   2.634
 5042TIP3    H215007   0.849   4.074   2.773
 5043TIP3   OH215008   1.536   4.177   2.932
 5043TIP3    H115009   1.601   4.232   2.884
 5043TIP3    H215010   1.537   4.216   3.020
 5044TIP3   OH215011   2.090   4.323   2.921
 5044TIP3    H115012   2.083   4.291   2.830
 5044TIP3    H215013   2.072   4.241   2.973
 5045TIP3   OH215014   2.117   4.247   2.492
 5045TIP3    H115015   2.026   4.267   2.468
 5045TIP3    H215016   2.105   4.156   2.527
 5046TIP3   OH215017   0.599   5.582   2.489
 5046TIP3    H115018   0.515   5.548   2.452
 5046TIP3    H215019   0.584   5.677   2.476
 5047TIP3   OH215020   0.996   4.174   2.468
 5047TIP3    H115021   1.047   4.113   2.411
 5047TIP3    H215022   1.067   4.228   2.506
 5048TIP3   OH215023   1.506   4.357   2.575
 5048TIP3    H115024   1.566   4.300   2.626
 5048TIP3    H215025   1.542   4.444   2.599
 5049TIP3   OH215026   1.369   5.780   2.067
 5049TIP3    H115027   1.459   5.799   2.033
 5049TIP3    H215028   1.348   5.703   2.009
 5050TIP3   OH215029   2.079   5.887   2.159
 5050TIP3    H115030   2.073   5.790   2.142
 5050TIP3    H215031   2.044   5.923   2.075
 5051TIP3   OH215032   1.302   4.425   3.952
 5051TIP3    H115033   1.271   4.353   4.010
 5051TIP3    H215034   1.397   4.429   3.977
 5052TIP3   OH215035   1.552   4.424   4.070
 5052TIP3    H115036   1.636   4.399   4.030
 5052TIP3    H215037   1.540   4.353   4.136
 5053TIP3   OH215038   0.675   5.616   2.126
 5053TIP3    H115039   0.671   5.641   2.220
 5053TIP3    H215040   0.763   5.574   2.118
 5054TIP3   OH215041   2.374   4.480   3.857
 5054TIP3    H115042   2.394   4.452   3.949
 5054TIP3    H215043   2.464   4.479   3.816
 5055TIP3   OH215044   2.318   6.039   3.348
 5055TIP3    H115045   2.239   6.004   3.303
 5055TIP3    H215046   2.296   6.135   3.350
 5056TIP3   OH215047   3.581   5.408   2.117
 5056TIP3    H115048   3.555   5.501   2.099
 5056TIP3    H215049   3.502   5.361   2.084
 5057TIP3   OH215050   3.580   5.408   2.492
 5057TIP3    H115051   3.608   5.377   2.579
 5057TIP3    H215052   3.537   5.329   2.455
 5058TIP3   OH215053   2.881   5.307   2.860
 5058TIP3    H115054   2.914   5.240   2.924
 5058TIP3    H215055   2.958   5.365   2.854
 5059TIP3   OH215056   3.821   5.709   2.175
 5059TIP3    H115057   3.810   5.639   2.241
 5059TIP3    H215058   3.849   5.785   2.229
 5060TIP3   OH215059   2.849   5.711   2.592
 5060TIP3    H115060   2.842   5.614   2.594
 5060TIP3    H215061   2.946   5.721   2.583
 5061TIP3   OH215062   2.558   4.919   2.375
 5061TIP3    H115063   2.509   5.003   2.386
 5061TIP3    H215064   2.488   4.862   2.340
 5062TIP3   OH215065   2.618   5.205   2.539
 5062TIP3    H115066   2.667   5.129   2.578
 5062TIP3    H215067   2.676   5.231   2.467
 5063TIP3   OH215068   3.468   6.172   2.191
 5063TIP3    H115069   3.519   6.102   2.145
 5063TIP3    H215070   3.465   6.139   2.281
 5064TIP3   OH215071   3.380   5.634   2.543
 5064TIP3    H115072   3.416   5.558   2.494
 5064TIP3    H215073   3.465   5.677   2.566
 5065TIP3   OH215074   4.389   4.956   2.540
 5065TIP3    H115075   4.418   5.038   2.586
 5065TIP3    H215076   4.410   4.978   2.448
 5066TIP3   OH215077   3.791   5.138   2.579
 5066TIP3    H115078   3.833   5.052   2.599
 5066TIP3    H215079   3.762   5.124   2.487
 5067TIP3   OH215080   3.126   4.795   2.544
 5067TIP3    H115081   3.106   4.868   2.481
 5067TIP3    H215082   3.079   4.722   2.499
 5068TIP3   OH215083   3.820   4.885   2.167
 5068TIP3    H115084   3.894   4.869   2.231
 5068TIP3    H215085   3.871   4.922   2.093
 5069TIP3   OH215086   2.762   4.999   2.648
 5069TIP3    H115087   2.845   4.978   2.696
 5069TIP3    H215088   2.773   4.942   2.569
 5070TIP3   OH215089   3.205   5.196   2.438
 5070TIP3    H115090   3.298   5.169   2.453
 5070TIP3    H215091   3.165   5.112   2.407
 5071TIP3   OH215092   4.463   5.161   2.711
 5071TIP3    H115093   4.381   5.211   2.692
 5071TIP3    H215094   4.477   5.185   2.804
 5072TIP3   OH215095   3.125   4.779   2.976
 5072TIP3    H115096   3.065   4.817   2.909
 5072TIP3    H215097   3.075   4.797   3.058
 5073TIP3   OH215098   3.478   5.631   1.985
 5073TIP3    H115099   3.430   5.605   1.905
 5073TIP3    H215100   3.435   5.716   2.006
 5074TIP3   OH215101   3.232   5.553   2.776
 5074TIP3    H115102   3.167   5.616   2.815
 5074TIP3    H215103   3.273   5.607   2.705
 5075TIP3   OH215104   4.037   4.885   2.333
 5075TIP3    H115105   4.028   4.836   2.416
 5075TIP3    H215106   4.090   4.962   2.360
 5076TIP3   OH215107   2.995   4.894   2.762
 5076TIP3    H115108   3.057   4.967   2.785
 5076TIP3    H215109   3.043   4.853   2.687
 5077TIP3   OH215110   3.057   5.744   2.870
 5077TIP3    H115111   3.032   5.829   2.828
 5077TIP3    H215112   2.978   5.731   2.927
 5078TIP3   OH215113   2.457   5.435   2.105
 5078TIP3    H115114   2.415   5.465   2.023
 5078TIP3    H215115   2.485   5.521   2.144
 5079TIP3   OH215116   3.895   5.951   2.347
 5079TIP3    H115117   3.805   5.943   2.386
 5079TIP3    H215118   3.888   6.037   2.301
 5080TIP3   OH215119   4.183   4.856   2.707
 5080TIP3    H115120   4.096   4.888   2.679
 5080TIP3    H215121   4.241   4.887   2.635
 5081TIP3   OH215122   3.486   4.502   2.688
 5081TIP3    H115123   3.473   4.406   2.705
 5081TIP3    H215124   3.407   4.538   2.735
 5082TIP3   OH215125   3.603   6.001   2.024
 5082TIP3    H115126   3.651   5.919   2.000
 5082TIP3    H215127   3.661   6.067   1.980
 5083TIP3   OH215128   3.741   5.786   1.922
 5083TIP3    H115129   3.699   5.708   1.884
 5083TIP3    H215130   3.774   5.749   2.007
 5084TIP3   OH215131   4.121   5.869   2.689
 5084TIP3    H115132   4.111   5.790   2.630
 5084TIP3    H215133   4.105   5.942   2.626
 5085TIP3   OH215134   3.411   5.259   1.944
 5085TIP3    H115135   3.331   5.311   1.922
 5085TIP3    H215136   3.458   5.258   1.858
 5086TIP3   OH215137   3.371   5.043   1.665
 5086TIP3    H115138   3.440   5.093   1.713
 5086TIP3    H215139   3.428   4.979   1.618
 5087TIP3   OH215140   4.316   5.501   2.531
 5087TIP3    H115141   4.234   5.555   2.539
 5087TIP3    H215142   4.345   5.526   2.441
 5088TIP3   OH215143   3.759   5.342   1.919
 5088TIP3    H115144   3.704   5.368   1.997
 5088TIP3    H215145   3.842   5.316   1.963
 5089TIP3   OH215146   3.995   5.385   2.825
 5089TIP3    H115147   3.992   5.468   2.876
 5089TIP3    H215148   3.908   5.389   2.780
 5090TIP3   OH215149   2.991   5.342   2.334
 5090TIP3    H115150   2.949   5.285   2.266
 5090TIP3    H215151   3.069   5.289   2.360
 5091TIP3   OH215152   3.120   5.751   2.484
 5091TIP3    H115153   3.099   5.706   2.401
 5091TIP3    H215154   3.211   5.720   2.502
 5092TIP3   OH215155   3.132   5.311   2.688
 5092TIP3    H115156   3.162   5.295   2.597
 5092TIP3    H215157   3.172   5.398   2.709
 5093TIP3   OH215158   3.653   5.950   2.464
 5093TIP3    H115159   3.639   6.029   2.519
 5093TIP3    H215160   3.640   5.877   2.528
 5094TIP3   OH215161   3.264   5.871   3.011
 5094TIP3    H115162   3.205   5.932   3.059
 5094TIP3    H215163   3.198   5.816   2.964
 5095TIP3   OH215164   3.603   5.199   1.743
 5095TIP3    H115165   3.660   5.259   1.797
 5095TIP3    H215166   3.629   5.226   1.651
 5096TIP3   OH215167   3.018   5.429   3.109
 5096TIP3    H115168   3.022   5.513   3.158
 5096TIP3    H215169   2.922   5.409   3.117
 5097TIP3   OH215170   3.341   5.883   2.017
 5097TIP3    H115171   3.415   5.940   2.044
 5097TIP3    H215172   3.277   5.946   1.982
 5098TIP3   OH215173   3.060   6.042   3.098
 5098TIP3    H115174   3.025   6.036   3.007
 5098TIP3    H215175   2.981   6.018   3.152
 5099TIP3   OH215176   4.116   4.444   1.790
 5099TIP3    H115177   4.035   4.462   1.842
 5099TIP3    H215178   4.128   4.528   1.742
 5100TIP3   OH215179   2.858   5.183   2.139
 5100TIP3    H115180   2.794   5.230   2.081
 5100TIP3    H215181   2.813   5.099   2.152
 5101TIP3   OH215182   3.913   5.811   1.338
 5101TIP3    H115183   3.922   5.908   1.325
 5101TIP3    H215184   4.006   5.782   1.327
 5102TIP3   OH215185   2.640   5.567   3.046
 5102TIP3    H115186   2.577   5.543   2.975
 5102TIP3    H215187   2.676   5.481   3.073
 5103TIP3   OH215188   2.493   5.758   2.685
 5103TIP3    H115189   2.587   5.753   2.667
 5103TIP3    H215190   2.486   5.841   2.734
 5104TIP3   OH215191   4.359   6.209   2.732
 5104TIP3    H115192   4.357   6.113   2.746
 5104TIP3    H215193   4.276   6.235   2.778
 5105TIP3   OH215194   3.465   5.999   2.868
 5105TIP3    H115195   3.465   6.092   2.901
 5105TIP3    H215196   3.393   5.960   2.923
 5106TIP3   OH215197   3.224   6.129   1.818
 5106TIP3    H115198   3.175   6.109   1.737
 5106TIP3    H215199   3.190   6.217   1.843
 5107TIP3   OH215200   2.679   5.960   2.195
 5107TIP3    H115201   2.705   5.955   2.290
 5107TIP3    H215202   2.583   5.959   2.199
 5108TIP3   OH215203   3.426   6.027   1.462
 5108TIP3    H115204   3.486   5.959   1.426
 5108TIP3    H215205   3.459   6.037   1.553
 5109TIP3   OH215206   3.475   6.075   1.732
 5109TIP3    H115207   3.387   6.086   1.774
 5109TIP3    H215208   3.524   6.032   1.804
 5110TIP3   OH215209   4.250   5.344   3.007
 5110TIP3    H115210   4.169   5.359   2.956
 5110TIP3    H215211   4.263   5.248   2.997
 5111TIP3   OH215212   2.844   5.752   3.040
 5111TIP3    H115213   2.895   5.732   3.120
 5111TIP3    H215214   2.771   5.686   3.045
 5112TIP3   OH215215   3.245   4.574   2.816
 5112TIP3    H115216   3.154   4.544   2.792
 5112TIP3    H215217   3.221   4.658   2.859
 5113TIP3   OH215218   3.776   4.690   3.011
 5113TIP3    H115219   3.844   4.664   3.077
 5113TIP3    H215220   3.692   4.670   3.056
 5114TIP3   OH215221   4.019   5.119   2.930
 5114TIP3    H115222   3.971   5.114   3.016
 5114TIP3    H215223   3.994   5.207   2.896
 5115TIP3   OH215224   3.676   5.251   1.487
 5115TIP3    H115225   3.644   5.223   1.399
 5115TIP3    H215226   3.754   5.304   1.463
 5116TIP3   OH215227   3.391   4.625   1.788
 5116TIP3    H115228   3.359   4.624   1.880
 5116TIP3    H215229   3.352   4.542   1.756
 5117TIP3   OH215230   3.175   5.089   2.837
 5117TIP3    H115231   3.125   5.112   2.918
 5117TIP3    H215232   3.160   5.169   2.782
 5118TIP3   OH215233   3.060   4.975   2.351
 5118TIP3    H115234   2.966   4.950   2.367
 5118TIP3    H215235   3.073   4.935   2.262
 5119TIP3   OH215236   3.550   5.062   2.076
 5119TIP3    H115237   3.495   5.133   2.037
 5119TIP3    H215238   3.604   5.035   1.999
 5120TIP3   OH215239   3.724   5.343   3.166
 5120TIP3    H115240   3.702   5.270   3.227
 5120TIP3    H215241   3.818   5.358   3.187
 5121TIP3   OH215242   3.709   5.092   2.319
 5121TIP3    H115243   3.651   5.124   2.247
 5121TIP3    H215244   3.739   5.009   2.277
 5122TIP3   OH215245   2.994   5.120   3.046
 5122TIP3    H115246   3.020   5.183   3.114
 5122TIP3    H215247   2.983   5.038   3.098
 5123TIP3   OH215248   3.044   4.595   1.755
 5123TIP3    H115249   3.038   4.592   1.853
 5123TIP3    H215250   2.964   4.646   1.733
 5124TIP3   OH215251   2.586   4.644   2.626
 5124TIP3    H115252   2.664   4.673   2.678
 5124TIP3    H215253   2.624   4.609   2.544
 5125TIP3   OH215254   2.568   4.624   2.146
 5125TIP3    H115255   2.613   4.664   2.068
 5125TIP3    H215256   2.506   4.696   2.168
 5126TIP3   OH215257   3.718   5.339   2.742
 5126TIP3    H115258   3.751   5.266   2.685
 5126TIP3    H215259   3.690   5.289   2.821
 5127TIP3   OH215260   3.383   4.799   2.413
 5127TIP3    H115261   3.300   4.796   2.464
 5127TIP3    H215262   3.449   4.802   2.484
 5128TIP3   OH215263   2.821   4.852   2.422
 5128TIP3    H115264   2.726   4.860   2.395
 5128TIP3    H215265   2.843   4.761   2.398
 5129TIP3   OH215266   3.094   4.852   2.108
 5129TIP3    H115267   3.188   4.867   2.087
 5129TIP3    H215268   3.048   4.875   2.024
 5130TIP3   OH215269   3.878   4.874   2.611
 5130TIP3    H115270   3.844   4.885   2.703
 5130TIP3    H215271   3.813   4.811   2.576
 5131TIP3   OH215272   2.928   4.882   1.889
 5131TIP3    H115273   2.854   4.840   1.842
 5131TIP3    H215274   2.979   4.917   1.813
 5132TIP3   OH215275   4.045   6.563   2.831
 5132TIP3    H115276   4.044   6.585   2.736
 5132TIP3    H215277   4.122   6.612   2.863
 5133TIP3   OH215278   3.006   5.673   3.255
 5133TIP3    H115279   3.086   5.702   3.304
 5133TIP3    H215280   2.942   5.671   3.329
 5134TIP3   OH215281   3.470   5.123   2.509
 5134TIP3    H115282   3.543   5.085   2.458
 5134TIP3    H215283   3.484   5.085   2.598
 5135TIP3   OH215284   2.997   4.616   2.384
 5135TIP3    H115285   2.965   4.534   2.428
 5135TIP3    H215286   3.050   4.580   2.311
 5136TIP3   OH215287   3.447   5.018   2.803
 5136TIP3    H115288   3.358   5.057   2.813
 5136TIP3    H215289   3.505   5.079   2.852
 5137TIP3   OH215290   3.185   5.414   1.896
 5137TIP3    H115291   3.112   5.350   1.884
 5137TIP3    H215292   3.166   5.448   1.987
 5138TIP3   OH215293   4.086   5.650   2.526
 5138TIP3    H115294   4.110   5.698   2.444
 5138TIP3    H215295   4.000   5.609   2.503
 5139TIP3   OH215296   3.643   4.729   1.750
 5139TIP3    H115297   3.546   4.713   1.759
 5139TIP3    H215298   3.654   4.822   1.776
 5140TIP3   OH215299   3.585   5.732   2.892
 5140TIP3    H115300   3.602   5.706   2.983
 5140TIP3    H215301   3.545   5.820   2.900
 5141TIP3   OH215302   3.713   4.972   1.857
 5141TIP3    H115303   3.809   4.979   1.874
 5141TIP3    H215304   3.695   5.052   1.804
 5142TIP3   OH215305   2.875   5.434   2.573
 5142TIP3    H115306   2.911   5.406   2.487
 5142TIP3    H215307   2.913   5.368   2.633
 5143TIP3   OH215308   3.328   5.563   1.713
 5143TIP3    H115309   3.282   5.650   1.721
 5143TIP3    H215310   3.274   5.509   1.774
 5144TIP3   OH215311   2.754   5.358   3.184
 5144TIP3    H115312   2.778   5.344   3.278
 5144TIP3    H215313   2.686   5.289   3.171
 5145TIP3   OH215314   3.479   5.468   3.203
 5145TIP3    H115315   3.422   5.409   3.151
 5145TIP3    H215316   3.568   5.436   3.176
 5146TIP3   OH215317   3.745   5.991   2.786
 5146TIP3    H115318   3.649   5.989   2.798
 5146TIP3    H215319   3.772   6.043   2.864
 5147TIP3   OH215320   4.156   5.060   1.696
 5147TIP3    H115321   4.093   5.015   1.635
 5147TIP3    H215322   4.153   5.148   1.655
 5148TIP3   OH215323   4.372   5.917   2.778
 5148TIP3    H115324   4.274   5.914   2.770
 5148TIP3    H215325   4.397   5.888   2.688
 5149TIP3   OH215326   3.852   5.882   1.602
 5149TIP3    H115327   3.830   5.811   1.665
 5149TIP3    H215328   3.865   5.834   1.518
 5150TIP3   OH215329   3.850   5.511   2.448
 5150TIP3    H115330   3.756   5.485   2.459
 5150TIP3    H215331   3.884   5.433   2.400
 5151TIP3   OH215332   2.972   5.738   2.194
 5151TIP3    H115333   2.977   5.821   2.142
 5151TIP3    H215334   2.877   5.728   2.202
 5152TIP3   OH215335   2.538   5.044   1.895
 5152TIP3    H115336   2.585   5.127   1.915
 5152TIP3    H215337   2.461   5.050   1.957
 5153TIP3   OH215338   3.120   5.507   2.142
 5153TIP3    H115339   3.082   5.596   2.158
 5153TIP3    H215340   3.081   5.457   2.216
 5154TIP3   OH215341   3.243   6.084   2.668
 5154TIP3    H115342   3.284   6.155   2.614
 5154TIP3    H215343   3.321   6.050   2.715
 5155TIP3   OH215344   2.905   5.976   2.046
 5155TIP3    H115345   2.817   5.977   2.090
 5155TIP3    H215346   2.927   6.071   2.047
 5156TIP3   OH215347   3.637   5.716   2.623
 5156TIP3    H115348   3.629   5.714   2.721
 5156TIP3    H215349   3.717   5.664   2.609
 5157TIP3   OH215350   3.605   5.606   1.505
 5157TIP3    H115351   3.658   5.582   1.585
 5157TIP3    H215352   3.516   5.584   1.536
 5158TIP3   OH215353   3.883   6.254   2.675
 5158TIP3    H115354   3.805   6.196   2.666
 5158TIP3    H215355   3.868   6.318   2.602
 5159TIP3   OH215356   3.948   6.086   1.327
 5159TIP3    H115357   3.987   6.157   1.273
 5159TIP3    H215358   3.868   6.132   1.358
 5160TIP3   OH215359   2.970   4.861   3.194
 5160TIP3    H115360   2.874   4.869   3.212
 5160TIP3    H215361   2.998   4.801   3.265
 5161TIP3   OH215362   3.766   5.543   1.723
 5161TIP3    H115363   3.756   5.477   1.794
 5161TIP3    H215364   3.863   5.542   1.711
 5162TIP3   OH215365   2.683   5.950   2.828
 5162TIP3    H115366   2.732   5.869   2.849
 5162TIP3    H215367   2.719   6.010   2.894
 5163TIP3   OH215368   2.976   5.590   1.503
 5163TIP3    H115369   2.990   5.499   1.474
 5163TIP3    H215370   2.958   5.578   1.599
 5164TIP3   OH215371   2.923   5.595   1.776
 5164TIP3    H115372   2.989   5.569   1.842
 5164TIP3    H215373   2.926   5.693   1.783
 5165TIP3   OH215374   2.658   5.291   1.980
 5165TIP3    H115375   2.593   5.336   2.038
 5165TIP3    H215376   2.672   5.361   1.914
 5166TIP3   OH215377   3.803   4.925   2.870
 5166TIP3    H115378   3.881   4.964   2.913
 5166TIP3    H215379   3.787   4.845   2.926
 5167TIP3   OH215380   3.683   4.680   2.033
 5167TIP3    H115381   3.669   4.705   1.940
 5167TIP3    H215382   3.721   4.763   2.071
 5168TIP3   OH215383   3.185   5.793   1.726
 5168TIP3    H115384   3.099   5.822   1.763
 5168TIP3    H215385   3.202   5.865   1.663
 5169TIP3   OH215386   3.377   4.854   2.138
 5169TIP3    H115387   3.442   4.926   2.120
 5169TIP3    H215388   3.380   4.849   2.236
 5170TIP3   OH215389   3.643   5.178   2.949
 5170TIP3    H115390   3.658   5.233   3.028
 5170TIP3    H215391   3.700   5.100   2.967
 5171TIP3   OH215392   3.522   4.589   2.244
 5171TIP3    H115393   3.514   4.666   2.304
 5171TIP3    H215394   3.580   4.627   2.174
 5172TIP3   OH215395   2.926   5.867   1.791
 5172TIP3    H115396   2.895   5.937   1.730
 5172TIP3    H215397   2.909   5.910   1.878
 5173TIP3   OH215398   3.030   4.580   2.032
 5173TIP3    H115399   3.027   4.671   2.067
 5173TIP3    H215400   3.126   4.562   2.041
 5174TIP3   OH215401   4.286   5.075   2.926
 5174TIP3    H115402   4.188   5.074   2.935
 5174TIP3    H215403   4.296   5.038   2.838
 5175TIP3   OH215404   3.935   5.271   2.315
 5175TIP3    H115405   3.860   5.211   2.329
 5175TIP3    H215406   4.008   5.224   2.363
 5176TIP3   OH215407   2.644   5.502   1.788
 5176TIP3    H115408   2.701   5.580   1.799
 5176TIP3    H215409   2.696   5.454   1.720
 5177TIP3   OH215410   2.593   4.775   1.918
 5177TIP3    H115411   2.590   4.873   1.913
 5177TIP3    H215412   2.508   4.750   1.882
 5178TIP3   OH215413   3.903   6.223   2.267
 5178TIP3    H115414   3.860   6.270   2.192
 5178TIP3    H215415   3.997   6.243   2.246
 5179TIP3   OH215416   2.979   4.495   2.796
 5179TIP3    H115417   2.947   4.463   2.709
 5179TIP3    H215418   2.968   4.416   2.852
 5180TIP3   OH215419   2.512   5.692   2.181
 5180TIP3    H115420   2.443   5.745   2.223
 5180TIP3    H215421   2.527   5.746   2.101
 5181TIP3   OH215422   2.671   6.250   3.247
 5181TIP3    H115423   2.758   6.246   3.292
 5181TIP3    H215424   2.650   6.155   3.243
 5182TIP3   OH215425   3.161   6.225   3.286
 5182TIP3    H115426   3.253   6.199   3.298
 5182TIP3    H215427   3.135   6.166   3.213
 5183TIP3   OH215428   3.139   5.796   1.420
 5183TIP3    H115429   3.081   5.725   1.458
 5183TIP3    H215430   3.213   5.742   1.388
 5184TIP3   OH215431   3.796   6.125   3.023
 5184TIP3    H115432   3.786   6.055   3.092
 5184TIP3    H215433   3.873   6.174   3.053
 5185TIP3   OH215434   3.575   5.838   1.328
 5185TIP3    H115435   3.623   5.776   1.386
 5185TIP3    H215436   3.631   5.841   1.248
 5186TIP3   OH215437   2.805   5.660   3.445
 5186TIP3    H115438   2.823   5.564   3.452
 5186TIP3    H215439   2.717   5.661   3.403
 5187TIP3   OH215440   2.781   5.313   1.635
 5187TIP3    H115441   2.834   5.279   1.709
 5187TIP3    H215442   2.850   5.318   1.565
 5188TIP3   OH215443   3.414   5.743   3.218
 5188TIP3    H115444   3.372   5.755   3.131
 5188TIP3    H215445   3.445   5.650   3.214
 5189TIP3   OH215446   3.286   5.509   1.443
 5189TIP3    H115447   3.290   5.523   1.540
 5189TIP3    H215448   3.285   5.411   1.439
 5190TIP3   OH215449   3.906   5.748   2.824
 5190TIP3    H115450   3.979   5.796   2.780
 5190TIP3    H215451   3.833   5.812   2.813
 5191TIP3   OH215452   2.924   5.391   3.425
 5191TIP3    H115453   2.997   5.329   3.412
 5191TIP3    H215454   2.945   5.425   3.514
 5192TIP3   OH215455   2.994   5.213   1.863
 5192TIP3    H115456   2.964   5.171   1.946
 5192TIP3    H215457   3.027   5.137   1.812
 5193TIP3   OH215458   3.258   5.277   3.089
 5193TIP3    H115459   3.182   5.339   3.095
 5193TIP3    H215460   3.305   5.311   3.009
 5194TIP3   OH215461   3.088   5.004   1.703
 5194TIP3    H115462   3.062   5.006   1.609
 5194TIP3    H215463   3.185   5.014   1.696
 5195TIP3   OH215464   3.775   5.681   3.224
 5195TIP3    H115465   3.858   5.663   3.178
 5195TIP3    H215466   3.775   5.612   3.294
 5196TIP3   OH215467   3.916   5.341   1.360
 5196TIP3    H115468   3.892   5.293   1.279
 5196TIP3    H215469   3.884   5.431   1.336
 5197TIP3   OH215470   3.382   5.065   3.218
 5197TIP3    H115471   3.381   4.984   3.162
 5197TIP3    H215472   3.339   5.130   3.159
 5198TIP3   OH215473   3.384   4.850   3.022
 5198TIP3    H115474   3.411   4.893   2.938
 5198TIP3    H215475   3.290   4.829   3.004
 5199TIP3   OH215476   3.417   5.390   2.894
 5199TIP3    H115477   3.497   5.396   2.841
 5199TIP3    H215478   3.360   5.458   2.852
 5200TIP3   OH215479   3.996   5.357   3.278
 5200TIP3    H115480   4.046   5.275   3.291
 5200TIP3    H215481   4.065   5.417   3.247
 5201TIP3   OH215482   4.037   5.607   3.013
 5201TIP3    H115483   3.979   5.660   2.953
 5201TIP3    H215484   4.124   5.628   2.972
 5202TIP3   OH215485   3.257   5.185   3.442
 5202TIP3    H115486   3.188   5.117   3.458
 5202TIP3    H215487   3.294   5.156   3.356
 5203TIP3   OH215488   3.517   4.617   3.086
 5203TIP3    H115489   3.469   4.700   3.065
 5203TIP3    H215490   3.446   4.550   3.075
 5204TIP3   OH215491   3.643   5.124   3.305
 5204TIP3    H115492   3.636   5.114   3.401
 5204TIP3    H215493   3.552   5.098   3.279
 5205TIP3   OH215494   3.882   5.068   3.159
 5205TIP3    H115495   3.807   5.073   3.221
 5205TIP3    H215496   3.955   5.039   3.217
 5206TIP3   OH215497   4.112   5.009   3.311
 5206TIP3    H115498   4.123   4.914   3.334
 5206TIP3    H215499   4.108   5.052   3.399
 5207TIP3   OH215500   3.099   4.963   3.495
 5207TIP3    H115501   3.109   4.873   3.460
 5207TIP3    H215502   3.133   4.952   3.586
 5208TIP3   OH215503   3.612   4.626   3.343
 5208TIP3    H115504   3.681   4.557   3.339
 5208TIP3    H215505   3.573   4.619   3.254
 5209TIP3   OH215506   3.677   4.841   3.505
 5209TIP3    H115507   3.653   4.771   3.440
 5209TIP3    H215508   3.601   4.902   3.499
 5210TIP3   OH215509   2.897   6.069   1.603
 5210TIP3    H115510   2.992   6.069   1.583
 5210TIP3    H215511   2.863   6.117   1.526
 5211TIP3   OH215512   2.376   5.451   1.823
 5211TIP3    H115513   2.471   5.475   1.811
 5211TIP3    H215514   2.374   5.362   1.781
 5212TIP3   OH215515   2.263   6.064   2.261
 5212TIP3    H115516   2.215   5.998   2.207
 5212TIP3    H215517   2.332   6.008   2.303
 5213TIP3   OH215518   2.436   5.919   2.416
 5213TIP3    H115519   2.420   5.842   2.473
 5213TIP3    H215520   2.479   5.979   2.479
 5214TIP3   OH215521   4.152   6.319   2.220
 5214TIP3    H115522   4.181   6.353   2.307
 5214TIP3    H215523   4.212   6.365   2.159
 5215TIP3   OH215524   4.184   6.338   2.502
 5215TIP3    H115525   4.143   6.249   2.497
 5215TIP3    H215526   4.260   6.318   2.559
 5216TIP3   OH215527   4.231   6.014   3.075
 5216TIP3    H115528   4.157   6.022   3.138
 5216TIP3    H215529   4.271   6.103   3.080
 5217TIP3   OH215530   4.046   5.528   1.697
 5217TIP3    H115531   4.116   5.591   1.670
 5217TIP3    H215532   4.088   5.488   1.776
 5218TIP3   OH215533   4.174   5.395   1.899
 5218TIP3    H115534   4.109   5.353   1.959
 5218TIP3    H215535   4.238   5.435   1.962
 5219TIP3   OH215536   4.226   5.784   2.333
 5219TIP3    H115537   4.280   5.723   2.279
 5219TIP3    H215538   4.215   5.860   2.273
 5220TIP3   OH215539   4.062   6.086   2.529
 5220TIP3    H115540   3.991   6.129   2.581
 5220TIP3    H215541   4.011   6.038   2.460
 5221TIP3   OH215542   4.113   5.302   1.548
 5221TIP3    H115543   4.042   5.306   1.480
 5221TIP3    H215544   4.086   5.378   1.604
 5222TIP3   OH215545   3.985   4.975   1.503
 5222TIP3    H115546   3.944   5.018   1.428
 5222TIP3    H215547   3.956   4.882   1.491
 5223TIP3   OH215548   3.990   5.249   2.049
 5223TIP3    H115549   3.998   5.153   2.045
 5223TIP3    H215550   3.977   5.265   2.145
 5224TIP3   OH215551   2.617   5.325   2.793
 5224TIP3    H115552   2.616   5.297   2.699
 5224TIP3    H215553   2.714   5.326   2.810
 5225TIP3   OH215554   4.278   5.675   2.903
 5225TIP3    H115555   4.352   5.610   2.895
 5225TIP3    H215556   4.306   5.746   2.843
 5226TIP3   OH215557   4.465   5.484   2.926
 5226TIP3    H115558   4.391   5.433   2.965
 5226TIP3    H215559   4.538   5.419   2.938
 5227TIP3   OH215560   3.928   4.709   1.490
 5227TIP3    H115561   4.004   4.680   1.544
 5227TIP3    H215562   3.856   4.651   1.519
 5228TIP3   OH215563   3.984   4.965   1.945
 5228TIP3    H115564   4.025   4.876   1.960
 5228TIP3    H215565   4.043   4.999   1.876
 5229TIP3   OH215566   4.149   5.144   2.438
 5229TIP3    H115567   4.235   5.170   2.398
 5229TIP3    H215568   4.161   5.180   2.528
 5230TIP3   OH215569   4.214   5.284   2.671
 5230TIP3    H115570   4.135   5.318   2.719
 5230TIP3    H215571   4.246   5.364   2.626
 5231TIP3   OH215572   2.832   5.012   3.465
 5231TIP3    H115573   2.930   5.006   3.469
 5231TIP3    H215574   2.807   4.929   3.511
 5232TIP3   OH215575   4.668   4.873   3.227
 5232TIP3    H115576   4.725   4.807   3.182
 5232TIP3    H215577   4.640   4.931   3.153
 5233TIP3   OH215578   4.095   4.715   1.980
 5233TIP3    H115579   4.143   4.700   2.064
 5233TIP3    H215580   4.034   4.638   1.980
 5234TIP3   OH215581   2.794   4.703   2.800
 5234TIP3    H115582   2.857   4.628   2.810
 5234TIP3    H215583   2.856   4.778   2.795
 5235TIP3   OH215584   2.599   4.978   2.874
 5235TIP3    H115585   2.648   4.969   2.789
 5235TIP3    H215586   2.628   5.065   2.903
 5236TIP3   OH215587   4.542   5.018   3.035
 5236TIP3    H115588   4.455   5.056   3.059
 5236TIP3    H215589   4.513   4.947   2.974
 5237TIP3   OH215590   4.178   4.654   1.611
 5237TIP3    H115591   4.218   4.580   1.561
 5237TIP3    H215592   4.245   4.724   1.603
 5238TIP3   OH215593   2.580   4.486   2.377
 5238TIP3    H115594   2.485   4.479   2.397
 5238TIP3    H215595   2.579   4.541   2.296
 5239TIP3   OH215596   3.739   6.182   1.879
 5239TIP3    H115597   3.789   6.165   1.797
 5239TIP3    H215598   3.793   6.250   1.922
 5240TIP3   OH215599   2.798   4.557   3.187
 5240TIP3    H115600   2.750   4.558   3.272
 5240TIP3    H215601   2.733   4.599   3.128
 5241TIP3   OH215602   2.839   5.991   3.269
 5241TIP3    H115603   2.750   5.955   3.249
 5241TIP3    H215604   2.850   5.965   3.361
 5242TIP3   OH215605   3.016   6.016   2.814
 5242TIP3    H115606   2.968   6.091   2.773
 5242TIP3    H215607   3.103   6.030   2.771
 5243TIP3   OH215608   3.466   6.266   2.952
 5243TIP3    H115609   3.508   6.267   3.041
 5243TIP3    H215610   3.533   6.315   2.899
 5244TIP3   OH215611   3.645   6.414   2.807
 5244TIP3    H115612   3.716   6.363   2.766
 5244TIP3    H215613   3.696   6.471   2.868
 5245TIP3   OH215614   4.438   4.780   2.909
 5245TIP3    H115615   4.346   4.778   2.877
 5245TIP3    H215616   4.464   4.686   2.896
 5246TIP3   OH215617   2.697   6.280   2.834
 5246TIP3    H115618   2.608   6.315   2.810
 5246TIP3    H215619   2.698   6.299   2.928
 5247TIP3   OH215620   2.933   6.256   2.693
 5247TIP3    H115621   2.847   6.269   2.738
 5247TIP3    H215622   2.913   6.287   2.602
 5248TIP3   OH215623   3.359   6.287   2.490
 5248TIP3    H115624   3.289   6.306   2.425
 5248TIP3    H215625   3.371   6.374   2.533
 5249TIP3   OH215626   3.625   6.225   2.541
 5249TIP3    H115627   3.531   6.242   2.521
 5249TIP3    H215628   3.668   6.303   2.501
 5250TIP3   OH215629   3.835   6.418   2.460
 5250TIP3    H115630   3.822   6.503   2.412
 5250TIP3    H215631   3.860   6.358   2.387
 5251TIP3   OH215632   2.605   6.074   2.586
 5251TIP3    H115633   2.634   6.047   2.676
 5251TIP3    H215634   2.676   6.029   2.533
 5252TIP3   OH215635   2.796   5.945   2.445
 5252TIP3    H115636   2.816   5.858   2.486
 5252TIP3    H215637   2.886   5.981   2.430
 5253TIP3   OH215638   3.065   6.040   2.437
 5253TIP3    H115639   3.096   5.949   2.422
 5253TIP3    H215640   3.106   6.058   2.524
 5254TIP3   OH215641   3.642   4.695   2.526
 5254TIP3    H115642   3.597   4.627   2.580
 5254TIP3    H215643   3.712   4.643   2.482
 5255TIP3   OH215644   4.169   4.572   2.435
 5255TIP3    H115645   4.205   4.626   2.360
 5255TIP3    H215646   4.073   4.590   2.429
 5256TIP3   OH215647   4.262   4.676   2.198
 5256TIP3    H115648   4.335   4.625   2.156
 5256TIP3    H215649   4.294   4.768   2.183
 5257TIP3   OH215650   2.892   4.403   2.547
 5257TIP3    H115651   2.800   4.371   2.545
 5257TIP3    H215652   2.941   4.318   2.542
 5258TIP3   OH215653   2.682   4.270   2.192
 5258TIP3    H115654   2.706   4.329   2.119
 5258TIP3    H215655   2.645   4.332   2.258
 5259TIP3   OH215656   3.333   4.435   2.424
 5259TIP3    H115657   3.392   4.488   2.369
 5259TIP3    H215658   3.349   4.473   2.512
 5260TIP3   OH215659   3.887   4.580   2.410
 5260TIP3    H115660   3.877   4.547   2.320
 5260TIP3    H215661   3.869   4.498   2.463
 5261TIP3   OH215662   3.911   4.501   1.970
 5261TIP3    H115663   3.823   4.543   1.979
 5261TIP3    H215664   3.896   4.417   2.019
 5262TIP3   OH215665   2.397   5.847   1.980
 5262TIP3    H115666   2.309   5.832   1.941
 5262TIP3    H215667   2.404   5.945   1.976
 5263TIP3   OH215668   2.791   4.433   1.956
 5263TIP3    H115669   2.842   4.370   1.901
 5263TIP3    H215670   2.863   4.487   1.994
 5264TIP3   OH215671   3.307   4.604   2.056
 5264TIP3    H115672   3.367   4.558   2.116
 5264TIP3    H215673   3.329   4.697   2.080
 5265TIP3   OH215674   3.166   6.037   1.551
 5265TIP3    H115675   3.256   6.055   1.518
 5265TIP3    H215676   3.144   5.959   1.495
 5266TIP3   OH215677   3.883   6.148   1.646
 5266TIP3    H115678   3.875   6.051   1.633
 5266TIP3    H215679   3.840   6.181   1.565
 5267TIP3   OH215680   3.099   4.681   3.433
 5267TIP3    H115681   3.066   4.614   3.494
 5267TIP3    H215682   3.194   4.684   3.460
 5268TIP3   OH215683   3.347   4.679   3.554
 5268TIP3    H115684   3.433   4.656   3.516
 5268TIP3    H215685   3.336   4.609   3.622
 5269TIP3   OH215686   2.472   5.874   1.618
 5269TIP3    H115687   2.477   5.909   1.708
 5269TIP3    H215688   2.560   5.833   1.606
 5270TIP3   OH215689   4.170   4.738   3.344
 5270TIP3    H115690   4.190   4.708   3.435
 5270TIP3    H215691   4.259   4.735   3.302
 5271TIP3   OH215692   4.114   6.295   2.835
 5271TIP3    H115693   4.034   6.262   2.789
 5271TIP3    H215694   4.094   6.391   2.836
 5272TIP3   OH215695   5.377   5.664   1.605
 5272TIP3    H115696   5.352   5.757   1.586
 5272TIP3    H215697   5.298   5.618   1.570
 5273TIP3   OH215698   5.377   5.664   1.977
 5273TIP3    H115699   5.404   5.634   2.066
 5273TIP3    H215700   5.333   5.586   1.941
 5274TIP3   OH215701   4.678   5.563   2.346
 5274TIP3    H115702   4.711   5.497   2.410
 5274TIP3    H215703   4.754   5.623   2.341
 5275TIP3   OH215704   5.617   5.965   1.662
 5275TIP3    H115705   5.607   5.897   1.729
 5275TIP3    H215706   5.645   6.042   1.715
 5276TIP3   OH215707   4.645   5.969   2.076
 5276TIP3    H115708   4.638   5.871   2.080
 5276TIP3    H215709   4.742   5.979   2.070
 5277TIP3   OH215710   4.354   5.176   1.862
 5277TIP3    H115711   4.306   5.260   1.873
 5277TIP3    H215712   4.283   5.119   1.827
 5278TIP3   OH215713   4.415   5.462   2.026
 5278TIP3    H115714   4.463   5.386   2.065
 5278TIP3    H215715   4.473   5.487   1.953
 5279TIP3   OH215716   5.263   6.428   1.677
 5279TIP3    H115717   5.314   6.357   1.632
 5279TIP3    H215718   5.263   6.397   1.768
 5280TIP3   OH215719   5.176   5.890   2.030
 5280TIP3    H115720   5.213   5.815   1.980
 5280TIP3    H215721   5.260   5.934   2.053
 5281TIP3   OH215722   6.185   5.211   2.027
 5281TIP3    H115723   6.213   5.294   2.072
 5281TIP3    H215724   6.206   5.233   1.935
 5282TIP3   OH215725   5.586   5.393   2.067
 5282TIP3    H115726   5.631   5.308   2.084
 5282TIP3    H215727   5.557   5.381   1.974
 5283TIP3   OH215728   4.923   5.052   2.030
 5283TIP3    H115729   4.902   5.125   1.968
 5283TIP3    H215730   4.875   4.979   1.985
 5284TIP3   OH215731   5.617   5.142   1.654
 5284TIP3    H115732   5.690   5.126   1.718
 5284TIP3    H215733   5.666   5.179   1.579
 5285TIP3   OH215734   4.558   5.256   2.135
 5285TIP3    H115735   4.641   5.235   2.183
 5285TIP3    H215736   4.570   5.199   2.056
 5286TIP3   OH215737   5.001   5.453   1.924
 5286TIP3    H115738   5.094   5.426   1.939
 5286TIP3    H215739   4.961   5.369   1.894
 5287TIP3   OH215740   6.259   5.416   2.200
 5287TIP3    H115741   6.177   5.467   2.179
 5287TIP3    H215742   6.276   5.445   2.291
 5288TIP3   OH215743   4.922   5.036   2.463
 5288TIP3    H115744   4.861   5.074   2.396
 5288TIP3    H215745   4.871   5.054   2.545
 5289TIP3   OH215746   5.273   5.886   1.473
 5289TIP3    H115747   5.227   5.862   1.391
 5289TIP3    H215748   5.231   5.972   1.494
 5290TIP3   OH215749   5.028   5.809   2.263
 5290TIP3    H115750   4.963   5.873   2.301
 5290TIP3    H215751   5.069   5.863   2.193
 5291TIP3   OH215752   5.833   5.142   1.820
 5291TIP3    H115753   5.827   5.092   1.903
 5291TIP3    H215754   5.887   5.218   1.846
 5292TIP3   OH215755   4.791   5.151   2.249
 5292TIP3    H115756   4.853   5.223   2.271
 5292TIP3    H215757   4.840   5.110   2.173
 5293TIP3   OH215758   4.853   6.001   2.356
 5293TIP3    H115759   4.829   6.086   2.315
 5293TIP3    H215760   4.774   5.988   2.413
 5294TIP3   OH215761   4.254   5.693   1.593
 5294TIP3    H115762   4.211   5.719   1.509
 5294TIP3    H215763   4.282   5.778   1.630
 5295TIP3   OH215764   5.691   6.207   1.833
 5295TIP3    H115765   5.601   6.200   1.872
 5295TIP3    H215766   5.684   6.293   1.787
 5296TIP3   OH215767   5.979   5.110   2.195
 5296TIP3    H115768   5.893   5.143   2.165
 5296TIP3    H215769   6.039   5.142   2.124
 5297TIP3   OH215770   5.284   4.756   2.178
 5297TIP3    H115771   5.267   4.661   2.192
 5297TIP3    H215772   5.206   4.795   2.222
 5298TIP3   OH215773   5.398   6.257   1.510
 5298TIP3    H115774   5.447   6.175   1.486
 5298TIP3    H215775   5.457   6.323   1.467
 5299TIP3   OH215776   5.537   6.042   1.410
 5299TIP3    H115777   5.497   5.964   1.369
 5299TIP3    H215778   5.570   6.005   1.494
 5300TIP3   OH215779   5.918   6.125   2.176
 5300TIP3    H115780   5.907   6.047   2.116
 5300TIP3    H215781   5.901   6.199   2.115
 5301TIP3   OH215782   5.208   5.516   1.430
 5301TIP3    H115783   5.127   5.568   1.408
 5301TIP3    H215784   5.255   5.514   1.345
 5302TIP3   OH215785   5.168   5.299   1.153
 5302TIP3    H115786   5.236   5.350   1.200
 5302TIP3    H215787   5.224   5.235   1.104
 5303TIP3   OH215788   6.112   5.757   2.018
 5303TIP3    H115789   6.030   5.811   2.025
 5303TIP3    H215790   6.142   5.782   1.928
 5304TIP3   OH215791   5.554   5.598   1.406
 5304TIP3    H115792   5.500   5.625   1.484
 5304TIP3    H215793   5.638   5.573   1.450
 5305TIP3   OH215794   5.791   5.640   2.313
 5305TIP3    H115795   5.789   5.724   2.363
 5305TIP3    H215796   5.705   5.646   2.267
 5306TIP3   OH215797   4.787   5.599   1.821
 5306TIP3    H115798   4.745   5.542   1.753
 5306TIP3    H215799   4.865   5.546   1.847
 5307TIP3   OH215800   4.917   6.008   1.971
 5307TIP3    H115801   4.897   5.961   1.888
 5307TIP3    H215802   5.008   5.977   1.989
 5308TIP3   OH215803   4.929   5.568   2.175
 5308TIP3    H115804   4.959   5.552   2.083
 5308TIP3    H215805   4.968   5.655   2.196
 5309TIP3   OH215806   5.449   6.206   1.951
 5309TIP3    H115807   5.435   6.287   2.004
 5309TIP3    H215808   5.435   6.134   2.015
 5310TIP3   OH215809   5.061   6.126   2.499
 5310TIP3    H115810   5.002   6.189   2.546
 5310TIP3    H215811   4.994   6.072   2.451
 5311TIP3   OH215812   5.399   5.456   1.230
 5311TIP3    H115813   5.456   5.516   1.283
 5311TIP3    H215814   5.425   5.482   1.138
 5312TIP3   OH215815   4.814   5.684   2.596
 5312TIP3    H115816   4.819   5.770   2.644
 5312TIP3    H215817   4.718   5.666   2.604
 5313TIP3   OH215818   5.136   6.140   1.506
 5313TIP3    H115819   5.212   6.195   1.531
 5313TIP3    H215820   5.075   6.205   1.468
 5314TIP3   OH215821   4.857   6.296   2.584
 5314TIP3    H115822   4.821   6.293   2.494
 5314TIP3    H215823   4.778   6.274   2.639
 5315TIP3   OH215824   5.913   4.700   1.277
 5315TIP3    H115825   5.832   4.719   1.329
 5315TIP3    H215826   5.924   4.784   1.228
 5316TIP3   OH215827   4.654   5.440   1.627
 5316TIP3    H115828   4.591   5.486   1.567
 5316TIP3    H215829   4.609   5.355   1.639
 5317TIP3   OH215830   5.709   6.068   0.824
 5317TIP3    H115831   5.718   6.165   0.814
 5317TIP3    H215832   5.802   6.039   0.814
 5318TIP3   OH215833   4.436   5.824   2.533
 5318TIP3    H115834   4.372   5.801   2.463
 5318TIP3    H215835   4.472   5.737   2.559
 5319TIP3   OH215836   4.289   6.016   2.168
 5319TIP3    H115837   4.385   6.011   2.157
 5319TIP3    H215838   4.280   6.097   2.220
 5320TIP3   OH215839   6.156   6.466   2.220
 5320TIP3    H115840   6.152   6.369   2.233
 5320TIP3    H215841   6.072   6.492   2.265
 5321TIP3   OH215842   5.261   6.255   2.355
 5321TIP3    H115843   5.262   6.348   2.387
 5321TIP3    H215844   5.190   6.217   2.410
 5322TIP3   OH215845   5.016   6.384   1.307
 5322TIP3    H115846   4.974   6.366   1.221
 5322TIP3    H215847   4.988   6.475   1.328
 5323TIP3   OH215848   4.457   6.235   1.689
 5323TIP3    H115849   4.507   6.224   1.773
 5323TIP3    H215850   4.393   6.162   1.698
 5324TIP3   OH215851   5.221   6.283   0.949
 5324TIP3    H115852   5.282   6.215   0.912
 5324TIP3    H215853   5.256   6.293   1.040
 5325TIP3   OH215854   5.269   6.332   1.220
 5325TIP3    H115855   5.182   6.341   1.263
 5325TIP3    H215856   5.322   6.291   1.291
 5326TIP3   OH215857   6.046   5.600   2.495
 5326TIP3    H115858   5.966   5.616   2.442
 5326TIP3    H215859   6.058   5.504   2.483
 5327TIP3   OH215860   4.640   6.007   2.525
 5327TIP3    H115861   4.691   5.990   2.607
 5327TIP3    H215862   4.567   5.943   2.532
 5328TIP3   OH215863   5.041   4.831   2.302
 5328TIP3    H115864   4.951   4.800   2.279
 5328TIP3    H215865   5.018   4.915   2.345
 5329TIP3   OH215866   5.581   4.937   2.519
 5329TIP3    H115867   5.602   4.987   2.599
 5329TIP3    H215868   5.485   4.919   2.533
 5330TIP3   OH215869   5.812   5.374   2.416
 5330TIP3    H115870   5.766   5.371   2.502
 5330TIP3    H215871   5.791   5.463   2.383
 5331TIP3   OH215872   5.472   5.508   0.975
 5331TIP3    H115873   5.440   5.479   0.887
 5331TIP3    H215874   5.550   5.560   0.950
 5332TIP3   OH215875   5.187   4.882   1.275
 5332TIP3    H115876   5.154   4.880   1.367
 5332TIP3    H215877   5.148   4.798   1.242
 5333TIP3   OH215878   4.971   5.345   2.324
 5333TIP3    H115879   4.921   5.369   2.404
 5333TIP3    H215880   4.957   5.426   2.269
 5334TIP3   OH215881   4.856   5.231   1.838
 5334TIP3    H115882   4.763   5.207   1.854
 5334TIP3    H215883   4.870   5.192   1.749
 5335TIP3   OH215884   5.346   5.318   1.563
 5335TIP3    H115885   5.291   5.390   1.524
 5335TIP3    H215886   5.400   5.292   1.486
 5336TIP3   OH215887   5.520   5.598   2.651
 5336TIP3    H115888   5.499   5.527   2.714
 5336TIP3    H215889   5.613   5.616   2.674
 5337TIP3   OH215890   5.504   5.349   1.806
 5337TIP3    H115891   5.447   5.382   1.734
 5337TIP3    H215892   5.535   5.266   1.763
 5338TIP3   OH215893   4.791   5.376   2.533
 5338TIP3    H115894   4.814   5.441   2.601
 5338TIP3    H215895   4.779   5.294   2.585
 5339TIP3   OH215896   4.840   4.851   1.242
 5339TIP3    H115897   4.834   4.849   1.339
 5339TIP3    H215898   4.761   4.903   1.220
 5340TIP3   OH215899   4.383   4.900   2.112
 5340TIP3    H115900   4.460   4.930   2.165
 5340TIP3    H215901   4.423   4.865   2.031
 5341TIP3   OH215902   4.364   4.880   1.633
 5341TIP3    H115903   4.409   4.920   1.555
 5341TIP3    H215904   4.301   4.953   1.654
 5342TIP3   OH215905   5.514   5.596   2.229
 5342TIP3    H115906   5.546   5.522   2.172
 5342TIP3    H215907   5.486   5.545   2.308
 5343TIP3   OH215908   5.180   5.053   1.900
 5343TIP3    H115909   5.095   5.052   1.950
 5343TIP3    H215910   5.244   5.061   1.972
 5344TIP3   OH215911   4.617   5.109   1.909
 5344TIP3    H115912   4.522   5.117   1.882
 5344TIP3    H215913   4.639   5.017   1.884
 5345TIP3   OH215914   4.890   5.109   1.594
 5345TIP3    H115915   4.984   5.123   1.573
 5345TIP3    H215916   4.844   5.132   1.511
 5346TIP3   OH215917   5.675   5.130   2.098
 5346TIP3    H115918   5.638   5.142   2.188
 5346TIP3    H215919   5.610   5.067   2.061
 5347TIP3   OH215920   4.724   5.138   1.376
 5347TIP3    H115921   4.650   5.097   1.328
 5347TIP3    H215922   4.776   5.174   1.301
 5348TIP3   OH215923   5.841   6.819   2.318
 5348TIP3    H115924   5.840   6.842   2.223
 5348TIP3    H215925   5.918   6.870   2.349
 5349TIP3   OH215926   4.802   5.929   2.742
 5349TIP3    H115927   4.882   5.959   2.790
 5349TIP3    H215928   4.737   5.929   2.815
 5350TIP3   OH215929   5.266   5.379   1.995
 5350TIP3    H115930   5.340   5.343   1.944
 5350TIP3    H215931   5.282   5.342   2.084
 5351TIP3   OH215932   4.794   4.872   1.871
 5351TIP3    H115933   4.761   4.791   1.915
 5351TIP3    H215934   4.846   4.837   1.797
 5352TIP3   OH215935   5.243   5.274   2.292
 5352TIP3    H115936   5.154   5.314   2.299
 5352TIP3    H215937   5.300   5.338   2.340
 5353TIP3   OH215938   4.980   5.671   1.382
 5353TIP3    H115939   4.907   5.606   1.371
 5353TIP3    H215940   4.963   5.704   1.473
 5354TIP3   OH215941   5.883   5.906   2.013
 5354TIP3    H115942   5.906   5.955   1.931
 5354TIP3    H215943   5.796   5.866   1.990
 5355TIP3   OH215944   5.439   4.984   1.239
 5355TIP3    H115945   5.342   4.970   1.246
 5355TIP3    H215946   5.450   5.079   1.263
 5356TIP3   OH215947   5.379   5.987   2.379
 5356TIP3    H115948   5.398   5.965   2.471
 5356TIP3    H215949   5.342   6.077   2.385
 5357TIP3   OH215950   5.510   5.229   1.344
 5357TIP3    H115951   5.606   5.236   1.360
 5357TIP3    H215952   5.491   5.309   1.291
 5358TIP3   OH215953   4.671   5.690   2.060
 5358TIP3    H115954   4.708   5.662   1.974
 5358TIP3    H215955   4.708   5.624   2.120
 5359TIP3   OH215956   5.124   5.820   1.200
 5359TIP3    H115957   5.078   5.907   1.207
 5359TIP3    H215958   5.070   5.765   1.260
 5360TIP3   OH215959   4.550   5.613   2.670
 5360TIP3    H115960   4.573   5.600   2.765
 5360TIP3    H215961   4.481   5.546   2.657
 5361TIP3   OH215962   5.276   5.724   2.691
 5361TIP3    H115963   5.218   5.666   2.638
 5361TIP3    H215964   5.364   5.693   2.662
 5362TIP3   OH215965   5.541   6.244   2.274
 5362TIP3    H115966   5.445   6.246   2.285
 5362TIP3    H215967   5.569   6.298   2.351
 5363TIP3   OH215968   5.952   5.316   1.183
 5363TIP3    H115969   5.888   5.272   1.122
 5363TIP3    H215970   5.950   5.405   1.141
 5364TIP3   OH215971   6.168   6.173   2.266
 5364TIP3    H115972   6.070   6.171   2.257
 5364TIP3    H215973   6.193   6.145   2.175
 5365TIP3   OH215974   5.646   6.138   1.088
 5365TIP3    H115975   5.627   6.067   1.151
 5365TIP3    H215976   5.662   6.090   1.005
 5366TIP3   OH215977   5.646   5.767   1.935
 5366TIP3    H115978   5.552   5.742   1.946
 5366TIP3    H215979   5.680   5.689   1.887
 5367TIP3   OH215980   4.771   5.993   1.681
 5367TIP3    H115981   4.775   6.076   1.629
 5367TIP3    H215982   4.675   5.981   1.689
 5368TIP3   OH215983   4.334   5.300   1.382
 5368TIP3    H115984   4.381   5.383   1.402
 5368TIP3    H215985   4.257   5.306   1.443
 5369TIP3   OH215986   4.916   5.763   1.629
 5369TIP3    H115987   4.880   5.852   1.645
 5369TIP3    H215988   4.878   5.713   1.703
 5370TIP3   OH215989   5.040   6.340   2.153
 5370TIP3    H115990   5.079   6.412   2.101
 5370TIP3    H215991   5.117   6.307   2.202
 5371TIP3   OH215992   4.694   6.233   1.536
 5371TIP3    H115993   4.607   6.242   1.580
 5371TIP3    H215994   4.725   6.326   1.538
 5372TIP3   OH215995   5.432   5.972   2.110
 5372TIP3    H115996   5.425   5.971   2.208
 5372TIP3    H215997   5.514   5.922   2.096
 5373TIP3   OH215998   5.401   5.861   0.992
 5373TIP3    H115999   5.454   5.838   1.072
 5373TIP3    H216000   5.312   5.840   1.024
 5374TIP3   OH216001   5.679   6.509   2.161
 5374TIP3    H116002   5.600   6.453   2.151
 5374TIP3    H216003   5.665   6.575   2.089
 5375TIP3   OH216004   5.745   6.340   0.819
 5375TIP3    H116005   5.773   6.404   0.751
 5375TIP3    H216006   5.665   6.388   0.850
 5376TIP3   OH216007   4.766   5.117   2.681
 5376TIP3    H116008   4.670   5.125   2.697
 5376TIP3    H216009   4.793   5.056   2.752
 5377TIP3   OH216010   5.562   5.800   1.211
 5377TIP3    H116011   5.553   5.733   1.281
 5377TIP3    H216012   5.659   5.799   1.198
 5378TIP3   OH216013   4.480   6.204   2.313
 5378TIP3    H116014   4.531   6.127   2.340
 5378TIP3    H216015   4.511   6.270   2.377
 5379TIP3   OH216016   4.772   5.847   0.991
 5379TIP3    H116017   4.787   5.756   0.961
 5379TIP3    H216018   4.754   5.834   1.086
 5380TIP3   OH216019   4.718   5.851   1.264
 5380TIP3    H116020   4.787   5.825   1.327
 5380TIP3    H216021   4.722   5.949   1.269
 5381TIP3   OH216022   4.455   5.547   1.467
 5381TIP3    H116023   4.389   5.592   1.524
 5381TIP3    H216024   4.470   5.617   1.400
 5382TIP3   OH216025   5.599   5.177   2.357
 5382TIP3    H116026   5.675   5.224   2.395
 5382TIP3    H216027   5.589   5.100   2.415
 5383TIP3   OH216028   5.478   4.937   1.521
 5383TIP3    H116029   5.464   4.961   1.427
 5383TIP3    H216030   5.516   5.020   1.557
 5384TIP3   OH216031   4.981   6.049   1.213
 5384TIP3    H116032   4.895   6.080   1.249
 5384TIP3    H216033   5.000   6.121   1.150
 5385TIP3   OH216034   5.174   5.110   1.625
 5385TIP3    H116035   5.238   5.183   1.606
 5385TIP3    H216036   5.177   5.107   1.723
 5386TIP3   OH216037   5.439   5.434   2.436
 5386TIP3    H116038   5.452   5.491   2.514
 5386TIP3    H216039   5.497   5.359   2.455
 5387TIP3   OH216040   5.318   4.846   1.732
 5387TIP3    H116041   5.307   4.925   1.789
 5387TIP3    H216042   5.376   4.883   1.661
 5388TIP3   OH216043   4.722   6.124   1.278
 5388TIP3    H116044   4.692   6.193   1.215
 5388TIP3    H216045   4.707   6.169   1.364
 5389TIP3   OH216046   4.826   4.837   1.519
 5389TIP3    H116047   4.824   4.928   1.553
 5389TIP3    H216048   4.922   4.818   1.528
 5390TIP3   OH216049   6.081   5.332   2.415
 5390TIP3    H116050   5.983   5.328   2.420
 5390TIP3    H216051   6.094   5.299   2.325
 5391TIP3   OH216052   5.732   5.527   1.803
 5391TIP3    H116053   5.656   5.467   1.815
 5391TIP3    H216054   5.804   5.481   1.850
 5392TIP3   OH216055   4.441   5.760   1.274
 5392TIP3    H116056   4.501   5.835   1.283
 5392TIP3    H216057   4.490   5.709   1.206
 5393TIP3   OH216058   4.389   5.032   1.406
 5393TIP3    H116059   4.387   5.129   1.400
 5393TIP3    H216060   4.304   5.008   1.369
 5394TIP3   OH216061   5.699   6.479   1.754
 5394TIP3    H116062   5.656   6.526   1.679
 5394TIP3    H216063   5.793   6.499   1.733
 5395TIP3   OH216064   4.776   4.752   2.282
 5395TIP3    H116065   4.744   4.720   2.196
 5395TIP3    H216066   4.765   4.673   2.339
 5396TIP3   OH216067   4.318   5.970   1.667
 5396TIP3    H116068   4.238   6.003   1.710
 5396TIP3    H216069   4.305   6.006   1.577
 5397TIP3   OH216070   4.467   6.506   2.733
 5397TIP3    H116071   4.554   6.505   2.779
 5397TIP3    H216072   4.447   6.411   2.731
 5398TIP3   OH216073   4.956   6.480   2.776
 5398TIP3    H116074   5.050   6.458   2.785
 5398TIP3    H216075   4.931   6.422   2.701
 5399TIP3   OH216076   4.935   6.052   0.907
 5399TIP3    H116077   4.877   5.982   0.944
 5399TIP3    H216078   5.010   5.999   0.876
 5400TIP3   OH216079   5.592   6.381   2.509
 5400TIP3    H116080   5.583   6.311   2.578
 5400TIP3    H216081   5.669   6.432   2.540
 5401TIP3   OH216082   5.370   6.093   0.815
 5401TIP3    H116083   5.420   6.033   0.873
 5401TIP3    H216084   5.429   6.102   0.738
 5402TIP3   OH216085   4.602   5.916   2.933
 5402TIP3    H116086   4.618   5.820   2.937
 5402TIP3    H216087   4.513   5.918   2.890
 5403TIP3   OH216088   4.577   5.570   1.123
 5403TIP3    H116089   4.631   5.535   1.196
 5403TIP3    H216090   4.645   5.575   1.052
 5404TIP3   OH216091   5.211   6.000   2.705
 5404TIP3    H116092   5.168   6.013   2.619
 5404TIP3    H216093   5.241   5.906   2.700
 5405TIP3   OH216094   5.082   5.766   0.930
 5405TIP3    H116095   5.087   5.780   1.027
 5405TIP3    H216096   5.081   5.668   0.926
 5406TIP3   OH216097   5.702   6.005   2.311
 5406TIP3    H116098   5.775   6.052   2.267
 5406TIP3    H216099   5.630   6.070   2.301
 5407TIP3   OH216100   4.720   5.647   2.913
 5407TIP3    H116101   4.793   5.587   2.898
 5407TIP3    H216102   4.741   5.682   3.001
 5408TIP3   OH216103   4.789   5.470   1.350
 5408TIP3    H116104   4.761   5.427   1.433
 5408TIP3    H216105   4.823   5.394   1.298
 5409TIP3   OH216106   5.055   5.535   2.576
 5409TIP3    H116107   4.978   5.595   2.582
 5409TIP3    H216108   5.101   5.567   2.496
 5410TIP3   OH216109   4.884   5.261   1.190
 5410TIP3    H116110   4.858   5.263   1.096
 5410TIP3    H216111   4.982   5.270   1.183
 5411TIP3   OH216112   5.570   5.936   2.711
 5411TIP3    H116113   5.653   5.921   2.664
 5411TIP3    H216114   5.573   5.869   2.781
 5412TIP3   OH216115   5.710   5.597   0.848
 5412TIP3    H116116   5.689   5.549   0.766
 5412TIP3    H216117   5.680   5.687   0.822
 5413TIP3   OH216118   5.180   5.322   2.704
 5413TIP3    H116119   5.176   5.242   2.649
 5413TIP3    H216120   5.135   5.389   2.646
 5414TIP3   OH216121   5.181   5.105   2.508
 5414TIP3    H116122   5.206   5.151   2.425
 5414TIP3    H216123   5.087   5.085   2.491
 5415TIP3   OH216124   5.214   5.646   2.380
 5415TIP3    H116125   5.294   5.655   2.326
 5415TIP3    H216126   5.156   5.715   2.340
 5416TIP3   OH216127   5.792   5.612   2.764
 5416TIP3    H116128   5.846   5.533   2.779
 5416TIP3    H216129   5.859   5.676   2.733
 5417TIP3   OH216130   5.834   5.864   2.499
 5417TIP3    H116131   5.774   5.916   2.440
 5417TIP3    H216132   5.920   5.885   2.458
 5418TIP3   OH216133   5.054   5.440   2.930
 5418TIP3    H116134   4.985   5.373   2.945
 5418TIP3    H216135   5.090   5.413   2.843
 5419TIP3   OH216136   5.315   4.874   2.568
 5419TIP3    H116137   5.265   4.956   2.550
 5419TIP3    H216138   5.245   4.807   2.559
 5420TIP3   OH216139   5.441   5.380   2.792
 5420TIP3    H116140   5.432   5.371   2.888
 5420TIP3    H216141   5.350   5.356   2.765
 5421TIP3   OH216142   5.676   5.315   2.646
 5421TIP3    H116143   5.603   5.331   2.709
 5421TIP3    H216144   5.751   5.295   2.705
 5422TIP3   OH216145   5.905   5.263   2.798
 5422TIP3    H116146   5.916   5.168   2.822
 5422TIP3    H216147   5.902   5.307   2.886
 5423TIP3   OH216148   4.895   5.220   2.981
 5423TIP3    H116149   4.903   5.129   2.946
 5423TIP3    H216150   4.930   5.207   3.072
 5424TIP3   OH216151   5.412   4.893   2.824
 5424TIP3    H116152   5.461   4.811   2.839
 5424TIP3    H216153   5.368   4.877   2.738
 5425TIP3   OH216154   5.473   5.101   2.993
 5425TIP3    H116155   5.448   5.033   2.927
 5425TIP3    H216156   5.397   5.163   2.989
 5426TIP3   OH216157   4.691   6.326   1.091
 5426TIP3    H116158   4.787   6.326   1.073
 5426TIP3    H216159   4.660   6.373   1.012
 5427TIP3   OH216160   4.174   5.708   1.311
 5427TIP3    H116161   4.268   5.731   1.297
 5427TIP3    H216162   4.169   5.620   1.269
 5428TIP3   OH216163   4.086   6.321   1.720
 5428TIP3    H116164   4.018   6.259   1.687
 5428TIP3    H216165   4.130   6.266   1.788
 5429TIP3   OH216166   4.223   6.179   1.908
 5429TIP3    H116167   4.213   6.101   1.965
 5429TIP3    H216168   4.274   6.238   1.966
 5430TIP3   OH216169   5.949   6.574   1.707
 5430TIP3    H116170   5.977   6.610   1.793
 5430TIP3    H216171   6.007   6.621   1.646
 5431TIP3   OH216172   5.980   6.595   1.989
 5431TIP3    H116173   5.940   6.505   1.984
 5431TIP3    H216174   6.057   6.576   2.044
 5432TIP3   OH216175   6.028   6.270   2.563
 5432TIP3    H116176   5.953   6.279   2.625
 5432TIP3    H216177   6.067   6.359   2.566
 5433TIP3   OH216178   5.842   5.785   1.184
 5433TIP3    H116179   5.912   5.848   1.157
 5433TIP3    H216180   5.884   5.744   1.263
 5434TIP3   OH216181   5.970   5.651   1.386
 5434TIP3    H116182   5.905   5.610   1.446
 5434TIP3    H216183   6.034   5.692   1.448
 5435TIP3   OH216184   6.022   6.040   1.820
 5435TIP3    H116185   6.076   5.980   1.765
 5435TIP3    H216186   6.012   6.118   1.761
 5436TIP3   OH216187   5.858   6.342   2.017
 5436TIP3    H116188   5.787   6.387   2.067
 5436TIP3    H216189   5.807   6.295   1.947
 5437TIP3   OH216190   5.909   5.558   1.035
 5437TIP3    H116191   5.838   5.562   0.967
 5437TIP3    H216192   5.882   5.635   1.090
 5438TIP3   OH216193   5.780   5.232   0.992
 5438TIP3    H116194   5.743   5.275   0.914
 5438TIP3    H216195   5.751   5.139   0.978
 5439TIP3   OH216196   5.786   5.506   1.535
 5439TIP3    H116197   5.794   5.409   1.531
 5439TIP3    H216198   5.773   5.522   1.632
 5440TIP3   OH216199   4.413   5.580   2.280
 5440TIP3    H116200   4.412   5.554   2.185
 5440TIP3    H216201   4.510   5.582   2.296
 5441TIP3   OH216202   6.074   5.931   2.390
 5441TIP3    H116203   6.148   5.867   2.382
 5441TIP3    H216204   6.101   6.003   2.330
 5442TIP3   OH216205   6.261   5.740   2.414
 5442TIP3    H116206   6.187   5.689   2.453
 5442TIP3    H216207   6.334   5.676   2.425
 5443TIP3   OH216208   5.724   4.966   0.978
 5443TIP3    H116209   5.800   4.936   1.032
 5443TIP3    H216210   5.652   4.907   1.005
 5444TIP3   OH216211   5.781   5.222   1.432
 5444TIP3    H116212   5.822   5.133   1.446
 5444TIP3    H216213   5.839   5.256   1.362
 5445TIP3   OH216214   5.945   5.400   1.925
 5445TIP3    H116215   6.031   5.427   1.885
 5445TIP3    H216216   5.958   5.437   2.015
 5446TIP3   OH216217   6.010   5.541   2.159
 5446TIP3    H116218   5.931   5.576   2.205
 5446TIP3    H216219   6.043   5.621   2.112
 5447TIP3   OH216220   4.628   5.269   2.953
 5447TIP3    H116221   4.726   5.262   2.956
 5447TIP3    H216222   4.603   5.186   2.998
 5448TIP3   OH216223   6.462   5.128   2.715
 5448TIP3    H116224   6.521   5.063   2.671
 5448TIP3    H216225   6.436   5.186   2.641
 5449TIP3   OH216226   5.891   4.972   1.467
 5449TIP3    H116227   5.939   4.957   1.551
 5449TIP3    H216228   5.830   4.895   1.467
 5450TIP3   OH216229   4.590   4.959   2.286
 5450TIP3    H116230   4.653   4.885   2.297
 5450TIP3    H216231   4.652   5.034   2.282
 5451TIP3   OH216232   4.396   5.234   2.361
 5451TIP3    H116233   4.444   5.226   2.276
 5451TIP3    H216234   4.423   5.322   2.390
 5452TIP3   OH216235   6.338   5.275   2.523
 5452TIP3    H116236   6.250   5.312   2.545
 5452TIP3    H216237   6.310   5.205   2.461
 5453TIP3   OH216238   5.975   4.910   1.099
 5453TIP3    H116239   6.014   4.837   1.047
 5453TIP3    H216240   6.041   4.981   1.089
 5454TIP3   OH216241   4.376   4.739   1.862
 5454TIP3    H116242   4.282   4.737   1.885
 5454TIP3    H216243   4.376   4.797   1.782
 5455TIP3   OH216244   5.535   6.438   1.366
 5455TIP3    H116245   5.585   6.422   1.283
 5455TIP3    H216246   5.588   6.507   1.409
 5456TIP3   OH216247   4.596   4.816   2.675
 5456TIP3    H116248   4.547   4.812   2.758
 5456TIP3    H216249   4.529   4.856   2.616
 5457TIP3   OH216250   4.637   6.242   2.754
 5457TIP3    H116251   4.546   6.212   2.736
 5457TIP3    H216252   4.644   6.225   2.849
 5458TIP3   OH216253   4.812   6.272   2.300
 5458TIP3    H116254   4.764   6.348   2.261
 5458TIP3    H216255   4.899   6.287   2.256
 5459TIP3   OH216256   5.263   6.521   2.438
 5459TIP3    H116257   5.304   6.524   2.527
 5459TIP3    H216258   5.329   6.571   2.385
 5460TIP3   OH216259   5.441   6.670   2.294
 5460TIP3    H116260   5.513   6.620   2.253
 5460TIP3    H216261   5.491   6.728   2.355
 5461TIP3   OH216262   6.233   5.037   2.396
 5461TIP3    H116263   6.142   5.035   2.361
 5461TIP3    H216264   6.260   4.943   2.383
 5462TIP3   OH216265   4.492   6.533   2.322
 5462TIP3    H116266   4.404   6.569   2.297
 5462TIP3    H216267   4.498   6.562   2.414
 5463TIP3   OH216268   4.728   6.510   2.179
 5463TIP3    H116269   4.642   6.524   2.225
 5463TIP3    H216270   4.708   6.545   2.090
 5464TIP3   OH216271   5.154   6.543   1.977
 5464TIP3    H116272   5.086   6.565   1.911
 5464TIP3    H216273   5.168   6.630   2.020
 5465TIP3   OH216274   5.421   6.481   2.027
 5465TIP3    H116275   5.327   6.499   2.008
 5465TIP3    H216276   5.464   6.559   1.988
 5466TIP3   OH216277   5.631   6.674   1.947
 5466TIP3    H116278   5.617   6.759   1.899
 5466TIP3    H216279   5.656   6.614   1.873
 5467TIP3   OH216280   4.403   6.328   2.069
 5467TIP3    H116281   4.430   6.304   2.160
 5467TIP3    H216282   4.475   6.283   2.018
 5468TIP3   OH216283   4.594   6.198   1.922
 5468TIP3    H116284   4.612   6.114   1.971
 5468TIP3    H216285   4.684   6.237   1.917
 5469TIP3   OH216286   4.859   6.295   1.924
 5469TIP3    H116287   4.893   6.205   1.911
 5469TIP3    H216288   4.901   6.316   2.010
 5470TIP3   OH216289   5.441   4.952   2.018
 5470TIP3    H116290   5.394   4.883   2.068
 5470TIP3    H216291   5.507   4.901   1.967
 5471TIP3   OH216292   5.966   4.829   1.923
 5471TIP3    H116293   6.002   4.882   1.849
 5471TIP3    H216294   5.870   4.847   1.916
 5472TIP3   OH216295   6.058   4.931   1.685
 5472TIP3    H116296   6.131   4.881   1.643
 5472TIP3    H216297   6.090   5.023   1.670
 5473TIP3   OH216298   4.688   4.660   2.034
 5473TIP3    H116299   4.596   4.627   2.033
 5473TIP3    H216300   4.737   4.574   2.029
 5474TIP3   OH216301   4.472   4.527   1.677
 5474TIP3    H116302   4.503   4.586   1.606
 5474TIP3    H216303   4.442   4.590   1.745
 5475TIP3   OH216304   5.129   4.691   1.911
 5475TIP3    H116305   5.188   4.744   1.855
 5475TIP3    H216306   5.143   4.731   1.997
 5476TIP3   OH216307   5.684   4.837   1.896
 5476TIP3    H116308   5.673   4.806   1.805
 5476TIP3    H216309   5.665   4.755   1.948
 5477TIP3   OH216310   5.707   4.758   1.457
 5477TIP3    H116311   5.620   4.800   1.464
 5477TIP3    H216312   5.691   4.674   1.506
 5478TIP3   OH216313   4.190   6.095   1.463
 5478TIP3    H116314   4.106   6.063   1.426
 5478TIP3    H216315   4.178   6.190   1.449
 5479TIP3   OH216316   4.588   4.688   1.444
 5479TIP3    H116317   4.638   4.627   1.387
 5479TIP3    H216318   4.659   4.743   1.481
 5480TIP3   OH216319   5.103   4.861   1.543
 5480TIP3    H116320   5.163   4.814   1.602
 5480TIP3    H216321   5.125   4.954   1.567
 5481TIP3   OH216322   4.962   6.292   1.041
 5481TIP3    H116323   5.051   6.313   1.006
 5481TIP3    H216324   4.940   6.216   0.983
 5482TIP3   OH216325   5.678   6.405   1.134
 5482TIP3    H116326   5.671   6.307   1.119
 5482TIP3    H216327   5.637   6.439   1.052
 5483TIP3   OH216328   4.895   4.940   2.921
 5483TIP3    H116329   4.861   4.870   2.980
 5483TIP3    H216330   4.989   4.941   2.950
 5484TIP3   OH216331   5.142   4.936   3.042
 5484TIP3    H116332   5.230   4.910   3.009
 5484TIP3    H216333   5.128   4.867   3.111
 5485TIP3   OH216334   4.266   6.126   1.101
 5485TIP3    H116335   4.265   6.156   1.192
 5485TIP3    H216336   4.356   6.087   1.092
 5486TIP3   OH216337   5.962   4.990   2.830
 5486TIP3    H116338   5.984   4.961   2.921
 5486TIP3    H216339   6.050   4.991   2.787
 5487TIP3   OH216340   5.910   6.551   2.322
 5487TIP3    H116341   5.831   6.519   2.275
 5487TIP3    H216342   5.891   6.647   2.323
 5488TIP3   OH216343   7.174   5.921   1.092
 5488TIP3    H116344   7.150   6.015   1.073
 5488TIP3    H216345   7.095   5.876   1.057
 5489TIP3   OH216346   7.177   5.918   1.462
 5489TIP3    H116347   7.200   5.892   1.553
 5489TIP3    H216348   7.127   5.842   1.430
 5490TIP3   OH216349   6.475   5.820   1.833
 5490TIP3    H116350   6.508   5.754   1.897
 5490TIP3    H216351   6.550   5.880   1.827
 5491TIP3   OH216352   7.416   6.219   1.148
 5491TIP3    H116353   7.401   6.155   1.218
 5491TIP3    H216354   7.438   6.300   1.198
 5492TIP3   OH216355   6.441   6.225   1.564
 5492TIP3    H116356   6.434   6.128   1.567
 5492TIP3    H216357   6.538   6.236   1.555
 5493TIP3   OH216358   6.150   5.432   1.349
 5493TIP3    H116359   6.102   5.516   1.360
 5493TIP3    H216360   6.079   5.376   1.312
 5494TIP3   OH216361   6.211   5.719   1.512
 5494TIP3    H116362   6.259   5.643   1.552
 5494TIP3    H216363   6.269   5.745   1.440
 5495TIP3   OH216364   7.063   6.688   1.166
 5495TIP3    H116365   7.112   6.614   1.122
 5495TIP3    H216366   7.054   6.653   1.255
 5496TIP3   OH216367   6.972   6.146   1.518
 5496TIP3    H116368   7.009   6.073   1.464
 5496TIP3    H216369   7.056   6.190   1.541
 5497TIP3   OH216370   7.973   5.472   1.507
 5497TIP3    H116371   8.004   5.544   1.567
 5497TIP3    H216372   8.014   5.500   1.424
 5498TIP3   OH216373   7.387   5.652   1.552
 5498TIP3    H116374   7.423   5.564   1.572
 5498TIP3    H216375   7.352   5.639   1.462
 5499TIP3   OH216376   6.720   5.308   1.517
 5499TIP3    H116377   6.698   5.381   1.455
 5499TIP3    H216378   6.672   5.235   1.472
 5500TIP3   OH216379   7.418   5.400   1.148
 5500TIP3    H116380   7.497   5.376   1.199
 5500TIP3    H216381   7.458   5.439   1.068
 5501TIP3   OH216382   6.354   5.512   1.622
 5501TIP3    H116383   6.437   5.492   1.669
 5501TIP3    H216384   6.366   5.456   1.543
 5502TIP3   OH216385   6.797   5.709   1.411
 5502TIP3    H116386   6.890   5.682   1.427
 5502TIP3    H216387   6.757   5.625   1.380
 5503TIP3   OH216388   8.047   5.668   1.686
 5503TIP3    H116389   7.969   5.725   1.668
 5503TIP3    H216390   8.075   5.702   1.773
 5504TIP3   OH216391   6.718   5.292   1.949
 5504TIP3    H116392   6.657   5.330   1.883
 5504TIP3    H216393   6.667   5.310   2.031
 5505TIP3   OH216394   7.070   6.144   0.958
 5505TIP3    H116395   6.999   6.114   0.901
 5505TIP3    H216396   7.035   6.230   0.988
 5506TIP3   OH216397   6.824   6.066   1.750
 5506TIP3    H116398   6.759   6.130   1.788
 5506TIP3    H216399   6.865   6.119   1.679
 5507TIP3   OH216400   7.670   5.389   1.309
 5507TIP3    H116401   7.616   5.352   1.380
 5507TIP3    H216402   7.688   5.479   1.345
 5508TIP3   OH216403   6.587   5.407   1.735
 5508TIP3    H116404   6.649   5.480   1.758
 5508TIP3    H216405   6.636   5.366   1.660
 5509TIP3   OH216406   6.649   6.257   1.843
 5509TIP3    H116407   6.625   6.343   1.801
 5509TIP3    H216408   6.571   6.245   1.900
 5510TIP3   OH216409   6.050   5.949   1.080
 5510TIP3    H116410   6.007   5.976   0.996
 5510TIP3    H216411   6.078   6.035   1.117
 5511TIP3   OH216412   7.489   6.463   1.319
 5511TIP3    H116413   7.399   6.456   1.358
 5511TIP3    H216414   7.480   6.549   1.273
 5512TIP3   OH216415   7.778   5.361   1.683
 5512TIP3    H116416   7.691   5.399   1.660
 5512TIP3    H216417   7.834   5.398   1.612
 5513TIP3   OH216418   7.077   5.016   1.660
 5513TIP3    H116419   7.065   4.921   1.679
 5513TIP3    H216420   6.999   5.052   1.707
 5514TIP3   OH216421   7.209   6.508   1.025
 5514TIP3    H116422   7.247   6.429   0.981
 5514TIP3    H216423   7.241   6.577   0.963
 5515TIP3   OH216424   7.339   6.301   0.894
 5515TIP3    H116425   7.295   6.225   0.853
 5515TIP3    H216426   7.369   6.264   0.980
 5516TIP3   OH216427   7.714   6.381   1.663
 5516TIP3    H116428   7.703   6.304   1.603
 5516TIP3    H216429   7.696   6.456   1.602
 5517TIP3   OH216430   7.007   5.774   0.918
 5517TIP3    H116431   6.924   5.823   0.901
 5517TIP3    H216432   7.040   5.762   0.828
 5518TIP3   OH216433   6.967   5.559   0.661
 5518TIP3    H116434   7.055   5.589   0.690
 5518TIP3    H216435   6.991   5.490   0.596
 5519TIP3   OH216436   7.908   6.010   1.502
 5519TIP3    H116437   7.827   6.066   1.511
 5519TIP3    H216438   7.939   6.040   1.414
 5520TIP3   OH216439   7.350   5.851   0.897
 5520TIP3    H116440   7.296   5.880   0.974
 5520TIP3    H216441   7.436   5.833   0.940
 5521TIP3   OH216442   7.587   5.898   1.799
 5521TIP3    H116443   7.586   5.981   1.850
 5521TIP3    H216444   7.500   5.904   1.755
 5522TIP3   OH216445   6.583   5.855   1.308
 5522TIP3    H116446   6.541   5.798   1.240
 5522TIP3    H216447   6.661   5.803   1.333
 5523TIP3   OH216448   6.711   6.261   1.459
 5523TIP3    H116449   6.692   6.220   1.374
 5523TIP3    H216450   6.803   6.233   1.476
 5524TIP3   OH216451   6.725   5.824   1.662
 5524TIP3    H116452   6.754   5.810   1.570
 5524TIP3    H216453   6.764   5.912   1.683
 5525TIP3   OH216454   7.248   6.462   1.440
 5525TIP3    H116455   7.231   6.543   1.490
 5525TIP3    H216456   7.231   6.391   1.505
 5526TIP3   OH216457   6.857   6.381   1.987
 5526TIP3    H116458   6.798   6.445   2.033
 5526TIP3    H216459   6.791   6.329   1.938
 5527TIP3   OH216460   7.206   5.714   0.713
 5527TIP3    H116461   7.254   5.767   0.781
 5527TIP3    H216462   7.233   5.760   0.632
 5528TIP3   OH216463   6.611   5.940   2.084
 5528TIP3    H116464   6.615   6.026   2.130
 5528TIP3    H216465   6.515   5.923   2.090
 5529TIP3   OH216466   6.927   6.396   1.019
 5529TIP3    H116467   7.012   6.444   1.020
 5529TIP3    H216468   6.881   6.445   0.950
 5530TIP3   OH216469   6.653   6.552   2.071
 5530TIP3    H116470   6.617   6.550   1.980
 5530TIP3    H216471   6.574   6.530   2.125
 5531TIP3   OH216472   7.696   4.951   0.780
 5531TIP3    H116473   7.612   4.973   0.826
 5531TIP3    H216474   7.705   5.028   0.719
 5532TIP3   OH216475   6.449   5.696   1.115
 5532TIP3    H116476   6.388   5.743   1.055
 5532TIP3    H216477   6.404   5.611   1.125
 5533TIP3   OH216478   6.232   6.081   2.020
 5533TIP3    H116479   6.168   6.058   1.949
 5533TIP3    H216480   6.268   5.993   2.045
 5534TIP3   OH216481   6.086   6.271   1.657
 5534TIP3    H116482   6.181   6.269   1.643
 5534TIP3    H216483   6.075   6.354   1.706
 5535TIP3   OH216484   7.952   6.723   1.707
 5535TIP3    H116485   7.949   6.626   1.721
 5535TIP3    H216486   7.869   6.750   1.751
 5536TIP3   OH216487   7.058   6.511   1.842
 5536TIP3    H116488   7.059   6.604   1.874
 5536TIP3    H216489   6.986   6.474   1.897
 5537TIP3   OH216490   6.779   6.649   0.783
 5537TIP3    H116491   6.779   6.649   0.684
 5537TIP3    H216492   6.775   6.743   0.804
 5538TIP3   OH216493   6.253   6.492   1.176
 5538TIP3    H116494   6.302   6.481   1.260
 5538TIP3    H216495   6.188   6.420   1.185
 5539TIP3   OH216496   7.039   6.533   0.788
 5539TIP3    H116497   6.963   6.591   0.775
 5539TIP3    H216498   7.112   6.581   0.745
 5540TIP3   OH216499   7.842   5.856   1.981
 5540TIP3    H116500   7.762   5.873   1.931
 5540TIP3    H216501   7.853   5.760   1.972
 5541TIP3   OH216502   6.437   6.263   2.011
 5541TIP3    H116503   6.487   6.247   2.094
 5541TIP3    H216504   6.363   6.199   2.019
 5542TIP3   OH216505   6.837   5.088   1.789
 5542TIP3    H116506   6.747   5.057   1.765
 5542TIP3    H216507   6.813   5.172   1.833
 5543TIP3   OH216508   7.368   5.203   1.983
 5543TIP3    H116509   7.432   5.178   2.052
 5543TIP3    H216510   7.281   5.182   2.024
 5544TIP3   OH216511   7.612   5.633   1.903
 5544TIP3    H116512   7.563   5.628   1.988
 5544TIP3    H216513   7.586   5.721   1.869
 5545TIP3   OH216514   6.981   5.137   0.762
 5545TIP3    H116515   6.948   5.135   0.853
 5545TIP3    H216516   6.942   5.055   0.727
 5546TIP3   OH216517   6.768   5.602   1.810
 5546TIP3    H116518   6.717   5.625   1.891
 5546TIP3    H216519   6.753   5.682   1.755
 5547TIP3   OH216520   6.653   5.487   1.324
 5547TIP3    H116521   6.559   5.465   1.340
 5547TIP3    H216522   6.666   5.449   1.235
 5548TIP3   OH216523   7.142   5.575   1.052
 5548TIP3    H116524   7.088   5.647   1.013
 5548TIP3    H216525   7.195   5.547   0.974
 5549TIP3   OH216526   7.316   5.855   2.138
 5549TIP3    H116527   7.295   5.783   2.201
 5549TIP3    H216528   7.409   5.872   2.160
 5550TIP3   OH216529   7.300   5.606   1.294
 5550TIP3    H116530   7.242   5.642   1.224
 5550TIP3    H216531   7.327   5.523   1.249
 5551TIP3   OH216532   6.587   5.632   2.019
 5551TIP3    H116533   6.611   5.698   2.087
 5551TIP3    H216534   6.576   5.551   2.072
 5552TIP3   OH216535   6.635   5.107   0.731
 5552TIP3    H116536   6.627   5.107   0.828
 5552TIP3    H216537   6.557   5.161   0.706
 5553TIP3   OH216538   6.179   5.156   1.600
 5553TIP3    H116539   6.256   5.187   1.652
 5553TIP3    H216540   6.218   5.123   1.518
 5554TIP3   OH216541   6.160   5.137   1.121
 5554TIP3    H116542   6.203   5.176   1.042
 5554TIP3    H216543   6.097   5.209   1.142
 5555TIP3   OH216544   7.311   5.853   1.716
 5555TIP3    H116545   7.344   5.780   1.659
 5555TIP3    H216546   7.282   5.802   1.795
 5556TIP3   OH216547   6.977   5.310   1.388
 5556TIP3    H116548   6.891   5.308   1.435
 5556TIP3    H216549   7.039   5.318   1.462
 5557TIP3   OH216550   6.413   5.365   1.396
 5557TIP3    H116551   6.319   5.374   1.369
 5557TIP3    H216552   6.435   5.274   1.370
 5558TIP3   OH216553   6.687   5.366   1.081
 5558TIP3    H116554   6.781   5.381   1.056
 5558TIP3    H216555   6.638   5.388   0.998
 5559TIP3   OH216556   7.467   5.384   1.577
 5559TIP3    H116557   7.441   5.398   1.671
 5559TIP3    H216558   7.397   5.321   1.549
 5560TIP3   OH216559   6.518   5.391   0.866
 5560TIP3    H116560   6.447   5.351   0.812
 5560TIP3    H216561   6.573   5.431   0.796
 5561TIP3   OH216562   7.638   7.074   1.805
 5561TIP3    H116563   7.636   7.100   1.711
 5561TIP3    H216564   7.713   7.127   1.838
 5562TIP3   OH216565   6.598   6.184   2.229
 5562TIP3    H116566   6.678   6.216   2.277
 5562TIP3    H216567   6.533   6.187   2.302
 5563TIP3   OH216568   7.062   5.636   1.484
 5563TIP3    H116569   7.134   5.597   1.433
 5563TIP3    H216570   7.075   5.599   1.573
 5564TIP3   OH216571   6.591   5.129   1.358
 5564TIP3    H116572   6.558   5.047   1.401
 5564TIP3    H216573   6.640   5.094   1.282
 5565TIP3   OH216574   7.040   5.532   1.776
 5565TIP3    H116575   6.951   5.570   1.786
 5565TIP3    H216576   7.097   5.594   1.826
 5566TIP3   OH216577   6.781   5.921   0.874
 5566TIP3    H116578   6.704   5.863   0.858
 5566TIP3    H216579   6.758   5.960   0.962
 5567TIP3   OH216580   7.680   6.162   1.500
 5567TIP3    H116581   7.703   6.212   1.418
 5567TIP3    H216582   7.592   6.124   1.477
 5568TIP3   OH216583   7.234   5.237   0.743
 5568TIP3    H116584   7.137   5.222   0.735
 5568TIP3    H216585   7.241   5.334   0.739
 5569TIP3   OH216586   7.175   6.243   1.866
 5569TIP3    H116587   7.194   6.223   1.958
 5569TIP3    H216588   7.138   6.333   1.871
 5570TIP3   OH216589   7.308   5.492   0.840
 5570TIP3    H116590   7.405   5.500   0.845
 5570TIP3    H216591   7.285   5.564   0.777
 5571TIP3   OH216592   6.467   5.946   1.547
 5571TIP3    H116593   6.503   5.920   1.461
 5571TIP3    H216594   6.505   5.880   1.607
 5572TIP3   OH216595   6.346   5.869   2.157
 5572TIP3    H116596   6.369   5.857   2.251
 5572TIP3    H216597   6.277   5.802   2.144
 5573TIP3   OH216598   7.072   5.980   2.178
 5573TIP3    H116599   7.014   5.923   2.124
 5573TIP3    H216600   7.160   5.950   2.149
 5574TIP3   OH216601   7.338   6.498   1.762
 5574TIP3    H116602   7.241   6.503   1.772
 5574TIP3    H216603   7.366   6.553   1.838
 5575TIP3   OH216604   7.709   5.594   0.706
 5575TIP3    H116605   7.741   5.521   0.649
 5575TIP3    H216606   7.713   5.670   0.645
 5576TIP3   OH216607   7.964   6.429   1.753
 5576TIP3    H116608   7.866   6.427   1.744
 5576TIP3    H216609   7.989   6.401   1.662
 5577TIP3   OH216610   7.442   6.023   1.423
 5577TIP3    H116611   7.348   5.999   1.433
 5577TIP3    H216612   7.475   5.947   1.372
 5578TIP3   OH216613   6.567   6.249   1.168
 5578TIP3    H116614   6.576   6.331   1.117
 5578TIP3    H216615   6.471   6.241   1.175
 5579TIP3   OH216616   6.132   5.556   0.869
 5579TIP3    H116617   6.178   5.640   0.889
 5579TIP3    H216618   6.054   5.563   0.929
 5580TIP3   OH216619   6.714   6.020   1.117
 5580TIP3    H116620   6.677   6.110   1.132
 5580TIP3    H216621   6.673   5.971   1.190
 5581TIP3   OH216622   6.836   6.596   1.640
 5581TIP3    H116623   6.875   6.669   1.588
 5581TIP3    H216624   6.914   6.565   1.689
 5582TIP3   OH216625   6.489   6.489   1.024
 5582TIP3    H116626   6.402   6.500   1.067
 5582TIP3    H216627   6.522   6.581   1.024
 5583TIP3   OH216628   7.228   6.227   1.597
 5583TIP3    H116629   7.220   6.227   1.695
 5583TIP3    H216630   7.311   6.180   1.584
 5584TIP3   OH216631   7.094   6.148   0.519
 5584TIP3    H116632   7.176   6.179   0.559
 5584TIP3    H216633   7.062   6.082   0.581
 5585TIP3   OH216634   7.476   6.765   1.646
 5585TIP3    H116635   7.396   6.710   1.637
 5585TIP3    H216636   7.462   6.832   1.576
 5586TIP3   OH216637   6.562   5.374   2.168
 5586TIP3    H116638   6.467   5.381   2.184
 5586TIP3    H216639   6.590   5.313   2.239
 5587TIP3   OH216640   7.339   6.060   0.709
 5587TIP3    H116641   7.342   5.994   0.781
 5587TIP3    H216642   7.435   6.068   0.691
 5588TIP3   OH216643   6.275   6.461   1.800
 5588TIP3    H116644   6.328   6.384   1.827
 5588TIP3    H216645   6.307   6.528   1.862
 5589TIP3   OH216646   6.592   6.053   0.489
 5589TIP3    H116647   6.558   5.961   0.487
 5589TIP3    H216648   6.565   6.078   0.580
 5590TIP3   OH216649   6.514   6.109   0.743
 5590TIP3    H116650   6.583   6.079   0.805
 5590TIP3    H216651   6.517   6.207   0.757
 5591TIP3   OH216652   6.251   5.804   0.954
 5591TIP3    H116653   6.185   5.848   1.011
 5591TIP3    H216654   6.265   5.875   0.888
 5592TIP3   OH216655   7.402   5.434   1.837
 5592TIP3    H116656   7.471   5.479   1.888
 5592TIP3    H216657   7.380   5.358   1.895
 5593TIP3   OH216658   7.272   5.193   1.012
 5593TIP3    H116659   7.255   5.212   0.917
 5593TIP3    H216660   7.307   5.279   1.042
 5594TIP3   OH216661   6.770   6.302   0.647
 5594TIP3    H116662   6.702   6.325   0.714
 5594TIP3    H216663   6.815   6.388   0.639
 5595TIP3   OH216664   6.972   5.365   1.113
 5595TIP3    H116665   7.034   5.440   1.094
 5595TIP3    H216666   6.972   5.364   1.210
 5596TIP3   OH216667   7.236   5.690   1.922
 5596TIP3    H116668   7.248   5.748   2.000
 5596TIP3    H216669   7.293   5.615   1.945
 5597TIP3   OH216670   7.116   5.103   1.222
 5597TIP3    H116671   7.099   5.184   1.274
 5597TIP3    H216672   7.172   5.140   1.149
 5598TIP3   OH216673   6.515   6.374   0.772
 5598TIP3    H116674   6.497   6.445   0.705
 5598TIP3    H216675   6.504   6.423   0.856
 5599TIP3   OH216676   6.621   5.093   1.008
 5599TIP3    H116677   6.619   5.185   1.040
 5599TIP3    H216678   6.717   5.075   1.015
 5600TIP3   OH216679   7.878   5.583   1.904
 5600TIP3    H116680   7.780   5.584   1.908
 5600TIP3    H216681   7.893   5.564   1.811
 5601TIP3   OH216682   7.527   5.783   1.286
 5601TIP3    H116683   7.449   5.727   1.304
 5601TIP3    H216684   7.597   5.738   1.338
 5602TIP3   OH216685   6.234   6.023   0.767
 5602TIP3    H116686   6.296   6.097   0.775
 5602TIP3    H216687   6.284   5.967   0.702
 5603TIP3   OH216688   6.184   5.288   0.896
 5603TIP3    H116689   6.184   5.385   0.887
 5603TIP3    H216690   6.102   5.264   0.850
 5604TIP3   OH216691   7.496   6.734   1.242
 5604TIP3    H116692   7.449   6.780   1.169
 5604TIP3    H216693   7.588   6.757   1.220
 5605TIP3   OH216694   6.572   5.008   1.769
 5605TIP3    H116695   6.540   4.976   1.683
 5605TIP3    H216696   6.560   4.929   1.826
 5606TIP3   OH216697   6.113   6.224   1.154
 5606TIP3    H116698   6.034   6.259   1.197
 5606TIP3    H216699   6.102   6.262   1.065
 5607TIP3   OH216700   6.264   6.762   2.221
 5607TIP3    H116701   6.350   6.762   2.266
 5607TIP3    H216702   6.244   6.667   2.218
 5608TIP3   OH216703   6.751   6.735   2.265
 5608TIP3    H116704   6.846   6.718   2.272
 5608TIP3    H216705   6.727   6.679   2.188
 5609TIP3   OH216706   7.390   6.636   1.995
 5609TIP3    H116707   7.380   6.568   2.065
 5609TIP3    H216708   7.466   6.689   2.026
 5610TIP3   OH216709   6.397   6.172   2.420
 5610TIP3    H116710   6.414   6.076   2.422
 5610TIP3    H216711   6.309   6.175   2.377
 5611TIP3   OH216712   6.372   5.833   0.634
 5611TIP3    H116713   6.420   5.796   0.711
 5611TIP3    H216714   6.439   5.815   0.565
 5612TIP3   OH216715   7.007   6.256   2.192
 5612TIP3    H116716   6.964   6.271   2.106
 5612TIP3    H216717   7.037   6.163   2.186
 5613TIP3   OH216718   7.498   6.261   1.797
 5613TIP3    H116719   7.571   6.309   1.754
 5613TIP3    H216720   7.426   6.326   1.788
 5614TIP3   OH216721   6.515   5.902   2.400
 5614TIP3    H116722   6.591   5.845   2.384
 5614TIP3    H216723   6.538   5.939   2.488
 5615TIP3   OH216724   6.578   5.728   0.837
 5615TIP3    H116725   6.557   5.684   0.921
 5615TIP3    H216726   6.620   5.655   0.786
 5616TIP3   OH216727   6.851   5.791   2.063
 5616TIP3    H116728   6.774   5.851   2.069
 5616TIP3    H216729   6.897   5.824   1.983
 5617TIP3   OH216730   6.690   5.517   0.699
 5617TIP3    H116731   6.661   5.508   0.605
 5617TIP3    H216732   6.786   5.529   0.686
 5618TIP3   OH216733   7.365   6.192   2.198
 5618TIP3    H116734   7.449   6.179   2.151
 5618TIP3    H216735   7.369   6.125   2.268
 5619TIP3   OH216736   6.975   5.579   2.191
 5619TIP3    H116737   6.973   5.498   2.136
 5619TIP3    H216738   6.931   5.644   2.133
 5620TIP3   OH216739   6.977   5.364   1.995
 5620TIP3    H116740   7.003   5.407   1.911
 5620TIP3    H216741   6.882   5.342   1.977
 5621TIP3   OH216742   7.010   5.902   1.867
 5621TIP3    H116743   7.090   5.912   1.814
 5621TIP3    H216744   6.952   5.971   1.827
 5622TIP3   OH216745   7.589   5.870   2.252
 5622TIP3    H116746   7.642   5.789   2.262
 5622TIP3    H216747   7.655   5.933   2.221
 5623TIP3   OH216748   7.630   6.119   1.985
 5623TIP3    H116749   7.570   6.172   1.927
 5623TIP3    H216750   7.717   6.142   1.944
 5624TIP3   OH216751   6.851   5.697   2.417
 5624TIP3    H116752   6.781   5.629   2.431
 5624TIP3    H216753   6.886   5.671   2.330
 5625TIP3   OH216754   7.109   5.130   2.060
 5625TIP3    H116755   7.061   5.213   2.039
 5625TIP3    H216756   7.039   5.063   2.049
 5626TIP3   OH216757   7.237   5.636   2.278
 5626TIP3    H116758   7.227   5.628   2.375
 5626TIP3    H216759   7.146   5.612   2.251
 5627TIP3   OH216760   7.474   5.579   2.131
 5627TIP3    H116761   7.399   5.587   2.193
 5627TIP3    H216762   7.547   5.552   2.191
 5628TIP3   OH216763   7.704   5.521   2.286
 5628TIP3    H116764   7.713   5.427   2.310
 5628TIP3    H216765   7.700   5.566   2.373
 5629TIP3   OH216766   6.691   5.476   2.469
 5629TIP3    H116767   6.700   5.386   2.433
 5629TIP3    H216768   6.726   5.464   2.559
 5630TIP3   OH216769   7.206   5.140   2.316
 5630TIP3    H116770   7.272   5.068   2.312
 5630TIP3    H216771   7.165   5.133   2.228
 5631TIP3   OH216772   7.270   5.355   2.479
 5631TIP3    H116773   7.246   5.285   2.414
 5631TIP3    H216774   7.193   5.416   2.472
 5632TIP3   OH216775   6.492   6.558   0.570
 5632TIP3    H116776   6.567   6.616   0.551
 5632TIP3    H216777   6.420   6.608   0.528
 5633TIP3   OH216778   5.968   5.964   0.800
 5633TIP3    H116779   6.062   5.990   0.785
 5633TIP3    H216780   5.964   5.877   0.756
 5634TIP3   OH216781   5.882   6.578   1.208
 5634TIP3    H116782   5.815   6.515   1.173
 5634TIP3    H216783   5.926   6.522   1.275
 5635TIP3   OH216784   6.020   6.435   1.394
 5635TIP3    H116785   6.010   6.358   1.452
 5635TIP3    H216786   6.071   6.494   1.452
 5636TIP3   OH216787   7.742   6.835   1.195
 5636TIP3    H116788   7.769   6.867   1.282
 5636TIP3    H216789   7.808   6.876   1.137
 5637TIP3   OH216790   7.777   6.851   1.475
 5637TIP3    H116791   7.736   6.762   1.472
 5637TIP3    H216792   7.853   6.833   1.532
 5638TIP3   OH216793   7.824   6.526   2.050
 5638TIP3    H116794   7.749   6.535   2.111
 5638TIP3    H216795   7.864   6.615   2.052
 5639TIP3   OH216796   7.613   6.050   0.680
 5639TIP3    H116797   7.682   6.107   0.642
 5639TIP3    H216798   7.666   5.995   0.741
 5640TIP3   OH216799   7.770   5.908   0.866
 5640TIP3    H116800   7.702   5.869   0.925
 5640TIP3    H216801   7.831   5.950   0.930
 5641TIP3   OH216802   7.819   6.297   1.307
 5641TIP3    H116803   7.872   6.239   1.250
 5641TIP3    H216804   7.805   6.374   1.249
 5642TIP3   OH216805   7.654   6.598   1.504
 5642TIP3    H116806   7.584   6.644   1.554
 5642TIP3    H216807   7.602   6.552   1.434
 5643TIP3   OH216808   7.586   5.765   1.021
 5643TIP3    H116809   7.582   5.669   1.014
 5643TIP3    H216810   7.570   5.780   1.117
 5644TIP3   OH216811   6.210   5.835   1.767
 5644TIP3    H116812   6.208   5.810   1.672
 5644TIP3    H216813   6.307   5.838   1.783
 5645TIP3   OH216814   7.870   6.187   1.876
 5645TIP3    H116815   7.945   6.124   1.868
 5645TIP3    H216816   7.897   6.260   1.818
 5646TIP3   OH216817   8.057   5.997   1.899
 5646TIP3    H116818   7.983   5.946   1.940
 5646TIP3    H216819   8.131   5.933   1.912
 5647TIP3   OH216820   7.515   5.246   0.506
 5647TIP3    H116821   7.591   5.194   0.537
 5647TIP3    H216822   7.443   5.180   0.512
 5648TIP3   OH216823   7.583   5.483   0.927
 5648TIP3    H116824   7.620   5.393   0.926
 5648TIP3    H216825   7.626   5.524   0.849
 5649TIP3   OH216826   7.739   5.653   1.409
 5649TIP3    H116827   7.826   5.683   1.373
 5649TIP3    H216828   7.748   5.689   1.500
 5650TIP3   OH216829   7.802   5.796   1.643
 5650TIP3    H116830   7.725   5.833   1.692
 5650TIP3    H216831   7.836   5.877   1.598
 5651TIP3   OH216832   6.424   5.525   2.439
 5651TIP3    H116833   6.522   5.518   2.441
 5651TIP3    H216834   6.400   5.442   2.485
 5652TIP3   OH216835   8.257   5.383   2.202
 5652TIP3    H116836   8.318   5.320   2.158
 5652TIP3    H216837   8.232   5.443   2.129
 5653TIP3   OH216838   7.707   5.227   0.991
 5653TIP3    H116839   7.724   5.153   1.051
 5653TIP3    H216840   7.638   5.184   0.938
 5654TIP3   OH216841   6.387   5.216   1.774
 5654TIP3    H116842   6.450   5.142   1.784
 5654TIP3    H216843   6.448   5.291   1.769
 5655TIP3   OH216844   6.192   5.491   1.848
 5655TIP3    H116845   6.240   5.483   1.764
 5655TIP3    H216846   6.218   5.579   1.876
 5656TIP3   OH216847   8.134   5.532   2.011
 5656TIP3    H116848   8.045   5.568   2.029
 5656TIP3    H216849   8.114   5.465   1.944
 5657TIP3   OH216850   7.753   5.158   0.615
 5657TIP3    H116851   7.820   5.114   0.558
 5657TIP3    H216852   7.779   5.251   0.605
 5658TIP3   OH216853   6.172   4.996   1.349
 5658TIP3    H116854   6.077   4.994   1.372
 5658TIP3    H216855   6.173   5.054   1.269
 5659TIP3   OH216856   7.322   6.695   0.859
 5659TIP3    H116857   7.378   6.663   0.787
 5659TIP3    H216858   7.377   6.764   0.899
 5660TIP3   OH216859   6.392   5.072   2.162
 5660TIP3    H116860   6.342   5.070   2.246
 5660TIP3    H216861   6.326   5.112   2.102
 5661TIP3   OH216862   6.433   6.497   2.240
 5661TIP3    H116863   6.342   6.469   2.223
 5661TIP3    H216864   6.440   6.483   2.336
 5662TIP3   OH216865   6.609   6.529   1.786
 5662TIP3    H116866   6.560   6.604   1.747
 5662TIP3    H216867   6.695   6.544   1.743
 5663TIP3   OH216868   7.059   6.777   1.924
 5663TIP3    H116869   7.100   6.781   2.013
 5663TIP3    H216870   7.125   6.828   1.872
 5664TIP3   OH216871   7.237   6.926   1.781
 5664TIP3    H116872   7.310   6.877   1.741
 5664TIP3    H216873   7.286   6.985   1.843
 5665TIP3   OH216874   8.027   5.288   1.883
 5665TIP3    H116875   7.937   5.306   1.850
 5665TIP3    H216876   8.043   5.197   1.852
 5666TIP3   OH216877   6.288   6.789   1.810
 5666TIP3    H116878   6.200   6.825   1.784
 5666TIP3    H216879   6.294   6.821   1.900
 5667TIP3   OH216880   6.524   6.767   1.666
 5667TIP3    H116881   6.438   6.781   1.712
 5667TIP3    H216882   6.505   6.801   1.577
 5668TIP3   OH216883   6.950   6.799   1.465
 5668TIP3    H116884   6.882   6.821   1.398
 5668TIP3    H216885   6.964   6.886   1.508
 5669TIP3   OH216886   7.217   6.737   1.515
 5669TIP3    H116887   7.123   6.754   1.495
 5669TIP3    H216888   7.259   6.815   1.475
 5670TIP3   OH216889   7.429   6.932   1.434
 5670TIP3    H116890   7.413   7.016   1.386
 5670TIP3    H216891   7.452   6.871   1.360
 5671TIP3   OH216892   6.199   6.584   1.556
 5671TIP3    H116893   6.226   6.561   1.647
 5671TIP3    H216894   6.271   6.540   1.505
 5672TIP3   OH216895   6.390   6.454   1.409
 5672TIP3    H116896   6.409   6.371   1.458
 5672TIP3    H216897   6.479   6.494   1.403
 5673TIP3   OH216898   6.655   6.553   1.412
 5673TIP3    H116899   6.690   6.464   1.395
 5673TIP3    H216900   6.697   6.572   1.497
 5674TIP3   OH216901   7.241   5.209   1.507
 5674TIP3    H116902   7.188   5.144   1.558
 5674TIP3    H216903   7.295   5.152   1.450
 5675TIP3   OH216904   7.766   5.073   1.411
 5675TIP3    H116905   7.801   5.153   1.371
 5675TIP3    H216906   7.669   5.088   1.404
 5676TIP3   OH216907   6.484   4.916   1.521
 5676TIP3    H116908   6.392   4.884   1.519
 5676TIP3    H216909   6.533   4.831   1.516
 5677TIP3   OH216910   6.270   4.783   1.164
 5677TIP3    H116911   6.299   4.842   1.092
 5677TIP3    H216912   6.238   4.847   1.231
 5678TIP3   OH216913   6.926   4.947   1.398
 5678TIP3    H116914   6.985   5.001   1.343
 5678TIP3    H216915   6.940   4.986   1.485
 5679TIP3   OH216916   7.491   5.093   1.376
 5679TIP3    H116917   7.464   5.060   1.289
 5679TIP3    H216918   7.466   5.018   1.434
 5680TIP3   OH216919   7.499   5.025   0.952
 5680TIP3    H116920   7.407   5.059   0.953
 5680TIP3    H216921   7.487   4.938   0.996
 5681TIP3   OH216922   5.986   6.353   0.952
 5681TIP3    H116923   5.903   6.322   0.913
 5681TIP3    H216924   5.977   6.448   0.932
 5682TIP3   OH216925   6.384   4.943   0.933
 5682TIP3    H116926   6.435   4.884   0.874
 5682TIP3    H216927   6.455   5.000   0.969
 5683TIP3   OH216928   6.898   5.117   1.030
 5683TIP3    H116929   6.958   5.070   1.090
 5683TIP3    H216930   6.921   5.210   1.053
 5684TIP3   OH216931   6.691   5.195   2.408
 5684TIP3    H116932   6.658   5.126   2.467
 5684TIP3    H216933   6.786   5.197   2.435
 5685TIP3   OH216934   6.939   5.194   2.529
 5685TIP3    H116935   7.024   5.167   2.490
 5685TIP3    H216936   6.927   5.124   2.597
 5686TIP3   OH216937   6.057   6.372   0.589
 5686TIP3    H116938   6.050   6.420   0.673
 5686TIP3    H216939   6.151   6.345   0.587
 5687TIP3   OH216940   7.763   5.249   2.316
 5687TIP3    H116941   7.783   5.221   2.408
 5687TIP3    H216942   7.852   5.252   2.276
 5688TIP3   OH216943   7.707   6.808   1.808
 5688TIP3    H116944   7.627   6.775   1.762
 5688TIP3    H216945   7.688   6.904   1.810
 5689TIP3   OH216946   8.942   6.165   0.963
 5689TIP3    H116947   9.000   6.168   1.042
 5689TIP3    H216948   8.916   6.071   0.962
 5690TIP3   OH216949   8.269   6.076   1.322
 5690TIP3    H116950   8.303   6.011   1.386
 5690TIP3    H216951   8.346   6.134   1.312
 5691TIP3   OH216952   8.235   6.473   1.056
 5691TIP3    H116953   8.229   6.375   1.056
 5691TIP3    H216954   8.330   6.486   1.064
 5692TIP3   OH216955   7.927   5.668   0.851
 5692TIP3    H116956   7.908   5.763   0.863
 5692TIP3    H216957   7.848   5.644   0.797
 5693TIP3   OH216958   8.013   5.974   0.994
 5693TIP3    H116959   8.061   5.900   1.037
 5693TIP3    H216960   8.080   6.008   0.933
 5694TIP3   OH216961   8.762   6.404   1.000
 5694TIP3    H116962   8.798   6.317   0.974
 5694TIP3    H216963   8.847   6.447   1.026
 5695TIP3   OH216964   9.198   5.930   1.039
 5695TIP3    H116965   9.191   5.835   1.061
 5695TIP3    H216966   9.153   5.932   0.954
 5696TIP3   OH216967   8.504   5.561   1.015
 5696TIP3    H116968   8.480   5.639   0.960
 5696TIP3    H216969   8.462   5.490   0.961
 5697TIP3   OH216970   8.150   5.763   1.105
 5697TIP3    H116971   8.233   5.749   1.154
 5697TIP3    H216972   8.169   5.710   1.024
 5698TIP3   OH216973   8.612   5.973   0.918
 5698TIP3    H116974   8.705   5.943   0.922
 5698TIP3    H216975   8.569   5.896   0.877
 5699TIP3   OH216976   8.516   5.550   1.435
 5699TIP3    H116977   8.453   5.588   1.371
 5699TIP3    H216978   8.466   5.563   1.519
 5700TIP3   OH216979   8.621   6.324   1.237
 5700TIP3    H116980   8.556   6.385   1.277
 5700TIP3    H216981   8.666   6.381   1.173
 5701TIP3   OH216982   8.377   5.665   1.228
 5701TIP3    H116983   8.441   5.736   1.249
 5701TIP3    H216984   8.425   5.621   1.153
 5702TIP3   OH216985   8.445   6.514   1.326
 5702TIP3    H116986   8.421   6.602   1.291
 5702TIP3    H216987   8.368   6.500   1.386
 5703TIP3   OH216988   8.872   5.272   1.152
 5703TIP3    H116989   8.860   5.176   1.162
 5703TIP3    H216990   8.790   5.305   1.195
 5704TIP3   OH216991   8.351   6.054   0.828
 5704TIP3    H116992   8.340   6.110   0.748
 5704TIP3    H216993   8.447   6.041   0.833
 5705TIP3   OH216994   8.520   6.529   0.931
 5705TIP3    H116995   8.478   6.449   0.895
 5705TIP3    H216996   8.606   6.494   0.963
 5706TIP3   OH216997   8.516   6.082   1.154
 5706TIP3    H116998   8.550   6.059   1.065
 5706TIP3    H216999   8.560   6.168   1.172
 5707TIP3   OH217000   8.652   6.637   1.475
 5707TIP3    H117001   8.594   6.701   1.521
 5707TIP3    H217002   8.585   6.585   1.426
 5708TIP3   OH217003   8.407   6.197   1.570
 5708TIP3    H117004   8.412   6.283   1.618
 5708TIP3    H217005   8.311   6.179   1.577
 5709TIP3   OH217006   8.450   6.808   1.558
 5709TIP3    H117007   8.412   6.807   1.468
 5709TIP3    H217008   8.371   6.787   1.613
 5710TIP3   OH217009   8.028   6.338   1.507
 5710TIP3    H117010   7.964   6.315   1.437
 5710TIP3    H217011   8.064   6.250   1.533
 5711TIP3   OH217012   7.883   6.529   1.141
 5711TIP3    H117013   7.979   6.527   1.130
 5711TIP3    H217014   7.872   6.608   1.196
 5712TIP3   OH217015   8.851   6.767   1.329
 5712TIP3    H117016   8.855   6.859   1.362
 5712TIP3    H217017   8.781   6.729   1.387
 5713TIP3   OH217018   8.235   6.518   1.497
 5713TIP3    H117019   8.283   6.504   1.581
 5713TIP3    H217020   8.160   6.456   1.506
 5714TIP3   OH217021   8.631   5.345   1.276
 5714TIP3    H117022   8.541   5.313   1.253
 5714TIP3    H217023   8.608   5.428   1.320
 5715TIP3   OH217024   9.158   5.462   1.477
 5715TIP3    H117025   9.204   5.442   1.559
 5715TIP3    H217026   9.065   5.442   1.502
 5716TIP3   OH217027   8.564   5.857   1.298
 5716TIP3    H117028   8.513   5.880   1.379
 5716TIP3    H217029   8.548   5.938   1.244
 5717TIP3   OH217030   8.422   5.752   0.853
 5717TIP3    H117031   8.339   5.706   0.832
 5717TIP3    H217032   8.467   5.763   0.766
 5718TIP3   OH217033   9.115   6.111   1.625
 5718TIP3    H117034   9.088   6.041   1.688
 5718TIP3    H217035   9.208   6.125   1.649
 5719TIP3   OH217036   8.383   5.888   1.507
 5719TIP3    H117037   8.406   5.954   1.575
 5719TIP3    H217038   8.374   5.807   1.561
 5720TIP3   OH217039   8.106   5.474   0.613
 5720TIP3    H117040   8.105   5.551   0.554
 5720TIP3    H217041   8.014   5.443   0.610
 5721TIP3   OH217042   9.082   6.113   1.199
 5721TIP3    H117043   9.140   6.054   1.146
 5721TIP3    H217044   9.072   6.060   1.280
 5722TIP3   OH217045   8.761   5.504   0.928
 5722TIP3    H117046   8.677   5.543   0.959
 5722TIP3    H217047   8.825   5.573   0.948
 5723TIP3   OH217048   8.190   5.600   0.880
 5723TIP3    H117049   8.096   5.608   0.852
 5723TIP3    H217050   8.215   5.511   0.848
 5724TIP3   OH217051   9.158   5.666   1.077
 5724TIP3    H117052   9.165   5.668   1.174
 5724TIP3    H217053   9.132   5.573   1.059
 5725TIP3   OH217054   8.395   6.441   1.716
 5725TIP3    H117055   8.474   6.473   1.764
 5725TIP3    H217056   8.329   6.443   1.789
 5726TIP3   OH217057   8.878   5.891   0.968
 5726TIP3    H117058   8.911   5.818   0.914
 5726TIP3    H217059   8.882   5.854   1.058
 5727TIP3   OH217060   8.386   5.384   0.839
 5727TIP3    H117061   8.356   5.302   0.884
 5727TIP3    H217062   8.465   5.354   0.792
 5728TIP3   OH217063   8.836   5.790   1.261
 5728TIP3    H117064   8.746   5.826   1.272
 5728TIP3    H217065   8.891   5.853   1.313
 5729TIP3   OH217066   8.969   6.500   1.355
 5729TIP3    H117067   8.982   6.482   1.448
 5729TIP3    H217068   8.936   6.592   1.355
 5730TIP3   OH217069   8.262   6.199   1.039
 5730TIP3    H117070   8.287   6.157   0.954
 5730TIP3    H217071   8.302   6.137   1.101
 5731TIP3   OH217072   8.143   6.126   1.644
 5731TIP3    H117073   8.167   6.115   1.738
 5731TIP3    H217074   8.074   6.058   1.633
 5732TIP3   OH217075   8.867   6.236   1.665
 5732TIP3    H117076   8.808   6.180   1.612
 5732TIP3    H217077   8.955   6.207   1.633
 5733TIP3   OH217078   9.137   6.762   1.244
 5733TIP3    H117079   9.040   6.759   1.246
 5733TIP3    H217080   9.157   6.812   1.325
 5734TIP3   OH217081   8.631   6.848   1.131
 5734TIP3    H117082   8.662   6.933   1.097
 5734TIP3    H217083   8.710   6.816   1.178
 5735TIP3   OH217084   9.011   6.471   1.080
 5735TIP3    H117085   9.012   6.491   1.176
 5735TIP3    H217086   9.104   6.451   1.064
 5736TIP3   OH217087   8.360   5.633   1.656
 5736TIP3    H117088   8.264   5.630   1.668
 5736TIP3    H217089   8.388   5.563   1.717
 5737TIP3   OH217090   8.069   6.718   1.289
 5737TIP3    H117091   8.123   6.642   1.313
 5737TIP3    H217092   8.100   6.784   1.352
 5738TIP3   OH217093   9.216   5.700   1.355
 5738TIP3    H117094   9.256   5.743   1.432
 5738TIP3    H217095   9.179   5.619   1.397
 5739TIP3   OH217096   9.031   5.943   1.410
 5739TIP3    H117097   9.043   6.003   1.486
 5739TIP3    H217098   9.094   5.872   1.430
 5740TIP3   OH217099   8.363   5.263   1.260
 5740TIP3    H117100   8.337   5.226   1.172
 5740TIP3    H217101   8.352   5.186   1.318
 5741TIP3   OH217102   8.061   7.019   1.706
 5741TIP3    H117103   8.146   7.019   1.753
 5741TIP3    H217104   8.039   6.924   1.705
 5742TIP3   OH217105   8.547   6.991   1.752
 5742TIP3    H117106   8.642   6.975   1.759
 5742TIP3    H217107   8.524   6.936   1.675
 5743TIP3   OH217108   9.194   6.887   1.483
 5743TIP3    H117109   9.167   6.818   1.548
 5743TIP3    H217110   9.260   6.936   1.532
 5744TIP3   OH217111   8.194   6.429   1.906
 5744TIP3    H117112   8.210   6.333   1.909
 5744TIP3    H217113   8.105   6.432   1.864
 5745TIP3   OH217114   8.805   6.513   1.678
 5745TIP3    H117115   8.760   6.528   1.593
 5745TIP3    H217116   8.832   6.419   1.672
 5746TIP3   OH217117   8.311   6.158   1.887
 5746TIP3    H117118   8.387   6.101   1.872
 5746TIP3    H217119   8.333   6.196   1.975
 5747TIP3   OH217120   8.647   6.048   1.550
 5747TIP3    H117121   8.570   6.108   1.556
 5747TIP3    H217122   8.693   6.081   1.469
 5748TIP3   OH217123   9.157   6.450   1.689
 5748TIP3    H117124   9.236   6.434   1.637
 5748TIP3    H217125   9.160   6.379   1.756
 5749TIP3   OH217126   8.774   5.836   1.676
 5749TIP3    H117127   8.768   5.755   1.623
 5749TIP3    H217128   8.728   5.902   1.620
 5750TIP3   OH217129   8.774   5.621   1.481
 5750TIP3    H117130   8.797   5.664   1.397
 5750TIP3    H217131   8.680   5.598   1.466
 5751TIP3   OH217132   8.808   6.159   1.353
 5751TIP3    H117133   8.888   6.166   1.299
 5751TIP3    H217134   8.751   6.228   1.313
 5752TIP3   OH217135   9.394   6.130   1.732
 5752TIP3    H117136   9.428   6.044   1.760
 5752TIP3    H217137   9.476   6.181   1.725
 5753TIP3   OH217138   8.647   5.953   1.903
 5753TIP3    H117139   8.578   5.885   1.918
 5753TIP3    H217140   8.683   5.926   1.816
 5754TIP3   OH217141   8.906   5.388   1.542
 5754TIP3    H117142   8.854   5.469   1.524
 5754TIP3    H217143   8.837   5.319   1.533
 5755TIP3   OH217144   9.034   5.893   1.764
 5755TIP3    H117145   9.023   5.883   1.860
 5755TIP3    H217146   8.943   5.869   1.735
 5756TIP3   OH217147   9.266   5.813   1.611
 5756TIP3    H117148   9.189   5.837   1.666
 5756TIP3    H217149   9.335   5.802   1.680
 5757TIP3   OH217150   9.477   5.762   1.792
 5757TIP3    H117151   9.529   5.693   1.836
 5757TIP3    H217152   9.476   5.831   1.862
 5758TIP3   OH217153   8.487   5.735   1.956
 5758TIP3    H117154   8.490   5.643   1.921
 5758TIP3    H217155   8.521   5.721   2.046
 5759TIP3   OH217156   9.005   5.399   1.799
 5759TIP3    H117157   9.066   5.324   1.796
 5759TIP3    H217158   8.959   5.390   1.713
 5760TIP3   OH217159   9.069   5.614   1.963
 5760TIP3    H117160   9.042   5.543   1.900
 5760TIP3    H217161   8.991   5.673   1.960
 5761TIP3   OH217162   7.810   6.694   0.901
 5761TIP3    H117163   7.797   6.618   0.960
 5761TIP3    H217164   7.855   6.756   0.960
 5762TIP3   OH217165   8.006   6.091   1.253
 5762TIP3    H117166   8.006   6.069   1.157
 5762TIP3    H217167   8.103   6.094   1.271
 5763TIP3   OH217168   8.220   5.781   1.925
 5763TIP3    H117169   8.318   5.775   1.926
 5763TIP3    H217170   8.197   5.698   1.971
 5764TIP3   OH217171   8.165   5.464   1.252
 5764TIP3    H117172   8.232   5.394   1.269
 5764TIP3    H217173   8.225   5.542   1.250
 5765TIP3   OH217174   7.986   5.746   1.329
 5765TIP3    H117175   8.042   5.750   1.249
 5765TIP3    H217176   8.006   5.832   1.370
 5766TIP3   OH217177   8.192   5.370   1.660
 5766TIP3    H117178   8.146   5.331   1.735
 5766TIP3    H217179   8.123   5.371   1.592
 5767TIP3   OH217180   8.230   6.751   1.727
 5767TIP3    H117181   8.137   6.725   1.710
 5767TIP3    H217182   8.236   6.741   1.823
 5768TIP3   OH217183   8.403   6.784   1.273
 5768TIP3    H117184   8.353   6.858   1.233
 5768TIP3    H217185   8.490   6.800   1.230
 5769TIP3   OH217186   8.853   7.031   1.414
 5769TIP3    H117187   8.895   7.042   1.502
 5769TIP3    H217188   8.916   7.080   1.356
 5770TIP3   OH217189   9.025   7.170   1.256
 5770TIP3    H117190   9.110   7.148   1.215
 5770TIP3    H217191   9.057   7.226   1.330
 5771TIP3   OH217192   8.086   7.044   1.298
 5771TIP3    H117193   7.998   7.080   1.272
 5771TIP3    H217194   8.092   7.078   1.388
 5772TIP3   OH217195   8.317   7.029   1.148
 5772TIP3    H117196   8.236   7.041   1.202
 5772TIP3    H217197   8.283   7.051   1.060
 5773TIP3   OH217198   7.985   6.856   1.055
 5773TIP3    H117199   8.011   6.830   1.146
 5773TIP3    H217200   8.056   6.809   1.005
 5774TIP3   OH217201   8.181   6.723   0.928
 5774TIP3    H117202   8.199   6.633   0.960
 5774TIP3    H217203   8.271   6.760   0.919
 5775TIP3   OH217204   8.439   6.801   0.912
 5775TIP3    H117205   8.472   6.710   0.917
 5775TIP3    H217206   8.490   6.844   0.982
 5776TIP3   OH217207   9.058   5.420   0.981
 5776TIP3    H117208   8.982   5.387   1.034
 5776TIP3    H217209   9.062   5.350   0.914
 5777TIP3   OH217210   8.277   5.171   1.009
 5777TIP3    H117211   8.190   5.129   1.006
 5777TIP3    H217212   8.334   5.091   1.004
 5778TIP3   OH217213   8.106   5.062   0.685
 5778TIP3    H117214   8.080   5.065   0.591
 5778TIP3    H217215   8.020   5.062   0.726
 5779TIP3   OH217216   8.717   5.206   0.888
 5779TIP3    H117217   8.754   5.275   0.831
 5779TIP3    H217218   8.734   5.246   0.975
 5780TIP3   OH217219   8.486   5.462   1.904
 5780TIP3    H117220   8.454   5.384   1.950
 5780TIP3    H217221   8.582   5.458   1.926
 5781TIP3   OH217222   8.738   5.450   2.018
 5781TIP3    H117223   8.822   5.421   1.978
 5781TIP3    H217224   8.723   5.380   2.084
 5782TIP3   OH217225  -0.045   7.002   2.835
 5782TIP3    H117226  -0.030   6.956   2.919
 5782TIP3    H217227  -0.073   7.091   2.860
 5783TIP3   OH217228   0.436   6.259   3.204
 5783TIP3    H117229   0.465   6.342   3.245
 5783TIP3    H217230   0.455   6.277   3.110
 5784TIP3   OH217231  -0.085   6.437   3.231
 5784TIP3    H117232  -0.057   6.345   3.250
 5784TIP3    H217233  -0.116   6.425   3.140
 5785TIP3   OH217234  -0.138   6.189   2.833
 5785TIP3    H117235  -0.062   6.170   2.893
 5785TIP3    H217236  -0.089   6.220   2.755
 5786TIP3   OH217237   0.516   6.467   3.372
 5786TIP3    H117238   0.432   6.513   3.348
 5786TIP3    H217239   0.509   6.472   3.469
 5787TIP3   OH217240   0.083   6.186   2.994
 5787TIP3    H117241   0.068   6.140   3.078
 5787TIP3    H217242   0.138   6.262   3.022
 5788TIP3   OH217243   0.235   6.158   3.375
 5788TIP3    H117244   0.146   6.193   3.357
 5788TIP3    H217245   0.286   6.188   3.297
 5789TIP3   OH217246   0.183   7.175   3.357
 5789TIP3    H117247   0.143   7.095   3.317
 5789TIP3    H217248   0.161   7.242   3.290
 5790TIP3   OH217249   0.382   6.799   3.196
 5790TIP3    H117250   0.295   6.845   3.205
 5790TIP3    H217251   0.402   6.822   3.103
 5791TIP3   OH217252  -0.192   6.594   2.565
 5791TIP3    H117253  -0.250   6.650   2.622
 5791TIP3    H217254  -0.109   6.599   2.615
 5792TIP3   OH217255   0.060   6.711   3.464
 5792TIP3    H117256   0.042   6.774   3.537
 5792TIP3    H217257  -0.030   6.692   3.433
 5793TIP3   OH217258   0.162   5.745   2.453
 5793TIP3    H117259   0.080   5.762   2.505
 5793TIP3    H217260   0.171   5.830   2.405
 5794TIP3   OH217261   0.417   7.508   3.395
 5794TIP3    H117262   0.414   7.411   3.409
 5794TIP3    H217263   0.324   7.532   3.414
 5795TIP3   OH217264   0.306   6.655   3.657
 5795TIP3    H117265   0.218   6.665   3.616
 5795TIP3    H217266   0.311   6.559   3.664
 5796TIP3   OH217267  -0.167   5.985   3.673
 5796TIP3    H117268  -0.097   5.949   3.732
 5796TIP3    H217269  -0.247   5.966   3.722
 5797TIP3   OH217270   0.101   6.445   3.579
 5797TIP3    H117271   0.062   6.426   3.667
 5797TIP3    H217272   0.032   6.503   3.543
 5798TIP3   OH217273  -0.234   6.399   2.989
 5798TIP3    H117274  -0.313   6.422   2.937
 5798TIP3    H217275  -0.211   6.314   2.944
 5799TIP3   OH217276  -0.069   6.165   3.253
 5799TIP3    H117277  -0.067   6.166   3.351
 5799TIP3    H217278  -0.140   6.099   3.237
 5800TIP3   OH217279   0.153   6.935   3.189
 5800TIP3    H117280   0.172   6.991   3.111
 5800TIP3    H217281   0.056   6.932   3.190
 5801TIP3   OH217282  -0.352   6.031   2.423
 5801TIP3    H117283  -0.432   6.081   2.404
 5801TIP3    H217284  -0.288   6.106   2.430
 5802TIP3   OH217285  -0.215   6.261   2.486
 5802TIP3    H117286  -0.132   6.278   2.534
 5802TIP3    H217287  -0.253   6.350   2.481
 5803TIP3   OH217288   0.206   6.361   2.363
 5803TIP3    H117289   0.140   6.315   2.306
 5803TIP3    H217290   0.202   6.448   2.319
 5804TIP3   OH217291   0.427   7.222   3.443
 5804TIP3    H117292   0.329   7.217   3.436
 5804TIP3    H217293   0.451   7.190   3.353
 5805TIP3   OH217294  -0.108   6.819   3.087
 5805TIP3    H117295  -0.183   6.778   3.131
 5805TIP3    H217296  -0.062   6.739   3.052
 5806TIP3   OH217297  -0.056   6.192   3.517
 5806TIP3    H117298  -0.037   6.275   3.564
 5806TIP3    H217299  -0.087   6.134   3.590
 5807TIP3   OH217300  -0.260   5.969   2.689
 5807TIP3    H117301  -0.293   6.003   2.603
 5807TIP3    H217302  -0.243   6.051   2.739
 5808TIP3   OH217303   0.353   6.366   3.584
 5808TIP3    H117304   0.257   6.385   3.593
 5808TIP3    H217305   0.351   6.323   3.497
 5809TIP3   OH217306  -0.018   6.578   2.979
 5809TIP3    H117307  -0.092   6.514   2.979
 5809TIP3    H217308   0.053   6.528   3.026
 5810TIP3   OH217309  -0.004   7.445   2.918
 5810TIP3    H117310  -0.078   7.491   2.875
 5810TIP3    H217311   0.063   7.514   2.917
 5811TIP3   OH217312   0.062   6.654   3.913
 5811TIP3    H117313   0.102   6.580   3.960
 5811TIP3    H217314   0.120   6.727   3.934
 5812TIP3   OH217315   0.086   6.908   3.663
 5812TIP3    H117316   0.026   6.963   3.612
 5812TIP3    H217317   0.173   6.928   3.622
 5813TIP3   OH217318  -0.025   6.385   3.801
 5813TIP3    H117319  -0.107   6.377   3.852
 5813TIP3    H217320   0.043   6.362   3.868
 5814TIP3   OH217321   0.153   6.307   3.984
 5814TIP3    H117322   0.172   6.212   4.004
 5814TIP3    H217323   0.148   6.350   4.072
 5815TIP3   OH217324   0.235   7.740   2.885
 5815TIP3    H117325   0.251   7.688   2.966
 5815TIP3    H217326   0.281   7.689   2.816
 5816TIP3   OH217327   0.231   7.629   3.145
 5816TIP3    H117328   0.196   7.540   3.164
 5816TIP3    H217329   0.300   7.635   3.211
 5817TIP3   OH217330   0.274   7.320   3.728
 5817TIP3    H117331   0.217   7.317   3.805
 5817TIP3    H217332   0.319   7.406   3.738
 5818TIP3   OH217333   0.125   6.813   2.361
 5818TIP3    H117334   0.200   6.872   2.373
 5818TIP3    H217335   0.126   6.767   2.448
 5819TIP3   OH217336   0.226   6.688   2.578
 5819TIP3    H117337   0.159   6.646   2.635
 5819TIP3    H217338   0.286   6.731   2.642
 5820TIP3   OH217339   0.267   7.089   2.993
 5820TIP3    H117340   0.320   7.022   2.946
 5820TIP3    H217341   0.266   7.163   2.930
 5821TIP3   OH217342   0.094   7.376   3.187
 5821TIP3    H117343   0.029   7.429   3.235
 5821TIP3    H217344   0.055   7.372   3.097
 5822TIP3   OH217345   0.142   6.595   2.208
 5822TIP3    H117346   0.060   6.603   2.156
 5822TIP3    H217347   0.132   6.672   2.268
 5823TIP3   OH217348   0.024   6.275   2.182
 5823TIP3    H117349  -0.053   6.320   2.147
 5823TIP3    H217350  -0.002   6.181   2.166
 5824TIP3   OH217351   0.043   6.546   2.717
 5824TIP3    H117352   0.044   6.449   2.708
 5824TIP3    H217353   0.028   6.560   2.813
 5825TIP3   OH217354   0.327   6.977   3.566
 5825TIP3    H117355   0.399   6.911   3.553
 5825TIP3    H217356   0.349   7.045   3.500
 5826TIP3   OH217357   0.528   6.793   3.588
 5826TIP3    H117358   0.447   6.748   3.622
 5826TIP3    H217359   0.591   6.719   3.605
 5827TIP3   OH217360  -0.016   6.001   2.143
 5827TIP3    H117361   0.049   5.979   2.212
 5827TIP3    H217362  -0.097   5.955   2.176
 5828TIP3   OH217363   0.035   6.269   2.616
 5828TIP3    H117364   0.072   6.179   2.628
 5828TIP3    H217365   0.091   6.301   2.542
 5829TIP3   OH217366   0.195   6.444   3.096
 5829TIP3    H117367   0.282   6.472   3.061
 5829TIP3    H217368   0.202   6.478   3.187
 5830TIP3   OH217369   0.266   6.581   3.330
 5830TIP3    H117370   0.190   6.617   3.380
 5830TIP3    H217371   0.299   6.662   3.286
 5831TIP3   OH217372   0.715   6.175   3.893
 5831TIP3    H117373   0.771   6.108   3.848
 5831TIP3    H217374   0.686   6.230   3.817
 5832TIP3   OH217375   0.140   6.017   2.643
 5832TIP3    H117376   0.187   6.001   2.728
 5832TIP3    H217377   0.079   5.941   2.641
 5833TIP3   OH217378   0.593   6.319   3.700
 5833TIP3    H117379   0.504   6.356   3.713
 5833TIP3    H217380   0.569   6.247   3.637
 5834TIP3   OH217381   0.226   5.956   2.277
 5834TIP3    H117382   0.265   5.881   2.228
 5834TIP3    H217383   0.293   6.026   2.267
 5835TIP3   OH217384   0.483   6.078   3.574
 5835TIP3    H117385   0.392   6.078   3.540
 5835TIP3    H217386   0.509   5.984   3.561
 5836TIP3   OH217387  -0.268   5.969   3.215
 5836TIP3    H117388  -0.297   5.887   3.257
 5836TIP3    H217389  -0.195   5.935   3.158
 5837TIP3   OH217390   0.215   5.878   3.100
 5837TIP3    H117391   0.251   5.928   3.024
 5837TIP3    H217392   0.119   5.892   3.090
 5838TIP3   OH217393   0.307   5.977   2.862
 5838TIP3    H117394   0.380   5.926   2.819
 5838TIP3    H217395   0.338   6.069   2.846
 5839TIP3   OH217396  -0.062   5.875   3.064
 5839TIP3    H117397  -0.063   5.840   2.974
 5839TIP3    H217398  -0.076   5.792   3.117
 5840TIP3   OH217399  -0.041   5.803   2.633
 5840TIP3    H117400  -0.128   5.848   2.644
 5840TIP3    H217401  -0.057   5.719   2.680
 5841TIP3   OH217402   0.217   6.041   4.008
 5841TIP3    H117403   0.239   6.007   4.098
 5841TIP3    H217404   0.304   6.035   3.964
 5842TIP3   OH217405   0.160   7.590   3.434
 5842TIP3    H117406   0.081   7.548   3.472
 5842TIP3    H217407   0.166   7.666   3.493
 5843TIP3   OH217408   1.421   6.966   2.269
 5843TIP3    H117409   1.395   7.058   2.249
 5843TIP3    H217410   1.344   6.918   2.234
 5844TIP3   OH217411   1.421   6.966   2.642
 5844TIP3    H117412   1.447   6.931   2.728
 5844TIP3    H217413   1.379   6.889   2.600
 5845TIP3   OH217414   0.721   6.870   3.018
 5845TIP3    H117415   0.758   6.799   3.074
 5845TIP3    H217416   0.801   6.919   2.993
 5846TIP3   OH217417   1.662   7.267   2.325
 5846TIP3    H117418   1.651   7.197   2.391
 5846TIP3    H217419   1.690   7.343   2.379
 5847TIP3   OH217420   0.686   7.268   2.737
 5847TIP3    H117421   0.683   7.169   2.741
 5847TIP3    H217422   0.782   7.282   2.745
 5848TIP3   OH217423   0.402   6.476   2.527
 5848TIP3    H117424   0.351   6.558   2.541
 5848TIP3    H217425   0.332   6.418   2.492
 5849TIP3   OH217426   0.465   6.767   2.694
 5849TIP3    H117427   0.511   6.688   2.730
 5849TIP3    H217428   0.516   6.786   2.614
 5850TIP3   OH217429   1.308   7.730   2.340
 5850TIP3    H117430   1.359   7.660   2.296
 5850TIP3    H217431   1.306   7.700   2.431
 5851TIP3   OH217432   1.220   7.190   2.694
 5851TIP3    H117433   1.257   7.115   2.643
 5851TIP3    H217434   1.304   7.235   2.717
 5852TIP3   OH217435   2.229   6.513   2.691
 5852TIP3    H117436   2.260   6.596   2.733
 5852TIP3    H217437   2.253   6.530   2.598
 5853TIP3   OH217438   1.630   6.695   2.731
 5853TIP3    H117439   1.675   6.610   2.747
 5853TIP3    H217440   1.602   6.683   2.638
 5854TIP3   OH217441   0.966   6.353   2.694
 5854TIP3    H117442   0.946   6.425   2.631
 5854TIP3    H217443   0.920   6.279   2.649
 5855TIP3   OH217444   1.660   6.445   2.316
 5855TIP3    H117445   1.733   6.428   2.381
 5855TIP3    H217446   1.713   6.477   2.241
 5856TIP3   OH217447   0.604   6.557   2.799
 5856TIP3    H117448   0.687   6.534   2.845
 5856TIP3    H217449   0.613   6.500   2.719
 5857TIP3   OH217450   1.044   6.754   2.592
 5857TIP3    H117451   1.138   6.728   2.603
 5857TIP3    H217452   1.005   6.670   2.558
 5858TIP3   OH217453   2.306   6.719   2.862
 5858TIP3    H117454   2.224   6.768   2.841
 5858TIP3    H217455   2.315   6.740   2.956
 5859TIP3   OH217456   0.967   6.339   3.127
 5859TIP3    H117457   0.906   6.373   3.060
 5859TIP3    H217458   0.915   6.355   3.208
 5860TIP3   OH217459   1.317   7.188   2.136
 5860TIP3    H117460   1.272   7.163   2.054
 5860TIP3    H217461   1.275   7.273   2.157
 5861TIP3   OH217462   1.075   7.109   2.928
 5861TIP3    H117463   1.008   7.173   2.965
 5861TIP3    H217464   1.115   7.164   2.858
 5862TIP3   OH217465   1.870   6.448   2.487
 5862TIP3    H117466   1.880   6.386   2.560
 5862TIP3    H217467   1.934   6.518   2.509
 5863TIP3   OH217468   0.836   6.452   2.913
 5863TIP3    H117469   0.901   6.523   2.934
 5863TIP3    H217470   0.883   6.410   2.836
 5864TIP3   OH217471   0.886   7.290   3.004
 5864TIP3    H117472   0.883   7.385   2.980
 5864TIP3    H217473   0.816   7.290   3.073
 5865TIP3   OH217474   0.339   7.000   2.273
 5865TIP3    H117475   0.326   7.026   2.180
 5865TIP3    H217476   0.360   7.087   2.313
 5866TIP3   OH217477   1.738   7.509   2.497
 5866TIP3    H117478   1.647   7.501   2.535
 5866TIP3    H217479   1.730   7.595   2.450
 5867TIP3   OH217480   2.023   6.418   2.860
 5867TIP3    H117481   1.935   6.443   2.825
 5867TIP3    H217482   2.083   6.445   2.787
 5868TIP3   OH217483   1.327   6.059   2.839
 5868TIP3    H117484   1.315   5.963   2.855
 5868TIP3    H217485   1.247   6.094   2.885
 5869TIP3   OH217486   1.443   7.558   2.174
 5869TIP3    H117487   1.492   7.476   2.149
 5869TIP3    H217488   1.502   7.625   2.131
 5870TIP3   OH217489   1.582   7.343   2.072
 5870TIP3    H117490   1.542   7.264   2.032
 5870TIP3    H217491   1.615   7.307   2.157
 5871TIP3   OH217492   1.963   7.425   2.840
 5871TIP3    H117493   1.952   7.348   2.779
 5871TIP3    H217494   1.945   7.500   2.780
 5872TIP3   OH217495   1.253   6.818   2.094
 5872TIP3    H117496   1.172   6.869   2.072
 5872TIP3    H217497   1.300   6.816   2.009
 5873TIP3   OH217498   1.212   6.601   1.815
 5873TIP3    H117499   1.280   6.650   1.865
 5873TIP3    H217500   1.269   6.536   1.768
 5874TIP3   OH217501   2.157   7.059   2.683
 5874TIP3    H117502   2.075   7.113   2.688
 5874TIP3    H217503   2.187   7.082   2.593
 5875TIP3   OH217504   1.599   6.900   2.070
 5875TIP3    H117505   1.546   6.925   2.148
 5875TIP3    H217506   1.683   6.873   2.113
 5876TIP3   OH217507   1.835   6.942   2.977
 5876TIP3    H117508   1.833   7.030   3.018
 5876TIP3    H217509   1.749   6.943   2.929
 5877TIP3   OH217510   0.832   6.901   2.484
 5877TIP3    H117511   0.789   6.843   2.417
 5877TIP3    H217512   0.909   6.847   2.511
 5878TIP3   OH217513   0.962   7.311   2.631
 5878TIP3    H117514   0.942   7.260   2.552
 5878TIP3    H217515   1.052   7.280   2.653
 5879TIP3   OH217516   0.970   6.870   2.841
 5879TIP3    H117517   1.000   6.851   2.750
 5879TIP3    H217518   1.011   6.957   2.859
 5880TIP3   OH217519   1.495   7.507   2.613
 5880TIP3    H117520   1.479   7.589   2.663
 5880TIP3    H217521   1.480   7.436   2.679
 5881TIP3   OH217522   1.442   6.758   1.894
 5881TIP3    H117523   1.500   6.817   1.948
 5881TIP3    H217524   1.470   6.784   1.802
 5882TIP3   OH217525   0.863   6.979   3.271
 5882TIP3    H117526   0.862   7.071   3.305
 5882TIP3    H217527   0.768   6.965   3.258
 5883TIP3   OH217528   1.181   7.444   2.170
 5883TIP3    H117529   1.258   7.497   2.195
 5883TIP3    H217530   1.120   7.510   2.133
 5884TIP3   OH217531   0.860   7.642   3.249
 5884TIP3    H117532   0.890   7.591   3.172
 5884TIP3    H217533   0.807   7.577   3.299
 5885TIP3   OH217534   1.956   6.003   1.937
 5885TIP3    H117535   1.876   6.020   1.991
 5885TIP3    H217536   1.970   6.090   1.894
 5886TIP3   OH217537   0.699   6.740   2.293
 5886TIP3    H117538   0.640   6.786   2.229
 5886TIP3    H217539   0.654   6.655   2.301
 5887TIP3   OH217540   1.753   7.369   1.488
 5887TIP3    H117541   1.761   7.466   1.475
 5887TIP3    H217542   1.846   7.340   1.476
 5888TIP3   OH217543   0.481   7.125   3.198
 5888TIP3    H117544   0.418   7.104   3.126
 5888TIP3    H217545   0.515   7.036   3.222
 5889TIP3   OH217546   0.338   7.323   2.838
 5889TIP3    H117547   0.427   7.298   2.808
 5889TIP3    H217548   0.359   7.396   2.898
 5890TIP3   OH217549   2.201   7.768   2.885
 5890TIP3    H117550   2.197   7.671   2.894
 5890TIP3    H217551   2.117   7.794   2.928
 5891TIP3   OH217552   1.061   7.684   1.986
 5891TIP3    H117553   1.041   7.669   1.892
 5891TIP3    H217554   1.032   7.776   2.001
 5892TIP3   OH217555   0.515   7.507   2.357
 5892TIP3    H117556   0.572   7.522   2.436
 5892TIP3    H217557   0.463   7.432   2.390
 5893TIP3   OH217558   1.311   7.609   1.609
 5893TIP3    H117559   1.357   7.537   1.560
 5893TIP3    H217560   1.342   7.596   1.700
 5894TIP3   OH217561   1.318   7.635   1.891
 5894TIP3    H117562   1.230   7.641   1.933
 5894TIP3    H217563   1.369   7.592   1.961
 5895TIP3   OH217564   2.085   6.901   3.161
 5895TIP3    H117565   2.014   6.917   3.097
 5895TIP3    H217566   2.105   6.806   3.144
 5896TIP3   OH217567   0.688   7.306   3.190
 5896TIP3    H117568   0.733   7.294   3.275
 5896TIP3    H217569   0.613   7.243   3.196
 5897TIP3   OH217570   1.085   6.133   2.965
 5897TIP3    H117571   0.996   6.101   2.941
 5897TIP3    H217572   1.061   6.216   3.009
 5898TIP3   OH217573   1.618   6.251   3.163
 5898TIP3    H117574   1.685   6.218   3.226
 5898TIP3    H217575   1.533   6.227   3.206
 5899TIP3   OH217576   1.859   6.675   3.082
 5899TIP3    H117577   1.810   6.675   3.166
 5899TIP3    H217578   1.836   6.761   3.042
 5900TIP3   OH217579   1.516   6.811   1.639
 5900TIP3    H117580   1.486   6.779   1.551
 5900TIP3    H217581   1.594   6.863   1.615
 5901TIP3   OH217582   1.229   6.185   1.938
 5901TIP3    H117583   1.200   6.182   2.031
 5901TIP3    H217584   1.194   6.100   1.906
 5902TIP3   OH217585   1.018   6.648   2.988
 5902TIP3    H117586   0.964   6.668   3.067
 5902TIP3    H217587   1.002   6.727   2.932
 5903TIP3   OH217588   0.901   6.533   2.502
 5903TIP3    H117589   0.807   6.508   2.517
 5903TIP3    H217590   0.915   6.493   2.413
 5904TIP3   OH217591   1.391   6.620   2.227
 5904TIP3    H117592   1.336   6.691   2.187
 5904TIP3    H217593   1.446   6.592   2.151
 5905TIP3   OH217594   1.572   6.914   3.338
 5905TIP3    H117595   1.543   6.832   3.384
 5905TIP3    H217596   1.667   6.897   3.329
 5906TIP3   OH217597   1.549   6.651   2.469
 5906TIP3    H117598   1.492   6.681   2.396
 5906TIP3    H217599   1.582   6.568   2.428
 5907TIP3   OH217600   0.838   6.677   3.195
 5907TIP3    H117601   0.857   6.740   3.266
 5907TIP3    H217602   0.822   6.595   3.245
 5908TIP3   OH217603   0.883   6.151   1.905
 5908TIP3    H117604   0.882   6.149   2.003
 5908TIP3    H217605   0.802   6.204   1.887
 5909TIP3   OH217606   0.428   6.202   2.776
 5909TIP3    H117607   0.506   6.230   2.828
 5909TIP3    H217608   0.466   6.166   2.694
 5910TIP3   OH217609   0.409   6.180   2.296
 5910TIP3    H117610   0.454   6.219   2.218
 5910TIP3    H217611   0.349   6.253   2.319
 5911TIP3   OH217612   1.563   6.896   2.895
 5911TIP3    H117613   1.592   6.824   2.834
 5911TIP3    H217614   1.529   6.843   2.970
 5912TIP3   OH217615   1.224   6.359   2.564
 5912TIP3    H117616   1.141   6.354   2.615
 5912TIP3    H217617   1.291   6.358   2.634
 5913TIP3   OH217618   0.663   6.409   2.574
 5913TIP3    H117619   0.568   6.418   2.546
 5913TIP3    H217620   0.685   6.318   2.548
 5914TIP3   OH217621   0.935   6.411   2.259
 5914TIP3    H117622   1.029   6.424   2.238
 5914TIP3    H217623   0.889   6.432   2.175
 5915TIP3   OH217624   1.719   6.433   2.770
 5915TIP3    H117625   1.675   6.442   2.856
 5915TIP3    H217626   1.661   6.370   2.724
 5916TIP3   OH217627   0.770   6.438   2.040
 5916TIP3    H117628   0.692   6.402   1.996
 5916TIP3    H217629   0.819   6.474   1.963
 5917TIP3   OH217630   1.886   8.119   2.981
 5917TIP3    H117631   1.885   8.142   2.886
 5917TIP3    H217632   1.964   8.170   3.012
 5918TIP3   OH217633   0.845   7.217   3.414
 5918TIP3    H117634   0.924   7.263   3.449
 5918TIP3    H217635   0.779   7.243   3.482
 5919TIP3   OH217636   1.312   6.683   2.661
 5919TIP3    H117637   1.383   6.644   2.606
 5919TIP3    H217638   1.327   6.639   2.746
 5920TIP3   OH217639   0.839   6.173   2.535
 5920TIP3    H117640   0.806   6.092   2.578
 5920TIP3    H217641   0.892   6.138   2.462
 5921TIP3   OH217642   1.288   6.574   2.953
 5921TIP3    H117643   1.199   6.612   2.961
 5921TIP3    H217644   1.345   6.637   3.002
 5922TIP3   OH217645   1.026   6.971   2.047
 5922TIP3    H117646   0.952   6.907   2.035
 5922TIP3    H217647   1.007   7.005   2.138
 5923TIP3   OH217648   1.926   7.208   2.677
 5923TIP3    H117649   1.951   7.256   2.595
 5923TIP3    H217650   1.841   7.166   2.652
 5924TIP3   OH217651   1.483   6.286   1.901
 5924TIP3    H117652   1.386   6.272   1.910
 5924TIP3    H217653   1.495   6.380   1.928
 5925TIP3   OH217654   1.423   7.302   3.047
 5925TIP3    H117655   1.441   7.264   3.133
 5925TIP3    H217656   1.366   7.378   3.074
 5926TIP3   OH217657   1.554   6.530   2.007
 5926TIP3    H117658   1.651   6.535   2.025
 5926TIP3    H217659   1.539   6.610   1.954
 5927TIP3   OH217660   0.716   6.991   2.723
 5927TIP3    H117661   0.751   6.966   2.635
 5927TIP3    H217662   0.754   6.923   2.780
 5928TIP3   OH217663   1.170   7.119   1.867
 5928TIP3    H117664   1.123   7.205   1.878
 5928TIP3    H217665   1.116   7.063   1.927
 5929TIP3   OH217666   0.589   6.908   3.342
 5929TIP3    H117667   0.587   6.869   3.431
 5929TIP3    H217668   0.521   6.853   3.297
 5930TIP3   OH217669   1.312   6.996   3.364
 5930TIP3    H117670   1.257   6.958   3.292
 5930TIP3    H217671   1.402   6.980   3.329
 5931TIP3   OH217672   1.594   7.547   2.937
 5931TIP3    H117673   1.497   7.547   2.944
 5931TIP3    H217674   1.617   7.599   3.017
 5932TIP3   OH217675   1.992   6.624   1.854
 5932TIP3    H117676   1.938   6.570   1.791
 5932TIP3    H217677   1.986   6.709   1.806
 5933TIP3   OH217678   2.213   7.474   2.929
 5933TIP3    H117679   2.115   7.472   2.920
 5933TIP3    H217680   2.239   7.446   2.839
 5934TIP3   OH217681   1.694   7.439   1.753
 5934TIP3    H117682   1.671   7.369   1.815
 5934TIP3    H217683   1.707   7.391   1.669
 5935TIP3   OH217684   1.691   7.067   2.601
 5935TIP3    H117685   1.597   7.042   2.609
 5935TIP3    H217686   1.725   6.990   2.551
 5936TIP3   OH217687   0.817   7.294   2.342
 5936TIP3    H117688   0.825   7.377   2.292
 5936TIP3    H217689   0.721   7.286   2.351
 5937TIP3   OH217690   0.391   6.597   2.086
 5937TIP3    H117691   0.432   6.686   2.090
 5937TIP3    H217692   0.307   6.610   2.136
 5938TIP3   OH217693   0.961   7.064   2.293
 5938TIP3    H117694   0.925   7.153   2.309
 5938TIP3    H217695   0.922   7.014   2.366
 5939TIP3   OH217696   1.081   7.643   2.815
 5939TIP3    H117697   1.126   7.714   2.766
 5939TIP3    H217698   1.143   7.628   2.888
 5940TIP3   OH217699   0.745   7.533   2.193
 5940TIP3    H117700   0.661   7.540   2.242
 5940TIP3    H217701   0.778   7.626   2.198
 5941TIP3   OH217702   1.476   7.275   2.775
 5941TIP3    H117703   1.470   7.276   2.873
 5941TIP3    H217704   1.556   7.223   2.760
 5942TIP3   OH217705   1.449   7.161   1.655
 5942TIP3    H117706   1.498   7.138   1.737
 5942TIP3    H217707   1.358   7.141   1.681
 5943TIP3   OH217708   1.725   7.811   2.824
 5943TIP3    H117709   1.646   7.755   2.813
 5943TIP3    H217710   1.711   7.877   2.752
 5944TIP3   OH217711   1.788   7.644   1.474
 5944TIP3    H117712   1.828   7.718   1.424
 5944TIP3    H217713   1.709   7.691   1.509
 5945TIP3   OH217714   0.810   6.422   3.347
 5945TIP3    H117715   0.712   6.425   3.356
 5945TIP3    H217716   0.834   6.353   3.411
 5946TIP3   OH217717   1.606   7.102   1.875
 5946TIP3    H117718   1.597   7.035   1.946
 5946TIP3    H217719   1.704   7.100   1.862
 5947TIP3   OH217720   0.518   7.503   2.981
 5947TIP3    H117721   0.580   7.430   2.999
 5947TIP3    H217722   0.558   7.573   3.035
 5948TIP3   OH217723   0.793   7.145   1.651
 5948TIP3    H117724   0.837   7.061   1.629
 5948TIP3    H217725   0.788   7.138   1.749
 5949TIP3   OH217726   0.785   7.160   1.921
 5949TIP3    H117727   0.835   7.128   1.998
 5949TIP3    H217728   0.779   7.256   1.938
 5950TIP3   OH217729   0.510   6.844   2.129
 5950TIP3    H117730   0.456   6.890   2.196
 5950TIP3    H217731   0.520   6.917   2.064
 5951TIP3   OH217732   1.636   6.492   3.032
 5951TIP3    H117733   1.727   6.517   3.054
 5951TIP3    H217734   1.626   6.406   3.078
 5952TIP3   OH217735   1.520   6.240   2.185
 5952TIP3    H117736   1.511   6.262   2.090
 5952TIP3    H217737   1.562   6.321   2.221
 5953TIP3   OH217738   1.028   7.347   1.899
 5953TIP3    H117739   0.940   7.381   1.923
 5953TIP3    H217740   1.056   7.411   1.833
 5954TIP3   OH217741   1.217   6.413   2.288
 5954TIP3    H117742   1.283   6.483   2.270
 5954TIP3    H217743   1.221   6.407   2.386
 5955TIP3   OH217744   1.482   6.735   3.099
 5955TIP3    H117745   1.500   6.782   3.182
 5955TIP3    H217746   1.538   6.655   3.105
 5956TIP3   OH217747   1.362   6.148   2.395
 5956TIP3    H117748   1.356   6.225   2.454
 5956TIP3    H217749   1.420   6.184   2.324
 5957TIP3   OH217750   0.759   7.438   1.939
 5957TIP3    H117751   0.750   7.521   1.890
 5957TIP3    H217752   0.752   7.469   2.032
 5958TIP3   OH217753   0.871   6.138   2.182
 5958TIP3    H117754   0.869   6.229   2.217
 5958TIP3    H217755   0.967   6.119   2.192
 5959TIP3   OH217756   2.127   6.637   3.077
 5959TIP3    H117757   2.029   6.632   3.083
 5959TIP3    H217758   2.140   6.593   2.991
 5960TIP3   OH217759   1.775   6.829   2.467
 5960TIP3    H117760   1.701   6.767   2.477
 5960TIP3    H217761   1.848   6.782   2.513
 5961TIP3   OH217762   0.515   7.068   1.982
 5961TIP3    H117763   0.521   7.163   1.962
 5961TIP3    H217764   0.556   7.031   1.901
 5962TIP3   OH217765   0.440   6.330   2.069
 5962TIP3    H117766   0.440   6.428   2.074
 5962TIP3    H217767   0.356   6.312   2.027
 5963TIP3   OH217768   1.744   7.780   2.417
 5963TIP3    H117769   1.701   7.828   2.343
 5963TIP3    H217770   1.838   7.800   2.396
 5964TIP3   OH217771   0.820   6.054   2.946
 5964TIP3    H117772   0.788   6.020   2.859
 5964TIP3    H217773   0.810   5.975   3.003
 5965TIP3   OH217774   0.354   7.268   2.328
 5965TIP3    H117775   0.289   7.327   2.371
 5965TIP3    H217776   0.371   7.312   2.244
 5966TIP3   OH217777   0.510   7.804   3.400
 5966TIP3    H117778   0.599   7.808   3.441
 5966TIP3    H217779   0.497   7.708   3.392
 5967TIP3   OH217780   0.997   7.781   3.443
 5967TIP3    H117781   1.091   7.762   3.437
 5967TIP3    H217782   0.963   7.734   3.364
 5968TIP3   OH217783   0.983   7.355   1.607
 5968TIP3    H117784   0.920   7.282   1.621
 5968TIP3    H217785   1.039   7.314   1.538
 5969TIP3   OH217786   1.639   7.684   3.171
 5969TIP3    H117787   1.628   7.616   3.241
 5969TIP3    H217788   1.714   7.736   3.204
 5970TIP3   OH217789   1.433   7.397   1.484
 5970TIP3    H117790   1.478   7.332   1.541
 5970TIP3    H217791   1.488   7.398   1.404
 5971TIP3   OH217792   0.643   7.220   3.604
 5971TIP3    H117793   0.645   7.123   3.609
 5971TIP3    H217794   0.559   7.233   3.555
 5972TIP3   OH217795   0.644   6.884   1.809
 5972TIP3    H117796   0.700   6.840   1.875
 5972TIP3    H217797   0.703   6.883   1.730
 5973TIP3   OH217798   1.243   7.272   3.387
 5973TIP3    H117799   1.251   7.346   3.322
 5973TIP3    H217800   1.281   7.196   3.342
 5974TIP3   OH217801   1.137   7.062   1.598
 5974TIP3    H117802   1.139   7.078   1.694
 5974TIP3    H217803   1.128   6.965   1.594
 5975TIP3   OH217804   1.747   7.306   2.977
 5975TIP3    H117805   1.819   7.352   2.930
 5975TIP3    H217806   1.675   7.371   2.966
 5976TIP3   OH217807   0.837   6.770   2.015
 5976TIP3    H117808   0.804   6.729   2.096
 5976TIP3    H217809   0.870   6.693   1.965
 5977TIP3   OH217810   1.100   6.840   3.243
 5977TIP3    H117811   1.018   6.895   3.241
 5977TIP3    H217812   1.144   6.867   3.160
 5978TIP3   OH217813   0.931   6.563   1.854
 5978TIP3    H117814   0.905   6.557   1.761
 5978TIP3    H217815   1.028   6.572   1.848
 5979TIP3   OH217816   1.622   7.231   3.382
 5979TIP3    H117817   1.686   7.244   3.311
 5979TIP3    H217818   1.622   7.136   3.395
 5980TIP3   OH217819   1.757   6.899   1.510
 5980TIP3    H117820   1.732   6.851   1.428
 5980TIP3    H217821   1.725   6.989   1.486
 5981TIP3   OH217822   1.219   6.626   3.376
 5981TIP3    H117823   1.220   6.544   3.323
 5981TIP3    H217824   1.178   6.689   3.312
 5982TIP3   OH217825   1.225   6.413   3.176
 5982TIP3    H117826   1.252   6.451   3.090
 5982TIP3    H217827   1.132   6.387   3.157
 5983TIP3   OH217828   1.262   6.953   3.050
 5983TIP3    H117829   1.336   6.953   2.988
 5983TIP3    H217830   1.201   7.018   3.008
 5984TIP3   OH217831   1.883   6.935   3.476
 5984TIP3    H117832   1.880   6.845   3.438
 5984TIP3    H217833   1.920   6.984   3.401
 5985TIP3   OH217834   1.877   7.168   3.168
 5985TIP3    H117835   1.820   7.218   3.105
 5985TIP3    H217836   1.964   7.185   3.126
 5986TIP3   OH217837   1.076   6.781   3.577
 5986TIP3    H117838   1.022   6.706   3.608
 5986TIP3    H217839   1.126   6.740   3.505
 5987TIP3   OH217840   1.358   6.176   3.237
 5987TIP3    H117841   1.308   6.258   3.215
 5987TIP3    H217842   1.289   6.108   3.225
 5988TIP3   OH217843   1.481   6.685   3.454
 5988TIP3    H117844   1.470   6.668   3.550
 5988TIP3    H217845   1.391   6.658   3.424
 5989TIP3   OH217846   1.730   6.652   3.321
 5989TIP3    H117847   1.649   6.628   3.370
 5989TIP3    H217848   1.799   6.602   3.370
 5990TIP3   OH217849   1.949   6.570   3.476
 5990TIP3    H117850   1.966   6.473   3.481
 5990TIP3    H217851   1.956   6.596   3.570
 5991TIP3   OH217852   0.953   6.531   3.646
 5991TIP3    H117853   0.949   6.442   3.604
 5991TIP3    H217854   0.983   6.504   3.736
 5992TIP3   OH217855   1.455   6.188   3.494
 5992TIP3    H117856   1.522   6.116   3.491
 5992TIP3    H217857   1.414   6.177   3.405
 5993TIP3   OH217858   1.520   6.403   3.651
 5993TIP3    H117859   1.499   6.329   3.590
 5993TIP3    H217860   1.441   6.460   3.644
 5994TIP3   OH217861   0.292   7.464   2.553
 5994TIP3    H117862   0.252   7.404   2.617
 5994TIP3    H217863   0.330   7.531   2.613
 5995TIP3   OH217864   1.994   7.875   2.371
 5995TIP3    H117865   2.022   7.913   2.456
 5995TIP3    H217866   2.052   7.922   2.309
 5996TIP3   OH217867   2.024   7.897   2.654
 5996TIP3    H117868   1.984   7.808   2.647
 5996TIP3    H217869   2.103   7.877   2.706
 5997TIP3   OH217870   2.074   7.570   3.228
 5997TIP3    H117871   1.998   7.581   3.287
 5997TIP3    H217872   2.113   7.660   3.229
 5998TIP3   OH217873   1.887   7.087   1.847
 5998TIP3    H117874   1.957   7.149   1.821
 5998TIP3    H217875   1.928   7.045   1.927
 5999TIP3   OH217876   2.014   6.954   2.050
 5999TIP3    H117877   1.949   6.910   2.109
 5999TIP3    H217878   2.078   6.992   2.113
 6000TIP3   OH217879   2.067   7.341   2.484
 6000TIP3    H117880   2.120   7.280   2.430
 6000TIP3    H217881   2.057   7.418   2.425
 6001TIP3   OH217882   1.903   7.643   2.681
 6001TIP3    H117883   1.832   7.688   2.730
 6001TIP3    H217884   1.853   7.596   2.611
 6002TIP3   OH217885   1.954   6.861   1.698
 6002TIP3    H117886   1.883   6.864   1.630
 6002TIP3    H217887   1.927   6.937   1.754
 6003TIP3   OH217888   1.824   6.535   1.655
 6003TIP3    H117889   1.783   6.572   1.576
 6003TIP3    H217890   1.800   6.440   1.646
 6004TIP3   OH217891   1.831   6.808   2.199
 6004TIP3    H117892   1.839   6.711   2.191
 6004TIP3    H217893   1.818   6.820   2.296
 6005TIP3   OH217894   0.456   6.886   2.943
 6005TIP3    H117895   0.456   6.857   2.849
 6005TIP3    H217896   0.553   6.889   2.960
 6006TIP3   OH217897   2.117   7.231   3.055
 6006TIP3    H117898   2.192   7.169   3.046
 6006TIP3    H217899   2.142   7.302   2.993
 6007TIP3   OH217900   2.304   7.041   3.083
 6007TIP3    H117901   2.230   6.988   3.119
 6007TIP3    H217902   2.377   6.976   3.092
 6008TIP3   OH217903   1.770   6.269   1.638
 6008TIP3    H117904   1.850   6.243   1.689
 6008TIP3    H217905   1.702   6.209   1.672
 6009TIP3   OH217906   1.825   6.527   2.094
 6009TIP3    H117907   1.861   6.437   2.113
 6009TIP3    H217908   1.886   6.555   2.024
 6010TIP3   OH217909   1.990   6.705   2.588
 6010TIP3    H117910   2.076   6.730   2.548
 6010TIP3    H217911   2.005   6.738   2.679
 6011TIP3   OH217912   2.057   6.844   2.826
 6011TIP3    H117913   1.975   6.878   2.867
 6011TIP3    H217914   2.089   6.922   2.776
 6012TIP3   OH217915   0.680   6.574   3.629
 6012TIP3    H117916   0.776   6.559   3.619
 6012TIP3    H217917   0.651   6.487   3.663
 6013TIP3   OH217918   2.507   6.432   3.377
 6013TIP3    H117919   2.566   6.365   3.337
 6013TIP3    H217920   2.483   6.488   3.301
 6014TIP3   OH217921   1.914   6.278   2.146
 6014TIP3    H117922   1.980   6.260   2.215
 6014TIP3    H217923   1.870   6.192   2.138
 6015TIP3   OH217924   0.635   6.261   2.952
 6015TIP3    H117925   0.697   6.186   2.960
 6015TIP3    H217926   0.698   6.335   2.945
 6016TIP3   OH217927   0.442   6.536   3.026
 6016TIP3    H117928   0.488   6.524   2.940
 6016TIP3    H217929   0.474   6.624   3.051
 6017TIP3   OH217930   2.381   6.577   3.183
 6017TIP3    H117931   2.291   6.611   3.199
 6017TIP3    H217932   2.361   6.503   3.124
 6018TIP3   OH217933   2.018   6.214   1.760
 6018TIP3    H117934   2.068   6.143   1.716
 6018TIP3    H217935   2.085   6.286   1.763
 6019TIP3   OH217936   0.421   6.043   2.528
 6019TIP3    H117937   0.326   6.038   2.549
 6019TIP3    H217938   0.420   6.098   2.446
 6020TIP3   OH217939   1.582   7.738   2.031
 6020TIP3    H117940   1.632   7.723   1.947
 6020TIP3    H217941   1.634   7.808   2.072
 6021TIP3   OH217942   0.642   6.124   3.342
 6021TIP3    H117943   0.590   6.112   3.423
 6021TIP3    H217944   0.574   6.158   3.280
 6022TIP3   OH217945   0.689   7.510   3.429
 6022TIP3    H117946   0.594   7.504   3.405
 6022TIP3    H217947   0.685   7.534   3.522
 6023TIP3   OH217948   0.855   7.563   2.954
 6023TIP3    H117949   0.814   7.647   2.927
 6023TIP3    H217950   0.944   7.578   2.916
 6024TIP3   OH217951   1.298   7.862   3.102
 6024TIP3    H117952   1.326   7.789   3.160
 6024TIP3    H217953   1.380   7.881   3.051
 6025TIP3   OH217954   1.497   7.973   2.947
 6025TIP3    H117955   1.573   7.923   2.915
 6025TIP3    H217956   1.539   8.031   3.014
 6026TIP3   OH217957   2.277   6.336   3.061
 6026TIP3    H117958   2.186   6.331   3.026
 6026TIP3    H217959   2.307   6.243   3.049
 6027TIP3   OH217960   0.534   7.829   2.983
 6027TIP3    H117961   0.450   7.869   2.955
 6027TIP3    H217962   0.543   7.865   3.072
 6028TIP3   OH217963   0.775   7.813   2.842
 6028TIP3    H117964   0.690   7.826   2.889
 6028TIP3    H217965   0.754   7.847   2.753
 6029TIP3   OH217966   1.200   7.846   2.641
 6029TIP3    H117967   1.134   7.868   2.573
 6029TIP3    H217968   1.213   7.933   2.684
 6030TIP3   OH217969   1.466   7.779   2.689
 6030TIP3    H117970   1.372   7.798   2.672
 6030TIP3    H217971   1.508   7.860   2.654
 6031TIP3   OH217972   1.678   7.977   2.610
 6031TIP3    H117973   1.662   8.061   2.563
 6031TIP3    H217974   1.701   7.916   2.537
 6032TIP3   OH217975   0.450   7.620   2.730
 6032TIP3    H117976   0.482   7.602   2.821
 6032TIP3    H217977   0.521   7.575   2.679
 6033TIP3   OH217978   0.650   7.497   2.590
 6033TIP3    H117979   0.667   7.412   2.638
 6033TIP3    H217980   0.741   7.535   2.587
 6034TIP3   OH217981   0.909   7.597   2.589
 6034TIP3    H117982   0.943   7.506   2.576
 6034TIP3    H217983   0.950   7.618   2.675
 6035TIP3   OH217984   1.482   6.253   2.678
 6035TIP3    H117985   1.439   6.183   2.730
 6035TIP3    H217986   1.553   6.204   2.632
 6036TIP3   OH217987   2.009   6.137   2.591
 6036TIP3    H117988   2.046   6.185   2.513
 6036TIP3    H217989   1.913   6.148   2.577
 6037TIP3   OH217990   2.094   6.245   2.356
 6037TIP3    H117991   2.162   6.184   2.319
 6037TIP3    H217992   2.134   6.332   2.330
 6038TIP3   OH217993   0.733   5.961   2.698
 6038TIP3    H117994   0.640   5.928   2.697
 6038TIP3    H217995   0.782   5.876   2.693
 6039TIP3   OH217996   0.515   5.828   2.340
 6039TIP3    H117997   0.548   5.887   2.270
 6039TIP3    H217998   0.486   5.891   2.408
 6040TIP3   OH217999   1.172   5.995   2.574
 6040TIP3    H118000   1.233   6.045   2.518
 6040TIP3    H218001   1.193   6.030   2.662
 6041TIP3   OH218002   1.726   6.139   2.561
 6041TIP3    H118003   1.722   6.106   2.470
 6041TIP3    H218004   1.709   6.056   2.612
 6042TIP3   OH218005   1.751   6.054   2.118
 6042TIP3    H118006   1.664   6.097   2.127
 6042TIP3    H218007   1.736   5.971   2.168
 6043TIP3   OH218008   0.633   5.988   2.109
 6043TIP3    H118009   0.684   5.926   2.053
 6043TIP3    H218010   0.705   6.044   2.145
 6044TIP3   OH218011   1.148   6.163   2.206
 6044TIP3    H118012   1.208   6.115   2.265
 6044TIP3    H218013   1.171   6.255   2.231
 6045TIP3   OH218014   1.068   7.589   1.717
 6045TIP3    H118015   1.154   7.616   1.675
 6045TIP3    H218016   1.052   7.507   1.665
 6046TIP3   OH218017   1.725   7.706   1.798
 6046TIP3    H118018   1.717   7.608   1.783
 6046TIP3    H218019   1.680   7.740   1.718
 6047TIP3   OH218020   0.939   6.248   3.591
 6047TIP3    H118021   0.906   6.173   3.643
 6047TIP3    H218022   1.034   6.244   3.614
 6048TIP3   OH218023   1.191   6.241   3.707
 6048TIP3    H118024   1.273   6.209   3.666
 6048TIP3    H218025   1.176   6.170   3.774
 6049TIP3   OH218026   2.012   6.302   3.494
 6049TIP3    H118027   2.031   6.267   3.584
 6049TIP3    H218028   2.100   6.293   3.451
 6050TIP3   OH218029   1.954   7.852   2.987
 6050TIP3    H118030   1.876   7.819   2.939
 6050TIP3    H218031   1.936   7.948   2.986
 6051TIP3   OH218032   3.218   7.222   1.755
 6051TIP3    H118033   3.193   7.315   1.737
 6051TIP3    H218034   3.139   7.176   1.722
 6052TIP3   OH218035   3.215   7.222   2.129
 6052TIP3    H118036   3.245   7.191   2.216
 6052TIP3    H218037   3.174   7.142   2.092
 6053TIP3   OH218038   2.518   7.124   2.500
 6053TIP3    H118039   2.552   7.055   2.561
 6053TIP3    H218040   2.598   7.177   2.485
 6054TIP3   OH218041   3.457   7.524   1.812
 6054TIP3    H118042   3.449   7.455   1.879
 6054TIP3    H218043   3.487   7.600   1.865
 6055TIP3   OH218044   2.486   7.527   2.227
 6055TIP3    H118045   2.479   7.429   2.230
 6055TIP3    H218046   2.583   7.537   2.219
 6056TIP3   OH218047   2.196   6.736   2.011
 6056TIP3    H118048   2.145   6.818   2.022
 6056TIP3    H218049   2.125   6.676   1.979
 6057TIP3   OH218050   2.256   7.020   2.177
 6057TIP3    H118051   2.303   6.943   2.215
 6057TIP3    H218052   2.313   7.043   2.103
 6058TIP3   OH218053   3.103   7.985   1.827
 6058TIP3    H118054   3.155   7.915   1.783
 6058TIP3    H218055   3.105   7.957   1.919
 6059TIP3   OH218056   3.017   7.447   2.180
 6059TIP3    H118057   3.054   7.372   2.132
 6059TIP3    H218058   3.101   7.492   2.204
 6060TIP3   OH218059   4.026   6.770   2.177
 6060TIP3    H118060   4.055   6.852   2.222
 6060TIP3    H218061   4.049   6.791   2.085
 6061TIP3   OH218062   3.427   6.952   2.217
 6061TIP3    H118063   3.471   6.867   2.236
 6061TIP3    H218064   3.399   6.938   2.125
 6062TIP3   OH218065   2.764   6.609   2.182
 6062TIP3    H118066   2.741   6.679   2.118
 6062TIP3    H218067   2.721   6.532   2.139
 6063TIP3   OH218068   3.457   6.700   1.804
 6063TIP3    H118069   3.530   6.683   1.868
 6063TIP3    H218070   3.509   6.736   1.730
 6064TIP3   OH218071   2.399   6.813   2.285
 6064TIP3    H118072   2.482   6.792   2.332
 6064TIP3    H218073   2.410   6.756   2.206
 6065TIP3   OH218074   2.841   7.011   2.077
 6065TIP3    H118075   2.934   6.984   2.090
 6065TIP3    H218076   2.801   6.926   2.045
 6066TIP3   OH218077   4.100   6.974   2.349
 6066TIP3    H118078   4.018   7.025   2.329
 6066TIP3    H218079   4.116   7.001   2.441
 6067TIP3   OH218080   2.762   6.594   2.613
 6067TIP3    H118081   2.702   6.631   2.546
 6067TIP3    H218082   2.712   6.613   2.695
 6068TIP3   OH218083   3.113   7.444   1.624
 6068TIP3    H118084   3.069   7.421   1.541
 6068TIP3    H218085   3.072   7.530   1.644
 6069TIP3   OH218086   2.869   7.368   2.413
 6069TIP3    H118087   2.805   7.432   2.451
 6069TIP3    H218088   2.911   7.420   2.342
 6070TIP3   OH218089   3.672   6.701   1.970
 6070TIP3    H118090   3.668   6.648   2.051
 6070TIP3    H218091   3.728   6.776   1.997
 6071TIP3   OH218092   2.632   6.709   2.399
 6071TIP3    H118093   2.695   6.780   2.421
 6071TIP3    H218094   2.679   6.667   2.324
 6072TIP3   OH218095   2.694   7.560   2.507
 6072TIP3    H118096   2.671   7.645   2.465
 6072TIP3    H218097   2.615   7.547   2.563
 6073TIP3   OH218098   2.095   7.250   1.743
 6073TIP3    H118099   2.051   7.278   1.660
 6073TIP3    H218100   2.123   7.336   1.781
 6074TIP3   OH218101   3.532   7.765   1.983
 6074TIP3    H118102   3.441   7.758   2.021
 6074TIP3    H218103   3.526   7.851   1.937
 6075TIP3   OH218104   3.820   6.671   2.345
 6075TIP3    H118105   3.733   6.702   2.315
 6075TIP3    H218106   3.879   6.701   2.273
 6076TIP3   OH218107   3.125   6.316   2.328
 6076TIP3    H118108   3.111   6.220   2.340
 6076TIP3    H218109   3.044   6.351   2.373
 6077TIP3   OH218110   3.238   7.815   1.659
 6077TIP3    H118111   3.288   7.733   1.636
 6077TIP3    H218112   3.297   7.881   1.617
 6078TIP3   OH218113   3.377   7.600   1.560
 6078TIP3    H118114   3.339   7.521   1.519
 6078TIP3    H218115   3.411   7.564   1.645
 6079TIP3   OH218116   3.758   7.682   2.327
 6079TIP3    H118117   3.749   7.605   2.267
 6079TIP3    H218118   3.742   7.757   2.266
 6080TIP3   OH218119   3.048   7.073   1.580
 6080TIP3    H118120   2.968   7.126   1.557
 6080TIP3    H218121   3.097   7.073   1.496
 6081TIP3   OH218122   3.008   6.857   1.302
 6081TIP3    H118123   3.074   6.907   1.352
 6081TIP3    H218124   3.066   6.794   1.255
 6082TIP3   OH218125   3.953   7.314   2.169
 6082TIP3    H118126   3.871   7.369   2.175
 6082TIP3    H218127   3.983   7.340   2.079
 6083TIP3   OH218128   3.395   7.155   1.556
 6083TIP3    H118129   3.342   7.182   1.635
 6083TIP3    H218130   3.479   7.130   1.599
 6084TIP3   OH218131   3.632   7.199   2.463
 6084TIP3    H118132   3.630   7.283   2.511
 6084TIP3    H218133   3.546   7.203   2.417
 6085TIP3   OH218134   2.629   7.157   1.971
 6085TIP3    H118135   2.588   7.099   1.903
 6085TIP3    H218136   2.706   7.103   1.999
 6086TIP3   OH218137   2.757   7.564   2.122
 6086TIP3    H118138   2.738   7.518   2.039
 6086TIP3    H218139   2.849   7.535   2.140
 6087TIP3   OH218140   2.766   7.127   2.326
 6087TIP3    H118141   2.799   7.108   2.236
 6087TIP3    H218142   2.809   7.212   2.347
 6088TIP3   OH218143   3.289   7.764   2.101
 6088TIP3    H118144   3.276   7.845   2.153
 6088TIP3    H218145   3.276   7.692   2.166
 6089TIP3   OH218146   2.902   7.682   2.653
 6089TIP3    H118147   2.841   7.747   2.696
 6089TIP3    H218148   2.837   7.629   2.602
 6090TIP3   OH218149   3.238   7.015   1.380
 6090TIP3    H118150   3.297   7.073   1.434
 6090TIP3    H218151   3.266   7.041   1.289
 6091TIP3   OH218152   2.656   7.240   2.750
 6091TIP3    H118153   2.659   7.328   2.794
 6091TIP3    H218154   2.560   7.224   2.750
 6092TIP3   OH218155   2.977   7.699   1.655
 6092TIP3    H118156   3.054   7.752   1.681
 6092TIP3    H218157   2.916   7.765   1.620
 6093TIP3   OH218158   2.698   7.853   2.734
 6093TIP3    H118159   2.663   7.852   2.643
 6093TIP3    H218160   2.618   7.830   2.787
 6094TIP3   OH218161   3.753   6.258   1.427
 6094TIP3    H118162   3.673   6.276   1.479
 6094TIP3    H218163   3.764   6.343   1.379
 6095TIP3   OH218164   2.496   6.999   1.775
 6095TIP3    H118165   2.431   7.043   1.717
 6095TIP3    H218166   2.452   6.915   1.793
 6096TIP3   OH218167   3.550   7.625   0.975
 6096TIP3    H118168   3.559   7.723   0.962
 6096TIP3    H218169   3.643   7.596   0.964
 6097TIP3   OH218170   2.276   7.383   2.684
 6097TIP3    H118171   2.213   7.361   2.612
 6097TIP3    H218172   2.312   7.295   2.708
 6098TIP3   OH218173   2.130   7.573   2.321
 6098TIP3    H118174   2.226   7.569   2.306
 6098TIP3    H218175   2.121   7.656   2.370
 6099TIP3   OH218176   3.997   8.024   2.372
 6099TIP3    H118177   3.993   7.927   2.383
 6099TIP3    H218178   3.913   8.050   2.415
 6100TIP3   OH218179   3.102   7.813   2.506
 6100TIP3    H118180   3.104   7.906   2.536
 6100TIP3    H218181   3.031   7.776   2.561
 6101TIP3   OH218182   2.857   7.941   1.457
 6101TIP3    H118183   2.814   7.926   1.371
 6101TIP3    H218184   2.829   8.032   1.479
 6102TIP3   OH218185   2.298   7.792   1.839
 6102TIP3    H118186   2.348   7.783   1.923
 6102TIP3    H218187   2.234   7.720   1.848
 6103TIP3   OH218188   3.062   7.841   1.099
 6103TIP3    H118189   3.123   7.773   1.063
 6103TIP3    H218190   3.096   7.852   1.190
 6104TIP3   OH218191   3.110   7.889   1.370
 6104TIP3    H118192   3.023   7.899   1.415
 6104TIP3    H218193   3.164   7.851   1.441
 6105TIP3   OH218194   3.885   7.157   2.646
 6105TIP3    H118195   3.807   7.173   2.590
 6105TIP3    H218196   3.900   7.062   2.633
 6106TIP3   OH218197   2.481   7.565   2.675
 6106TIP3    H118198   2.531   7.547   2.757
 6106TIP3    H218199   2.407   7.500   2.681
 6107TIP3   OH218200   2.880   6.388   2.452
 6107TIP3    H118201   2.792   6.357   2.426
 6107TIP3    H218202   2.856   6.472   2.496
 6108TIP3   OH218203   3.413   6.506   2.649
 6108TIP3    H118204   3.481   6.477   2.713
 6108TIP3    H218205   3.329   6.484   2.693
 6109TIP3   OH218206   3.656   6.933   2.566
 6109TIP3    H118207   3.607   6.929   2.652
 6109TIP3    H218208   3.632   7.021   2.532
 6110TIP3   OH218209   3.312   7.066   1.124
 6110TIP3    H118210   3.281   7.037   1.036
 6110TIP3    H218211   3.391   7.117   1.101
 6111TIP3   OH218212   3.021   6.444   1.422
 6111TIP3    H118213   2.999   6.440   1.517
 6111TIP3    H218214   2.990   6.356   1.394
 6112TIP3   OH218215   2.812   6.904   2.474
 6112TIP3    H118216   2.761   6.927   2.554
 6112TIP3    H218217   2.798   6.984   2.419
 6113TIP3   OH218218   2.695   6.790   1.990
 6113TIP3    H118219   2.602   6.762   2.005
 6113TIP3    H218220   2.711   6.751   1.901
 6114TIP3   OH218221   3.187   6.876   1.713
 6114TIP3    H118222   3.133   6.948   1.674
 6114TIP3    H218223   3.242   6.849   1.637
 6115TIP3   OH218224   3.360   7.161   2.807
 6115TIP3    H118225   3.340   7.085   2.866
 6115TIP3    H218226   3.456   7.171   2.823
 6116TIP3   OH218227   3.345   6.907   1.956
 6116TIP3    H118228   3.288   6.939   1.884
 6116TIP3    H218229   3.377   6.824   1.915
 6117TIP3   OH218230   2.630   6.934   2.683
 6117TIP3    H118231   2.659   6.998   2.750
 6117TIP3    H218232   2.621   6.852   2.734
 6118TIP3   OH218233   2.661   6.409   1.387
 6118TIP3    H118234   2.700   6.405   1.477
 6118TIP3    H218235   2.569   6.407   1.416
 6119TIP3   OH218236   2.229   6.460   2.258
 6119TIP3    H118237   2.302   6.487   2.317
 6119TIP3    H218238   2.274   6.420   2.183
 6120TIP3   OH218239   2.180   6.442   1.738
 6120TIP3    H118240   2.271   6.472   1.722
 6120TIP3    H218241   2.148   6.502   1.808
 6121TIP3   OH218242   3.355   7.153   2.380
 6121TIP3    H118243   3.387   7.080   2.322
 6121TIP3    H218244   3.326   7.102   2.458
 6122TIP3   OH218245   3.021   6.616   2.050
 6122TIP3    H118246   2.937   6.610   2.101
 6122TIP3    H218247   3.087   6.615   2.121
 6123TIP3   OH218248   2.458   6.664   2.058
 6123TIP3    H118249   2.363   6.672   2.033
 6123TIP3    H218250   2.478   6.571   2.038
 6124TIP3   OH218251   2.733   6.672   1.749
 6124TIP3    H118252   2.828   6.680   1.728
 6124TIP3    H218253   2.688   6.691   1.664
 6125TIP3   OH218254   3.514   6.689   2.251
 6125TIP3    H118255   3.478   6.700   2.341
 6125TIP3    H218256   3.452   6.625   2.213
 6126TIP3   OH218257   2.564   6.704   1.534
 6126TIP3    H118258   2.482   6.664   1.503
 6126TIP3    H218259   2.610   6.730   1.452
 6127TIP3   OH218260   3.683   8.376   2.468
 6127TIP3    H118261   3.682   8.401   2.373
 6127TIP3    H218262   3.759   8.428   2.500
 6128TIP3   OH218263   2.640   7.485   2.892
 6128TIP3    H118264   2.719   7.523   2.935
 6128TIP3    H218265   2.576   7.489   2.966
 6129TIP3   OH218266   3.107   6.938   2.146
 6129TIP3    H118267   3.179   6.900   2.094
 6129TIP3    H218268   3.122   6.899   2.234
 6130TIP3   OH218269   2.638   6.420   2.026
 6130TIP3    H118270   2.576   6.343   2.020
 6130TIP3    H218271   2.696   6.395   1.953
 6131TIP3   OH218272   3.084   6.831   2.441
 6131TIP3    H118273   2.996   6.871   2.450
 6131TIP3    H218274   3.142   6.893   2.489
 6132TIP3   OH218275   2.821   7.229   1.531
 6132TIP3    H118276   2.748   7.164   1.522
 6132TIP3    H218277   2.804   7.263   1.623
 6133TIP3   OH218278   3.723   7.465   2.163
 6133TIP3    H118279   3.748   7.513   2.081
 6133TIP3    H218280   3.637   7.424   2.139
 6134TIP3   OH218281   3.278   6.543   1.387
 6134TIP3    H118282   3.181   6.530   1.396
 6134TIP3    H218283   3.291   6.637   1.414
 6135TIP3   OH218284   3.218   7.544   2.529
 6135TIP3    H118285   3.239   7.523   2.620
 6135TIP3    H218286   3.185   7.635   2.534
 6136TIP3   OH218287   3.351   6.786   1.493
 6136TIP3    H118288   3.446   6.792   1.511
 6136TIP3    H218289   3.334   6.867   1.440
 6137TIP3   OH218290   2.512   7.248   2.210
 6137TIP3    H118291   2.548   7.221   2.123
 6137TIP3    H218292   2.551   7.182   2.269
 6138TIP3   OH218293   2.964   7.377   1.348
 6138TIP3    H118294   2.919   7.464   1.357
 6138TIP3    H218295   2.911   7.323   1.410
 6139TIP3   OH218296   2.389   7.172   2.822
 6139TIP3    H118297   2.412   7.156   2.915
 6139TIP3    H218298   2.322   7.103   2.804
 6140TIP3   OH218299   3.112   7.288   2.838
 6140TIP3    H118300   3.061   7.225   2.785
 6140TIP3    H218301   3.203   7.254   2.826
 6141TIP3   OH218302   3.382   7.800   2.426
 6141TIP3    H118303   3.285   7.804   2.435
 6141TIP3    H218304   3.410   7.856   2.501
 6142TIP3   OH218305   3.792   6.874   1.333
 6142TIP3    H118306   3.729   6.829   1.272
 6142TIP3    H218307   3.790   6.963   1.292
 6143TIP3   OH218308   4.008   7.731   2.416
 6143TIP3    H118309   3.911   7.728   2.407
 6143TIP3    H218310   4.034   7.702   2.325
 6144TIP3   OH218311   3.484   7.696   1.237
 6144TIP3    H118312   3.469   7.625   1.302
 6144TIP3    H218313   3.503   7.648   1.155
 6145TIP3   OH218314   3.487   7.325   2.085
 6145TIP3    H118315   3.393   7.299   2.096
 6145TIP3    H218316   3.522   7.247   2.038
 6146TIP3   OH218317   2.611   7.551   1.831
 6146TIP3    H118318   2.616   7.634   1.780
 6146TIP3    H218319   2.516   7.540   1.840
 6147TIP3   OH218320   2.174   6.862   1.535
 6147TIP3    H118321   2.221   6.945   1.556
 6147TIP3    H218322   2.097   6.867   1.597
 6148TIP3   OH218323   2.756   7.320   1.778
 6148TIP3    H118324   2.720   7.410   1.795
 6148TIP3    H218325   2.719   7.270   1.853
 6149TIP3   OH218326   2.881   7.898   2.304
 6149TIP3    H118327   2.919   7.971   2.252
 6149TIP3    H218328   2.959   7.866   2.351
 6150TIP3   OH218329   2.534   7.791   1.685
 6150TIP3    H118330   2.448   7.800   1.731
 6150TIP3    H218331   2.566   7.884   1.688
 6151TIP3   OH218332   3.273   7.530   2.260
 6151TIP3    H118333   3.266   7.528   2.358
 6151TIP3    H218334   3.355   7.480   2.245
 6152TIP3   OH218335   3.241   7.419   1.143
 6152TIP3    H118336   3.296   7.397   1.222
 6152TIP3    H218337   3.153   7.398   1.177
 6153TIP3   OH218338   3.520   8.067   2.311
 6153TIP3    H118339   3.440   8.012   2.299
 6153TIP3    H218340   3.508   8.134   2.240
 6154TIP3   OH218341   3.585   7.900   0.964
 6154TIP3    H118342   3.627   7.972   0.913
 6154TIP3    H218343   3.505   7.948   0.994
 6155TIP3   OH218344   2.606   6.679   2.834
 6155TIP3    H118345   2.509   6.679   2.843
 6155TIP3    H218346   2.632   6.611   2.898
 6156TIP3   OH218347   3.402   7.358   1.361
 6156TIP3    H118348   3.394   7.291   1.432
 6156TIP3    H218349   3.500   7.357   1.348
 6157TIP3   OH218350   2.319   7.762   2.464
 6157TIP3    H118351   2.372   7.685   2.490
 6157TIP3    H218352   2.353   7.829   2.524
 6158TIP3   OH218353   2.611   7.406   1.141
 6158TIP3    H118354   2.629   7.315   1.112
 6158TIP3    H218355   2.595   7.393   1.236
 6159TIP3   OH218356   2.559   7.409   1.415
 6159TIP3    H118357   2.628   7.383   1.477
 6159TIP3    H218358   2.563   7.507   1.420
 6160TIP3   OH218359   2.295   7.105   1.617
 6160TIP3    H118360   2.229   7.150   1.675
 6160TIP3    H218361   2.310   7.175   1.551
 6161TIP3   OH218362   3.437   6.742   2.510
 6161TIP3    H118363   3.520   6.778   2.547
 6161TIP3    H218364   3.424   6.661   2.564
 6162TIP3   OH218365   3.319   6.496   1.671
 6162TIP3    H118366   3.307   6.521   1.577
 6162TIP3    H218367   3.358   6.578   1.708
 6163TIP3   OH218368   2.821   7.606   1.362
 6163TIP3    H118369   2.736   7.638   1.399
 6163TIP3    H218370   2.842   7.680   1.302
 6164TIP3   OH218371   3.014   6.670   1.776
 6164TIP3    H118372   3.079   6.741   1.758
 6164TIP3    H218373   3.017   6.664   1.874
 6165TIP3   OH218374   3.279   6.992   2.587
 6165TIP3    H118375   3.297   7.046   2.666
 6165TIP3    H218376   3.337   6.915   2.600
 6166TIP3   OH218377   3.160   6.405   1.884
 6166TIP3    H118378   3.154   6.483   1.942
 6166TIP3    H218379   3.218   6.441   1.812
 6167TIP3   OH218380   2.562   7.682   1.429
 6167TIP3    H118381   2.533   7.752   1.366
 6167TIP3    H218382   2.548   7.726   1.515
 6168TIP3   OH218383   2.685   6.402   1.659
 6168TIP3    H118384   2.673   6.483   1.710
 6168TIP3    H218385   2.778   6.379   1.681
 6169TIP3   OH218386   3.923   6.890   2.565
 6169TIP3    H118387   3.825   6.887   2.571
 6169TIP3    H218388   3.935   6.854   2.476
 6170TIP3   OH218389   3.572   7.086   1.953
 6170TIP3    H118390   3.497   7.025   1.966
 6170TIP3    H218391   3.645   7.039   2.000
 6171TIP3   OH218392   2.282   7.318   1.424
 6171TIP3    H118393   2.343   7.393   1.435
 6171TIP3    H218394   2.331   7.267   1.357
 6172TIP3   OH218395   2.236   6.599   1.494
 6172TIP3    H118396   2.220   6.689   1.528
 6172TIP3    H218397   2.175   6.545   1.547
 6173TIP3   OH218398   3.540   8.036   1.903
 6173TIP3    H118399   3.498   8.083   1.828
 6173TIP3    H218400   3.634   8.057   1.884
 6174TIP3   OH218401   2.612   6.306   2.428
 6174TIP3    H118402   2.586   6.264   2.344
 6174TIP3    H218403   2.607   6.230   2.490
 6175TIP3   OH218404   2.158   7.528   1.818
 6175TIP3    H118405   2.078   7.561   1.861
 6175TIP3    H218406   2.146   7.564   1.728
 6176TIP3   OH218407   2.308   8.063   2.885
 6176TIP3    H118408   2.395   8.063   2.930
 6176TIP3    H218409   2.288   7.968   2.881
 6177TIP3   OH218410   2.795   8.032   2.933
 6177TIP3    H118411   2.891   8.023   2.932
 6177TIP3    H218412   2.771   7.981   2.853
 6178TIP3   OH218413   2.775   7.611   1.056
 6178TIP3    H118414   2.719   7.539   1.095
 6178TIP3    H218415   2.851   7.558   1.026
 6179TIP3   OH218416   3.432   7.940   2.660
 6179TIP3    H118417   3.425   7.870   2.729
 6179TIP3    H218418   3.510   7.991   2.689
 6180TIP3   OH218419   3.211   7.651   0.964
 6180TIP3    H118420   3.262   7.593   1.023
 6180TIP3    H218421   3.269   7.656   0.886
 6181TIP3   OH218422   2.442   7.472   3.086
 6181TIP3    H118423   2.459   7.376   3.081
 6181TIP3    H218424   2.354   7.477   3.041
 6182TIP3   OH218425   2.418   7.128   1.274
 6182TIP3    H118426   2.473   7.096   1.348
 6182TIP3    H218427   2.487   7.132   1.203
 6183TIP3   OH218428   3.048   7.557   2.859
 6183TIP3    H118429   3.011   7.575   2.771
 6183TIP3    H218430   3.080   7.464   2.850
 6184TIP3   OH218431   2.920   7.322   1.080
 6184TIP3    H118432   2.928   7.337   1.177
 6184TIP3    H218433   2.921   7.224   1.077
 6185TIP3   OH218434   3.543   7.563   2.462
 6185TIP3    H118435   3.617   7.608   2.417
 6185TIP3    H218436   3.472   7.630   2.449
 6186TIP3   OH218437   2.557   7.205   3.066
 6186TIP3    H118438   2.631   7.147   3.043
 6186TIP3    H218439   2.584   7.239   3.153
 6187TIP3   OH218440   2.629   7.027   1.499
 6187TIP3    H118441   2.602   6.988   1.584
 6187TIP3    H218442   2.663   6.949   1.450
 6188TIP3   OH218443   2.895   7.092   2.728
 6188TIP3    H118444   2.819   7.154   2.730
 6188TIP3    H218445   2.944   7.124   2.648
 6189TIP3   OH218446   2.724   6.815   1.338
 6189TIP3    H118447   2.704   6.823   1.242
 6189TIP3    H218448   2.822   6.825   1.337
 6190TIP3   OH218449   3.414   7.498   2.865
 6190TIP3    H118450   3.492   7.479   2.812
 6190TIP3    H218451   3.411   7.422   2.926
 6191TIP3   OH218452   3.551   7.155   0.998
 6191TIP3    H118453   3.529   7.107   0.916
 6191TIP3    H218454   3.521   7.245   0.973
 6192TIP3   OH218455   3.017   6.879   2.857
 6192TIP3    H118456   3.019   6.799   2.801
 6192TIP3    H218457   2.977   6.944   2.797
 6193TIP3   OH218458   3.021   6.667   2.661
 6193TIP3    H118459   3.049   6.708   2.577
 6193TIP3    H218460   2.928   6.643   2.641
 6194TIP3   OH218461   3.052   7.202   2.531
 6194TIP3    H118462   3.134   7.209   2.480
 6194TIP3    H218463   2.997   7.273   2.490
 6195TIP3   OH218464   3.633   7.174   2.918
 6195TIP3    H118465   3.682   7.090   2.923
 6195TIP3    H218466   3.701   7.233   2.883
 6196TIP3   OH218467   3.673   7.423   2.651
 6196TIP3    H118468   3.616   7.475   2.590
 6196TIP3    H218469   3.761   7.442   2.611
 6197TIP3   OH218470   2.901   7.000   3.085
 6197TIP3    H118471   2.830   6.933   3.097
 6197TIP3    H218472   2.933   6.978   2.995
 6198TIP3   OH218473   3.154   6.433   2.724
 6198TIP3    H118474   3.105   6.515   2.702
 6198TIP3    H218475   3.085   6.364   2.712
 6199TIP3   OH218476   3.281   6.938   2.941
 6199TIP3    H118477   3.271   6.925   3.037
 6199TIP3    H218478   3.190   6.913   2.912
 6200TIP3   OH218479   3.521   6.888   2.797
 6200TIP3    H118480   3.445   6.887   2.858
 6200TIP3    H218481   3.594   6.855   2.854
 6201TIP3   OH218482   3.746   6.824   2.951
 6201TIP3    H118483   3.761   6.729   2.970
 6201TIP3    H218484   3.746   6.865   3.040
 6202TIP3   OH218485   2.738   6.780   3.133
 6202TIP3    H118486   2.742   6.691   3.093
 6202TIP3    H218487   2.773   6.760   3.223
 6203TIP3   OH218488   3.250   6.443   2.981
 6203TIP3    H118489   3.318   6.372   2.977
 6203TIP3    H218490   3.211   6.434   2.892
 6204TIP3   OH218491   3.311   6.656   3.143
 6204TIP3    H118492   3.292   6.584   3.078
 6204TIP3    H218493   3.238   6.718   3.128
 6205TIP3   OH218494   2.532   7.884   1.242
 6205TIP3    H118495   2.628   7.883   1.225
 6205TIP3    H218496   2.503   7.932   1.162
 6206TIP3   OH218497   2.014   7.267   1.461
 6206TIP3    H118498   2.109   7.290   1.448
 6206TIP3    H218499   2.010   7.178   1.419
 6207TIP3   OH218500   1.928   7.880   1.869
 6207TIP3    H118501   1.859   7.817   1.837
 6207TIP3    H218502   1.971   7.825   1.938
 6208TIP3   OH218503   2.064   7.737   2.057
 6208TIP3    H118504   2.054   7.659   2.114
 6208TIP3    H218505   2.115   7.795   2.116
 6209TIP3   OH218506   3.790   8.132   1.858
 6209TIP3    H118507   3.817   8.170   1.943
 6209TIP3    H218508   3.847   8.179   1.796
 6210TIP3   OH218509   3.819   8.152   2.140
 6210TIP3    H118510   3.782   8.062   2.135
 6210TIP3    H218511   3.898   8.136   2.193
 6211TIP3   OH218512   3.869   7.828   2.713
 6211TIP3    H118513   3.794   7.837   2.775
 6211TIP3    H218514   3.909   7.917   2.716
 6212TIP3   OH218515   3.683   7.343   1.334
 6212TIP3    H118516   3.753   7.406   1.307
 6212TIP3    H218517   3.725   7.303   1.413
 6213TIP3   OH218518   3.810   7.210   1.536
 6213TIP3    H118519   3.746   7.167   1.597
 6213TIP3    H218520   3.876   7.249   1.598
 6214TIP3   OH218521   3.862   7.597   1.969
 6214TIP3    H118522   3.917   7.538   1.916
 6214TIP3    H218523   3.854   7.676   1.911
 6215TIP3   OH218524   3.699   7.899   2.167
 6215TIP3    H118525   3.628   7.945   2.217
 6215TIP3    H218526   3.648   7.852   2.098
 6216TIP3   OH218527   3.750   7.116   1.186
 6216TIP3    H118528   3.678   7.120   1.118
 6216TIP3    H218529   3.724   7.193   1.241
 6217TIP3   OH218530   3.620   6.790   1.142
 6217TIP3    H118531   3.582   6.832   1.064
 6217TIP3    H218532   3.593   6.696   1.129
 6218TIP3   OH218533   3.626   7.064   1.686
 6218TIP3    H118534   3.636   6.967   1.682
 6218TIP3    H218535   3.614   7.080   1.782
 6219TIP3   OH218536   2.254   7.137   2.431
 6219TIP3    H118537   2.253   7.111   2.336
 6219TIP3    H218538   2.351   7.140   2.447
 6220TIP3   OH218539   3.914   7.489   2.541
 6220TIP3    H118540   3.989   7.425   2.533
 6220TIP3    H218541   3.941   7.560   2.480
 6221TIP3   OH218542   4.101   7.298   2.566
 6221TIP3    H118543   4.027   7.246   2.604
 6221TIP3    H218544   4.174   7.234   2.576
 6222TIP3   OH218545   3.565   6.524   1.128
 6222TIP3    H118546   3.643   6.495   1.180
 6222TIP3    H218547   3.495   6.464   1.157
 6223TIP3   OH218548   3.621   6.779   1.582
 6223TIP3    H118549   3.662   6.691   1.597
 6223TIP3    H218550   3.680   6.813   1.513
 6224TIP3   OH218551   3.785   6.959   2.075
 6224TIP3    H118552   3.872   6.985   2.035
 6224TIP3    H218553   3.799   6.994   2.165
 6225TIP3   OH218554   3.851   7.099   2.310
 6225TIP3    H118555   3.772   7.134   2.355
 6225TIP3    H218556   3.884   7.178   2.263
 6226TIP3   OH218557   2.470   6.830   3.111
 6226TIP3    H118558   2.567   6.818   3.105
 6226TIP3    H218559   2.445   6.743   3.149
 6227TIP3   OH218560   4.304   6.687   2.865
 6227TIP3    H118561   4.362   6.621   2.821
 6227TIP3    H218562   4.278   6.745   2.790
 6228TIP3   OH218563   3.731   6.530   1.618
 6228TIP3    H118564   3.780   6.515   1.701
 6228TIP3    H218565   3.671   6.452   1.617
 6229TIP3   OH218566   2.431   6.518   2.441
 6229TIP3    H118567   2.492   6.442   2.446
 6229TIP3    H218568   2.494   6.591   2.432
 6230TIP3   OH218569   2.237   6.794   2.512
 6230TIP3    H118570   2.284   6.780   2.427
 6230TIP3    H218571   2.268   6.882   2.536
 6231TIP3   OH218572   4.178   6.832   2.673
 6231TIP3    H118573   4.090   6.869   2.692
 6231TIP3    H218574   4.153   6.761   2.611
 6232TIP3   OH218575   3.814   6.469   1.247
 6232TIP3    H118576   3.856   6.395   1.199
 6232TIP3    H218577   3.883   6.539   1.240
 6233TIP3   OH218578   3.374   7.996   1.515
 6233TIP3    H118579   3.427   7.981   1.434
 6233TIP3    H218580   3.427   8.063   1.561
 6234TIP3   OH218581   2.438   6.380   2.829
 6234TIP3    H118582   2.385   6.369   2.909
 6234TIP3    H218583   2.371   6.413   2.766
 6235TIP3   OH218584   2.479   7.795   2.905
 6235TIP3    H118585   2.387   7.769   2.884
 6235TIP3    H218586   2.480   7.788   3.001
 6236TIP3   OH218587   2.653   7.831   2.450
 6236TIP3    H118588   2.606   7.907   2.411
 6236TIP3    H218589   2.740   7.845   2.406
 6237TIP3   OH218590   3.104   8.078   2.588
 6237TIP3    H118591   3.146   8.084   2.677
 6237TIP3    H218592   3.169   8.129   2.534
 6238TIP3   OH218593   3.282   8.226   2.445
 6238TIP3    H118594   3.356   8.179   2.404
 6238TIP3    H218595   3.331   8.287   2.505
 6239TIP3   OH218596   4.074   6.594   2.547
 6239TIP3    H118597   3.983   6.591   2.514
 6239TIP3    H218598   4.102   6.500   2.534
 6240TIP3   OH218599   2.332   8.089   2.474
 6240TIP3    H118600   2.245   8.126   2.447
 6240TIP3    H218601   2.339   8.123   2.564
 6241TIP3   OH218602   2.568   8.066   2.329
 6241TIP3    H118603   2.482   8.082   2.374
 6241TIP3    H218604   2.550   8.103   2.240
 6242TIP3   OH218605   2.994   8.099   2.127
 6242TIP3    H118606   2.927   8.124   2.061
 6242TIP3    H218607   3.009   8.185   2.172
 6243TIP3   OH218608   3.262   8.038   2.177
 6243TIP3    H118609   3.168   8.057   2.158
 6243TIP3    H218610   3.306   8.116   2.140
 6244TIP3   OH218611   3.470   8.231   2.097
 6244TIP3    H118612   3.458   8.317   2.051
 6244TIP3    H218613   3.497   8.172   2.023
 6245TIP3   OH218614   2.243   7.885   2.219
 6245TIP3    H118615   2.270   7.862   2.310
 6245TIP3    H218616   2.316   7.841   2.169
 6246TIP3   OH218617   2.435   7.755   2.072
 6246TIP3    H118618   2.454   7.672   2.121
 6246TIP3    H218619   2.525   7.795   2.067
 6247TIP3   OH218620   2.699   7.852   2.075
 6247TIP3    H118621   2.735   7.763   2.062
 6247TIP3    H218622   2.741   7.875   2.160
 6248TIP3   OH218623   3.278   6.509   2.164
 6248TIP3    H118624   3.234   6.441   2.218
 6248TIP3    H218625   3.348   6.458   2.119
 6249TIP3   OH218626   3.806   6.388   2.073
 6249TIP3    H118627   3.842   6.440   1.998
 6249TIP3    H218628   3.710   6.404   2.065
 6250TIP3   OH218629   3.898   6.490   1.835
 6250TIP3    H118630   3.971   6.439   1.794
 6250TIP3    H218631   3.931   6.582   1.820
 6251TIP3   OH218632   2.976   6.249   2.057
 6251TIP3    H118633   3.037   6.305   2.007
 6251TIP3    H218634   2.982   6.286   2.146
 6252TIP3   OH218635   3.524   6.395   2.047
 6252TIP3    H118636   3.515   6.361   1.957
 6252TIP3    H218637   3.507   6.314   2.100
 6253TIP3   OH218638   3.548   6.315   1.607
 6253TIP3    H118639   3.460   6.356   1.616
 6253TIP3    H218640   3.534   6.231   1.656
 6254TIP3   OH218641   2.031   7.652   1.613
 6254TIP3    H118642   1.947   7.620   1.576
 6254TIP3    H218643   2.019   7.747   1.599
 6255TIP3   OH218644   2.439   6.286   1.550
 6255TIP3    H118645   2.467   6.195   1.533
 6255TIP3    H218646   2.473   6.299   1.640
 6256TIP3   OH218647   2.955   6.419   1.690
 6256TIP3    H118648   3.007   6.370   1.756
 6256TIP3    H218649   2.975   6.511   1.718
 6257TIP3   OH218650   2.802   7.851   1.190
 6257TIP3    H118651   2.892   7.870   1.157
 6257TIP3    H218652   2.781   7.774   1.133
 6258TIP3   OH218653   3.519   7.962   1.283
 6258TIP3    H118654   3.510   7.865   1.269
 6258TIP3    H218655   3.478   7.996   1.202
 6259TIP3   OH218656   2.735   6.501   3.077
 6259TIP3    H118657   2.704   6.426   3.131
 6259TIP3    H218658   2.830   6.500   3.099
 6260TIP3   OH218659   2.986   6.498   3.194
 6260TIP3    H118660   3.069   6.469   3.152
 6260TIP3    H218661   2.973   6.427   3.261
 6261TIP3   OH218662   2.109   7.688   1.251
 6261TIP3    H118663   2.104   7.713   1.345
 6261TIP3    H218664   2.197   7.646   1.244
 6262TIP3   OH218665   3.808   6.554   2.981
 6262TIP3    H118666   3.829   6.522   3.071
 6262TIP3    H218667   3.896   6.550   2.938
 6263TIP3   OH218668   3.750   8.109   2.474
 6263TIP3    H118669   3.671   8.077   2.425
 6263TIP3    H218670   3.733   8.205   2.472
 6264TIP3   OH218671   5.014   7.479   1.241
 6264TIP3    H118672   4.989   7.572   1.223
 6264TIP3    H218673   4.935   7.433   1.208
 6265TIP3   OH218674   5.013   7.479   1.615
 6265TIP3    H118675   5.041   7.448   1.703
 6265TIP3    H218676   4.970   7.400   1.578
 6266TIP3   OH218677   4.315   7.378   1.985
 6266TIP3    H118678   4.348   7.312   2.048
 6266TIP3    H218679   4.392   7.436   1.976
 6267TIP3   OH218680   5.253   7.781   1.298
 6267TIP3    H118681   5.244   7.711   1.365
 6267TIP3    H218682   5.282   7.856   1.352
 6268TIP3   OH218683   4.282   7.783   1.713
 6268TIP3    H118684   4.275   7.685   1.717
 6268TIP3    H218685   4.379   7.793   1.706
 6269TIP3   OH218686   3.991   6.990   1.499
 6269TIP3    H118687   3.944   7.074   1.510
 6269TIP3    H218688   3.920   6.934   1.463
 6270TIP3   OH218689   4.051   7.276   1.662
 6270TIP3    H118690   4.100   7.200   1.702
 6270TIP3    H218691   4.111   7.303   1.592
 6271TIP3   OH218692   4.901   8.243   1.314
 6271TIP3    H118693   4.952   8.172   1.269
 6271TIP3    H218694   4.899   8.212   1.405
 6272TIP3   OH218695   4.813   7.704   1.667
 6272TIP3    H118696   4.850   7.629   1.618
 6272TIP3    H218697   4.897   7.749   1.691
 6273TIP3   OH218698   5.822   7.026   1.664
 6273TIP3    H118699   5.851   7.108   1.709
 6273TIP3    H218700   5.844   7.048   1.572
 6274TIP3   OH218701   5.223   7.208   1.704
 6274TIP3    H118702   5.267   7.123   1.722
 6274TIP3    H218703   5.195   7.195   1.611
 6275TIP3   OH218704   4.559   6.866   1.668
 6275TIP3    H118705   4.539   6.939   1.605
 6275TIP3    H218706   4.511   6.793   1.622
 6276TIP3   OH218707   5.254   6.957   1.291
 6276TIP3    H118708   5.327   6.940   1.355
 6276TIP3    H218709   5.304   6.993   1.216
 6277TIP3   OH218710   4.195   7.070   1.772
 6277TIP3    H118711   4.278   7.050   1.820
 6277TIP3    H218712   4.207   7.014   1.693
 6278TIP3   OH218713   4.638   7.267   1.562
 6278TIP3    H118714   4.731   7.241   1.577
 6278TIP3    H218715   4.598   7.183   1.531
 6279TIP3   OH218716   5.896   7.231   1.837
 6279TIP3    H118717   5.814   7.281   1.816
 6279TIP3    H218718   5.912   7.259   1.928
 6280TIP3   OH218719   4.559   6.850   2.100
 6280TIP3    H118720   4.498   6.888   2.033
 6280TIP3    H218721   4.508   6.869   2.182
 6281TIP3   OH218722   4.912   7.703   1.107
 6281TIP3    H118723   4.863   7.678   1.028
 6281TIP3    H218724   4.868   7.787   1.131
 6282TIP3   OH218725   4.665   7.624   1.900
 6282TIP3    H118726   4.600   7.688   1.938
 6282TIP3    H218727   4.706   7.677   1.829
 6283TIP3   OH218728   5.469   6.957   1.458
 6283TIP3    H118729   5.463   6.907   1.540
 6283TIP3    H218730   5.524   7.032   1.483
 6284TIP3   OH218731   4.428   6.965   1.886
 6284TIP3    H118732   4.490   7.038   1.909
 6284TIP3    H218733   4.476   6.924   1.811
 6285TIP3   OH218734   4.490   7.815   1.993
 6285TIP3    H118735   4.466   7.901   1.952
 6285TIP3    H218736   4.412   7.803   2.050
 6286TIP3   OH218737   3.890   7.507   1.230
 6286TIP3    H118738   3.850   7.535   1.146
 6286TIP3    H218739   3.920   7.593   1.268
 6287TIP3   OH218740   5.328   8.022   1.470
 6287TIP3    H118741   5.238   8.015   1.509
 6287TIP3    H218742   5.322   8.108   1.424
 6288TIP3   OH218743   5.616   6.927   1.832
 6288TIP3    H118744   5.529   6.958   1.802
 6288TIP3    H218745   5.675   6.958   1.760
 6289TIP3   OH218746   4.919   6.572   1.812
 6289TIP3    H118747   4.907   6.477   1.829
 6289TIP3    H218748   4.840   6.609   1.859
 6290TIP3   OH218749   5.036   8.071   1.146
 6290TIP3    H118750   5.086   7.990   1.123
 6290TIP3    H218751   5.095   8.138   1.104
 6291TIP3   OH218752   5.177   7.855   1.043
 6291TIP3    H118753   5.128   7.779   1.010
 6291TIP3    H218754   5.209   7.821   1.130
 6292TIP3   OH218755   5.554   7.939   1.813
 6292TIP3    H118756   5.545   7.862   1.754
 6292TIP3    H218757   5.538   8.014   1.752
 6293TIP3   OH218758   4.844   7.331   1.068
 6293TIP3    H118759   4.764   7.382   1.045
 6293TIP3    H218760   4.891   7.328   0.983
 6294TIP3   OH218761   4.804   7.114   0.789
 6294TIP3    H118762   4.873   7.164   0.838
 6294TIP3    H218763   4.860   7.050   0.741
 6295TIP3   OH218764   5.749   7.571   1.655
 6295TIP3    H118765   5.667   7.626   1.662
 6295TIP3    H218766   5.779   7.596   1.565
 6296TIP3   OH218767   5.192   7.414   1.043
 6296TIP3    H118768   5.138   7.439   1.121
 6296TIP3    H218769   5.275   7.387   1.088
 6297TIP3   OH218770   5.428   7.456   1.950
 6297TIP3    H118771   5.426   7.539   1.999
 6297TIP3    H218772   5.342   7.460   1.904
 6298TIP3   OH218773   4.424   7.413   1.458
 6298TIP3    H118774   4.383   7.356   1.390
 6298TIP3    H218775   4.502   7.360   1.485
 6299TIP3   OH218776   4.553   7.820   1.609
 6299TIP3    H118777   4.534   7.776   1.525
 6299TIP3    H218778   4.645   7.791   1.627
 6300TIP3   OH218779   4.564   7.383   1.812
 6300TIP3    H118780   4.596   7.366   1.721
 6300TIP3    H218781   4.605   7.469   1.833
 6301TIP3   OH218782   5.087   8.021   1.588
 6301TIP3    H118783   5.072   8.101   1.641
 6301TIP3    H218784   5.073   7.948   1.653
 6302TIP3   OH218785   4.698   7.940   2.137
 6302TIP3    H118786   4.639   8.003   2.183
 6302TIP3    H218787   4.632   7.887   2.088
 6303TIP3   OH218788   5.035   7.270   0.870
 6303TIP3    H118789   5.093   7.330   0.922
 6303TIP3    H218790   5.058   7.296   0.777
 6304TIP3   OH218791   4.452   7.498   2.234
 6304TIP3    H118792   4.456   7.584   2.281
 6304TIP3    H218793   4.356   7.481   2.240
 6305TIP3   OH218794   4.774   7.954   1.147
 6305TIP3    H118795   4.848   8.012   1.169
 6305TIP3    H218796   4.713   8.014   1.101
 6306TIP3   OH218797   4.494   8.110   2.221
 6306TIP3    H118798   4.458   8.108   2.130
 6306TIP3    H218799   4.415   8.088   2.275
 6307TIP3   OH218800   5.550   6.514   0.914
 6307TIP3    H118801   5.469   6.535   0.965
 6307TIP3    H218802   5.562   6.597   0.864
 6308TIP3   OH218803   4.291   7.254   1.264
 6308TIP3    H118804   4.228   7.301   1.204
 6308TIP3    H218805   4.246   7.170   1.276
 6309TIP3   OH218806   4.072   7.639   2.171
 6309TIP3    H118807   4.010   7.616   2.099
 6309TIP3    H218808   4.109   7.552   2.197
 6310TIP3   OH218809   3.926   7.829   1.808
 6310TIP3    H118810   4.022   7.826   1.794
 6310TIP3    H218811   3.917   7.912   1.857
 6311TIP3   OH218812   5.792   8.280   1.857
 6311TIP3    H118813   5.790   8.184   1.870
 6311TIP3    H218814   5.709   8.306   1.902
 6312TIP3   OH218815   4.899   8.069   1.992
 6312TIP3    H118816   4.900   8.162   2.024
 6312TIP3    H218817   4.827   8.031   2.048
 6313TIP3   OH218818   4.656   8.198   0.942
 6313TIP3    H118819   4.613   8.179   0.857
 6313TIP3    H218820   4.625   8.288   0.963
 6314TIP3   OH218821   4.093   8.049   1.326
 6314TIP3    H118822   4.144   8.039   1.410
 6314TIP3    H218823   4.029   7.977   1.337
 6315TIP3   OH218824   4.855   8.094   0.601
 6315TIP3    H118825   4.914   8.030   0.561
 6315TIP3    H218826   4.892   8.105   0.691
 6316TIP3   OH218827   4.910   8.145   0.864
 6316TIP3    H118828   4.819   8.155   0.900
 6316TIP3    H218829   4.955   8.103   0.940
 6317TIP3   OH218830   5.682   7.414   2.132
 6317TIP3    H118831   5.603   7.430   2.078
 6317TIP3    H218832   5.696   7.318   2.120
 6318TIP3   OH218833   4.278   7.821   2.161
 6318TIP3    H118834   4.328   7.805   2.244
 6318TIP3    H218835   4.204   7.757   2.169
 6319TIP3   OH218836   4.678   6.645   1.939
 6319TIP3    H118837   4.587   6.615   1.916
 6319TIP3    H218838   4.655   6.730   1.983
 6320TIP3   OH218839   5.210   6.762   2.135
 6320TIP3    H118840   5.277   6.735   2.201
 6320TIP3    H218841   5.125   6.741   2.180
 6321TIP3   OH218842   5.452   7.190   2.054
 6321TIP3    H118843   5.403   7.186   2.139
 6321TIP3    H218844   5.428   7.278   2.019
 6322TIP3   OH218845   5.096   7.321   0.614
 6322TIP3    H118846   5.073   7.288   0.525
 6322TIP3    H218847   5.181   7.365   0.595
 6323TIP3   OH218848   4.822   6.697   0.912
 6323TIP3    H118849   4.792   6.695   1.004
 6323TIP3    H218850   4.785   6.612   0.880
 6324TIP3   OH218851   4.608   7.160   1.960
 6324TIP3    H118852   4.558   7.184   2.041
 6324TIP3    H218853   4.593   7.240   1.905
 6325TIP3   OH218854   4.493   7.046   1.475
 6325TIP3    H118855   4.400   7.021   1.490
 6325TIP3    H218856   4.507   7.006   1.386
 6326TIP3   OH218857   4.983   7.132   1.200
 6326TIP3    H118858   4.928   7.204   1.161
 6326TIP3    H218859   5.037   7.105   1.123
 6327TIP3   OH218860   5.157   7.414   2.290
 6327TIP3    H118861   5.136   7.340   2.351
 6327TIP3    H218862   5.251   7.429   2.310
 6328TIP3   OH218863   5.141   7.163   1.443
 6328TIP3    H118864   5.084   7.195   1.371
 6328TIP3    H218865   5.173   7.080   1.401
 6329TIP3   OH218866   4.427   7.191   2.170
 6329TIP3    H118867   4.454   7.255   2.237
 6329TIP3    H218868   4.417   7.109   2.222
 6330TIP3   OH218869   4.476   6.665   0.879
 6330TIP3    H118870   4.472   6.663   0.977
 6330TIP3    H218871   4.397   6.718   0.858
 6331TIP3   OH218872   4.020   6.714   1.749
 6331TIP3    H118873   4.097   6.745   1.802
 6331TIP3    H218874   4.061   6.680   1.668
 6332TIP3   OH218875   4.000   6.694   1.270
 6332TIP3    H118876   4.046   6.733   1.192
 6332TIP3    H218877   3.939   6.767   1.291
 6333TIP3   OH218878   5.151   7.410   1.866
 6333TIP3    H118879   5.183   7.337   1.809
 6333TIP3    H218880   5.123   7.359   1.945
 6334TIP3   OH218881   4.816   6.870   1.537
 6334TIP3    H118882   4.733   6.867   1.589
 6334TIP3    H218883   4.883   6.873   1.607
 6335TIP3   OH218884   4.254   6.923   1.547
 6335TIP3    H118885   4.160   6.931   1.519
 6335TIP3    H218886   4.278   6.832   1.522
 6336TIP3   OH218887   4.527   6.923   1.231
 6336TIP3    H118888   4.622   6.937   1.211
 6336TIP3    H218889   4.482   6.946   1.148
 6337TIP3   OH218890   5.311   6.945   1.736
 6337TIP3    H118891   5.275   6.956   1.827
 6337TIP3    H218892   5.247   6.882   1.699
 6338TIP3   OH218893   4.361   6.952   1.012
 6338TIP3    H118894   4.288   6.911   0.963
 6338TIP3    H218895   4.413   6.989   0.938
 6339TIP3   OH218896   5.478   8.633   1.955
 6339TIP3    H118897   5.478   8.655   1.860
 6339TIP3    H218898   5.557   8.682   1.986
 6340TIP3   OH218899   4.439   7.742   2.380
 6340TIP3    H118900   4.519   7.774   2.427
 6340TIP3    H218901   4.374   7.745   2.453
 6341TIP3   OH218902   4.903   7.194   1.633
 6341TIP3    H118903   4.977   7.157   1.581
 6341TIP3    H218904   4.919   7.156   1.721
 6342TIP3   OH218905   4.429   6.687   1.507
 6342TIP3    H118906   4.399   6.605   1.552
 6342TIP3    H218907   4.485   6.653   1.436
 6343TIP3   OH218908   4.880   7.088   1.928
 6343TIP3    H118909   4.792   7.128   1.937
 6343TIP3    H218910   4.939   7.150   1.976
 6344TIP3   OH218911   4.618   7.485   1.019
 6344TIP3    H118912   4.544   7.421   1.007
 6344TIP3    H218913   4.600   7.519   1.110
 6345TIP3   OH218914   5.520   7.721   1.650
 6345TIP3    H118915   5.544   7.769   1.568
 6345TIP3    H218916   5.434   7.681   1.627
 6346TIP3   OH218917   5.076   6.798   0.877
 6346TIP3    H118918   4.978   6.785   0.883
 6346TIP3    H218919   5.088   6.892   0.899
 6347TIP3   OH218920   5.016   7.801   2.016
 6347TIP3    H118921   5.035   7.780   2.108
 6347TIP3    H218922   4.979   7.891   2.022
 6348TIP3   OH218923   5.147   7.042   0.982
 6348TIP3    H118924   5.243   7.049   0.998
 6348TIP3    H218925   5.128   7.123   0.929
 6349TIP3   OH218926   4.306   7.503   1.697
 6349TIP3    H118927   4.344   7.477   1.611
 6349TIP3    H218928   4.348   7.439   1.757
 6350TIP3   OH218929   4.762   7.636   0.837
 6350TIP3    H118930   4.718   7.723   0.846
 6350TIP3    H218931   4.707   7.581   0.898
 6351TIP3   OH218932   4.186   7.428   2.308
 6351TIP3    H118933   4.211   7.415   2.402
 6351TIP3    H218934   4.119   7.360   2.295
 6352TIP3   OH218935   4.912   7.538   2.328
 6352TIP3    H118936   4.856   7.481   2.274
 6352TIP3    H218937   5.002   7.507   2.300
 6353TIP3   OH218938   5.178   8.059   1.911
 6353TIP3    H118939   5.082   8.060   1.922
 6353TIP3    H218940   5.206   8.112   1.988
 6354TIP3   OH218941   5.587   7.129   0.822
 6354TIP3    H118942   5.527   7.085   0.758
 6354TIP3    H218943   5.585   7.218   0.781
 6355TIP3   OH218944   5.805   7.988   1.903
 6355TIP3    H118945   5.707   7.985   1.894
 6355TIP3    H218946   5.830   7.959   1.812
 6356TIP3   OH218947   5.294   7.948   0.720
 6356TIP3    H118948   5.259   7.894   0.793
 6356TIP3    H218949   5.292   7.887   0.646
 6357TIP3   OH218950   5.283   7.582   1.572
 6357TIP3    H118951   5.189   7.556   1.583
 6357TIP3    H218952   5.318   7.504   1.524
 6358TIP3   OH218953   4.408   7.807   1.318
 6358TIP3    H118954   4.414   7.890   1.266
 6358TIP3    H218955   4.313   7.797   1.325
 6359TIP3   OH218956   3.971   7.115   1.018
 6359TIP3    H118957   4.019   7.197   1.038
 6359TIP3    H218958   3.895   7.121   1.080
 6360TIP3   OH218959   4.553   7.577   1.266
 6360TIP3    H118960   4.517   7.667   1.282
 6360TIP3    H218961   4.515   7.528   1.340
 6361TIP3   OH218962   4.677   8.154   1.791
 6361TIP3    H118963   4.716   8.227   1.738
 6361TIP3    H218964   4.755   8.122   1.839
 6362TIP3   OH218965   4.332   8.047   1.174
 6362TIP3    H118966   4.245   8.057   1.217
 6362TIP3    H218967   4.364   8.140   1.175
 6363TIP3   OH218968   5.070   7.787   1.747
 6363TIP3    H118969   5.062   7.785   1.845
 6363TIP3    H218970   5.151   7.737   1.733
 6364TIP3   OH218971   5.018   7.678   0.646
 6364TIP3    H118972   5.075   7.650   0.721
 6364TIP3    H218973   4.930   7.653   0.678
 6365TIP3   OH218974   5.316   8.324   1.798
 6365TIP3    H118975   5.237   8.268   1.788
 6365TIP3    H218976   5.302   8.390   1.726
 6366TIP3   OH218977   4.403   6.933   2.319
 6366TIP3    H118978   4.307   6.938   2.334
 6366TIP3    H218979   4.431   6.870   2.388
 6367TIP3   OH218980   5.198   7.613   0.847
 6367TIP3    H118981   5.188   7.548   0.919
 6367TIP3    H218982   5.295   7.613   0.836
 6368TIP3   OH218983   4.116   8.018   1.950
 6368TIP3    H118984   4.169   7.942   1.979
 6368TIP3    H218985   4.147   8.087   2.011
 6369TIP3   OH218986   4.406   7.660   0.628
 6369TIP3    H118987   4.422   7.570   0.596
 6369TIP3    H218988   4.389   7.646   0.723
 6370TIP3   OH218989   4.355   7.665   0.904
 6370TIP3    H118990   4.426   7.642   0.965
 6370TIP3    H218991   4.358   7.763   0.905
 6371TIP3   OH218992   4.091   7.361   1.104
 6371TIP3    H118993   4.026   7.407   1.161
 6371TIP3    H218994   4.108   7.430   1.037
 6372TIP3   OH218995   5.235   6.997   1.995
 6372TIP3    H118996   5.315   7.035   2.035
 6372TIP3    H218997   5.220   6.917   2.050
 6373TIP3   OH218998   5.114   6.752   1.158
 6373TIP3    H118999   5.102   6.775   1.064
 6373TIP3    H219000   5.154   6.834   1.194
 6374TIP3   OH219001   4.622   7.865   0.861
 6374TIP3    H119002   4.535   7.899   0.888
 6374TIP3    H219003   4.630   7.905   0.773
 6375TIP3   OH219004   4.810   6.926   1.262
 6375TIP3    H119005   4.875   6.997   1.244
 6375TIP3    H219006   4.814   6.920   1.360
 6376TIP3   OH219007   5.076   7.248   2.073
 6376TIP3    H119008   5.092   7.303   2.152
 6376TIP3    H219009   5.133   7.171   2.089
 6377TIP3   OH219010   4.955   6.660   1.368
 6377TIP3    H119011   4.948   6.737   1.428
 6377TIP3    H219012   5.013   6.697   1.298
 6378TIP3   OH219013   4.358   7.938   0.915
 6378TIP3    H119014   4.330   8.007   0.850
 6378TIP3    H219015   4.345   7.984   1.000
 6379TIP3   OH219016   4.463   6.651   1.156
 6379TIP3    H119017   4.461   6.743   1.191
 6379TIP3    H219018   4.559   6.632   1.165
 6380TIP3   OH219019   5.719   7.146   2.052
 6380TIP3    H119020   5.621   7.144   2.058
 6380TIP3    H219021   5.731   7.112   1.962
 6381TIP3   OH219022   5.369   7.342   1.439
 6381TIP3    H119023   5.293   7.281   1.452
 6381TIP3    H219024   5.441   7.295   1.487
 6382TIP3   OH219025   4.078   7.574   0.911
 6382TIP3    H119026   4.139   7.649   0.920
 6382TIP3    H219027   4.127   7.523   0.843
 6383TIP3   OH219028   4.026   6.846   1.044
 6383TIP3    H119029   4.025   6.944   1.036
 6383TIP3    H219030   3.941   6.823   1.005
 6384TIP3   OH219031   5.336   8.293   1.391
 6384TIP3    H119032   5.293   8.340   1.316
 6384TIP3    H219033   5.430   8.314   1.370
 6385TIP3   OH219034   4.412   6.567   1.920
 6385TIP3    H119035   4.381   6.534   1.833
 6385TIP3    H219036   4.402   6.487   1.977
 6386TIP3   OH219037   3.954   7.781   1.305
 6386TIP3    H119038   3.875   7.818   1.346
 6386TIP3    H219039   3.946   7.819   1.215
 6387TIP3   OH219040   4.105   8.319   2.371
 6387TIP3    H119041   4.192   8.320   2.417
 6387TIP3    H219042   4.086   8.224   2.368
 6388TIP3   OH219043   4.593   8.293   2.414
 6388TIP3    H119044   4.687   8.274   2.421
 6388TIP3    H219045   4.568   8.237   2.338
 6389TIP3   OH219046   4.589   7.862   0.573
 6389TIP3    H119047   4.519   7.793   0.586
 6389TIP3    H219048   4.624   7.835   0.487
 6390TIP3   OH219049   5.229   8.195   2.146
 6390TIP3    H119050   5.221   8.126   2.215
 6390TIP3    H219051   5.307   8.246   2.177
 6391TIP3   OH219052   4.238   7.729   2.571
 6391TIP3    H119053   4.255   7.634   2.572
 6391TIP3    H219054   4.150   7.733   2.527
 6392TIP3   OH219055   4.214   7.383   0.758
 6392TIP3    H119056   4.271   7.350   0.830
 6392TIP3    H219057   4.281   7.392   0.688
 6393TIP3   OH219058   4.847   7.814   2.343
 6393TIP3    H119059   4.805   7.828   2.256
 6393TIP3    H219060   4.878   7.721   2.337
 6394TIP3   OH219061   4.723   7.569   0.568
 6394TIP3    H119062   4.718   7.593   0.663
 6394TIP3    H219063   4.715   7.471   0.572
 6395TIP3   OH219064   5.339   7.819   1.948
 6395TIP3    H119065   5.413   7.866   1.904
 6395TIP3    H219066   5.268   7.885   1.937
 6396TIP3   OH219067   4.355   7.460   2.551
 6396TIP3    H119068   4.432   7.404   2.533
 6396TIP3    H219069   4.379   7.496   2.639
 6397TIP3   OH219070   4.426   7.284   0.987
 6397TIP3    H119071   4.399   7.241   1.070
 6397TIP3    H219072   4.460   7.209   0.935
 6398TIP3   OH219073   4.691   7.348   2.213
 6398TIP3    H119074   4.615   7.410   2.218
 6398TIP3    H219075   4.739   7.381   2.133
 6399TIP3   OH219076   4.522   7.075   0.829
 6399TIP3    H119077   4.494   7.077   0.734
 6399TIP3    H219078   4.619   7.085   0.820
 6400TIP3   OH219079   5.208   7.751   2.349
 6400TIP3    H119080   5.289   7.736   2.300
 6400TIP3    H219081   5.210   7.682   2.417
 6401TIP3   OH219082   5.339   7.419   0.527
 6401TIP3    H119083   5.368   7.389   0.438
 6401TIP3    H219084   5.320   7.514   0.508
 6402TIP3   OH219085   4.815   7.136   2.342
 6402TIP3    H119086   4.815   7.056   2.286
 6402TIP3    H219087   4.772   7.202   2.283
 6403TIP3   OH219088   4.817   6.922   2.146
 6403TIP3    H119089   4.845   6.965   2.063
 6403TIP3    H219090   4.723   6.900   2.128
 6404TIP3   OH219091   4.850   7.461   2.018
 6404TIP3    H119092   4.931   7.467   1.965
 6404TIP3    H219093   4.793   7.529   1.977
 6405TIP3   OH219094   5.431   7.428   2.404
 6405TIP3    H119095   5.481   7.345   2.410
 6405TIP3    H219096   5.498   7.489   2.369
 6406TIP3   OH219097   5.470   7.679   2.137
 6406TIP3    H119098   5.412   7.731   2.077
 6406TIP3    H219099   5.558   7.699   2.096
 6407TIP3   OH219100   4.690   7.255   2.568
 6407TIP3    H119101   4.622   7.186   2.581
 6407TIP3    H219102   4.727   7.229   2.481
 6408TIP3   OH219103   4.950   6.688   2.211
 6408TIP3    H119104   4.902   6.771   2.189
 6408TIP3    H219105   4.880   6.621   2.199
 6409TIP3   OH219106   5.077   7.195   2.429
 6409TIP3    H119107   5.068   7.185   2.525
 6409TIP3    H219108   4.986   7.169   2.401
 6410TIP3   OH219109   5.316   7.141   2.283
 6410TIP3    H119110   5.240   7.144   2.345
 6410TIP3    H219111   5.389   7.111   2.342
 6411TIP3   OH219112   5.545   7.081   2.437
 6411TIP3    H119113   5.556   6.986   2.457
 6411TIP3    H219114   5.541   7.122   2.525
 6412TIP3   OH219115   4.532   7.034   2.619
 6412TIP3    H119116   4.541   6.945   2.582
 6412TIP3    H219117   4.567   7.021   2.710
 6413TIP3   OH219118   5.046   6.698   2.468
 6413TIP3    H119119   5.114   6.628   2.463
 6413TIP3    H219120   5.006   6.690   2.378
 6414TIP3   OH219121   5.110   6.912   2.630
 6414TIP3    H119122   5.087   6.842   2.564
 6414TIP3    H219123   5.034   6.973   2.622
 6415TIP3   OH219124   4.327   8.140   0.726
 6415TIP3    H119125   4.424   8.142   0.709
 6415TIP3    H219126   4.295   8.181   0.645
 6416TIP3   OH219127   3.811   7.523   0.949
 6416TIP3    H119128   3.905   7.547   0.934
 6416TIP3    H219129   3.808   7.434   0.906
 6417TIP3   OH219130   3.723   8.135   1.357
 6417TIP3    H119131   3.655   8.072   1.324
 6417TIP3    H219132   3.767   8.081   1.426
 6418TIP3   OH219133   3.860   7.993   1.544
 6418TIP3    H119134   3.851   7.916   1.602
 6418TIP3    H219135   3.912   8.053   1.602
 6419TIP3   OH219136   5.585   8.391   1.345
 6419TIP3    H119137   5.616   8.426   1.430
 6419TIP3    H219138   5.646   8.432   1.282
 6420TIP3   OH219139   5.617   8.410   1.627
 6420TIP3    H119140   5.577   8.321   1.621
 6420TIP3    H219141   5.695   8.390   1.681
 6421TIP3   OH219142   5.665   8.084   2.200
 6421TIP3    H119143   5.590   8.093   2.262
 6421TIP3    H219144   5.705   8.174   2.203
 6422TIP3   OH219145   5.481   7.603   0.826
 6422TIP3    H119146   5.559   7.658   0.806
 6422TIP3    H219147   5.513   7.556   0.906
 6423TIP3   OH219148   5.605   7.468   1.024
 6423TIP3    H119149   5.542   7.423   1.084
 6423TIP3    H219150   5.672   7.504   1.085
 6424TIP3   OH219151   5.658   7.854   1.456
 6424TIP3    H119152   5.713   7.795   1.402
 6424TIP3    H219153   5.650   7.932   1.398
 6425TIP3   OH219154   5.495   8.157   1.654
 6425TIP3    H119155   5.424   8.201   1.704
 6425TIP3    H219156   5.445   8.109   1.584
 6426TIP3   OH219157   5.548   7.371   0.689
 6426TIP3    H119158   5.468   7.370   0.631
 6426TIP3    H219159   5.525   7.449   0.743
 6427TIP3   OH219160   5.419   7.054   0.619
 6427TIP3    H119161   5.363   7.079   0.544
 6427TIP3    H219162   5.393   6.959   0.629
 6428TIP3   OH219163   5.423   7.320   1.172
 6428TIP3    H119164   5.432   7.224   1.168
 6428TIP3    H219165   5.411   7.336   1.269
 6429TIP3   OH219166   4.050   7.394   1.917
 6429TIP3    H119167   4.049   7.369   1.823
 6429TIP3    H219168   4.147   7.396   1.934
 6430TIP3   OH219169   5.711   7.746   2.027
 6430TIP3    H119170   5.785   7.682   2.019
 6430TIP3    H219171   5.738   7.817   1.967
 6431TIP3   OH219172   5.898   7.555   2.052
 6431TIP3    H119173   5.824   7.503   2.091
 6431TIP3    H219174   5.971   7.490   2.063
 6432TIP3   OH219175   5.347   6.796   0.642
 6432TIP3    H119176   5.433   6.752   0.662
 6432TIP3    H219177   5.283   6.723   0.647
 6433TIP3   OH219178   5.418   7.037   1.069
 6433TIP3    H119179   5.458   6.948   1.084
 6433TIP3    H219180   5.477   7.069   0.999
 6434TIP3   OH219181   5.582   7.215   1.562
 6434TIP3    H119182   5.668   7.241   1.522
 6434TIP3    H219183   5.595   7.251   1.652
 6435TIP3   OH219184   5.647   7.355   1.796
 6435TIP3    H119185   5.568   7.390   1.842
 6435TIP3    H219186   5.680   7.435   1.749
 6436TIP3   OH219187   4.264   7.083   2.591
 6436TIP3    H119188   4.362   7.076   2.592
 6436TIP3    H219189   4.241   6.999   2.635
 6437TIP3   OH219190   6.101   6.944   2.352
 6437TIP3    H119191   6.159   6.878   2.307
 6437TIP3    H219192   6.073   7.001   2.277
 6438TIP3   OH219193   5.526   6.787   1.105
 6438TIP3    H119194   5.576   6.771   1.188
 6438TIP3    H219195   5.467   6.709   1.104
 6439TIP3   OH219196   4.227   6.774   1.925
 6439TIP3    H119197   4.290   6.699   1.934
 6439TIP3    H219198   4.289   6.849   1.919
 6440TIP3   OH219199   4.032   7.049   1.998
 6440TIP3    H119200   4.081   7.040   1.914
 6440TIP3    H219201   4.061   7.137   2.026
 6441TIP3   OH219202   5.974   7.089   2.160
 6441TIP3    H119203   5.886   7.126   2.180
 6441TIP3    H219204   5.948   7.018   2.098
 6442TIP3   OH219205   5.615   6.722   0.736
 6442TIP3    H119206   5.657   6.650   0.686
 6442TIP3    H219207   5.678   6.795   0.723
 6443TIP3   OH219208   4.013   6.554   1.498
 6443TIP3    H119209   3.919   6.552   1.522
 6443TIP3    H219210   4.013   6.611   1.419
 6444TIP3   OH219211   5.176   8.251   1.004
 6444TIP3    H119212   5.227   8.238   0.922
 6444TIP3    H219213   5.225   8.322   1.048
 6445TIP3   OH219214   4.233   6.632   2.313
 6445TIP3    H119215   4.183   6.627   2.396
 6445TIP3    H219216   4.166   6.670   2.253
 6446TIP3   OH219217   4.275   8.053   2.390
 6446TIP3    H119218   4.183   8.026   2.373
 6446TIP3    H219219   4.281   8.043   2.486
 6447TIP3   OH219220   4.449   8.086   1.937
 6447TIP3    H119221   4.401   8.162   1.898
 6447TIP3    H219222   4.536   8.101   1.893
 6448TIP3   OH219223   4.900   8.335   2.075
 6448TIP3    H119224   4.941   8.339   2.164
 6448TIP3    H219225   4.966   8.386   2.022
 6449TIP3   OH219226   5.078   8.484   1.931
 6449TIP3    H119227   5.150   8.435   1.890
 6449TIP3    H219228   5.128   8.542   1.993
 6450TIP3   OH219229   5.870   6.851   2.034
 6450TIP3    H119230   5.779   6.849   2.000
 6450TIP3    H219231   5.897   6.757   2.020
 6451TIP3   OH219232   4.129   8.345   1.961
 6451TIP3    H119233   4.041   8.381   1.935
 6451TIP3    H219234   4.137   8.383   2.049
 6452TIP3   OH219235   4.365   8.324   1.816
 6452TIP3    H119236   4.279   8.338   1.862
 6452TIP3    H219237   4.346   8.360   1.727
 6453TIP3   OH219238   4.792   8.357   1.614
 6453TIP3    H119239   4.723   8.379   1.548
 6453TIP3    H219240   4.804   8.444   1.657
 6454TIP3   OH219241   5.058   8.296   1.665
 6454TIP3    H119242   4.964   8.313   1.645
 6454TIP3    H219243   5.101   8.374   1.625
 6455TIP3   OH219244   5.269   8.490   1.584
 6455TIP3    H119245   5.255   8.574   1.536
 6455TIP3    H219246   5.294   8.429   1.511
 6456TIP3   OH219247   4.039   8.141   1.705
 6456TIP3    H119248   4.066   8.119   1.797
 6456TIP3    H219249   4.112   8.098   1.656
 6457TIP3   OH219250   4.231   8.012   1.559
 6457TIP3    H119251   4.250   7.929   1.608
 6457TIP3    H219252   4.320   8.052   1.553
 6458TIP3   OH219253   4.496   8.110   1.562
 6458TIP3    H119254   4.530   8.020   1.548
 6458TIP3    H219255   4.537   8.131   1.647
 6459TIP3   OH219256   5.075   6.766   1.650
 6459TIP3    H119257   5.031   6.697   1.704
 6459TIP3    H219258   5.145   6.715   1.606
 6460TIP3   OH219259   5.602   6.644   1.559
 6460TIP3    H119260   5.639   6.696   1.485
 6460TIP3    H219261   5.507   6.662   1.552
 6461TIP3   OH219262   5.695   6.747   1.322
 6461TIP3    H119263   5.767   6.696   1.280
 6461TIP3    H219264   5.727   6.839   1.307
 6462TIP3   OH219265   4.325   6.474   1.671
 6462TIP3    H119266   4.233   6.441   1.670
 6462TIP3    H219267   4.374   6.389   1.667
 6463TIP3   OH219268   4.107   6.341   1.313
 6463TIP3    H119269   4.140   6.400   1.243
 6463TIP3    H219270   4.079   6.405   1.382
 6464TIP3   OH219271   4.765   6.507   1.549
 6464TIP3    H119272   4.825   6.559   1.492
 6464TIP3    H219273   4.784   6.544   1.636
 6465TIP3   OH219274   5.319   6.651   1.534
 6465TIP3    H119275   5.312   6.619   1.444
 6465TIP3    H219276   5.302   6.569   1.586
 6466TIP3   OH219277   5.344   6.572   1.095
 6466TIP3    H119278   5.256   6.614   1.102
 6466TIP3    H219279   5.329   6.488   1.143
 6467TIP3   OH219280   3.826   7.909   1.102
 6467TIP3    H119281   3.743   7.878   1.063
 6467TIP3    H219282   3.815   8.005   1.088
 6468TIP3   OH219283   4.225   6.503   1.081
 6468TIP3    H119284   4.275   6.441   1.024
 6468TIP3    H219285   4.297   6.558   1.118
 6469TIP3   OH219286   4.740   6.675   1.180
 6469TIP3    H119287   4.801   6.629   1.240
 6469TIP3    H219288   4.762   6.768   1.204
 6470TIP3   OH219289   4.595   8.116   0.674
 6470TIP3    H119290   4.685   8.136   0.640
 6470TIP3    H219291   4.582   8.031   0.626
 6471TIP3   OH219292   5.320   8.217   0.769
 6471TIP3    H119293   5.307   8.120   0.755
 6471TIP3    H219294   5.274   8.254   0.691
 6472TIP3   OH219295   4.532   6.754   2.559
 6472TIP3    H119296   4.499   6.683   2.618
 6472TIP3    H219297   4.627   6.756   2.585
 6473TIP3   OH219298   4.780   6.752   2.679
 6473TIP3    H119299   4.865   6.727   2.639
 6473TIP3    H219300   4.769   6.681   2.746
 6474TIP3   OH219301   3.902   7.933   0.740
 6474TIP3    H119302   3.906   7.971   0.829
 6474TIP3    H219303   3.993   7.897   0.728
 6475TIP3   OH219304   5.604   6.810   2.467
 6475TIP3    H119305   5.625   6.779   2.558
 6475TIP3    H219306   5.692   6.807   2.424
 6476TIP3   OH219307   5.547   8.366   1.960
 6476TIP3    H119308   5.468   8.333   1.913
 6476TIP3    H219309   5.528   8.462   1.960
 6477TIP3   OH219310   6.801   7.734   1.102
 6477TIP3    H119311   6.839   7.709   1.188
 6477TIP3    H219312   6.765   7.650   1.071
 6478TIP3   OH219313   6.111   7.635   1.472
 6478TIP3    H119314   6.144   7.568   1.535
 6478TIP3    H219315   6.187   7.694   1.464
 6479TIP3   OH219316   6.079   8.039   1.203
 6479TIP3    H119317   6.072   7.941   1.204
 6479TIP3    H219318   6.175   8.049   1.192
 6480TIP3   OH219319   5.788   7.248   0.984
 6480TIP3    H119320   5.739   7.331   0.997
 6480TIP3    H219321   5.717   7.190   0.952
 6481TIP3   OH219322   5.847   7.532   1.147
 6481TIP3    H119323   5.895   7.457   1.189
 6481TIP3    H219324   5.911   7.562   1.081
 6482TIP3   OH219325   6.611   7.960   1.151
 6482TIP3    H119326   6.648   7.881   1.109
 6482TIP3    H219327   6.695   8.005   1.176
 6483TIP3   OH219328   7.620   7.281   1.154
 6483TIP3    H119329   7.645   7.360   1.206
 6483TIP3    H219330   7.651   7.304   1.066
 6484TIP3   OH219331   7.018   7.463   1.198
 6484TIP3    H119332   7.062   7.377   1.209
 6484TIP3    H219333   6.994   7.461   1.104
 6485TIP3   OH219334   6.355   7.123   1.155
 6485TIP3    H119335   6.336   7.195   1.092
 6485TIP3    H219336   6.308   7.049   1.109
 6486TIP3   OH219337   7.007   7.201   0.852
 6486TIP3    H119338   7.088   7.173   0.898
 6486TIP3    H219339   7.045   7.206   0.763
 6487TIP3   OH219340   5.991   7.327   1.258
 6487TIP3    H119341   6.074   7.306   1.306
 6487TIP3    H219342   6.003   7.270   1.179
 6488TIP3   OH219343   6.434   7.523   1.049
 6488TIP3    H119344   6.527   7.497   1.065
 6488TIP3    H219345   6.395   7.439   1.017
 6489TIP3   OH219346   7.689   7.488   1.320
 6489TIP3    H119347   7.605   7.537   1.308
 6489TIP3    H219348   7.710   7.512   1.411
 6490TIP3   OH219349   6.355   7.107   1.586
 6490TIP3    H119350   6.294   7.144   1.520
 6490TIP3    H219351   6.304   7.125   1.668
 6491TIP3   OH219352   6.462   7.881   1.386
 6491TIP3    H119353   6.396   7.943   1.425
 6491TIP3    H219354   6.501   7.936   1.316
 6492TIP3   OH219355   7.277   7.224   0.963
 6492TIP3    H119356   7.263   7.171   1.041
 6492TIP3    H219357   7.317   7.306   0.999
 6493TIP3   OH219358   6.224   7.222   1.373
 6493TIP3    H119359   6.286   7.294   1.396
 6493TIP3    H219360   6.273   7.181   1.298
 6494TIP3   OH219361   6.287   8.072   1.481
 6494TIP3    H119362   6.262   8.156   1.438
 6494TIP3    H219363   6.208   8.059   1.537
 6495TIP3   OH219364   5.689   7.766   0.720
 6495TIP3    H119365   5.610   7.788   0.668
 6495TIP3    H219366   5.693   7.839   0.784
 6496TIP3   OH219367   7.136   8.293   0.969
 6496TIP3    H119368   7.048   8.265   1.002
 6496TIP3    H219369   7.111   8.331   0.884
 6497TIP3   OH219370   7.411   7.184   1.320
 6497TIP3    H119371   7.323   7.213   1.292
 6497TIP3    H219372   7.468   7.214   1.246
 6498TIP3   OH219373   6.715   6.829   1.299
 6498TIP3    H119374   6.703   6.733   1.315
 6498TIP3    H219375   6.637   6.865   1.346
 6499TIP3   OH219376   7.350   8.196   1.301
 6499TIP3    H119377   7.341   8.120   1.240
 6499TIP3    H219378   7.335   8.272   1.240
 6500TIP3   OH219379   7.540   7.825   1.148
 6500TIP3    H119380   7.462   7.885   1.157
 6500TIP3    H219381   7.555   7.830   1.053
 6501TIP3   OH219382   7.225   7.713   1.434
 6501TIP3    H119383   7.220   7.794   1.488
 6501TIP3    H219384   7.138   7.717   1.389
 6502TIP3   OH219385   6.220   7.670   0.946
 6502TIP3    H119386   6.179   7.611   0.879
 6502TIP3    H219387   6.300   7.618   0.972
 6503TIP3   OH219388   6.348   8.076   1.100
 6503TIP3    H119389   6.323   8.043   1.012
 6503TIP3    H219390   6.439   8.042   1.111
 6504TIP3   OH219391   6.360   7.640   1.298
 6504TIP3    H119392   6.392   7.623   1.208
 6504TIP3    H219393   6.401   7.726   1.320
 6505TIP3   OH219394   6.885   8.271   1.069
 6505TIP3    H119395   6.868   8.352   1.119
 6505TIP3    H219396   6.870   8.201   1.136
 6506TIP3   OH219397   6.494   8.197   1.622
 6506TIP3    H119398   6.436   8.259   1.669
 6506TIP3    H219399   6.428   8.144   1.574
 6507TIP3   OH219400   6.248   7.755   1.721
 6507TIP3    H119401   6.252   7.841   1.768
 6507TIP3    H219402   6.152   7.737   1.727
 6508TIP3   OH219403   6.290   8.367   1.708
 6508TIP3    H119404   6.255   8.364   1.617
 6508TIP3    H219405   6.211   8.345   1.762
 6509TIP3   OH219406   6.084   7.508   0.765
 6509TIP3    H119407   6.029   7.552   0.697
 6509TIP3    H219408   6.029   7.431   0.786
 6510TIP3   OH219409   5.868   7.895   1.657
 6510TIP3    H119410   5.806   7.872   1.586
 6510TIP3    H219411   5.905   7.808   1.683
 6511TIP3   OH219412   5.723   8.085   1.294
 6511TIP3    H119413   5.819   8.082   1.279
 6511TIP3    H219414   5.714   8.168   1.343
 6512TIP3   OH219415   7.582   8.536   1.338
 6512TIP3    H119416   7.584   8.440   1.356
 6512TIP3    H219417   7.501   8.561   1.388
 6513TIP3   OH219418   6.695   8.326   1.479
 6513TIP3    H119419   6.696   8.419   1.511
 6513TIP3    H219420   6.623   8.288   1.534
 6514TIP3   OH219421   5.882   8.299   0.812
 6514TIP3    H119422   5.950   8.298   0.883
 6514TIP3    H219423   5.825   8.229   0.846
 6515TIP3   OH219424   7.479   7.671   1.617
 6515TIP3    H119425   7.397   7.685   1.568
 6515TIP3    H219426   7.491   7.575   1.609
 6516TIP3   OH219427   6.074   8.078   1.649
 6516TIP3    H119428   6.124   8.061   1.731
 6516TIP3    H219429   6.000   8.014   1.656
 6517TIP3   OH219430   6.474   6.902   1.426
 6517TIP3    H119431   6.384   6.871   1.403
 6517TIP3    H219432   6.451   6.986   1.470
 6518TIP3   OH219433   7.006   7.018   1.622
 6518TIP3    H119434   7.073   6.992   1.688
 6518TIP3    H219435   6.921   6.998   1.667
 6519TIP3   OH219436   7.250   7.448   1.542
 6519TIP3    H119437   7.200   7.441   1.626
 6519TIP3    H219438   7.221   7.534   1.507
 6520TIP3   OH219439   6.404   7.417   1.447
 6520TIP3    H119440   6.354   7.441   1.528
 6520TIP3    H219441   6.389   7.497   1.392
 6521TIP3   OH219442   6.290   7.300   0.960
 6521TIP3    H119443   6.197   7.277   0.977
 6521TIP3    H219444   6.301   7.261   0.871
 6522TIP3   OH219445   6.954   7.670   1.775
 6522TIP3    H119446   6.933   7.597   1.837
 6522TIP3    H219447   7.047   7.687   1.798
 6523TIP3   OH219448   6.926   7.445   0.937
 6523TIP3    H119449   6.900   7.488   0.853
 6523TIP3    H219450   6.948   7.354   0.906
 6524TIP3   OH219451   6.223   7.447   1.657
 6524TIP3    H119452   6.250   7.512   1.724
 6524TIP3    H219453   6.213   7.366   1.709
 6525TIP3   OH219454   5.816   6.972   1.237
 6525TIP3    H119455   5.894   7.000   1.288
 6525TIP3    H219456   5.853   6.935   1.155
 6526TIP3   OH219457   5.797   6.954   0.759
 6526TIP3    H119458   5.844   6.991   0.682
 6526TIP3    H219459   5.735   7.026   0.779
 6527TIP3   OH219460   6.946   7.669   1.354
 6527TIP3    H119461   6.979   7.595   1.297
 6527TIP3    H219462   6.918   7.617   1.432
 6528TIP3   OH219463   6.615   7.123   1.031
 6528TIP3    H119464   6.532   7.121   1.082
 6528TIP3    H219465   6.682   7.128   1.101
 6529TIP3   OH219466   6.050   7.180   1.031
 6529TIP3    H119467   5.955   7.186   1.006
 6529TIP3    H219468   6.073   7.087   1.009
 6530TIP3   OH219469   6.321   7.180   0.707
 6530TIP3    H119470   6.418   7.189   0.720
 6530TIP3    H219471   6.306   7.238   0.631
 6531TIP3   OH219472   7.110   7.200   1.225
 6531TIP3    H119473   7.072   7.212   1.315
 6531TIP3    H219474   7.044   7.140   1.186
 6532TIP3   OH219475   7.271   8.887   1.440
 6532TIP3    H119476   7.275   8.914   1.346
 6532TIP3    H219477   7.343   8.940   1.478
 6533TIP3   OH219478   6.235   7.999   1.867
 6533TIP3    H119479   6.316   8.030   1.914
 6533TIP3    H219480   6.171   8.001   1.940
 6534TIP3   OH219481   6.697   7.451   1.121
 6534TIP3    H119482   6.775   7.424   1.069
 6534TIP3    H219483   6.715   7.411   1.208
 6535TIP3   OH219484   6.228   6.944   0.994
 6535TIP3    H119485   6.194   6.863   1.038
 6535TIP3    H219486   6.287   6.907   0.927
 6536TIP3   OH219487   6.677   7.344   1.415
 6536TIP3    H119488   6.588   7.385   1.424
 6536TIP3    H219489   6.735   7.407   1.463
 6537TIP3   OH219490   7.317   7.983   1.121
 6537TIP3    H119491   7.295   8.027   1.038
 6537TIP3    H219492   7.236   7.929   1.132
 6538TIP3   OH219493   6.816   8.060   1.502
 6538TIP3    H119494   6.831   8.035   1.594
 6538TIP3    H219495   6.774   8.147   1.510
 6539TIP3   OH219496   6.101   7.757   1.184
 6539TIP3    H119497   6.140   7.734   1.097
 6539TIP3    H219498   6.145   7.695   1.244
 6540TIP3   OH219499   5.983   7.685   1.795
 6540TIP3    H119500   6.007   7.672   1.889
 6540TIP3    H219501   5.915   7.616   1.782
 6541TIP3   OH219502   6.709   7.795   1.814
 6541TIP3    H119503   6.653   7.737   1.760
 6541TIP3    H219504   6.798   7.764   1.787
 6542TIP3   OH219505   6.975   8.320   1.395
 6542TIP3    H119506   6.878   8.316   1.409
 6542TIP3    H219507   7.002   8.369   1.475
 6543TIP3   OH219508   7.600   8.246   1.394
 6543TIP3    H119509   7.502   8.244   1.387
 6543TIP3    H219510   7.623   8.217   1.303
 6544TIP3   OH219511   7.086   7.836   1.083
 6544TIP3    H119512   6.990   7.819   1.076
 6544TIP3    H219513   7.119   7.763   1.026
 6545TIP3   OH219514   6.217   8.075   0.826
 6545TIP3    H119515   6.227   8.165   0.788
 6545TIP3    H219516   6.140   8.042   0.775
 6546TIP3   OH219517   5.754   7.370   0.507
 6546TIP3    H119518   5.797   7.454   0.535
 6546TIP3    H219519   5.677   7.369   0.567
 6547TIP3   OH219520   6.364   7.843   0.775
 6547TIP3    H119521   6.318   7.929   0.782
 6547TIP3    H219522   6.311   7.788   0.835
 6548TIP3   OH219523   6.473   8.410   1.277
 6548TIP3    H119524   6.511   8.483   1.225
 6548TIP3    H219525   6.551   8.379   1.326
 6549TIP3   OH219526   6.867   8.043   1.233
 6549TIP3    H119527   6.858   8.042   1.331
 6549TIP3    H219528   6.947   7.990   1.220
 6550TIP3   OH219529   7.112   8.581   1.285
 6550TIP3    H119530   7.034   8.523   1.276
 6550TIP3    H219531   7.097   8.646   1.214
 6551TIP3   OH219532   6.199   7.189   1.806
 6551TIP3    H119533   6.103   7.195   1.821
 6551TIP3    H219534   6.227   7.127   1.875
 6552TIP3   OH219535   5.911   8.276   1.438
 6552TIP3    H119536   5.964   8.198   1.462
 6552TIP3    H219537   5.946   8.341   1.500
 6553TIP3   OH219538   5.876   7.595   0.601
 6553TIP3    H119539   5.821   7.654   0.656
 6553TIP3    H219540   5.917   7.659   0.538
 6554TIP3   OH219541   7.031   7.253   1.483
 6554TIP3    H119542   7.109   7.292   1.524
 6554TIP3    H219543   7.016   7.173   1.537
 6555TIP3   OH219544   6.586   7.198   0.765
 6555TIP3    H119545   6.667   7.238   0.729
 6555TIP3    H219546   6.607   7.188   0.860
 6556TIP3   OH219547   6.872   7.505   1.560
 6556TIP3    H119548   6.888   7.560   1.639
 6556TIP3    H219549   6.929   7.428   1.576
 6557TIP3   OH219550   6.761   6.932   0.849
 6557TIP3    H119551   6.744   6.994   0.922
 6557TIP3    H219552   6.841   6.970   0.810
 6558TIP3   OH219553   6.250   6.903   0.656
 6558TIP3    H119554   6.246   6.995   0.688
 6558TIP3    H219555   6.339   6.878   0.687
 6559TIP3   OH219556   7.516   7.402   1.537
 6559TIP3    H119557   7.418   7.401   1.547
 6559TIP3    H219558   7.524   7.364   1.449
 6560TIP3   OH219559   7.165   7.609   0.952
 6560TIP3    H119560   7.092   7.547   0.934
 6560TIP3    H219561   7.238   7.548   0.973
 6561TIP3   OH219562   5.824   7.108   0.525
 6561TIP3    H119563   5.794   7.200   0.515
 6561TIP3    H219564   5.754   7.059   0.480
 6562TIP3   OH219565   6.208   6.823   1.407
 6562TIP3    H119566   6.177   6.791   1.320
 6562TIP3    H219567   6.198   6.744   1.463
 6563TIP3   OH219568   5.733   8.051   0.832
 6563TIP3    H119569   5.655   8.106   0.845
 6563TIP3    H219570   5.750   8.056   0.736
 6564TIP3   OH219571   5.901   8.577   1.858
 6564TIP3    H119572   5.988   8.576   1.903
 6564TIP3    H219573   5.881   8.482   1.854
 6565TIP3   OH219574   6.387   8.551   1.900
 6565TIP3    H119575   6.482   8.532   1.911
 6565TIP3    H219576   6.365   8.493   1.824
 6566TIP3   OH219577   7.029   8.450   1.631
 6566TIP3    H119578   7.017   8.382   1.702
 6566TIP3    H219579   7.103   8.502   1.665
 6567TIP3   OH219580   6.034   7.986   2.057
 6567TIP3    H119581   6.052   7.891   2.059
 6567TIP3    H219582   5.946   7.989   2.014
 6568TIP3   OH219583   6.644   8.071   1.829
 6568TIP3    H119584   6.601   8.084   1.743
 6568TIP3    H219585   6.674   7.978   1.824
 6569TIP3   OH219586   7.136   8.075   1.433
 6569TIP3    H119587   7.208   8.127   1.393
 6569TIP3    H219588   7.061   8.136   1.425
 6570TIP3   OH219589   6.152   7.716   2.037
 6570TIP3    H119590   6.229   7.661   2.020
 6570TIP3    H219591   6.175   7.753   2.125
 6571TIP3   OH219592   6.487   7.604   1.699
 6571TIP3    H119593   6.411   7.666   1.705
 6571TIP3    H219594   6.535   7.638   1.620
 6572TIP3   OH219595   7.003   8.007   1.835
 6572TIP3    H119596   7.087   7.992   1.790
 6572TIP3    H219597   7.005   7.940   1.905
 6573TIP3   OH219598   6.610   7.392   1.829
 6573TIP3    H119599   6.611   7.312   1.773
 6573TIP3    H219600   6.568   7.458   1.770
 6574TIP3   OH219601   6.613   7.178   1.633
 6574TIP3    H119602   6.641   7.221   1.550
 6574TIP3    H219603   6.519   7.157   1.614
 6575TIP3   OH219604   6.646   7.717   1.505
 6575TIP3    H119605   6.726   7.723   1.452
 6575TIP3    H219606   6.589   7.786   1.463
 6576TIP3   OH219607   7.224   7.684   1.886
 6576TIP3    H119608   7.275   7.604   1.906
 6576TIP3    H219609   7.294   7.745   1.860
 6577TIP3   OH219610   7.267   7.935   1.623
 6577TIP3    H119611   7.208   7.987   1.563
 6577TIP3    H219612   7.354   7.955   1.581
 6578TIP3   OH219613   6.486   7.512   2.054
 6578TIP3    H119614   6.418   7.443   2.067
 6578TIP3    H219615   6.523   7.485   1.968
 6579TIP3   OH219616   6.747   6.945   1.697
 6579TIP3    H119617   6.698   7.028   1.676
 6579TIP3    H219618   6.676   6.878   1.686
 6580TIP3   OH219619   6.873   7.452   1.915
 6580TIP3    H119620   6.867   7.442   2.012
 6580TIP3    H219621   6.782   7.426   1.890
 6581TIP3   OH219622   7.112   7.394   1.769
 6581TIP3    H119623   7.037   7.401   1.831
 6581TIP3    H219624   7.185   7.367   1.827
 6582TIP3   OH219625   7.342   7.335   1.920
 6582TIP3    H119626   7.352   7.241   1.945
 6582TIP3    H219627   7.336   7.381   2.007
 6583TIP3   OH219628   6.328   7.291   2.106
 6583TIP3    H119629   6.338   7.202   2.069
 6583TIP3    H219630   6.363   7.278   2.197
 6584TIP3   OH219631   6.841   6.953   1.954
 6584TIP3    H119632   6.910   6.884   1.949
 6584TIP3    H219633   6.802   6.946   1.865
 6585TIP3   OH219634   6.905   7.167   2.117
 6585TIP3    H119635   6.882   7.098   2.051
 6585TIP3    H219636   6.830   7.230   2.109
 6586TIP3   OH219637   5.514   8.398   0.845
 6586TIP3    H119638   5.450   8.332   0.811
 6586TIP3    H219639   5.560   8.346   0.915
 6587TIP3   OH219640   5.648   8.257   1.036
 6587TIP3    H119641   5.649   8.175   1.088
 6587TIP3    H219642   5.705   8.314   1.091
 6588TIP3   OH219643   7.425   8.668   1.119
 6588TIP3    H119644   7.379   8.582   1.107
 6588TIP3    H219645   7.498   8.638   1.175
 6589TIP3   OH219646   7.460   8.341   1.686
 6589TIP3    H119647   7.386   8.348   1.749
 6589TIP3    H219648   7.500   8.430   1.691
 6590TIP3   OH219649   7.295   8.418   1.146
 6590TIP3    H119650   7.226   8.460   1.201
 6590TIP3    H219651   7.241   8.372   1.078
 6591TIP3   OH219652   5.847   7.650   1.404
 6591TIP3    H119653   5.846   7.626   1.309
 6591TIP3    H219654   5.944   7.653   1.421
 6592TIP3   OH219655   7.507   8.002   1.512
 6592TIP3    H119656   7.581   7.937   1.506
 6592TIP3    H219657   7.538   8.075   1.455
 6593TIP3   OH219658   7.694   7.811   1.537
 6593TIP3    H119659   7.620   7.760   1.577
 6593TIP3    H219660   7.767   7.748   1.549
 6594TIP3   OH219661   7.386   7.467   1.049
 6594TIP3    H119662   7.464   7.507   1.006
 6594TIP3    H219663   7.392   7.507   1.138
 6595TIP3   OH219664   7.441   7.609   1.283
 6595TIP3    H119665   7.362   7.641   1.332
 6595TIP3    H219666   7.474   7.692   1.243
 6596TIP3   OH219667   6.060   7.339   2.077
 6596TIP3    H119668   6.158   7.333   2.078
 6596TIP3    H219669   6.037   7.256   2.122
 6597TIP3   OH219670   7.898   7.200   1.838
 6597TIP3    H119671   7.955   7.135   1.793
 6597TIP3    H219672   7.870   7.258   1.764
 6598TIP3   OH219673   6.023   7.030   1.411
 6598TIP3    H119674   6.086   6.956   1.421
 6598TIP3    H219675   6.085   7.105   1.406
 6599TIP3   OH219676   5.829   7.306   1.485
 6599TIP3    H119677   5.877   7.297   1.401
 6599TIP3    H219678   5.857   7.393   1.514
 6600TIP3   OH219679   7.771   7.345   1.647
 6600TIP3    H119680   7.684   7.383   1.671
 6600TIP3    H219681   7.742   7.275   1.585
 6601TIP3   OH219682   5.809   6.815   0.989
 6601TIP3    H119683   5.714   6.808   1.007
 6601TIP3    H219684   5.811   6.868   0.907
 6602TIP3   OH219685   6.029   6.888   1.800
 6602TIP3    H119686   5.979   6.884   1.883
 6602TIP3    H219687   5.963   6.927   1.739
 6603TIP3   OH219688   6.070   8.313   1.878
 6603TIP3    H119689   5.979   8.283   1.860
 6603TIP3    H219690   6.078   8.297   1.972
 6604TIP3   OH219691   6.245   8.343   1.424
 6604TIP3    H119692   6.198   8.419   1.384
 6604TIP3    H219693   6.332   8.357   1.380
 6605TIP3   OH219694   6.696   8.593   1.560
 6605TIP3    H119695   6.736   8.594   1.650
 6605TIP3    H219696   6.763   8.643   1.509
 6606TIP3   OH219697   6.877   8.741   1.416
 6606TIP3    H119698   6.951   8.687   1.385
 6606TIP3    H219699   6.924   8.800   1.480
 6607TIP3   OH219700   7.667   7.108   1.519
 6607TIP3    H119701   7.574   7.105   1.488
 6607TIP3    H219702   7.693   7.014   1.507
 6608TIP3   OH219703   5.925   8.603   1.446
 6608TIP3    H119704   5.838   8.640   1.421
 6608TIP3    H219705   5.931   8.633   1.538
 6609TIP3   OH219706   6.162   8.580   1.303
 6609TIP3    H119707   6.076   8.596   1.348
 6609TIP3    H219708   6.145   8.615   1.214
 6610TIP3   OH219709   6.594   8.615   1.101
 6610TIP3    H119710   6.518   8.629   1.039
 6610TIP3    H219711   6.599   8.704   1.143
 6611TIP3   OH219712   6.857   8.552   1.144
 6611TIP3    H119713   6.760   8.560   1.129
 6611TIP3    H219714   6.885   8.642   1.122
 6612TIP3   OH219715   7.069   8.755   1.065
 6612TIP3    H119716   7.026   8.832   1.024
 6612TIP3    H219717   7.091   8.701   0.988
 6613TIP3   OH219718   5.834   8.398   1.193
 6613TIP3    H119719   5.863   8.375   1.284
 6613TIP3    H219720   5.907   8.355   1.142
 6614TIP3   OH219721   6.027   8.272   1.047
 6614TIP3    H119722   6.045   8.186   1.089
 6614TIP3    H219723   6.117   8.309   1.039
 6615TIP3   OH219724   6.292   8.368   1.046
 6615TIP3    H119725   6.323   8.277   1.031
 6615TIP3    H219726   6.333   8.385   1.133
 6616TIP3   OH219727   6.871   7.018   1.135
 6616TIP3    H119728   6.828   6.950   1.190
 6616TIP3    H219729   6.946   6.970   1.095
 6617TIP3   OH219730   7.393   6.901   1.054
 6617TIP3    H119731   7.430   6.945   0.975
 6617TIP3    H219732   7.297   6.918   1.044
 6618TIP3   OH219733   7.512   6.973   0.816
 6618TIP3    H119734   7.608   6.958   0.817
 6618TIP3    H219735   7.510   7.070   0.805
 6619TIP3   OH219736   6.121   6.731   1.158
 6619TIP3    H119737   6.029   6.699   1.155
 6619TIP3    H219738   6.171   6.647   1.153
 6620TIP3   OH219739   5.915   6.597   0.803
 6620TIP3    H119740   5.939   6.655   0.728
 6620TIP3    H219741   5.877   6.661   0.866
 6621TIP3   OH219742   6.556   6.763   1.040
 6621TIP3    H119743   6.616   6.810   0.981
 6621TIP3    H219744   6.580   6.800   1.126
 6622TIP3   OH219745   7.114   6.909   1.020
 6622TIP3    H119746   7.114   6.876   0.929
 6622TIP3    H219747   7.098   6.826   1.071
 6623TIP3   OH219748   6.019   6.758   0.583
 6623TIP3    H119749   6.057   6.699   0.515
 6623TIP3    H219750   6.097   6.811   0.608
 6624TIP3   OH219751   6.511   6.915   0.724
 6624TIP3    H119752   6.590   6.879   0.766
 6624TIP3    H219753   6.537   7.008   0.715
 6625TIP3   OH219754   6.328   7.010   2.045
 6625TIP3    H119755   6.295   6.940   2.104
 6625TIP3    H219756   6.423   7.012   2.071
 6626TIP3   OH219757   6.576   7.008   2.166
 6626TIP3    H119758   6.661   6.986   2.126
 6626TIP3    H219759   6.566   6.936   2.232
 6627TIP3   OH219760   7.400   7.064   1.954
 6627TIP3    H119761   7.420   7.035   2.046
 6627TIP3    H219762   7.489   7.063   1.912
 6628TIP3   OH219763   7.342   8.621   1.449
 6628TIP3    H119764   7.263   8.588   1.402
 6628TIP3    H219765   7.324   8.717   1.446
 6629TIP3   OH219766   8.151   7.365   1.079
 6629TIP3    H119767   8.084   7.389   1.013
 6629TIP3    H219768   8.102   7.386   1.161
 6630TIP3   OH219769   8.051   8.005   1.212
 6630TIP3    H119770   8.049   8.091   1.259
 6630TIP3    H219771   7.956   7.988   1.203
 6631TIP3   OH219772   7.655   8.147   1.149
 6631TIP3    H119773   7.629   8.121   1.061
 6631TIP3    H219774   7.699   8.067   1.185
 6632TIP3   OH219775   7.877   8.314   1.137
 6632TIP3    H119776   7.914   8.289   1.223
 6632TIP3    H219777   7.793   8.264   1.134
 6633TIP3   OH219778   8.804   7.274   1.098
 6633TIP3    H119779   8.869   7.251   1.166
 6633TIP3    H219780   8.719   7.250   1.139
 6634TIP3   OH219781   7.993   7.691   1.152
 6634TIP3    H119782   8.036   7.766   1.195
 6634TIP3    H219783   8.014   7.616   1.210
 6635TIP3   OH219784   8.025   8.240   1.357
 6635TIP3    H119785   8.099   8.298   1.378
 6635TIP3    H219786   7.967   8.250   1.434
 6636TIP3   OH219787   7.777   7.945   1.282
 6636TIP3    H119788   7.811   7.935   1.374
 6636TIP3    H219789   7.715   7.871   1.276
 6637TIP3   OH219790   7.998   7.442   1.296
 6637TIP3    H119791   7.903   7.453   1.311
 6637TIP3    H219792   8.023   7.381   1.368
 6638TIP3   OH219793   7.982   7.083   0.886
 6638TIP3    H119794   7.977   7.034   0.803
 6638TIP3    H219795   7.990   7.010   0.951
 6639TIP3   OH219796   7.677   8.816   1.383
 6639TIP3    H119797   7.774   8.808   1.377
 6639TIP3    H219798   7.653   8.727   1.352
 6640TIP3   OH219799   7.829   8.242   1.548
 6640TIP3    H119800   7.846   8.147   1.550
 6640TIP3    H219801   7.741   8.245   1.504
 6641TIP3   OH219802   7.946   7.973   1.524
 6641TIP3    H119803   8.022   7.917   1.505
 6641TIP3    H219804   7.970   8.008   1.612
 6642TIP3   OH219805   8.281   7.860   1.182
 6642TIP3    H119806   8.207   7.921   1.206
 6642TIP3    H219807   8.275   7.862   1.086
 6643TIP3   OH219808   8.396   7.644   1.317
 6643TIP3    H119809   8.401   7.566   1.258
 6643TIP3    H219810   8.363   7.714   1.257
 6644TIP3   OH219811   8.408   7.436   1.116
 6644TIP3    H119812   8.429   7.471   1.029
 6644TIP3    H219813   8.315   7.407   1.105
 6645TIP3   OH219814   8.283   7.768   1.540
 6645TIP3    H119815   8.214   7.700   1.555
 6645TIP3    H219816   8.318   7.740   1.453
 6646TIP3   OH219817   8.541   7.200   1.185
 6646TIP3    H119818   8.498   7.286   1.165
 6646TIP3    H219819   8.466   7.138   1.173
 6647TIP3   OH219820   8.643   7.740   1.423
 6647TIP3    H119821   8.631   7.707   1.513
 6647TIP3    H219822   8.560   7.709   1.382
 6648TIP3   OH219823   8.123   7.548   1.594
 6648TIP3    H119824   8.136   7.460   1.555
 6648TIP3    H219825   8.159   7.534   1.684
 6649TIP3   OH219826   8.635   7.208   1.442
 6649TIP3    H119827   8.706   7.141   1.436
 6649TIP3    H219828   8.599   7.204   1.351
 6650TIP3   OH219829   8.695   7.420   1.607
 6650TIP3    H119830   8.677   7.352   1.538
 6650TIP3    H219831   8.619   7.481   1.597
 6651TIP3   OH219832   7.856   7.595   1.561
 6651TIP3    H119833   7.954   7.590   1.565
 6651TIP3    H219834   7.832   7.513   1.609
 6652TIP3   OH219835   7.856   7.319   0.947
 6652TIP3    H119836   7.909   7.236   0.952
 6652TIP3    H219837   7.901   7.365   0.875
 6653TIP3   OH219838   7.638   7.573   0.951
 6653TIP3    H119839   7.711   7.509   0.946
 6653TIP3    H219840   7.678   7.643   1.004
 6654TIP3   OH219841   7.826   7.143   1.286
 6654TIP3    H119842   7.777   7.138   1.370
 6654TIP3    H219843   7.759   7.182   1.228
 6655TIP3   OH219844   7.854   8.578   1.410
 6655TIP3    H119845   7.786   8.547   1.348
 6655TIP3    H219846   7.834   8.527   1.489
 6656TIP3   OH219847   8.124   7.265   1.530
 6656TIP3    H119848   8.091   7.197   1.592
 6656TIP3    H219849   8.219   7.269   1.558
 6657TIP3   OH219850   8.372   7.264   1.652
 6657TIP3    H119851   8.458   7.242   1.613
 6657TIP3    H219852   8.362   7.193   1.719
 6658TIP3   OH219853   9.143   7.299   1.463
 6658TIP3    H119854   9.195   7.307   1.544
 6658TIP3    H219855   9.201   7.340   1.397
 6659TIP3   OH219856   0.356   7.992   3.537
 6659TIP3    H119857   0.408   7.924   3.488
 6659TIP3    H219858   0.319   8.045   3.463
 6660TIP3   OH219859   0.222   8.133   3.338
 6660TIP3    H119860   0.129   8.158   3.351
 6660TIP3    H219861   0.213   8.060   3.274
 6661TIP3   OH219862   0.122   7.892   3.205
 6661TIP3    H119863   0.027   7.890   3.187
 6661TIP3    H219864   0.146   7.798   3.195
 6662TIP3   OH219865   1.867   8.326   2.327
 6662TIP3    H119866   1.897   8.408   2.372
 6662TIP3    H219867   1.888   8.348   2.234
 6663TIP3   OH219868   1.277   8.511   2.363
 6663TIP3    H119869   1.316   8.423   2.382
 6663TIP3    H219870   1.235   8.494   2.277
 6664TIP3   OH219871   1.298   8.252   1.953
 6664TIP3    H119872   1.366   8.238   2.023
 6664TIP3    H219873   1.357   8.285   1.883
 6665TIP3   OH219874   1.951   8.526   2.502
 6665TIP3    H119875   1.873   8.577   2.469
 6665TIP3    H219876   1.957   8.559   2.592
 6666TIP3   OH219877   0.605   8.144   2.769
 6666TIP3    H119878   0.553   8.184   2.697
 6666TIP3    H219879   0.552   8.170   2.847
 6667TIP3   OH219880   1.510   8.257   2.121
 6667TIP3    H119881   1.510   8.206   2.202
 6667TIP3    H219882   1.563   8.335   2.146
 6668TIP3   OH219883   0.486   8.249   2.551
 6668TIP3    H119884   0.524   8.338   2.567
 6668TIP3    H219885   0.501   8.244   2.455
 6669TIP3   OH219886   1.661   8.230   2.496
 6669TIP3    H119887   1.574   8.259   2.465
 6669TIP3    H219888   1.720   8.259   2.424
 6670TIP3   OH219889   0.962   7.874   2.474
 6670TIP3    H119890   0.953   7.779   2.492
 6670TIP3    H219891   0.885   7.909   2.524
 6671TIP3   OH219892   1.498   8.751   2.609
 6671TIP3    H119893   1.513   8.840   2.572
 6671TIP3    H219894   1.407   8.731   2.575
 6672TIP3   OH219895   1.599   7.818   1.579
 6672TIP3    H119896   1.513   7.832   1.624
 6672TIP3    H219897   1.608   7.899   1.526
 6673TIP3   OH219898   1.721   8.716   2.791
 6673TIP3    H119899   1.644   8.709   2.732
 6673TIP3    H219900   1.749   8.622   2.794
 6674TIP3   OH219901   0.721   7.949   2.602
 6674TIP3    H119902   0.632   7.917   2.581
 6674TIP3    H219903   0.698   8.030   2.652
 6675TIP3   OH219904   1.255   8.065   2.800
 6675TIP3    H119905   1.322   8.033   2.864
 6675TIP3    H219906   1.171   8.041   2.844
 6676TIP3   OH219907   1.498   8.479   2.720
 6676TIP3    H119908   1.449   8.476   2.805
 6676TIP3    H219909   1.472   8.564   2.683
 6677TIP3   OH219910   0.640   8.468   2.603
 6677TIP3    H119911   0.605   8.490   2.691
 6677TIP3    H219912   0.633   8.553   2.556
 6678TIP3   OH219913   1.212   8.707   2.947
 6678TIP3    H119914   1.189   8.629   3.002
 6678TIP3    H219915   1.306   8.718   2.968
 6679TIP3   OH219916   1.189   8.455   2.107
 6679TIP3    H119917   1.094   8.462   2.083
 6679TIP3    H219918   1.212   8.366   2.075
 6680TIP3   OH219919   0.467   8.494   2.856
 6680TIP3    H119920   0.434   8.535   2.937
 6680TIP3    H219921   0.459   8.400   2.879
 6681TIP3   OH219922   1.239   8.699   2.549
 6681TIP3    H119923   1.243   8.630   2.479
 6681TIP3    H219924   1.165   8.663   2.602
 6682TIP3   OH219925   0.902   8.176   2.205
 6682TIP3    H119926   0.806   8.162   2.211
 6682TIP3    H219927   0.931   8.176   2.297
 6683TIP3   OH219928   1.353   8.246   2.403
 6683TIP3    H119929   1.316   8.257   2.493
 6683TIP3    H219930   1.291   8.178   2.368
 6684TIP3   OH219931   0.964   8.501   2.280
 6684TIP3    H119932   1.010   8.418   2.263
 6684TIP3    H219933   0.951   8.497   2.375
 6685TIP3   OH219934   0.920   8.383   2.593
 6685TIP3    H119935   0.834   8.429   2.593
 6685TIP3    H219936   0.979   8.448   2.637
 6686TIP3   OH219937   0.886   8.773   3.002
 6686TIP3    H119938   0.928   8.713   2.939
 6686TIP3    H219939   0.960   8.832   3.026
 6687TIP3   OH219940   0.453   8.237   2.987
 6687TIP3    H119941   0.357   8.228   3.003
 6687TIP3    H219942   0.485   8.167   3.046
 6688TIP3   OH219943   1.275   8.304   2.665
 6688TIP3    H119944   1.362   8.333   2.697
 6688TIP3    H219945   1.262   8.220   2.714
 6689TIP3   OH219946   1.146   8.069   1.805
 6689TIP3    H119947   1.146   8.101   1.714
 6689TIP3    H219948   1.200   8.136   1.852
 6690TIP3   OH219949   1.107   8.541   2.734
 6690TIP3    H119950   1.144   8.596   2.806
 6690TIP3    H219951   1.166   8.464   2.733
 6691TIP3   OH219952   1.013   7.970   2.044
 6691TIP3    H119953   0.982   8.050   2.092
 6691TIP3    H219954   1.054   8.009   1.965
 6692TIP3   OH219955   1.767   8.451   2.717
 6692TIP3    H119956   1.670   8.442   2.724
 6692TIP3    H219957   1.781   8.414   2.628
 6693TIP3   OH219958   1.408   8.628   2.080
 6693TIP3    H119959   1.341   8.570   2.120
 6693TIP3    H219960   1.486   8.608   2.135
 6694TIP3   OH219961   0.460   7.856   2.585
 6694TIP3    H119962   0.425   7.815   2.505
 6694TIP3    H219963   0.453   7.783   2.649
 6695TIP3   OH219964   0.425   8.750   3.188
 6695TIP3    H119965   0.458   8.666   3.221
 6695TIP3    H219966   0.430   8.809   3.267
 6696TIP3   OH219967   0.739   8.562   2.851
 6696TIP3    H119968   0.649   8.582   2.880
 6696TIP3    H219969   0.749   8.625   2.779
 6697TIP3   OH219970   0.873   8.411   3.022
 6697TIP3    H119971   0.876   8.329   2.969
 6697TIP3    H219972   0.826   8.469   2.958
 6698TIP3   OH219973   0.863   8.220   2.813
 6698TIP3    H119974   0.889   8.268   2.732
 6698TIP3    H219975   0.769   8.200   2.795
 6699TIP3   OH219976   1.483   8.739   3.060
 6699TIP3    H119977   1.506   8.646   3.080
 6699TIP3    H219978   1.570   8.773   3.036
 6700TIP3   OH219979   0.725   8.561   3.222
 6700TIP3    H119980   0.664   8.486   3.240
 6700TIP3    H219981   0.772   8.528   3.143
 6701TIP3   OH219982   0.997   7.988   2.872
 6701TIP3    H119983   0.947   8.071   2.851
 6701TIP3    H219984   0.926   7.921   2.863
 6702TIP3   OH219985   1.119   8.504   3.100
 6702TIP3    H119986   1.113   8.481   3.195
 6702TIP3    H219987   1.031   8.470   3.071
 6703TIP3   OH219988   1.365   8.445   2.954
 6703TIP3    H119989   1.287   8.435   3.011
 6703TIP3    H219990   1.437   8.407   3.008
 6704TIP3   OH219991   1.594   8.384   3.103
 6704TIP3    H119992   1.603   8.288   3.122
 6704TIP3    H219993   1.588   8.423   3.192
 6705TIP3   OH219994   0.584   8.335   3.283
 6705TIP3    H119995   0.587   8.246   3.245
 6705TIP3    H219996   0.615   8.318   3.374
 6706TIP3   OH219997   1.075   8.007   3.135
 6706TIP3    H119998   1.154   7.948   3.133
 6706TIP3    H219999   1.043   7.993   3.043
 6707TIP3   OH220000   1.156   8.215   3.292
 6707TIP3    H120001   1.132   8.143   3.229
 6707TIP3    H220002   1.078   8.273   3.286
 6708TIP3   OH220003   1.471   8.614   1.820
 6708TIP3    H120004   1.490   8.520   1.828
 6708TIP3    H220005   1.458   8.639   1.914
 6709TIP3   OH220006   1.931   8.876   2.726
 6709TIP3    H120007   1.859   8.815   2.750
 6709TIP3    H220008   2.007   8.815   2.723
 6710TIP3   OH220009   1.458   8.336   1.753
 6710TIP3    H120010   1.498   8.246   1.764
 6710TIP3    H220011   1.477   8.345   1.658
 6711TIP3   OH220012   1.625   8.512   2.216
 6711TIP3    H120013   1.710   8.542   2.176
 6711TIP3    H220014   1.640   8.548   2.306
 6712TIP3   OH220015   1.699   8.640   2.447
 6712TIP3    H120016   1.622   8.672   2.497
 6712TIP3    H220017   1.748   8.724   2.429
 6713TIP3   OH220018   0.318   8.396   3.270
 6713TIP3    H120019   0.414   8.378   3.261
 6713TIP3    H220020   0.285   8.308   3.295
 6714TIP3   OH220021   2.145   8.244   3.015
 6714TIP3    H120022   2.204   8.179   2.971
 6714TIP3    H220023   2.119   8.303   2.941
 6715TIP3   OH220024   1.572   8.087   1.775
 6715TIP3    H120025   1.620   8.071   1.858
 6715TIP3    H220026   1.514   8.008   1.771
 6716TIP3   OH220027   0.279   8.073   2.572
 6716TIP3    H120028   0.338   8.002   2.604
 6716TIP3    H220029   0.337   8.150   2.578
 6717TIP3   OH220030   2.019   8.391   2.823
 6717TIP3    H120031   1.929   8.426   2.839
 6717TIP3    H220032   1.998   8.320   2.761
 6718TIP3   OH220033   1.675   8.020   1.394
 6718TIP3    H120034   1.705   7.944   1.340
 6718TIP3    H220035   1.743   8.088   1.376
 6719TIP3   OH220036   0.278   8.005   3.002
 6719TIP3    H120037   0.227   7.960   3.072
 6719TIP3    H220038   0.238   7.964   2.923
 6720TIP3   OH220039   1.914   8.152   2.698
 6720TIP3    H120040   1.823   8.149   2.663
 6720TIP3    H220041   1.943   8.059   2.684
 6721TIP3   OH220042   1.142   8.065   2.338
 6721TIP3    H120043   1.081   7.999   2.373
 6721TIP3    H220044   1.183   8.017   2.264
 6722TIP3   OH220045   1.649   7.946   2.224
 6722TIP3    H120046   1.684   7.999   2.149
 6722TIP3    H220047   1.552   7.960   2.215
 6723TIP3   OH220048   1.743   8.050   1.987
 6723TIP3    H120049   1.815   7.999   1.945
 6723TIP3    H220050   1.773   8.142   1.971
 6724TIP3   OH220051   0.811   7.802   2.215
 6724TIP3    H120052   0.859   7.857   2.151
 6724TIP3    H220053   0.836   7.843   2.299
 6725TIP3   OH220054   1.373   7.949   2.193
 6725TIP3    H120055   1.353   7.915   2.105
 6725TIP3    H220056   1.348   7.873   2.250
 6726TIP3   OH220057   1.390   7.876   1.762
 6726TIP3    H120058   1.298   7.907   1.761
 6726TIP3    H220059   1.380   7.789   1.807
 6727TIP3   OH220060   0.579   8.056   3.223
 6727TIP3    H120061   0.546   7.987   3.282
 6727TIP3    H220062   0.673   8.058   3.249
 6728TIP3   OH220063   0.827   8.053   3.344
 6728TIP3    H120064   0.908   8.028   3.296
 6728TIP3    H220065   0.818   7.978   3.406
 6729TIP3   OH220066   1.649   8.113   3.131
 6729TIP3    H120067   1.669   8.081   3.222
 6729TIP3    H220068   1.737   8.108   3.088
 6730TIP3   OH220069   1.815   8.553   1.638
 6730TIP3    H120070   1.792   8.637   1.681
 6730TIP3    H220071   1.759   8.491   1.685
 6731TIP3   OH220072   3.661   8.583   1.813
 6731TIP3    H120073   3.691   8.662   1.862
 6731TIP3    H220074   3.686   8.607   1.722
 6732TIP3   OH220075   3.063   8.767   1.847
 6732TIP3    H120076   3.107   8.682   1.870
 6732TIP3    H220077   3.031   8.746   1.757
 6733TIP3   OH220078   2.399   8.422   1.817
 6733TIP3    H120079   2.383   8.497   1.756
 6733TIP3    H220080   2.351   8.351   1.771
 6734TIP3   OH220081   3.095   8.511   1.442
 6734TIP3    H120082   3.168   8.495   1.506
 6734TIP3    H220083   3.146   8.551   1.368
 6735TIP3   OH220084   2.025   8.604   1.930
 6735TIP3    H120085   2.112   8.605   1.974
 6735TIP3    H220086   2.051   8.575   1.840
 6736TIP3   OH220087   2.494   8.828   1.692
 6736TIP3    H120088   2.576   8.792   1.731
 6736TIP3    H220089   2.441   8.748   1.673
 6737TIP3   OH220090   3.741   8.778   1.991
 6737TIP3    H120091   3.666   8.835   1.965
 6737TIP3    H220092   3.774   8.825   2.070
 6738TIP3   OH220093   2.399   8.407   2.251
 6738TIP3    H120094   2.339   8.443   2.183
 6738TIP3    H220095   2.348   8.428   2.332
 6739TIP3   OH220096   3.310   8.515   1.607
 6739TIP3    H120097   3.306   8.467   1.691
 6739TIP3    H220098   3.363   8.593   1.632
 6740TIP3   OH220099   2.268   8.516   2.037
 6740TIP3    H120100   2.325   8.595   2.055
 6740TIP3    H220101   2.319   8.478   1.962
 6741TIP3   OH220102   3.457   8.481   1.980
 6741TIP3    H120103   3.372   8.518   1.953
 6741TIP3    H220104   3.518   8.515   1.911
 6742TIP3   OH220105   2.759   8.130   1.961
 6742TIP3    H120106   2.748   8.035   1.979
 6742TIP3    H220107   2.682   8.167   2.008
 6743TIP3   OH220108   2.641   8.681   0.991
 6743TIP3    H120109   2.733   8.707   1.004
 6743TIP3    H220110   2.644   8.636   0.904
 6744TIP3   OH220111   3.296   9.005   2.094
 6744TIP3    H120112   3.308   9.098   2.069
 6744TIP3    H220113   3.205   8.987   2.059
 6745TIP3   OH220114   3.390   8.073   1.063
 6745TIP3    H120115   3.310   8.091   1.117
 6745TIP3    H220116   3.402   8.158   1.016
 6746TIP3   OH220117   3.520   8.975   2.275
 6746TIP3    H120118   3.444   8.963   2.216
 6746TIP3    H220119   3.550   8.882   2.286
 6747TIP3   OH220120   2.519   8.202   2.090
 6747TIP3    H120121   2.428   8.173   2.068
 6747TIP3    H220122   2.499   8.288   2.132
 6748TIP3   OH220123   3.050   8.317   2.282
 6748TIP3    H120124   3.118   8.300   2.350
 6748TIP3    H220125   2.966   8.300   2.330
 6749TIP3   OH220126   3.295   8.736   2.201
 6749TIP3    H120127   3.250   8.720   2.287
 6749TIP3    H220128   3.267   8.826   2.178
 6750TIP3   OH220129   2.662   8.256   1.060
 6750TIP3    H120130   2.636   8.256   1.154
 6750TIP3    H220131   2.629   8.168   1.033
 6751TIP3   OH220132   2.433   8.723   2.088
 6751TIP3    H120133   2.409   8.738   2.182
 6751TIP3    H220134   2.439   8.813   2.054
 6752TIP3   OH220135   2.334   8.603   1.629
 6752TIP3    H120136   2.241   8.577   1.640
 6752TIP3    H220137   2.352   8.567   1.540
 6753TIP3   OH220138   2.834   8.693   1.351
 6753TIP3    H120139   2.753   8.742   1.326
 6753TIP3    H220140   2.877   8.676   1.265
 6754TIP3   OH220141   3.060   8.905   2.478
 6754TIP3    H120142   3.028   8.876   2.565
 6754TIP3    H220143   3.141   8.955   2.499
 6755TIP3   OH220144   2.973   8.711   1.593
 6755TIP3    H120145   2.916   8.731   1.516
 6755TIP3    H220146   3.016   8.631   1.557
 6756TIP3   OH220147   2.262   8.749   2.344
 6756TIP3    H120148   2.228   8.794   2.422
 6756TIP3    H220149   2.249   8.656   2.367
 6757TIP3   OH220150   2.310   8.223   1.020
 6757TIP3    H120151   2.320   8.224   1.117
 6757TIP3    H220152   2.212   8.220   1.010
 6758TIP3   OH220153   1.860   8.279   1.894
 6758TIP3    H120154   1.936   8.305   1.951
 6758TIP3    H220155   1.902   8.232   1.820
 6759TIP3   OH220156   1.830   8.262   1.411
 6759TIP3    H120157   1.885   8.302   1.343
 6759TIP3    H220158   1.784   8.339   1.447
 6760TIP3   OH220159   3.037   8.955   2.037
 6760TIP3    H120160   3.040   8.887   1.966
 6760TIP3    H220161   2.964   8.917   2.091
 6761TIP3   OH220162   2.656   8.421   1.686
 6761TIP3    H120163   2.574   8.426   1.739
 6761TIP3    H220164   2.723   8.439   1.754
 6762TIP3   OH220165   2.092   8.484   1.687
 6762TIP3    H120166   1.998   8.480   1.664
 6762TIP3    H220167   2.123   8.392   1.675
 6763TIP3   OH220168   2.381   8.472   1.394
 6763TIP3    H120169   2.473   8.498   1.374
 6763TIP3    H220170   2.330   8.510   1.319
 6764TIP3   OH220171   3.149   8.504   1.886
 6764TIP3    H120172   3.117   8.514   1.978
 6764TIP3    H220173   3.086   8.440   1.851
 6765TIP3   OH220174   2.223   8.519   1.184
 6765TIP3    H120175   2.186   8.441   1.145
 6765TIP3    H220176   2.268   8.561   1.107
 6766TIP3   OH220177   2.738   8.731   1.777
 6766TIP3    H120178   2.823   8.715   1.733
 6766TIP3    H220179   2.761   8.726   1.871
 6767TIP3   OH220180   2.265   8.246   1.656
 6767TIP3    H120181   2.239   8.164   1.703
 6767TIP3    H220182   2.331   8.214   1.593
 6768TIP3   OH220183   2.718   8.640   2.085
 6768TIP3    H120184   2.634   8.688   2.079
 6768TIP3    H220185   2.777   8.705   2.128
 6769TIP3   OH220186   2.915   8.365   1.025
 6769TIP3    H120187   2.819   8.348   1.035
 6769TIP3    H220188   2.924   8.460   1.048
 6770TIP3   OH220189   2.985   8.620   1.116
 6770TIP3    H120190   3.076   8.606   1.151
 6770TIP3    H220191   2.997   8.703   1.066
 6771TIP3   OH220192   4.644  -0.235   4.496
 6771TIP3    H120193   4.632  -0.139   4.490
 6771TIP3    H220194   4.727  -0.241   4.545
 6772TIP3   OH220195   3.426   8.680   0.975
 6772TIP3    H120196   3.362   8.641   0.911
 6772TIP3    H220197   3.432   8.770   0.940
 6773TIP3   OH220198   2.241   8.490   2.469
 6773TIP3    H120199   2.144   8.491   2.483
 6773TIP3    H220200   2.270   8.427   2.538
 6774TIP3   OH220201   3.075   8.556   2.147
 6774TIP3    H120202   3.155   8.590   2.191
 6774TIP3    H220203   3.057   8.475   2.199
 6775TIP3   OH220204   2.957   8.309   1.307
 6775TIP3    H120205   2.945   8.336   1.214
 6775TIP3    H220206   2.996   8.389   1.347
 6776TIP3   OH220207   2.659   8.483   1.413
 6776TIP3    H120208   2.725   8.553   1.399
 6776TIP3    H220209   2.657   8.476   1.511
 6777TIP3   OH220210   2.907   8.798   2.225
 6777TIP3    H120211   2.943   8.859   2.292
 6777TIP3    H220212   2.969   8.723   2.228
 6778TIP3   OH220213   2.795   8.217   1.518
 6778TIP3    H120214   2.788   8.291   1.581
 6778TIP3    H220215   2.854   8.256   1.449
 6779TIP3   OH220216   2.305   8.215   1.300
 6779TIP3    H120217   2.311   8.303   1.343
 6779TIP3    H220218   2.398   8.187   1.312
 6780TIP3   OH220219   3.563   8.704   2.210
 6780TIP3    H120220   3.465   8.697   2.208
 6780TIP3    H220221   3.585   8.681   2.119
 6781TIP3   OH220222   3.200   8.885   1.574
 6781TIP3    H120223   3.132   8.826   1.608
 6781TIP3    H220224   3.278   8.862   1.629
 6782TIP3   OH220225   2.254   8.123   2.070
 6782TIP3    H120226   2.222   8.091   1.983
 6782TIP3    H220227   2.243   8.044   2.127
 6783TIP3   OH220228   2.230   9.002   2.674
 6783TIP3    H120229   2.288   8.929   2.700
 6783TIP3    H220230   2.228   9.061   2.752
 6784TIP3   OH220231   2.534   8.807   2.335
 6784TIP3    H120232   2.443   8.821   2.366
 6784TIP3    H220233   2.545   8.884   2.276
 6785TIP3   OH220234   2.364   8.609   0.968
 6785TIP3    H120235   2.364   8.625   0.873
 6785TIP3    H220236   2.454   8.641   0.993
 6786TIP3   OH220237   2.660   8.663   2.513
 6786TIP3    H120238   2.675   8.582   2.461
 6786TIP3    H220239   2.620   8.719   2.444
 6787TIP3   OH220240   2.660   8.473   2.297
 6787TIP3    H120241   2.686   8.524   2.218
 6787TIP3    H220242   2.564   8.458   2.279
 6788TIP3   OH220243   3.304   9.003   2.560
 6788TIP3    H120244   3.327   8.910   2.576
 6788TIP3    H220245   3.390   9.036   2.529
 6789TIP3   OH220246   2.481   8.823   2.667
 6789TIP3    H120247   2.445   8.744   2.711
 6789TIP3    H220248   2.554   8.782   2.616
 6790TIP3   OH220249   2.792   8.244   2.362
 6790TIP3    H120250   2.745   8.328   2.339
 6790TIP3    H220251   2.721   8.179   2.350
 6791TIP3   OH220252   2.932   8.686   2.582
 6791TIP3    H120253   2.884   8.710   2.502
 6791TIP3    H220254   2.860   8.699   2.647
 6792TIP3   OH220255   3.176   8.643   2.422
 6792TIP3    H120256   3.107   8.681   2.480
 6792TIP3    H220257   3.249   8.629   2.486
 6793TIP3   OH220258   3.393   8.640   2.592
 6793TIP3    H120259   3.401   8.544   2.612
 6793TIP3    H220260   3.388   8.681   2.680
 6794TIP3   OH220261   2.371   8.594   2.778
 6794TIP3    H120262   2.386   8.511   2.730
 6794TIP3    H220263   2.412   8.574   2.864
 6795TIP3   OH220264   2.885   8.251   2.619
 6795TIP3    H120265   2.956   8.184   2.611
 6795TIP3    H220266   2.846   8.247   2.529
 6796TIP3   OH220267   2.944   8.463   2.789
 6796TIP3    H120268   2.928   8.399   2.716
 6796TIP3    H220269   2.876   8.531   2.770
 6797TIP3   OH220270   3.256   8.610   0.774
 6797TIP3    H120271   3.221   8.628   0.686
 6797TIP3    H220272   3.233   8.514   0.780
 6798TIP3   OH220273   3.290   8.858   1.322
 6798TIP3    H120274   3.294   8.763   1.337
 6798TIP3    H220275   3.270   8.889   1.414
 6799TIP3   OH220276   3.727   9.137   2.190
 6799TIP3    H120277   3.666   9.072   2.229
 6799TIP3    H220278   3.814   9.101   2.218
 6800TIP3   OH220279   3.200   8.346   0.775
 6800TIP3    H120280   3.282   8.311   0.818
 6800TIP3    H220281   3.134   8.278   0.794
 6801TIP3   OH220282   3.249   8.585   1.216
 6801TIP3    H120283   3.294   8.498   1.230
 6801TIP3    H220284   3.312   8.626   1.154
 6802TIP3   OH220285   3.420   8.769   1.703
 6802TIP3    H120286   3.505   8.798   1.662
 6802TIP3    H220287   3.437   8.805   1.792
 6803TIP3   OH220288   3.495   8.900   1.931
 6803TIP3    H120289   3.420   8.931   1.984
 6803TIP3    H220290   3.544   8.984   1.913
 6804TIP3   OH220291   2.102   8.649   2.747
 6804TIP3    H120292   2.200   8.639   2.742
 6804TIP3    H220293   2.079   8.563   2.787
 6805TIP3   OH220294   3.944   8.499   2.506
 6805TIP3    H120295   4.001   8.435   2.458
 6805TIP3    H220296   3.912   8.556   2.433
 6806TIP3   OH220297   3.369   8.343   1.254
 6806TIP3    H120298   3.419   8.330   1.338
 6806TIP3    H220299   3.309   8.265   1.256
 6807TIP3   OH220300   2.065   8.326   2.075
 6807TIP3    H120301   2.133   8.257   2.085
 6807TIP3    H220302   2.122   8.406   2.066
 6808TIP3   OH220303   1.872   8.613   2.155
 6808TIP3    H120304   1.920   8.601   2.071
 6808TIP3    H220305   1.895   8.705   2.175
 6809TIP3   OH220306   3.812   8.640   2.320
 6809TIP3    H120307   3.724   8.682   2.328
 6809TIP3    H220308   3.792   8.578   2.248
 6810TIP3   OH220309   3.451   8.284   0.881
 6810TIP3    H120310   3.495   8.208   0.838
 6810TIP3    H220311   3.522   8.352   0.879
 6811TIP3   OH220312   1.851   8.119   1.647
 6811TIP3    H120313   1.757   8.108   1.671
 6811TIP3    H220314   1.845   8.168   1.563
 6812TIP3   OH220315   2.073   8.189   2.464
 6812TIP3    H120316   2.022   8.186   2.546
 6812TIP3    H220317   2.008   8.228   2.402
 6813TIP3   OH220318   3.710   8.408   2.184
 6813TIP3    H120319   3.619   8.407   2.148
 6813TIP3    H220320   3.738   8.314   2.169
 6814TIP3   OH220321   2.918   8.323   1.799
 6814TIP3    H120322   2.872   8.256   1.853
 6814TIP3    H220323   2.989   8.272   1.757
 6815TIP3   OH220324   3.442   8.198   1.707
 6815TIP3    H120325   3.480   8.253   1.635
 6815TIP3    H220326   3.348   8.221   1.703
 6816TIP3   OH220327   3.535   8.305   1.471
 6816TIP3    H120328   3.609   8.254   1.431
 6816TIP3    H220329   3.569   8.397   1.458
 6817TIP3   OH220330   2.166   8.032   1.820
 6817TIP3    H120331   2.074   7.998   1.821
 6817TIP3    H220332   2.216   7.947   1.817
 6818TIP3   OH220333   1.954   7.895   1.464
 6818TIP3    H120334   1.985   7.956   1.396
 6818TIP3    H220335   1.916   7.955   1.531
 6819TIP3   OH220336   2.605   8.066   1.699
 6819TIP3    H120337   2.665   8.118   1.643
 6819TIP3    H220338   2.625   8.102   1.786
 6820TIP3   OH220339   3.158   8.208   1.685
 6820TIP3    H120340   3.154   8.175   1.594
 6820TIP3    H220341   3.142   8.127   1.737
 6821TIP3   OH220342   3.184   8.129   1.243
 6821TIP3    H120343   3.097   8.172   1.255
 6821TIP3    H220344   3.171   8.046   1.293
 6822TIP3   OH220345   2.067   8.062   1.242
 6822TIP3    H120346   2.113   8.000   1.182
 6822TIP3    H220347   2.143   8.112   1.278
 6823TIP3   OH220348   2.583   8.232   1.329
 6823TIP3    H120349   2.643   8.189   1.391
 6823TIP3    H220350   2.601   8.326   1.354
 6824TIP3   OH220351   2.371   8.310   2.708
 6824TIP3    H120352   2.341   8.241   2.769
 6824TIP3    H220353   2.466   8.315   2.733
 6825TIP3   OH220354   2.617   8.308   2.830
 6825TIP3    H120355   2.705   8.297   2.789
 6825TIP3    H220356   2.615   8.234   2.893
 6826TIP3   OH220357   3.445   8.368   2.617
 6826TIP3    H120358   3.467   8.337   2.708
 6826TIP3    H220359   3.533   8.366   2.574
 6827TIP3   OH220360   3.626   8.818   1.131
 6827TIP3    H120361   3.583   8.893   1.174
 6827TIP3    H220362   3.553   8.755   1.120
 6828TIP3   OH220363   5.458   8.841   1.301
 6828TIP3    H120364   5.490   8.921   1.346
 6828TIP3    H220365   5.480   8.862   1.208
 6829TIP3   OH220366   4.861   9.022   1.332
 6829TIP3    H120367   4.902   8.936   1.355
 6829TIP3    H220368   4.826   9.002   1.244
 6830TIP3   OH220369   4.197   8.680   1.304
 6830TIP3    H120370   4.179   8.754   1.241
 6830TIP3    H220371   4.149   8.608   1.258
 6831TIP3   OH220372   4.891   8.769   0.927
 6831TIP3    H120373   4.964   8.752   0.990
 6831TIP3    H220374   4.942   8.809   0.854
 6832TIP3   OH220375   3.824   8.866   1.418
 6832TIP3    H120376   3.911   8.857   1.459
 6832TIP3    H220377   3.842   8.833   1.328
 6833TIP3   OH220378   4.286   9.085   1.187
 6833TIP3    H120379   4.371   9.049   1.220
 6833TIP3    H220380   4.237   9.006   1.160
 6834TIP3   OH220381   5.543   9.041   1.473
 6834TIP3    H120382   5.464   9.091   1.444
 6834TIP3    H220383   5.549   9.069   1.566
 6835TIP3   OH220384   4.196   8.664   1.737
 6835TIP3    H120385   4.135   8.699   1.669
 6835TIP3    H220386   4.144   8.680   1.818
 6836TIP3   OH220387   5.106   8.771   1.094
 6836TIP3    H120388   5.101   8.721   1.176
 6836TIP3    H220389   5.158   8.849   1.121
 6837TIP3   OH220390   4.065   8.774   1.523
 6837TIP3    H120391   4.124   8.850   1.542
 6837TIP3    H220392   4.114   8.734   1.447
 6838TIP3   OH220393   5.254   8.743   1.470
 6838TIP3    H120394   5.166   8.771   1.439
 6838TIP3    H220395   5.312   8.772   1.397
 6839TIP3   OH220396   4.557   8.387   1.450
 6839TIP3    H120397   4.543   8.292   1.465
 6839TIP3    H220398   4.478   8.424   1.496
 6840TIP3   OH220399   5.091   9.264   1.582
 6840TIP3    H120400   5.103   9.354   1.549
 6840TIP3    H220401   5.000   9.243   1.549
 6841TIP3   OH220402   5.184   8.339   0.560
 6841TIP3    H120403   5.101   8.339   0.613
 6841TIP3    H220404   5.185   8.431   0.530
 6842TIP3   OH220405   5.314   9.231   1.763
 6842TIP3    H120406   5.235   9.221   1.706
 6842TIP3    H220407   5.343   9.138   1.769
 6843TIP3   OH220408   4.316   8.459   1.577
 6843TIP3    H120409   4.225   8.430   1.554
 6843TIP3    H220410   4.294   8.544   1.619
 6844TIP3   OH220411   4.847   8.577   1.772
 6844TIP3    H120412   4.913   8.549   1.838
 6844TIP3    H220413   4.762   8.556   1.816
 6845TIP3   OH220414   5.091   8.993   1.694
 6845TIP3    H120415   5.041   8.987   1.779
 6845TIP3    H220416   5.062   9.078   1.658
 6846TIP3   OH220417   4.502   8.482   0.542
 6846TIP3    H120418   4.446   8.553   0.578
 6846TIP3    H220419   4.438   8.411   0.529
 6847TIP3   OH220420   4.233   8.978   1.580
 6847TIP3    H120421   4.203   8.995   1.671
 6847TIP3    H220422   4.233   9.067   1.542
 6848TIP3   OH220423   4.132   8.859   1.111
 6848TIP3    H120424   4.039   8.832   1.124
 6848TIP3    H220425   4.148   8.825   1.019
 6849TIP3   OH220426   4.628   8.953   0.831
 6849TIP3    H120427   4.542   9.001   0.818
 6849TIP3    H220428   4.656   8.940   0.740
 6850TIP3   OH220429   4.803   9.215   1.912
 6850TIP3    H120430   4.781   9.141   1.974
 6850TIP3    H220431   4.893   9.238   1.943
 6851TIP3   OH220432   4.770   8.969   1.077
 6851TIP3    H120433   4.712   8.987   1.000
 6851TIP3    H220434   4.813   8.888   1.041
 6852TIP3   OH220435   4.061   9.008   1.834
 6852TIP3    H120436   4.024   9.044   1.916
 6852TIP3    H220437   4.044   8.912   1.848
 6853TIP3   OH220438   4.097   8.462   0.522
 6853TIP3    H120439   4.123   8.469   0.616
 6853TIP3    H220440   4.031   8.532   0.521
 6854TIP3   OH220441   3.657   8.529   1.383
 6854TIP3    H120442   3.730   8.562   1.440
 6854TIP3    H220443   3.705   8.492   1.307
 6855TIP3   OH220444   3.636   8.505   0.903
 6855TIP3    H120445   3.690   8.543   0.831
 6855TIP3    H220446   3.580   8.581   0.928
 6856TIP3   OH220447   4.834   9.211   1.521
 6856TIP3    H120448   4.834   9.142   1.451
 6856TIP3    H220449   4.761   9.175   1.577
 6857TIP3   OH220450   4.455   8.679   1.177
 6857TIP3    H120451   4.370   8.681   1.225
 6857TIP3    H220452   4.518   8.694   1.249
 6858TIP3   OH220453   3.891   8.741   1.178
 6858TIP3    H120454   3.796   8.744   1.154
 6858TIP3    H220455   3.918   8.649   1.159
 6859TIP3   OH220456   4.169   8.742   0.863
 6859TIP3    H120457   4.263   8.749   0.837
 6859TIP3    H220458   4.125   8.775   0.782
 6860TIP3   OH220459   4.947   8.760   1.375
 6860TIP3    H120460   4.911   8.770   1.465
 6860TIP3    H220461   4.884   8.695   1.338
 6861TIP3   OH220462   3.982   8.772   0.641
 6861TIP3    H120463   3.926   8.731   0.575
 6861TIP3    H220464   4.069   8.780   0.594
 6862TIP3   OH220465   4.535   8.993   1.264
 6862TIP3    H120466   4.618   8.968   1.219
 6862TIP3    H220467   4.557   8.982   1.357
 6863TIP3   OH220468   4.065   8.503   1.144
 6863TIP3    H120469   4.039   8.419   1.186
 6863TIP3    H220470   4.121   8.473   1.071
 6864TIP3   OH220471   4.514   8.897   1.569
 6864TIP3    H120472   4.428   8.942   1.566
 6864TIP3    H220473   4.572   8.963   1.613
 6865TIP3   OH220474   4.477   9.306   1.983
 6865TIP3    H120475   4.535   9.265   1.917
 6865TIP3    H220476   4.525   9.292   2.066
 6866TIP3   OH220477   4.037   8.741   1.951
 6866TIP3    H120478   3.946   8.758   1.981
 6866TIP3    H220479   4.073   8.692   2.026
 6867TIP3   OH220480   4.870   8.815   1.635
 6867TIP3    H120481   4.953   8.847   1.674
 6867TIP3    H220482   4.854   8.733   1.686
 6868TIP3   OH220483   4.759   8.568   0.782
 6868TIP3    H120484   4.707   8.604   0.708
 6868TIP3    H220485   4.794   8.649   0.825
 6869TIP3   OH220486   4.459   8.731   0.901
 6869TIP3    H120487   4.514   8.810   0.882
 6869TIP3    H220488   4.453   8.733   0.998
 6870TIP3   OH220489   4.701   9.055   1.704
 6870TIP3    H120490   4.734   9.108   1.779
 6870TIP3    H220491   4.757   8.976   1.707
 6871TIP3   OH220492   4.597   8.475   1.006
 6871TIP3    H120493   4.577   8.553   1.060
 6871TIP3    H220494   4.652   8.514   0.935
 6872TIP3   OH220495   4.098   8.470   0.799
 6872TIP3    H120496   4.101   8.563   0.827
 6872TIP3    H220497   4.193   8.448   0.810
 6873TIP3   OH220498   5.360   8.965   1.688
 6873TIP3    H120499   5.262   8.957   1.698
 6873TIP3    H220500   5.371   8.924   1.602
 6874TIP3   OH220501   4.994   9.144   1.068
 6874TIP3    H120502   4.924   9.082   1.095
 6874TIP3    H220503   5.069   9.117   1.124
 6875TIP3   OH220504   3.666   8.663   0.671
 6875TIP3    H120505   3.669   8.759   0.682
 6875TIP3    H220506   3.573   8.643   0.653
 6876TIP3   OH220507   4.050   8.380   1.557
 6876TIP3    H120508   4.018   8.349   1.470
 6876TIP3    H220509   4.039   8.301   1.614
 6877TIP3   OH220510   4.329   9.077   1.827
 6877TIP3    H120511   4.236   9.084   1.856
 6877TIP3    H220512   4.334   9.151   1.764
 6878TIP3   OH220513   4.470   8.922   1.989
 6878TIP3    H120514   4.468   8.840   1.935
 6878TIP3    H220515   4.422   8.982   1.928
 6879TIP3   OH220516   4.456   8.730   1.784
 6879TIP3    H120517   4.481   8.780   1.703
 6879TIP3    H220518   4.361   8.713   1.766
 6880TIP3   OH220519   5.076   9.253   2.032
 6880TIP3    H120520   5.098   9.162   2.056
 6880TIP3    H220521   5.164   9.288   2.012
 6881TIP3   OH220522   4.337   9.074   2.190
 6881TIP3    H120523   4.254   9.029   2.216
 6881TIP3    H220524   4.366   9.018   2.116
 6882TIP3   OH220525   4.589   8.501   1.848
 6882TIP3    H120526   4.540   8.584   1.826
 6882TIP3    H220527   4.518   8.434   1.837
 6883TIP3   OH220528   4.714   9.014   2.071
 6883TIP3    H120529   4.703   8.995   2.166
 6883TIP3    H220530   4.626   8.982   2.040
 6884TIP3   OH220531   4.957   8.950   1.925
 6884TIP3    H120532   4.879   8.951   1.984
 6884TIP3    H220533   5.028   8.918   1.984
 6885TIP3   OH220534   5.186   8.897   2.076
 6885TIP3    H120535   5.196   8.801   2.096
 6885TIP3    H220536   5.181   8.937   2.165
 6886TIP3   OH220537   4.185   8.844   2.243
 6886TIP3    H120538   4.178   8.749   2.222
 6886TIP3    H220539   4.194   8.844   2.339
 6887TIP3   OH220540   4.683   8.512   2.105
 6887TIP3    H120541   4.751   8.442   2.099
 6887TIP3    H220542   4.643   8.505   2.016
 6888TIP3   OH220543   4.747   8.728   2.266
 6888TIP3    H120544   4.723   8.657   2.202
 6888TIP3    H220545   4.669   8.787   2.260
 6889TIP3   OH220546   5.090   9.126   0.819
 6889TIP3    H120547   5.096   9.028   0.821
 6889TIP3    H220548   5.068   9.143   0.913
 6890TIP3   OH220549   5.526   9.386   1.693
 6890TIP3    H120550   5.452   9.329   1.722
 6890TIP3    H220551   5.600   9.323   1.695
 6891TIP3   OH220552   5.066   8.856   0.728
 6891TIP3    H120553   5.098   8.763   0.740
 6891TIP3    H220554   5.110   8.878   0.645
 6892TIP3   OH220555   5.217   9.027   1.189
 6892TIP3    H120556   5.302   9.055   1.148
 6892TIP3    H220557   5.233   9.061   1.279
 6893TIP3   OH220558   5.293   9.155   1.418
 6893TIP3    H120559   5.217   9.185   1.471
 6893TIP3    H220560   5.340   9.240   1.402
 6894TIP3   OH220561   3.891   8.885   2.201
 6894TIP3    H120562   3.970   8.931   2.235
 6894TIP3    H220563   3.881   8.816   2.268
 6895TIP3   OH220564   5.735   8.757   1.988
 6895TIP3    H120565   5.795   8.692   1.945
 6895TIP3    H220566   5.712   8.816   1.914
 6896TIP3   OH220567   5.148   8.600   0.747
 6896TIP3    H120568   5.208   8.587   0.823
 6896TIP3    H220569   5.094   8.518   0.752
 6897TIP3   OH220570   3.861   8.584   1.562
 6897TIP3    H120571   3.928   8.514   1.572
 6897TIP3    H220572   3.919   8.663   1.554
 6898TIP3   OH220573   3.666   8.869   1.640
 6898TIP3    H120574   3.715   8.859   1.555
 6898TIP3    H220575   3.692   8.958   1.665
 6899TIP3   OH220576   5.613   8.905   1.795
 6899TIP3    H120577   5.523   8.939   1.814
 6899TIP3    H220578   5.590   8.832   1.735
 6900TIP3   OH220579   3.650   8.364   1.132
 6900TIP3    H120580   3.557   8.367   1.160
 6900TIP3    H220581   3.650   8.423   1.054
 6901TIP3   OH220582   3.868   8.439   1.948
 6901TIP3    H120583   3.821   8.443   2.033
 6901TIP3    H220584   3.804   8.484   1.889
 6902TIP3   OH220585   5.507   8.665   1.671
 6902TIP3    H120586   5.416   8.661   1.637
 6902TIP3    H220587   5.536   8.572   1.659
 6903TIP3   OH220588   4.720   8.582   1.295
 6903TIP3    H120589   4.668   8.515   1.342
 6903TIP3    H220590   4.779   8.528   1.240
 6904TIP3   OH220591   5.240   8.458   1.196
 6904TIP3    H120592   5.274   8.512   1.122
 6904TIP3    H220593   5.143   8.474   1.189
 6905TIP3   OH220594   5.329   8.565   0.958
 6905TIP3    H120595   5.403   8.513   0.920
 6905TIP3    H220596   5.362   8.656   0.943
 6906TIP3   OH220597   3.962   8.288   1.309
 6906TIP3    H120598   3.870   8.254   1.308
 6906TIP3    H220599   4.012   8.204   1.304
 6907TIP3   OH220600   3.740   8.156   0.948
 6907TIP3    H120601   3.779   8.214   0.880
 6907TIP3    H220602   3.717   8.220   1.019
 6908TIP3   OH220603   4.403   8.319   1.188
 6908TIP3    H120604   4.458   8.371   1.128
 6908TIP3    H220605   4.422   8.360   1.273
 6909TIP3   OH220606   4.961   8.464   1.170
 6909TIP3    H120607   4.945   8.433   1.080
 6909TIP3    H220608   4.940   8.384   1.223
 6910TIP3   OH220609   4.977   8.383   0.735
 6910TIP3    H120610   4.889   8.427   0.739
 6910TIP3    H220611   4.958   8.300   0.783
 6911TIP3   OH220612   3.864   8.317   0.723
 6911TIP3    H120613   3.912   8.256   0.663
 6911TIP3    H220614   3.937   8.373   0.756
 6912TIP3   OH220615   4.366   8.482   0.832
 6912TIP3    H120616   4.441   8.442   0.879
 6912TIP3    H220617   4.392   8.576   0.836
 6913TIP3   OH220618   4.169   8.564   2.195
 6913TIP3    H120619   4.137   8.496   2.257
 6913TIP3    H220620   4.264   8.569   2.221
 6914TIP3   OH220621   4.418   8.565   2.316
 6914TIP3    H120622   4.502   8.541   2.275
 6914TIP3    H220623   4.406   8.494   2.383
 6915TIP3   OH220624   5.241   8.625   2.105
 6915TIP3    H120625   5.262   8.593   2.195
 6915TIP3    H220626   5.329   8.621   2.062
 6916TIP3   OH220627   5.619   9.126   0.889
 6916TIP3    H120628   5.703   9.121   0.937
 6916TIP3    H220629   5.638   9.067   0.814
 6917TIP3   OH220630   5.991   8.923   1.223
 6917TIP3    H120631   5.930   8.954   1.154
 6917TIP3    H220632   5.938   8.941   1.304
 6918TIP3   OH220633   5.864   9.028   0.999
 6918TIP3    H120634   5.923   9.103   1.026
 6918TIP3    H220635   5.902   9.012   0.909
 6919TIP3   OH220636   6.362   8.629   0.955
 6919TIP3    H120637   6.328   8.540   0.976
 6919TIP3    H220638   6.283   8.683   0.969
 6920TIP3   OH220639   6.108   8.713   1.065
 6920TIP3    H120640   6.016   8.686   1.046
 6920TIP3    H220641   6.092   8.801   1.104
 6921TIP3   OH220642   6.644   8.836   1.258
 6921TIP3    H120643   6.708   8.808   1.326
 6921TIP3    H220644   6.558   8.816   1.299
 6922TIP3   OH220645   6.899   9.269   1.184
 6922TIP3    H120646   6.851   9.248   1.267
 6922TIP3    H220647   6.840   9.333   1.144
 6923TIP3   OH220648   6.021   9.238   1.068
 6923TIP3    H120649   5.990   9.253   1.159
 6923TIP3    H220650   6.043   9.326   1.036
 6924TIP3   OH220651   6.607   9.466   1.393
 6924TIP3    H120652   6.584   9.394   1.455
 6924TIP3    H220653   6.690   9.497   1.431
 6925TIP3   OH220654   5.861   9.265   1.319
 6925TIP3    H120655   5.817   9.306   1.395
 6925TIP3    H220656   5.844   9.171   1.338
 6926TIP3   OH220657   5.460   8.788   0.869
 6926TIP3    H120658   5.529   8.816   0.934
 6926TIP3    H220659   5.512   8.742   0.803
 6927TIP3   OH220660   6.305   9.145   1.073
 6927TIP3    H120661   6.230   9.198   1.044
 6927TIP3    H220662   6.370   9.215   1.098
 6928TIP3   OH220663   6.319   9.529   1.499
 6928TIP3    H120664   6.289   9.501   1.411
 6928TIP3    H220665   6.390   9.466   1.516
 6929TIP3   OH220666   5.832   9.003   1.441
 6929TIP3    H120667   5.736   9.005   1.458
 6929TIP3    H220668   5.863   8.943   1.510
 6930TIP3   OH220669   6.663   9.087   1.132
 6930TIP3    H120670   6.753   9.100   1.163
 6930TIP3    H220671   6.644   8.996   1.164
 6931TIP3   OH220672   6.490   9.306   1.200
 6931TIP3    H120673   6.537   9.361   1.266
 6931TIP3    H220674   6.551   9.231   1.186
 6932TIP3   OH220675   7.168   9.201   1.154
 6932TIP3    H120676   7.078   9.227   1.182
 6932TIP3    H220677   7.163   9.213   1.059
 6933TIP3   OH220678   5.842   8.638   1.047
 6933TIP3    H120679   5.811   8.605   0.960
 6933TIP3    H220680   5.835   8.558   1.103
 6934TIP3   OH220681   5.816   9.524   1.663
 6934TIP3    H120682   5.865   9.446   1.692
 6934TIP3    H220683   5.795   9.570   1.745
 6935TIP3   OH220684   6.122   9.346   1.325
 6935TIP3    H120685   6.025   9.340   1.331
 6935TIP3    H220686   6.137   9.399   1.245
 6936TIP3   OH220687   6.261   9.182   1.480
 6936TIP3    H120688   6.264   9.100   1.426
 6936TIP3    H220689   6.214   9.241   1.417
 6937TIP3   OH220690   6.249   8.984   1.281
 6937TIP3    H120691   6.278   9.036   1.202
 6937TIP3    H220692   6.156   8.966   1.257
 6938TIP3   OH220693   6.879   9.509   1.530
 6938TIP3    H120694   6.896   9.415   1.545
 6938TIP3    H220695   6.962   9.535   1.488
 6939TIP3   OH220696   6.112   9.331   1.679
 6939TIP3    H120697   6.051   9.257   1.701
 6939TIP3    H220698   6.159   9.293   1.603
 6940TIP3   OH220699   6.387   8.757   1.334
 6940TIP3    H120700   6.338   8.840   1.314
 6940TIP3    H220701   6.317   8.690   1.321
 6941TIP3   OH220702   6.504   9.280   1.561
 6941TIP3    H120703   6.498   9.258   1.656
 6941TIP3    H220704   6.420   9.237   1.530
 6942TIP3   OH220705   6.759   9.209   1.409
 6942TIP3    H120706   6.679   9.202   1.464
 6942TIP3    H220707   6.829   9.175   1.469
 6943TIP3   OH220708   6.976   9.149   1.565
 6943TIP3    H120709   6.989   9.054   1.586
 6943TIP3    H220710   6.975   9.192   1.653
 6944TIP3   OH220711   5.965   9.105   1.742
 6944TIP3    H120712   5.974   9.015   1.707
 6944TIP3    H220713   6.000   9.093   1.833
 6945TIP3   OH220714   6.479   8.769   1.592
 6945TIP3    H120715   6.546   8.698   1.587
 6945TIP3    H220716   6.439   8.762   1.503
 6946TIP3   OH220717   6.546   8.985   1.750
 6946TIP3    H120718   6.521   8.913   1.688
 6946TIP3    H220719   6.467   9.043   1.747
 6947TIP3   OH220720   5.695   9.162   1.719
 6947TIP3    H120721   5.793   9.153   1.718
 6947TIP3    H220722   5.672   9.077   1.759
 6948TIP3   OH220723   7.521   9.029   1.461
 6948TIP3    H120724   7.569   8.944   1.444
 6948TIP3    H220725   7.479   9.049   1.376
 6949TIP3   OH220726   5.659   8.845   1.050
 6949TIP3    H120727   5.721   8.769   1.058
 6949TIP3    H220728   5.723   8.917   1.040
 6950TIP3   OH220729   5.466   9.125   1.124
 6950TIP3    H120730   5.513   9.116   1.039
 6950TIP3    H220731   5.489   9.215   1.149
 6951TIP3   OH220732   5.666   8.704   1.438
 6951TIP3    H120733   5.615   8.698   1.520
 6951TIP3    H220734   5.600   8.741   1.377
 6952TIP3   OH220735   7.317   8.919   1.164
 6952TIP3    H120736   7.225   8.919   1.137
 6952TIP3    H220737   7.346   8.829   1.139
 6953TIP3   OH220738   5.753   8.544   0.807
 6953TIP3    H120739   5.664   8.506   0.791
 6953TIP3    H220740   5.809   8.466   0.789
 6954TIP3   OH220741   5.965   8.825   1.683
 6954TIP3    H120742   5.933   8.755   1.742
 6954TIP3    H220743   6.060   8.827   1.709
 6955TIP3   OH220744   6.214   8.822   1.803
 6955TIP3    H120745   6.298   8.798   1.763
 6955TIP3    H220746   6.203   8.751   1.870
 6956TIP3   OH220747   7.037   8.880   1.592
 6956TIP3    H120748   7.057   8.849   1.683
 6956TIP3    H220749   7.124   8.875   1.549
 6957TIP3   OH220750   1.766   0.199   6.068
 6957TIP3    H120751   1.817   0.190   6.150
 6957TIP3    H220752   1.793   0.291   6.042
 6958TIP3   OH220753   1.400   0.649   6.086
 6958TIP3    H120754   1.440   0.579   6.029
 6958TIP3    H220755   1.435   0.627   6.173
 6959TIP3   OH220756   1.832   0.426   6.282
 6959TIP3    H120757   1.737   0.433   6.292
 6959TIP3    H220758   1.844   0.461   6.191
 6960TIP3   OH220759   1.526   0.497   5.892
 6960TIP3    H120760   1.587   0.421   5.900
 6960TIP3    H220761   1.593   0.565   5.869
 6961TIP3   OH220762   1.644   0.243   5.806
 6961TIP3    H120763   1.686   0.178   5.746
 6961TIP3    H220764   1.716   0.264   5.867
 6962TIP3   OH220765   2.080   0.354   6.578
 6962TIP3    H120766   2.040   0.279   6.533
 6962TIP3    H220767   2.046   0.430   6.527
 6963TIP3   OH220768   2.275   0.005   6.429
 6963TIP3    H120769   2.180   0.023   6.439
 6963TIP3    H220770   2.287   0.020   6.333
 6964TIP3   OH220771   1.855   0.299   5.228
 6964TIP3    H120772   1.861   0.397   5.218
 6964TIP3    H220773   1.948   0.273   5.218
 6965TIP3   OH220774   2.300   0.699   6.627
 6965TIP3    H120775   2.296   0.602   6.636
 6965TIP3    H220776   2.216   0.724   6.671
 6966TIP3   OH220777   1.161   0.620   5.706
 6966TIP3    H120778   1.121   0.608   5.619
 6966TIP3    H220779   1.135   0.711   5.731
 6967TIP3   OH220780   1.368   0.517   5.357
 6967TIP3    H120781   1.431   0.451   5.320
 6967TIP3    H220782   1.402   0.526   5.449
 6968TIP3   OH220783   1.419   0.569   5.628
 6968TIP3    H120784   1.331   0.573   5.672
 6968TIP3    H220785   1.479   0.561   5.704
 6969TIP3   OH220786   1.984   1.050   6.723
 6969TIP3    H120787   1.982   1.072   6.628
 6969TIP3    H220788   2.060   1.102   6.754
 6970TIP3   OH220789   2.017   0.130   6.414
 6970TIP3    H120790   2.066   0.181   6.345
 6970TIP3    H220791   1.926   0.156   6.395
 6971TIP3   OH220792   2.323   0.411   6.669
 6971TIP3    H120793   2.224   0.405   6.664
 6971TIP3    H220794   2.343   0.379   6.578
 6972TIP3   OH220795   1.796   0.369   5.493
 6972TIP3    H120796   1.767   0.298   5.552
 6972TIP3    H220797   1.801   0.324   5.406
 6973TIP3   OH220798   1.576   0.101   5.392
 6973TIP3    H120799   1.601   0.071   5.481
 6973TIP3    H220800   1.477   0.098   5.398
 6974TIP3   OH220801   1.829   0.741   6.565
 6974TIP3    H120802   1.746   0.690   6.553
 6974TIP3    H220803   1.813   0.815   6.502
 6975TIP3   OH220804   1.890   0.574   5.219
 6975TIP3    H120805   1.926   0.648   5.168
 6975TIP3    H220806   1.809   0.618   5.252
 6976TIP3   OH220807   1.715   0.033   5.639
 6976TIP3    H120808   1.708  -0.054   5.681
 6976TIP3    H220809   1.809   0.030   5.608
 6977TIP3   OH220810   1.849   0.742   6.187
 6977TIP3    H120811   1.800   0.751   6.103
 6977TIP3    H220812   1.938   0.726   6.152
 6978TIP3   OH220813   1.814   0.583   6.895
 6978TIP3    H120814   1.723   0.573   6.925
 6978TIP3    H220815   1.838   0.667   6.936
 6979TIP3   OH220816   1.530   0.339   5.227
 6979TIP3    H120817   1.567   0.264   5.278
 6979TIP3    H220818   1.580   0.332   5.144
 6980TIP3   OH220819   1.894  -0.164   5.234
 6980TIP3    H120820   1.856  -0.216   5.161
 6980TIP3    H220821   1.846  -0.079   5.220
 6981TIP3   OH220822   2.111   0.793   6.111
 6981TIP3    H120823   2.119   0.835   6.198
 6981TIP3    H220824   2.152   0.860   6.053
 6982TIP3   OH220825   2.126   0.829   6.394
 6982TIP3    H120826   2.082   0.742   6.387
 6982TIP3    H220827   2.200   0.805   6.453
 6983TIP3   OH220828   2.190   0.496   6.962
 6983TIP3    H120829   2.109   0.498   7.017
 6983TIP3    H220830   2.218   0.590   6.968
 6984TIP3   OH220831   1.988   0.016   5.593
 6984TIP3    H120832   2.058   0.079   5.567
 6984TIP3    H220833   2.029  -0.027   5.671
 6985TIP3   OH220834   2.112  -0.117   5.803
 6985TIP3    H120835   2.042  -0.106   5.869
 6985TIP3    H220836   2.188  -0.073   5.846
 6986TIP3   OH220837   2.159   0.267   6.227
 6986TIP3    H120838   2.219   0.211   6.174
 6986TIP3    H220839   2.156   0.349   6.173
 6987TIP3   OH220840   2.008   0.579   6.431
 6987TIP3    H120841   1.940   0.629   6.481
 6987TIP3    H220842   1.952   0.530   6.367
 6988TIP3   OH220843   2.058  -0.207   5.440
 6988TIP3    H120844   1.992  -0.195   5.367
 6988TIP3    H220845   2.028  -0.136   5.500
 6989TIP3   OH220846   2.225   0.170   6.800
 6989TIP3    H120847   2.293   0.101   6.788
 6989TIP3    H220848   2.241   0.232   6.727
 6990TIP3   OH220849   2.396  -0.042   6.834
 6990TIP3    H120850   2.328  -0.110   6.840
 6990TIP3    H220851   2.478  -0.091   6.829
 6991TIP3   OH220852   1.667   0.688   5.764
 6991TIP3    H120853   1.728   0.653   5.696
 6991TIP3    H220854   1.731   0.714   5.833
 6992TIP3   OH220855   1.577   0.922   6.681
 6992TIP3    H120856   1.635   0.848   6.663
 6992TIP3    H220857   1.624   0.964   6.756
 6993TIP3   OH220858   1.334   0.784   6.369
 6993TIP3    H120859   1.244   0.784   6.332
 6993TIP3    H220860   1.333   0.867   6.422
 6994TIP3   OH220861   1.581   0.710   6.433
 6994TIP3    H120862   1.490   0.735   6.406
 6994TIP3    H220863   1.631   0.787   6.399
 6995TIP3   OH220864   1.771   0.923   6.368
 6995TIP3    H120865   1.756   1.004   6.315
 6995TIP3    H220866   1.802   0.860   6.298
 6996TIP3   OH220867   1.109   0.500   5.432
 6996TIP3    H120868   1.202   0.525   5.416
 6996TIP3    H220869   1.105   0.422   5.375
 6997TIP3   OH220870   1.830   0.636   5.536
 6997TIP3    H120871   1.820   0.538   5.524
 6997TIP3    H220872   1.781   0.669   5.458
 6998TIP3   OH220873   2.056   0.783   6.732
 6998TIP3    H120874   1.978   0.743   6.690
 6998TIP3    H220875   2.031   0.878   6.728
 6999TIP3   OH220876   3.314   0.156   5.500
 6999TIP3    H120877   3.307   0.251   5.482
 6999TIP3    H220878   3.239   0.118   5.450
 7000TIP3   OH220879   3.309   0.153   5.872
 7000TIP3    H120880   3.344   0.123   5.958
 7000TIP3    H220881   3.272   0.071   5.837
 7001TIP3   OH220882   2.619   0.053   6.233
 7001TIP3    H120883   2.652  -0.013   6.298
 7001TIP3    H220884   2.693   0.115   6.232
 7002TIP3   OH220885   3.575   0.436   5.571
 7002TIP3    H120886   3.555   0.381   5.647
 7002TIP3    H220887   3.590   0.523   5.610
 7003TIP3   OH220888   2.586   0.458   5.963
 7003TIP3    H120889   2.573   0.361   5.971
 7003TIP3    H220890   2.681   0.465   5.977
 7004TIP3   OH220891   2.288  -0.346   5.758
 7004TIP3    H120892   2.254  -0.256   5.774
 7004TIP3    H220893   2.210  -0.387   5.720
 7005TIP3   OH220894   2.358  -0.053   5.911
 7005TIP3    H120895   2.405  -0.126   5.957
 7005TIP3    H220896   2.424  -0.024   5.847
 7006TIP3   OH220897   3.200   0.923   5.570
 7006TIP3    H120898   3.254   0.851   5.531
 7006TIP3    H220899   3.192   0.894   5.662
 7007TIP3   OH220900   3.118   0.377   5.918
 7007TIP3    H120901   3.159   0.297   5.879
 7007TIP3    H220902   3.200   0.424   5.943
 7008TIP3   OH220903   3.529  -0.109   5.957
 7008TIP3    H120904   3.564  -0.194   5.984
 7008TIP3    H220905   3.499  -0.127   5.866
 7009TIP3   OH220906   2.501  -0.256   6.025
 7009TIP3    H120907   2.576  -0.283   6.083
 7009TIP3    H220908   2.521  -0.313   5.948
 7010TIP3   OH220909   2.943  -0.057   5.819
 7010TIP3    H120910   3.033  -0.091   5.838
 7010TIP3    H220911   2.898  -0.140   5.791
 7011TIP3   OH220912   4.171  -0.122   6.116
 7011TIP3    H120913   4.118  -0.049   6.079
 7011TIP3    H220914   4.234  -0.075   6.172
 7012TIP3   OH220915   2.972   0.295   6.159
 7012TIP3    H120916   2.905   0.357   6.197
 7012TIP3    H220917   3.014   0.352   6.092
 7013TIP3   OH220918   2.734  -0.359   6.127
 7013TIP3    H120919   2.796  -0.290   6.156
 7013TIP3    H220920   2.780  -0.397   6.052
 7014TIP3   OH220921   2.793   0.488   6.244
 7014TIP3    H120922   2.769   0.577   6.211
 7014TIP3    H220923   2.716   0.473   6.304
 7015TIP3   OH220924   2.195   0.180   5.486
 7015TIP3    H120925   2.147   0.210   5.407
 7015TIP3    H220926   2.224   0.266   5.525
 7016TIP3   OH220927   3.631   0.698   5.730
 7016TIP3    H120928   3.541   0.690   5.767
 7016TIP3    H220929   3.625   0.784   5.684
 7017TIP3   OH220930   3.353   0.758   5.408
 7017TIP3    H120931   3.347   0.661   5.390
 7017TIP3    H220932   3.442   0.773   5.375
 7018TIP3   OH220933   3.857   0.613   6.069
 7018TIP3    H120934   3.849   0.535   6.009
 7018TIP3    H220935   3.844   0.687   6.006
 7019TIP3   OH220936   3.150   0.013   5.322
 7019TIP3    H120937   3.067   0.049   5.286
 7019TIP3    H220938   3.204   0.001   5.242
 7020TIP3   OH220939   3.104  -0.209   5.049
 7020TIP3    H120940   3.180  -0.163   5.088
 7020TIP3    H220941   3.152  -0.279   4.999
 7021TIP3   OH220942   4.046   0.233   5.904
 7021TIP3    H120943   3.972   0.295   5.917
 7021TIP3    H220944   4.082   0.265   5.819
 7022TIP3   OH220945   3.492   0.075   5.307
 7022TIP3    H120946   3.446   0.111   5.386
 7022TIP3    H220947   3.580   0.057   5.344
 7023TIP3   OH220948   3.728   0.134   6.200
 7023TIP3    H120949   3.730   0.218   6.249
 7023TIP3    H220950   3.644   0.144   6.150
 7024TIP3   OH220951   2.742   0.094   5.699
 7024TIP3    H120952   2.690   0.031   5.644
 7024TIP3    H220953   2.810   0.033   5.738
 7025TIP3   OH220954   2.869   0.501   5.847
 7025TIP3    H120955   2.839   0.414   5.819
 7025TIP3    H220956   2.958   0.480   5.881
 7026TIP3   OH220957   2.869   0.056   6.068
 7026TIP3    H120958   2.903   0.035   5.978
 7026TIP3    H220959   2.912   0.141   6.089
 7027TIP3   OH220960   3.386   0.693   5.843
 7027TIP3    H120961   3.376   0.774   5.896
 7027TIP3    H220962   3.375   0.621   5.908
 7028TIP3   OH220963   3.001   0.614   6.391
 7028TIP3    H120964   2.942   0.677   6.438
 7028TIP3    H220965   2.934   0.560   6.344
 7029TIP3   OH220966   3.338  -0.059   5.126
 7029TIP3    H120967   3.399  -0.003   5.180
 7029TIP3    H220968   3.365  -0.033   5.035
 7030TIP3   OH220969   2.738   0.182   6.482
 7030TIP3    H120970   2.745   0.264   6.536
 7030TIP3    H220971   2.644   0.158   6.499
 7031TIP3   OH220972   3.021   0.641   5.407
 7031TIP3    H120973   3.117   0.640   5.422
 7031TIP3    H220974   3.011   0.728   5.366
 7032TIP3   OH220975   2.797   0.784   6.478
 7032TIP3    H120976   2.761   0.781   6.387
 7032TIP3    H220977   2.719   0.761   6.532
 7033TIP3   OH220978   2.594  -0.064   5.519
 7033TIP3    H120979   2.523  -0.029   5.460
 7033TIP3    H220980   2.564  -0.154   5.535
 7034TIP3   OH220981   3.651   0.556   4.720
 7034TIP3    H120982   3.662   0.652   4.704
 7034TIP3    H220983   3.742   0.524   4.706
 7035TIP3   OH220984   2.379   0.312   6.423
 7035TIP3    H120985   2.310   0.294   6.356
 7035TIP3    H220986   2.409   0.222   6.448
 7036TIP3   OH220987   2.240   0.493   6.080
 7036TIP3    H120988   2.329   0.515   6.051
 7036TIP3    H220989   2.203   0.580   6.103
 7037TIP3   OH220990   4.093   0.953   6.109
 7037TIP3    H120991   4.094   0.857   6.123
 7037TIP3    H220992   4.011   0.977   6.157
 7038TIP3   OH220993   3.201   0.743   6.247
 7038TIP3    H120994   3.203   0.836   6.280
 7038TIP3    H220995   3.130   0.705   6.303
 7039TIP3   OH220996   2.982   0.885   5.191
 7039TIP3    H120997   2.930   0.859   5.113
 7039TIP3    H220998   2.936   0.964   5.222
 7040TIP3   OH220999   2.399   0.722   5.580
 7040TIP3    H121000   2.450   0.711   5.663
 7040TIP3    H221001   2.329   0.658   5.596
 7041TIP3   OH221002   3.189   0.772   4.864
 7041TIP3    H121003   3.236   0.715   4.798
 7041TIP3    H221004   3.190   0.712   4.939
 7042TIP3   OH221005   3.977   0.070   6.401
 7042TIP3    H121006   3.919   0.118   6.340
 7042TIP3    H221007   4.014  -0.000   6.346
 7043TIP3   OH221008   2.583   0.494   6.417
 7043TIP3    H121009   2.631   0.478   6.500
 7043TIP3    H221010   2.508   0.431   6.422
 7044TIP3   OH221011   3.648  -0.052   6.395
 7044TIP3    H121012   3.706  -0.129   6.389
 7044TIP3    H221013   3.676   0.005   6.321
 7045TIP3   OH221014   3.411  -0.013   4.866
 7045TIP3    H121015   3.384  -0.032   4.775
 7045TIP3    H221016   3.484   0.050   4.852
 7046TIP3   OH221017   2.913  -0.174   6.208
 7046TIP3    H121018   2.874  -0.149   6.295
 7046TIP3    H221019   2.897  -0.092   6.157
 7047TIP3   OH221020   2.782  -0.255   5.722
 7047TIP3    H121021   2.708  -0.307   5.757
 7047TIP3    H221022   2.807  -0.307   5.642
 7048TIP3   OH221023   3.288  -0.190   5.453
 7048TIP3    H121024   3.236  -0.116   5.416
 7048TIP3    H221025   3.339  -0.219   5.375
 7049TIP3   OH221026   3.460   0.128   6.518
 7049TIP3    H121027   3.454   0.075   6.600
 7049TIP3    H221028   3.557   0.130   6.507
 7050TIP3   OH221029   3.449  -0.163   5.696
 7050TIP3    H121030   3.391  -0.127   5.626
 7050TIP3    H221031   3.479  -0.244   5.654
 7051TIP3   OH221032   2.736  -0.122   6.421
 7051TIP3    H121033   2.740  -0.064   6.498
 7051TIP3    H221034   2.690  -0.200   6.454
 7052TIP3   OH221035   3.455   0.089   6.122
 7052TIP3    H121036   3.484   0.014   6.065
 7052TIP3    H221037   3.429   0.043   6.203
 7053TIP3   OH221038   2.556  -0.404   5.799
 7053TIP3    H121039   2.462  -0.387   5.775
 7053TIP3    H221040   2.566  -0.498   5.778
 7054TIP3   OH221041   2.842  -0.389   5.489
 7054TIP3    H121042   2.932  -0.405   5.456
 7054TIP3    H221043   2.788  -0.390   5.408
 7055TIP3   OH221044   2.657  -0.369   5.266
 7055TIP3    H121045   2.593  -0.416   5.210
 7055TIP3    H221046   2.717  -0.335   5.197
 7056TIP3   OH221047   3.782   1.307   6.211
 7056TIP3    H121048   3.782   1.330   6.116
 7056TIP3    H221049   3.860   1.356   6.243
 7057TIP3   OH221050   2.744   0.415   6.635
 7057TIP3    H121051   2.823   0.447   6.683
 7057TIP3    H221052   2.677   0.419   6.707
 7058TIP3   OH221053   3.212  -0.124   5.894
 7058TIP3    H121054   3.271  -0.180   5.842
 7058TIP3    H221055   3.209  -0.172   5.979
 7059TIP3   OH221056   3.191  -0.235   6.183
 7059TIP3    H121057   3.098  -0.209   6.199
 7059TIP3    H221058   3.238  -0.185   6.253
 7060TIP3   OH221059   2.914   0.167   5.275
 7060TIP3    H121060   2.846   0.097   5.256
 7060TIP3    H221061   2.897   0.184   5.369
 7061TIP3   OH221062   3.823   0.395   5.906
 7061TIP3    H121063   3.849   0.443   5.824
 7061TIP3    H221064   3.738   0.354   5.881
 7062TIP3   OH221065   3.321   0.477   6.270
 7062TIP3    H121066   3.337   0.451   6.362
 7062TIP3    H221067   3.282   0.566   6.279
 7063TIP3   OH221068   3.439  -0.307   5.228
 7063TIP3    H121069   3.536  -0.299   5.241
 7063TIP3    H221070   3.419  -0.226   5.177
 7064TIP3   OH221071   2.616   0.178   5.951
 7064TIP3    H121072   2.654   0.145   5.867
 7064TIP3    H221073   2.647   0.112   6.015
 7065TIP3   OH221074   3.046   0.311   5.074
 7065TIP3    H121075   3.085   0.384   5.126
 7065TIP3    H221076   3.014   0.251   5.144
 7066TIP3   OH221077   2.493   0.100   6.566
 7066TIP3    H121078   2.506   0.083   6.661
 7066TIP3    H221079   2.417   0.044   6.541
 7067TIP3   OH221080   3.216   0.220   6.593
 7067TIP3    H121081   3.142   0.173   6.548
 7067TIP3    H221082   3.294   0.190   6.542
 7068TIP3   OH221083   3.481   0.734   6.165
 7068TIP3    H121084   3.385   0.734   6.178
 7068TIP3    H221085   3.510   0.787   6.243
 7069TIP3   OH221086   3.896  -0.199   5.074
 7069TIP3    H121087   3.833  -0.245   5.015
 7069TIP3    H221088   3.896  -0.111   5.030
 7070TIP3   OH221089   4.108   0.666   6.157
 7070TIP3    H121090   4.011   0.659   6.147
 7070TIP3    H221091   4.137   0.633   6.069
 7071TIP3   OH221092   3.587   0.630   4.985
 7071TIP3    H121093   3.550   0.562   5.044
 7071TIP3    H221094   3.603   0.581   4.903
 7072TIP3   OH221095   3.585   0.255   5.830
 7072TIP3    H121096   3.492   0.226   5.840
 7072TIP3    H221097   3.622   0.179   5.781
 7073TIP3   OH221098   2.275  -0.215   5.273
 7073TIP3    H121099   2.321  -0.131   5.294
 7073TIP3    H221100   2.199  -0.209   5.335
 7074TIP3   OH221101   2.834   0.301   5.513
 7074TIP3    H121102   2.861   0.354   5.589
 7074TIP3    H221103   2.800   0.222   5.559
 7075TIP3   OH221104   2.981   0.827   6.046
 7075TIP3    H121105   3.021   0.900   5.995
 7075TIP3    H221106   3.058   0.795   6.096
 7076TIP3   OH221107   2.648   0.695   5.428
 7076TIP3    H121108   2.560   0.700   5.469
 7076TIP3    H221109   2.671   0.789   5.425
 7077TIP3   OH221110   3.373   0.460   6.001
 7077TIP3    H121111   3.366   0.459   6.100
 7077TIP3    H221112   3.455   0.411   5.987
 7078TIP3   OH221113   3.337   0.354   4.881
 7078TIP3    H121114   3.399   0.326   4.953
 7078TIP3    H221115   3.253   0.333   4.925
 7079TIP3   OH221116   3.619   0.998   6.055
 7079TIP3    H121117   3.541   0.941   6.045
 7079TIP3    H221118   3.605   1.063   5.983
 7080TIP3   OH221119   3.683   0.834   4.711
 7080TIP3    H121120   3.728   0.899   4.654
 7080TIP3    H221121   3.602   0.884   4.732
 7081TIP3   OH221122   3.507   0.253   5.068
 7081TIP3    H121123   3.479   0.240   5.160
 7081TIP3    H221124   3.602   0.271   5.079
 7082TIP3   OH221125   2.431   0.696   6.199
 7082TIP3    H121126   2.465   0.613   6.236
 7082TIP3    H221127   2.449   0.757   6.272
 7083TIP3   OH221128   2.715   0.334   4.890
 7083TIP3    H121129   2.728   0.256   4.833
 7083TIP3    H221130   2.714   0.293   4.976
 7084TIP3   OH221131   2.392   0.034   5.358
 7084TIP3    H121132   2.328   0.077   5.418
 7084TIP3    H221133   2.407   0.107   5.294
 7085TIP3   OH221134   2.863   0.551   5.155
 7085TIP3    H121135   2.815   0.631   5.126
 7085TIP3    H221136   2.926   0.544   5.081
 7086TIP3   OH221137   3.133  -0.407   5.518
 7086TIP3    H121138   3.176  -0.321   5.497
 7086TIP3    H221139   3.098  -0.391   5.606
 7087TIP3   OH221140   3.374  -0.098   6.358
 7087TIP3    H121141   3.379  -0.016   6.409
 7087TIP3    H221142   3.468  -0.121   6.353
 7088TIP3   OH221143   3.672   0.018   5.695
 7088TIP3    H121144   3.601  -0.046   5.710
 7088TIP3    H221145   3.748  -0.025   5.741
 7089TIP3   OH221146   2.388   0.248   5.174
 7089TIP3    H121147   2.407   0.340   5.153
 7089TIP3    H221148   2.435   0.200   5.102
 7090TIP3   OH221149   2.311  -0.499   5.284
 7090TIP3    H121150   2.350  -0.410   5.287
 7090TIP3    H221151   2.222  -0.478   5.315
 7091TIP3   OH221152   3.640   0.966   5.645
 7091TIP3    H121153   3.600   1.019   5.572
 7091TIP3    H221154   3.735   0.987   5.628
 7092TIP3   OH221155   2.252   0.447   5.556
 7092TIP3    H121156   2.187   0.487   5.615
 7092TIP3    H221157   2.234   0.495   5.472
 7093TIP3   OH221158   2.408   0.993   6.625
 7093TIP3    H121159   2.494   0.991   6.672
 7093TIP3    H221160   2.385   0.898   6.623
 7094TIP3   OH221161   2.898   0.966   6.670
 7094TIP3    H121162   2.992   0.946   6.675
 7094TIP3    H221163   2.871   0.910   6.595
 7095TIP3   OH221164   2.882   0.537   4.807
 7095TIP3    H121165   2.822   0.466   4.838
 7095TIP3    H221166   2.950   0.484   4.762
 7096TIP3   OH221167   3.533   0.869   6.401
 7096TIP3    H121168   3.524   0.800   6.471
 7096TIP3    H221169   3.610   0.920   6.432
 7097TIP3   OH221170   3.312   0.589   4.709
 7097TIP3    H121171   3.355   0.521   4.765
 7097TIP3    H221172   3.365   0.584   4.627
 7098TIP3   OH221173   2.546   0.406   6.825
 7098TIP3    H121174   2.556   0.309   6.831
 7098TIP3    H221175   2.457   0.413   6.784
 7099TIP3   OH221176   2.523   0.068   5.017
 7099TIP3    H121177   2.568   0.017   5.085
 7099TIP3    H221178   2.589   0.064   4.944
 7100TIP3   OH221179   3.151   0.489   6.598
 7100TIP3    H121180   3.107   0.500   6.512
 7100TIP3    H221181   3.182   0.396   6.596
 7101TIP3   OH221182   3.011   0.249   4.812
 7101TIP3    H121183   3.021   0.267   4.908
 7101TIP3    H221184   3.019   0.151   4.812
 7102TIP3   OH221185   3.643   0.492   6.204
 7102TIP3    H121186   3.717   0.539   6.160
 7102TIP3    H221187   3.572   0.558   6.194
 7103TIP3   OH221188   2.656   0.122   6.811
 7103TIP3    H121189   2.739   0.077   6.790
 7103TIP3    H221190   2.679   0.164   6.897
 7104TIP3   OH221191   2.736  -0.042   5.245
 7104TIP3    H121192   2.702  -0.085   5.325
 7104TIP3    H221193   2.766  -0.119   5.192
 7105TIP3   OH221194   2.996   0.103   6.478
 7105TIP3    H121195   2.903   0.136   6.473
 7105TIP3    H221196   3.021   0.096   6.385
 7106TIP3   OH221197   2.826  -0.249   5.085
 7106TIP3    H121198   2.801  -0.246   4.990
 7106TIP3    H221199   2.924  -0.244   5.077
 7107TIP3   OH221200   3.514   0.429   6.608
 7107TIP3    H121201   3.592   0.410   6.555
 7107TIP3    H221202   3.513   0.356   6.672
 7108TIP3   OH221203   3.652   0.083   4.739
 7108TIP3    H121204   3.629   0.039   4.655
 7108TIP3    H221205   3.623   0.175   4.717
 7109TIP3   OH221206   3.049  -0.158   6.469
 7109TIP3    H121207   3.091  -0.180   6.554
 7109TIP3    H221208   3.036  -0.061   6.479
 7110TIP3   OH221209   3.177   0.138   6.256
 7110TIP3    H121210   3.246   0.151   6.190
 7110TIP3    H221211   3.110   0.203   6.229
 7111TIP3   OH221212   3.741   0.113   6.669
 7111TIP3    H121213   3.780   0.026   6.652
 7111TIP3    H221214   3.802   0.172   6.624
 7112TIP3   OH221215   3.777   0.350   6.391
 7112TIP3    H121216   3.717   0.404   6.334
 7112TIP3    H221217   3.864   0.376   6.351
 7113TIP3   OH221218   2.980  -0.059   6.821
 7113TIP3    H121219   2.911  -0.128   6.812
 7113TIP3    H221220   3.052  -0.095   6.768
 7114TIP3   OH221221   3.448  -0.044   6.718
 7114TIP3    H121222   3.408  -0.066   6.804
 7114TIP3    H221223   3.481  -0.129   6.681
 7115TIP3   OH221224   2.636   0.808   4.981
 7115TIP3    H121225   2.731   0.815   4.962
 7115TIP3    H221226   2.599   0.857   4.906
 7116TIP3   OH221227   2.116   0.199   5.198
 7116TIP3    H121228   2.213   0.215   5.194
 7116TIP3    H221229   2.110   0.109   5.160
 7117TIP3   OH221230   2.030   0.809   5.614
 7117TIP3    H121231   1.960   0.748   5.581
 7117TIP3    H221232   2.072   0.753   5.682
 7118TIP3   OH221233   2.168   0.662   5.796
 7118TIP3    H121234   2.121   0.598   5.853
 7118TIP3    H221235   2.210   0.719   5.863
 7119TIP3   OH221236   3.888   1.066   5.600
 7119TIP3    H121237   3.918   1.097   5.687
 7119TIP3    H221238   3.953   1.108   5.540
 7120TIP3   OH221239   3.922   1.083   5.881
 7120TIP3    H121240   3.881   0.994   5.878
 7120TIP3    H221241   3.998   1.063   5.938
 7121TIP3   OH221242   3.968   0.758   6.456
 7121TIP3    H121243   3.893   0.768   6.518
 7121TIP3    H221244   4.008   0.847   6.459
 7122TIP3   OH221245   3.791   0.274   5.075
 7122TIP3    H121246   3.863   0.336   5.050
 7122TIP3    H221247   3.829   0.233   5.156
 7123TIP3   OH221248   3.913   0.138   5.278
 7123TIP3    H121249   3.847   0.098   5.339
 7123TIP3    H221250   3.976   0.179   5.340
 7124TIP3   OH221251   3.962   0.527   5.712
 7124TIP3    H121252   4.017   0.466   5.660
 7124TIP3    H221253   3.949   0.602   5.651
 7125TIP3   OH221254   3.800   0.832   5.909
 7125TIP3    H121255   3.729   0.872   5.962
 7125TIP3    H221256   3.750   0.782   5.841
 7126TIP3   OH221257   3.847   0.043   4.927
 7126TIP3    H121258   3.777   0.053   4.860
 7126TIP3    H221259   3.825   0.119   4.984
 7127TIP3   OH221260   3.728  -0.290   4.876
 7127TIP3    H121261   3.689  -0.214   4.830
 7127TIP3    H221262   3.682  -0.364   4.834
 7128TIP3   OH221263   3.730  -0.007   5.431
 7128TIP3    H121264   3.739  -0.103   5.438
 7128TIP3    H221265   3.715   0.017   5.525
 7129TIP3   OH221266   2.353   0.069   6.167
 7129TIP3    H121267   2.354   0.045   6.072
 7129TIP3    H221268   2.449   0.070   6.187
 7130TIP3   OH221269   4.018   0.417   6.281
 7130TIP3    H121270   4.095   0.356   6.275
 7130TIP3    H221271   4.044   0.486   6.218
 7131TIP3   OH221272   4.199   0.222   6.336
 7131TIP3    H121273   4.140   0.152   6.368
 7131TIP3    H221274   4.285   0.178   6.327
 7132TIP3   OH221275   3.709  -0.295   5.273
 7132TIP3    H121276   3.754  -0.328   5.354
 7132TIP3    H221277   3.780  -0.250   5.225
 7133TIP3   OH221278   3.889  -0.087   5.822
 7133TIP3    H121279   3.977  -0.074   5.781
 7133TIP3    H221280   3.908  -0.060   5.913
 7134TIP3   OH221281   3.948   0.036   6.066
 7134TIP3    H121282   3.866   0.080   6.096
 7134TIP3    H221283   3.985   0.106   6.007
 7135TIP3   OH221284   2.363  -0.285   6.264
 7135TIP3    H121285   2.398  -0.282   6.173
 7135TIP3    H221286   2.354  -0.192   6.286
 7136TIP3   OH221287   2.578   0.727   6.647
 7136TIP3    H121288   2.487   0.700   6.627
 7136TIP3    H221289   2.582   0.714   6.742
 7137TIP3   OH221290   2.756   0.758   6.193
 7137TIP3    H121291   2.701   0.830   6.156
 7137TIP3    H221292   2.840   0.779   6.148
 7138TIP3   OH221293   3.204   1.009   6.331
 7138TIP3    H121294   3.245   1.013   6.420
 7138TIP3    H221295   3.270   1.059   6.278
 7139TIP3   OH221296   3.382   1.158   6.186
 7139TIP3    H121297   3.455   1.108   6.147
 7139TIP3    H221298   3.432   1.216   6.248
 7140TIP3   OH221299   2.435   1.024   6.215
 7140TIP3    H121300   2.346   1.057   6.189
 7140TIP3    H221301   2.436   1.051   6.308
 7141TIP3   OH221302   2.670   0.999   6.071
 7141TIP3    H121303   2.585   1.012   6.119
 7141TIP3    H221304   2.647   1.033   5.983
 7142TIP3   OH221305   3.096   1.032   5.866
 7142TIP3    H121306   3.023   1.055   5.806
 7142TIP3    H221307   3.109   1.118   5.913
 7143TIP3   OH221308   3.363   0.969   5.919
 7143TIP3    H121309   3.268   0.987   5.900
 7143TIP3    H221310   3.405   1.048   5.884
 7144TIP3   OH221311   3.572   1.162   5.840
 7144TIP3    H121312   3.559   1.247   5.791
 7144TIP3    H221313   3.598   1.102   5.767
 7145TIP3   OH221314   2.351   0.822   5.959
 7145TIP3    H121315   2.372   0.794   6.051
 7145TIP3    H221316   2.419   0.771   5.910
 7146TIP3   OH221317   2.536   0.686   5.814
 7146TIP3    H121318   2.551   0.602   5.863
 7146TIP3    H221319   2.626   0.724   5.810
 7147TIP3   OH221320   2.804   0.785   5.816
 7147TIP3    H121321   2.836   0.693   5.806
 7147TIP3    H221322   2.841   0.807   5.903
 7148TIP3   OH221323   2.136   0.582   5.350
 7148TIP3    H121324   2.050   0.550   5.317
 7148TIP3    H221325   2.120   0.677   5.346
 7149TIP3   OH221326   2.907   0.779   4.935
 7149TIP3    H121327   2.990   0.807   4.892
 7149TIP3    H221328   2.886   0.700   4.881
 7150TIP3   OH221329   3.571   0.895   5.043
 7150TIP3    H121330   3.595   0.800   5.027
 7150TIP3    H221331   3.575   0.929   4.951
 7151TIP3   OH221332   2.208   0.616   4.992
 7151TIP3    H121333   2.199   0.645   5.085
 7151TIP3    H221334   2.298   0.578   4.990
 7152TIP3   OH221335   3.849   1.039   6.217
 7152TIP3    H121336   3.770   1.007   6.169
 7152TIP3    H221337   3.831   1.136   6.216
 7153TIP3   OH221338   5.114   0.408   4.984
 7153TIP3    H121339   5.089   0.501   4.966
 7153TIP3    H221340   5.035   0.363   4.952
 7154TIP3   OH221341   5.112   0.410   5.358
 7154TIP3    H121342   5.141   0.378   5.445
 7154TIP3    H221343   5.069   0.330   5.323
 7155TIP3   OH221344   4.419   0.311   5.744
 7155TIP3    H121345   4.460   0.266   5.821
 7155TIP3    H221346   4.495   0.361   5.712
 7156TIP3   OH221347   5.353   0.711   5.041
 7156TIP3    H121348   5.344   0.640   5.106
 7156TIP3    H221349   5.382   0.785   5.097
 7157TIP3   OH221350   4.381   0.713   5.453
 7157TIP3    H121351   4.374   0.615   5.458
 7157TIP3    H221352   4.477   0.723   5.452
 7158TIP3   OH221353   4.085  -0.093   5.247
 7158TIP3    H121354   4.043  -0.006   5.262
 7158TIP3    H221355   4.019  -0.135   5.189
 7159TIP3   OH221356   4.153   0.204   5.404
 7159TIP3    H121357   4.202   0.130   5.446
 7159TIP3    H221358   4.216   0.234   5.337
 7160TIP3   OH221359   5.001   1.174   5.058
 7160TIP3    H121360   5.052   1.103   5.011
 7160TIP3    H221361   4.999   1.140   5.148
 7161TIP3   OH221362   4.913   0.636   5.408
 7161TIP3    H121363   4.948   0.559   5.360
 7161TIP3    H221364   4.998   0.679   5.431
 7162TIP3   OH221365   5.325   0.147   5.444
 7162TIP3    H121366   5.360   0.062   5.472
 7162TIP3    H221367   5.296   0.129   5.352
 7163TIP3   OH221368   4.296  -0.003   5.515
 7163TIP3    H121369   4.375  -0.027   5.568
 7163TIP3    H221370   4.315  -0.056   5.435
 7164TIP3   OH221371   4.739   0.198   5.305
 7164TIP3    H121372   4.829   0.166   5.323
 7164TIP3    H221373   4.695   0.115   5.275
 7165TIP3   OH221374   5.972   0.139   5.597
 7165TIP3    H121375   5.912   0.211   5.569
 7165TIP3    H221376   6.021   0.179   5.670
 7166TIP3   OH221377   5.011   0.632   4.852
 7166TIP3    H121378   4.964   0.605   4.772
 7166TIP3    H221379   4.967   0.717   4.872
 7167TIP3   OH221380   4.766   0.549   5.643
 7167TIP3    H121381   4.702   0.612   5.683
 7167TIP3    H221382   4.809   0.605   5.575
 7168TIP3   OH221383   4.533  -0.103   5.613
 7168TIP3    H121384   4.589  -0.032   5.650
 7168TIP3    H221385   4.585  -0.133   5.538
 7169TIP3   OH221386   4.590   0.744   5.735
 7169TIP3    H121387   4.565   0.831   5.697
 7169TIP3    H221388   4.514   0.730   5.795
 7170TIP3   OH221389   3.994   0.438   4.972
 7170TIP3    H121390   3.950   0.463   4.889
 7170TIP3    H221391   4.022   0.524   5.009
 7171TIP3   OH221392   5.429   0.953   5.214
 7171TIP3    H121393   5.338   0.944   5.253
 7171TIP3    H221394   5.420   1.038   5.168
 7172TIP3   OH221395   5.135   1.003   4.890
 7172TIP3    H121396   5.183   0.920   4.867
 7172TIP3    H221397   5.194   1.068   4.845
 7173TIP3   OH221398   5.274   0.788   4.789
 7173TIP3    H121399   5.233   0.709   4.749
 7173TIP3    H221400   5.307   0.751   4.874
 7174TIP3   OH221401   5.655   0.870   5.555
 7174TIP3    H121402   5.644   0.792   5.496
 7174TIP3    H221403   5.638   0.944   5.493
 7175TIP3   OH221404   4.943   0.259   4.810
 7175TIP3    H121405   4.864   0.312   4.788
 7175TIP3    H221406   4.993   0.260   4.726
 7176TIP3   OH221407   4.901   0.046   4.535
 7176TIP3    H121408   4.970   0.095   4.583
 7176TIP3    H221409   4.958  -0.016   4.484
 7177TIP3   OH221410   5.848   0.500   5.401
 7177TIP3    H121411   5.767   0.554   5.406
 7177TIP3    H221412   5.878   0.522   5.310
 7178TIP3   OH221413   5.292   0.344   4.785
 7178TIP3    H121414   5.239   0.369   4.864
 7178TIP3    H221415   5.375   0.315   4.827
 7179TIP3   OH221416   5.526   0.390   5.687
 7179TIP3    H121417   5.523   0.474   5.736
 7179TIP3    H221418   5.440   0.395   5.640
 7180TIP3   OH221419   4.526   0.344   5.199
 7180TIP3    H121420   4.482   0.284   5.136
 7180TIP3    H221421   4.603   0.289   5.228
 7181TIP3   OH221422   4.656   0.756   5.348
 7181TIP3    H121423   4.634   0.705   5.269
 7181TIP3    H221424   4.746   0.723   5.368
 7182TIP3   OH221425   4.661   0.311   5.553
 7182TIP3    H121426   4.696   0.293   5.464
 7182TIP3    H221427   4.705   0.395   5.578
 7183TIP3   OH221428   5.186   0.951   5.331
 7183TIP3    H121429   5.173   1.030   5.386
 7183TIP3    H221430   5.173   0.877   5.393
 7184TIP3   OH221431   4.798   0.873   5.876
 7184TIP3    H121432   4.738   0.934   5.926
 7184TIP3    H221433   4.732   0.816   5.832
 7185TIP3   OH221434   5.135   0.198   4.611
 7185TIP3    H121435   5.195   0.254   4.665
 7185TIP3    H221436   5.162   0.224   4.520
 7186TIP3   OH221437   4.874   0.885   4.884
 7186TIP3    H121438   4.949   0.939   4.911
 7186TIP3    H221439   4.812   0.949   4.847
 7187TIP3   OH221440   4.593   1.043   5.964
 7187TIP3    H121441   4.557   1.036   5.874
 7187TIP3    H221442   4.515   1.020   6.019
 7188TIP3   OH221443   4.384   0.185   5.012
 7188TIP3    H121444   4.322   0.229   4.949
 7188TIP3    H221445   4.342   0.100   5.026
 7189TIP3   OH221446   5.446   0.812   4.203
 7189TIP3    H121447   5.456   0.909   4.191
 7189TIP3    H221448   5.539   0.783   4.193
 7190TIP3   OH221449   4.173   0.574   5.910
 7190TIP3    H121450   4.111   0.543   5.841
 7190TIP3    H221451   4.205   0.490   5.950
 7191TIP3   OH221452   4.026   0.764   5.543
 7191TIP3    H121453   4.122   0.751   5.537
 7191TIP3    H221454   4.020   0.841   5.602
 7192TIP3   OH221455   5.892   1.211   5.599
 7192TIP3    H121456   5.890   1.114   5.611
 7192TIP3    H221457   5.809   1.236   5.644
 7193TIP3   OH221458   4.996   1.001   5.733
 7193TIP3    H121459   4.998   1.093   5.767
 7193TIP3    H221460   4.925   0.962   5.789
 7194TIP3   OH221461   4.753   1.129   4.686
 7194TIP3    H121462   4.710   1.109   4.601
 7194TIP3    H221463   4.723   1.220   4.705
 7195TIP3   OH221464   4.194   0.980   5.070
 7195TIP3    H121465   4.244   0.970   5.154
 7195TIP3    H221466   4.135   0.902   5.076
 7196TIP3   OH221467   4.959   1.029   4.329
 7196TIP3    H121468   5.018   0.960   4.292
 7196TIP3    H221469   4.992   1.037   4.420
 7197TIP3   OH221470   5.007   1.077   4.600
 7197TIP3    H121471   4.919   1.085   4.643
 7197TIP3    H221472   5.058   1.033   4.670
 7198TIP3   OH221473   5.783   0.340   5.886
 7198TIP3    H121474   5.711   0.376   5.831
 7198TIP3    H221475   5.802   0.256   5.844
 7199TIP3   OH221476   4.378   0.754   5.904
 7199TIP3    H121477   4.431   0.735   5.985
 7199TIP3    H221478   4.307   0.687   5.910
 7200TIP3   OH221479   5.450   0.205   5.886
 7200TIP3    H121480   5.497   0.121   5.875
 7200TIP3    H221481   5.470   0.255   5.805
 7201TIP3   OH221482   5.208   0.252   4.354
 7201TIP3    H121483   5.177   0.224   4.266
 7201TIP3    H221484   5.287   0.304   4.330
 7202TIP3   OH221485   4.712   0.087   5.707
 7202TIP3    H121486   4.678   0.122   5.793
 7202TIP3    H221487   4.693   0.165   5.650
 7203TIP3   OH221488   4.582  -0.005   5.205
 7203TIP3    H121489   4.504  -0.050   5.241
 7203TIP3    H221490   4.604  -0.062   5.129
 7204TIP3   OH221491   5.086   0.065   4.941
 7204TIP3    H121492   5.032   0.137   4.902
 7204TIP3    H221493   5.136   0.034   4.862
 7205TIP3   OH221494   5.262   0.393   6.001
 7205TIP3    H121495   5.251   0.340   6.084
 7205TIP3    H221496   5.358   0.389   5.994
 7206TIP3   OH221497   5.245   0.093   5.184
 7206TIP3    H121498   5.187   0.128   5.112
 7206TIP3    H221499   5.277   0.013   5.141
 7207TIP3   OH221500   5.259   0.345   5.612
 7207TIP3    H121501   5.284   0.270   5.553
 7207TIP3    H221502   5.224   0.296   5.689
 7208TIP3   OH221503   4.351  -0.147   5.286
 7208TIP3    H121504   4.256  -0.130   5.265
 7208TIP3    H221505   4.358  -0.242   5.270
 7209TIP3   OH221506   4.634  -0.151   4.975
 7209TIP3    H121507   4.728  -0.144   4.950
 7209TIP3    H221508   4.586  -0.128   4.894
 7210TIP3   OH221509   4.460  -0.122   4.748
 7210TIP3    H121510   4.387  -0.159   4.696
 7210TIP3    H221511   4.509  -0.075   4.678
 7211TIP3   OH221512   5.578   1.563   5.697
 7211TIP3    H121513   5.577   1.586   5.603
 7211TIP3    H221514   5.655   1.614   5.729
 7212TIP3   OH221515   4.533   0.699   6.126
 7212TIP3    H121516   4.618   0.709   6.173
 7212TIP3    H221517   4.473   0.680   6.200
 7213TIP3   OH221518   5.008   0.132   5.382
 7213TIP3    H121519   5.068   0.079   5.328
 7213TIP3    H221520   5.007   0.082   5.466
 7214TIP3   OH221521   4.983   0.016   5.678
 7214TIP3    H121522   4.894   0.055   5.685
 7214TIP3    H221523   5.037   0.074   5.736
 7215TIP3   OH221524   4.719   0.419   4.764
 7215TIP3    H121525   4.646   0.353   4.761
 7215TIP3    H221526   4.705   0.455   4.855
 7216TIP3   OH221527   5.620   0.651   5.393
 7216TIP3    H121528   5.643   0.699   5.311
 7216TIP3    H221529   5.534   0.609   5.369
 7217TIP3   OH221530   5.127   0.740   5.756
 7217TIP3    H121531   5.130   0.701   5.844
 7217TIP3    H221532   5.077   0.822   5.769
 7218TIP3   OH221533   5.233  -0.047   4.721
 7218TIP3    H121534   5.331  -0.042   4.732
 7218TIP3    H221535   5.216   0.029   4.663
 7219TIP3   OH221536   4.407   0.431   5.440
 7219TIP3    H121537   4.445   0.407   5.353
 7219TIP3    H221538   4.451   0.369   5.498
 7220TIP3   OH221539   4.861   0.565   4.580
 7220TIP3    H121540   4.815   0.652   4.588
 7220TIP3    H221541   4.807   0.510   4.641
 7221TIP3   OH221542   4.250   0.373   6.071
 7221TIP3    H121543   4.329   0.358   6.127
 7221TIP3    H221544   4.233   0.285   6.036
 7222TIP3   OH221545   5.008   0.468   6.069
 7222TIP3    H121546   4.954   0.416   6.008
 7222TIP3    H221547   5.097   0.451   6.031
 7223TIP3   OH221548   5.279   0.997   5.649
 7223TIP3    H121549   5.183   0.988   5.663
 7223TIP3    H221550   5.305   1.045   5.730
 7224TIP3   OH221551   5.689   0.061   4.567
 7224TIP3    H121552   5.630   0.009   4.507
 7224TIP3    H221553   5.688   0.146   4.518
 7225TIP3   OH221554   5.905   0.918   5.645
 7225TIP3    H121555   5.807   0.916   5.636
 7225TIP3    H221556   5.931   0.889   5.554
 7226TIP3   OH221557   5.384   0.883   4.468
 7226TIP3    H121558   5.364   0.813   4.532
 7226TIP3    H221559   5.398   0.834   4.385
 7227TIP3   OH221560   5.384   0.511   5.315
 7227TIP3    H121561   5.290   0.486   5.325
 7227TIP3    H221562   5.418   0.434   5.267
 7228TIP3   OH221563   4.507   0.737   5.060
 7228TIP3    H121564   4.511   0.820   5.008
 7228TIP3    H221565   4.412   0.724   5.068
 7229TIP3   OH221566   4.074   0.040   4.764
 7229TIP3    H121567   4.120   0.125   4.780
 7229TIP3    H221568   3.996   0.050   4.821
 7230TIP3   OH221569   4.656   0.510   5.010
 7230TIP3    H121570   4.616   0.597   5.028
 7230TIP3    H221571   4.618   0.456   5.081
 7231TIP3   OH221572   4.776   1.085   5.533
 7231TIP3    H121573   4.819   1.156   5.482
 7231TIP3    H221574   4.852   1.050   5.582
 7232TIP3   OH221575   4.429   0.979   4.915
 7232TIP3    H121576   4.343   0.986   4.961
 7232TIP3    H221577   4.460   1.072   4.918
 7233TIP3   OH221578   5.171   0.718   5.488
 7233TIP3    H121579   5.163   0.718   5.586
 7233TIP3    H221580   5.249   0.663   5.475
 7234TIP3   OH221581   5.138   0.608   4.371
 7234TIP3    H121582   5.191   0.585   4.451
 7234TIP3    H221583   5.050   0.584   4.401
 7235TIP3   OH221584   5.417   1.255   5.542
 7235TIP3    H121585   5.339   1.196   5.535
 7235TIP3    H221586   5.399   1.318   5.469
 7236TIP3   OH221587   5.482   1.088   4.192
 7236TIP3    H121588   5.523   1.162   4.144
 7236TIP3    H221589   5.401   1.133   4.224
 7237TIP3   OH221590   5.299   0.545   4.590
 7237TIP3    H121591   5.288   0.478   4.660
 7237TIP3    H221592   5.396   0.543   4.578
 7238TIP3   OH221593   4.216   0.949   5.693
 7238TIP3    H121594   4.266   0.870   5.720
 7238TIP3    H221595   4.249   1.012   5.758
 7239TIP3   OH221596   4.510   0.593   4.372
 7239TIP3    H121597   4.519   0.503   4.336
 7239TIP3    H221598   4.490   0.575   4.466
 7240TIP3   OH221599   4.453   0.595   4.646
 7240TIP3    H121600   4.523   0.567   4.706
 7240TIP3    H221601   4.461   0.693   4.650
 7241TIP3   OH221602   4.190   0.289   4.844
 7241TIP3    H121603   4.127   0.335   4.902
 7241TIP3    H221604   4.209   0.359   4.779
 7242TIP3   OH221605   4.719   0.795   4.595
 7242TIP3    H121606   4.632   0.825   4.629
 7242TIP3    H221607   4.735   0.860   4.525
 7243TIP3   OH221608   4.924  -0.146   5.002
 7243TIP3    H121609   4.971  -0.062   4.984
 7243TIP3    H221610   4.899  -0.136   5.095
 7244TIP3   OH221611   5.178   0.172   5.821
 7244TIP3    H121612   5.170   0.245   5.885
 7244TIP3    H221613   5.270   0.145   5.837
 7245TIP3   OH221614   4.460   0.870   4.658
 7245TIP3    H121615   4.429   0.939   4.595
 7245TIP3    H221616   4.444   0.914   4.744
 7246TIP3   OH221617   5.468   0.275   5.181
 7246TIP3    H121618   5.396   0.211   5.196
 7246TIP3    H221619   5.544   0.232   5.227
 7247TIP3   OH221620   4.178   0.505   4.653
 7247TIP3    H121621   4.243   0.578   4.662
 7247TIP3    H221622   4.224   0.451   4.586
 7248TIP3   OH221623   4.110  -0.247   4.775
 7248TIP3    H121624   4.144  -0.155   4.773
 7248TIP3    H221625   4.019  -0.229   4.801
 7249TIP3   OH221626   5.435   1.225   5.134
 7249TIP3    H121627   5.393   1.272   5.058
 7249TIP3    H221628   5.530   1.244   5.113
 7250TIP3   OH221629   4.058   0.718   5.048
 7250TIP3    H121630   3.976   0.748   5.090
 7250TIP3    H221631   4.045   0.751   4.957
 7251TIP3   OH221632   4.204   1.250   6.113
 7251TIP3    H121633   4.291   1.248   6.157
 7251TIP3    H221634   4.185   1.155   6.109
 7252TIP3   OH221635   4.693   1.226   6.154
 7252TIP3    H121636   4.786   1.201   6.164
 7252TIP3    H221637   4.667   1.167   6.080
 7253TIP3   OH221638   4.674   0.797   4.289
 7253TIP3    H121639   4.615   0.726   4.324
 7253TIP3    H221640   4.746   0.743   4.254
 7254TIP3   OH221641   5.330   1.125   5.888
 7254TIP3    H121642   5.319   1.056   5.958
 7254TIP3    H221643   5.406   1.176   5.921
 7255TIP3   OH221644   5.110   0.840   4.195
 7255TIP3    H121645   5.155   0.776   4.254
 7255TIP3    H221646   5.167   0.841   4.116
 7256TIP3   OH221647   4.336   0.655   6.317
 7256TIP3    H121648   4.355   0.559   6.313
 7256TIP3    H221649   4.250   0.659   6.268
 7257TIP3   OH221650   4.314   0.318   4.503
 7257TIP3    H121651   4.369   0.279   4.572
 7257TIP3    H221652   4.379   0.322   4.429
 7258TIP3   OH221653   4.946   0.743   6.084
 7258TIP3    H121654   4.903   0.753   5.998
 7258TIP3    H221655   4.976   0.649   6.082
 7259TIP3   OH221656   4.821   0.511   4.310
 7259TIP3    H121657   4.824   0.524   4.407
 7259TIP3    H221658   4.818   0.413   4.305
 7260TIP3   OH221659   5.441   0.748   5.692
 7260TIP3    H121660   5.510   0.799   5.646
 7260TIP3    H221661   5.365   0.807   5.683
 7261TIP3   OH221662   4.449   0.390   6.291
 7261TIP3    H121663   4.525   0.346   6.249
 7261TIP3    H221664   4.486   0.416   6.378
 7262TIP3   OH221665   4.525   0.225   4.756
 7262TIP3    H121666   4.500   0.178   4.837
 7262TIP3    H221667   4.554   0.153   4.696
 7263TIP3   OH221668   4.611   0.045   4.564
 7263TIP3    H121669   4.581   0.053   4.470
 7263TIP3    H221670   4.706   0.066   4.554
 7264TIP3   OH221671   5.311   0.687   6.096
 7264TIP3    H121672   5.387   0.662   6.043
 7264TIP3    H221673   5.307   0.614   6.161
 7265TIP3   OH221674   5.448   0.342   4.227
 7265TIP3    H121675   5.424   0.295   4.145
 7265TIP3    H221676   5.416   0.432   4.203
 7266TIP3   OH221677   4.909   0.152   6.039
 7266TIP3    H121678   4.888   0.058   6.022
 7266TIP3    H221679   4.828   0.192   6.000
 7267TIP3   OH221680   4.973   0.410   5.770
 7267TIP3    H121681   5.028   0.402   5.692
 7267TIP3    H221682   4.894   0.456   5.735
 7268TIP3   OH221683   5.534   0.369   6.153
 7268TIP3    H121684   5.572   0.281   6.145
 7268TIP3    H221685   5.600   0.427   6.113
 7269TIP3   OH221686   5.573   0.607   5.878
 7269TIP3    H121687   5.512   0.659   5.822
 7269TIP3    H221688   5.659   0.632   5.837
 7270TIP3   OH221689   4.781   0.184   6.311
 7270TIP3    H121690   4.696   0.150   6.282
 7270TIP3    H221691   4.824   0.198   6.225
 7271TIP3   OH221692   5.235   0.226   6.202
 7271TIP3    H121693   5.174   0.203   6.274
 7271TIP3    H221694   5.230   0.148   6.145
 7272TIP3   OH221695   4.429   1.075   4.473
 7272TIP3    H121696   4.525   1.071   4.453
 7272TIP3    H221697   4.397   1.117   4.391
 7273TIP3   OH221698   3.910   0.453   4.692
 7273TIP3    H121699   4.004   0.476   4.676
 7273TIP3    H221700   3.904   0.364   4.651
 7274TIP3   OH221701   3.816   1.059   5.100
 7274TIP3    H121702   3.745   0.997   5.080
 7274TIP3    H221703   3.866   1.010   5.169
 7275TIP3   OH221704   3.958   0.925   5.289
 7275TIP3    H121705   3.953   0.846   5.344
 7275TIP3    H221706   4.011   0.983   5.347
 7276TIP3   OH221707   5.684   1.322   5.086
 7276TIP3    H121708   5.715   1.354   5.173
 7276TIP3    H221709   5.748   1.364   5.026
 7277TIP3   OH221710   5.718   1.340   5.368
 7277TIP3    H121711   5.676   1.251   5.364
 7277TIP3    H221712   5.794   1.319   5.425
 7278TIP3   OH221713   5.765   1.014   5.943
 7278TIP3    H121714   5.690   1.023   6.005
 7278TIP3    H221715   5.804   1.103   5.946
 7279TIP3   OH221716   5.579   0.531   4.564
 7279TIP3    H121717   5.650   0.592   4.537
 7279TIP3    H221718   5.620   0.489   4.643
 7280TIP3   OH221719   5.707   0.398   4.765
 7280TIP3    H121720   5.643   0.353   4.825
 7280TIP3    H221721   5.772   0.435   4.828
 7281TIP3   OH221722   5.759   0.785   5.199
 7281TIP3    H121723   5.813   0.723   5.147
 7281TIP3    H221724   5.749   0.860   5.138
 7282TIP3   OH221725   5.595   1.088   5.396
 7282TIP3    H121726   5.523   1.129   5.447
 7282TIP3    H221727   5.545   1.039   5.327
 7283TIP3   OH221728   5.644   0.303   4.416
 7283TIP3    H121729   5.574   0.309   4.348
 7283TIP3    H221730   5.618   0.378   4.473
 7284TIP3   OH221731   5.516  -0.028   4.374
 7284TIP3    H121732   5.482   0.034   4.308
 7284TIP3    H221733   5.494  -0.114   4.335
 7285TIP3   OH221734   5.523   0.251   4.916
 7285TIP3    H121735   5.533   0.155   4.915
 7285TIP3    H221736   5.510   0.269   5.012
 7286TIP3   OH221737   4.153   0.325   5.661
 7286TIP3    H121738   4.154   0.299   5.567
 7286TIP3    H221739   4.250   0.326   5.681
 7287TIP3   OH221740   5.815   0.673   5.770
 7287TIP3    H121741   5.890   0.611   5.757
 7287TIP3    H221742   5.837   0.745   5.708
 7288TIP3   OH221743   6.002   0.473   5.790
 7288TIP3    H121744   5.932   0.425   5.839
 7288TIP3    H221745   6.081   0.423   5.816
 7289TIP3   OH221746   5.504  -0.029   4.763
 7289TIP3    H121747   5.551  -0.068   4.841
 7289TIP3    H221748   5.577   0.002   4.708
 7290TIP3   OH221749   5.685   0.172   5.309
 7290TIP3    H121750   5.774   0.183   5.268
 7290TIP3    H221751   5.706   0.194   5.401
 7291TIP3   OH221752   5.747   0.293   5.554
 7291TIP3    H121753   5.664   0.335   5.584
 7291TIP3    H221754   5.783   0.363   5.495
 7292TIP3   OH221755   4.140  -0.020   5.742
 7292TIP3    H121756   4.188  -0.028   5.657
 7292TIP3    H221757   4.165   0.070   5.768
 7293TIP3   OH221758   5.271   1.185   4.745
 7293TIP3    H121759   5.322   1.167   4.663
 7293TIP3    H221760   5.328   1.249   4.790
 7294TIP3   OH221761   4.371   0.997   6.134
 7294TIP3    H121762   4.285   0.956   6.113
 7294TIP3    H221763   4.386   0.966   6.224
 7295TIP3   OH221764   4.548   1.016   5.679
 7295TIP3    H121765   4.502   1.093   5.641
 7295TIP3    H221766   4.636   1.030   5.637
 7296TIP3   OH221767   4.999   1.267   5.818
 7296TIP3    H121768   5.041   1.268   5.907
 7296TIP3    H221769   5.066   1.316   5.766
 7297TIP3   OH221770   5.178   1.415   5.673
 7297TIP3    H121771   5.249   1.364   5.633
 7297TIP3    H221772   5.228   1.473   5.735
 7298TIP3   OH221773   4.229   1.280   5.699
 7298TIP3    H121774   4.140   1.316   5.678
 7298TIP3    H221775   4.236   1.303   5.793
 7299TIP3   OH221776   4.466   1.257   5.559
 7299TIP3    H121777   4.380   1.270   5.605
 7299TIP3    H221778   4.445   1.290   5.469
 7300TIP3   OH221779   4.892   1.288   5.356
 7300TIP3    H121780   4.822   1.310   5.291
 7300TIP3    H221781   4.905   1.375   5.401
 7301TIP3   OH221782   5.159   1.227   5.407
 7301TIP3    H121783   5.064   1.243   5.387
 7301TIP3    H221784   5.200   1.305   5.368
 7302TIP3   OH221785   5.369   1.420   5.326
 7302TIP3    H121786   5.355   1.504   5.277
 7302TIP3    H221787   5.394   1.358   5.254
 7303TIP3   OH221788   4.140   1.072   5.449
 7303TIP3    H121789   4.167   1.048   5.540
 7303TIP3    H221790   4.211   1.027   5.399
 7304TIP3   OH221791   4.331   0.942   5.302
 7304TIP3    H121792   4.348   0.858   5.350
 7304TIP3    H221793   4.422   0.980   5.297
 7305TIP3   OH221794   4.598   1.040   5.304
 7305TIP3    H121795   4.630   0.949   5.291
 7305TIP3    H221796   4.639   1.060   5.390
 7306TIP3   OH221797   3.925   0.841   4.846
 7306TIP3    H121798   3.844   0.806   4.805
 7306TIP3    H221799   3.914   0.936   4.827
 7307TIP3   OH221800   4.698   1.038   4.419
 7307TIP3    H121801   4.788   1.057   4.385
 7307TIP3    H221802   4.677   0.961   4.362
 7308TIP3   OH221803   5.416   1.149   4.513
 7308TIP3    H121804   5.408   1.051   4.500
 7308TIP3    H221805   5.373   1.182   4.431
 7309TIP3   OH221806   4.006   0.876   4.481
 7309TIP3    H121807   4.010   0.898   4.575
 7309TIP3    H221808   4.091   0.829   4.467
 7310TIP3   OH221809   5.647   1.296   5.702
 7310TIP3    H121810   5.568   1.262   5.656
 7310TIP3    H221811   5.627   1.392   5.703
 7311TIP3   OH221812   6.909   0.666   4.473
 7311TIP3    H121813   6.884   0.758   4.453
 7311TIP3    H221814   6.832   0.619   4.437
 7312TIP3   OH221815   6.909   0.667   4.845
 7312TIP3    H121816   6.936   0.630   4.930
 7312TIP3    H221817   6.865   0.591   4.804
 7313TIP3   OH221818   6.208   0.568   5.213
 7313TIP3    H121819   6.243   0.501   5.276
 7313TIP3    H221820   6.288   0.621   5.199
 7314TIP3   OH221821   7.150   0.968   4.528
 7314TIP3    H121822   7.139   0.896   4.592
 7314TIP3    H221823   7.178   1.041   4.584
 7315TIP3   OH221824   6.179   0.970   4.944
 7315TIP3    H121825   6.171   0.872   4.946
 7315TIP3    H221826   6.275   0.979   4.935
 7316TIP3   OH221827   5.880   0.167   4.734
 7316TIP3    H121828   5.835   0.253   4.745
 7316TIP3    H221829   5.816   0.121   4.677
 7317TIP3   OH221830   5.949   0.462   4.891
 7317TIP3    H121831   5.996   0.386   4.932
 7317TIP3    H221832   6.009   0.486   4.820
 7318TIP3   OH221833   6.798   1.431   4.545
 7318TIP3    H121834   6.848   1.361   4.498
 7318TIP3    H221835   6.795   1.395   4.635
 7319TIP3   OH221836   6.709   0.892   4.897
 7319TIP3    H121837   6.742   0.816   4.847
 7319TIP3    H221838   6.794   0.934   4.918
 7320TIP3   OH221839   7.122   0.404   4.931
 7320TIP3    H121840   7.156   0.316   4.955
 7320TIP3    H221841   7.091   0.390   4.840
 7321TIP3   OH221842   6.088   0.255   5.001
 7321TIP3    H121843   6.168   0.231   5.052
 7321TIP3    H221844   6.106   0.200   4.921
 7322TIP3   OH221845   6.534   0.455   4.796
 7322TIP3    H121846   6.624   0.422   4.811
 7322TIP3    H221847   6.488   0.373   4.765
 7323TIP3   OH221848   7.770   0.397   5.083
 7323TIP3    H121849   7.710   0.467   5.054
 7323TIP3    H221850   7.816   0.437   5.159
 7324TIP3   OH221851   6.806   0.887   4.341
 7324TIP3    H121852   6.762   0.862   4.259
 7324TIP3    H221853   6.764   0.973   4.360
 7325TIP3   OH221854   6.565   0.810   5.133
 7325TIP3    H121855   6.498   0.872   5.169
 7325TIP3    H221856   6.603   0.862   5.059
 7326TIP3   OH221857   6.319   0.162   5.101
 7326TIP3    H121858   6.387   0.228   5.126
 7326TIP3    H221859   6.366   0.111   5.035
 7327TIP3   OH221860   6.387   1.002   5.223
 7327TIP3    H121861   6.361   1.086   5.181
 7327TIP3    H221862   6.308   0.988   5.280
 7328TIP3   OH221863   5.787   0.694   4.459
 7328TIP3    H121864   5.744   0.722   4.376
 7328TIP3    H221865   5.816   0.779   4.498
 7329TIP3   OH221866   7.226   1.210   4.702
 7329TIP3    H121867   7.135   1.201   4.740
 7329TIP3    H221868   7.217   1.294   4.654
 7330TIP3   OH221869   6.931   1.260   4.378
 7330TIP3    H121870   6.979   1.177   4.354
 7330TIP3    H221871   6.990   1.325   4.332
 7331TIP3   OH221872   7.068   1.045   4.276
 7331TIP3    H121873   7.035   0.966   4.232
 7331TIP3    H221874   7.102   1.007   4.360
 7332TIP3   OH221875   7.452   1.126   5.042
 7332TIP3    H121876   7.440   1.048   4.983
 7332TIP3    H221877   7.434   1.200   4.980
 7333TIP3   OH221878   6.742   0.519   4.298
 7333TIP3    H121879   6.660   0.567   4.273
 7333TIP3    H221880   6.789   0.514   4.212
 7334TIP3   OH221881   6.696   0.305   4.020
 7334TIP3    H121882   6.772   0.348   4.062
 7334TIP3    H221883   6.742   0.233   3.972
 7335TIP3   OH221884   7.645   0.757   4.888
 7335TIP3    H121885   7.563   0.811   4.892
 7335TIP3    H221886   7.674   0.778   4.797
 7336TIP3   OH221887   7.087   0.601   4.272
 7336TIP3    H121888   7.035   0.626   4.352
 7336TIP3    H221889   7.171   0.573   4.313
 7337TIP3   OH221890   7.323   0.647   5.173
 7337TIP3    H121891   7.319   0.732   5.221
 7337TIP3    H221892   7.237   0.651   5.125
 7338TIP3   OH221893   6.322   0.601   4.687
 7338TIP3    H121894   6.278   0.542   4.621
 7338TIP3    H221895   6.397   0.544   4.715
 7339TIP3   OH221896   6.449   1.009   4.837
 7339TIP3    H121897   6.428   0.963   4.754
 7339TIP3    H221898   6.540   0.977   4.855
 7340TIP3   OH221899   6.458   0.569   5.044
 7340TIP3    H121900   6.489   0.547   4.954
 7340TIP3    H221901   6.502   0.655   5.061
 7341TIP3   OH221902   6.982   1.208   4.818
 7341TIP3    H121903   6.968   1.287   4.873
 7341TIP3    H221904   6.969   1.134   4.880
 7342TIP3   OH221905   6.594   1.128   5.364
 7342TIP3    H121906   6.534   1.190   5.411
 7342TIP3    H221907   6.528   1.074   5.317
 7343TIP3   OH221908   6.933   0.452   4.098
 7343TIP3    H121909   6.992   0.510   4.152
 7343TIP3    H221910   6.959   0.479   4.007
 7344TIP3   OH221911   6.337   0.696   5.459
 7344TIP3    H121912   6.340   0.777   5.513
 7344TIP3    H221913   6.243   0.671   5.467
 7345TIP3   OH221914   6.672   1.139   4.371
 7345TIP3    H121915   6.745   1.197   4.397
 7345TIP3    H221916   6.607   1.200   4.335
 7346TIP3   OH221917   6.389   1.299   5.451
 7346TIP3    H121918   6.354   1.294   5.360
 7346TIP3    H221919   6.311   1.275   5.505
 7347TIP3   OH221920   6.185   0.447   4.494
 7347TIP3    H121921   6.117   0.484   4.433
 7347TIP3    H221922   6.156   0.356   4.506
 7348TIP3   OH221923   7.242   1.069   3.690
 7348TIP3    H121924   7.252   1.166   3.678
 7348TIP3    H221925   7.335   1.038   3.679
 7349TIP3   OH221926   5.968   0.827   5.398
 7349TIP3    H121927   5.905   0.803   5.327
 7349TIP3    H221928   6.004   0.740   5.425
 7350TIP3   OH221929   5.822   1.018   5.034
 7350TIP3    H121930   5.918   1.010   5.022
 7350TIP3    H221931   5.815   1.098   5.087
 7351TIP3   OH221932   7.688   1.468   5.086
 7351TIP3    H121933   7.686   1.371   5.096
 7351TIP3    H221934   7.604   1.492   5.131
 7352TIP3   OH221935   6.794   1.256   5.221
 7352TIP3    H121936   6.794   1.349   5.254
 7352TIP3    H221937   6.722   1.218   5.276
 7353TIP3   OH221938   6.556   1.396   4.165
 7353TIP3    H121939   6.472   1.358   4.132
 7353TIP3    H221940   6.525   1.483   4.197
 7354TIP3   OH221941   5.982   1.237   4.557
 7354TIP3    H121942   6.039   1.227   4.636
 7354TIP3    H221943   5.925   1.158   4.568
 7355TIP3   OH221944   6.764   1.294   3.808
 7355TIP3    H121945   6.818   1.218   3.779
 7355TIP3    H221946   6.781   1.297   3.904
 7356TIP3   OH221947   6.808   1.332   4.082
 7356TIP3    H121948   6.717   1.349   4.117
 7356TIP3    H221949   6.849   1.286   4.157
 7357TIP3   OH221950   7.578   0.596   5.373
 7357TIP3    H121951   7.507   0.632   5.318
 7357TIP3    H221952   7.597   0.512   5.330
 7358TIP3   OH221953   6.173   1.010   5.392
 7358TIP3    H121954   6.224   0.991   5.473
 7358TIP3    H221955   6.100   0.944   5.397
 7359TIP3   OH221956   7.251   0.464   5.377
 7359TIP3    H121957   7.289   0.377   5.359
 7359TIP3    H221958   7.263   0.512   5.293
 7360TIP3   OH221959   7.004   0.508   3.840
 7360TIP3    H121960   6.974   0.482   3.751
 7360TIP3    H221961   7.084   0.559   3.819
 7361TIP3   OH221962   6.506   0.340   5.184
 7361TIP3    H121963   6.467   0.364   5.270
 7361TIP3    H221964   6.490   0.422   5.131
 7362TIP3   OH221965   6.376   0.256   4.697
 7362TIP3    H121966   6.300   0.205   4.730
 7362TIP3    H221967   6.399   0.204   4.616
 7363TIP3   OH221968   6.883   0.323   4.428
 7363TIP3    H121969   6.828   0.395   4.389
 7363TIP3    H221970   6.931   0.291   4.349
 7364TIP3   OH221971   7.045   0.631   5.497
 7364TIP3    H121972   7.039   0.578   5.580
 7364TIP3    H221973   7.141   0.635   5.487
 7365TIP3   OH221974   7.043   0.352   4.669
 7365TIP3    H121975   6.984   0.386   4.599
 7365TIP3    H221976   7.071   0.269   4.629
 7366TIP3   OH221977   6.320   0.391   5.395
 7366TIP3    H121978   6.354   0.438   5.473
 7366TIP3    H221979   6.304   0.302   5.429
 7367TIP3   OH221980   7.056   0.600   5.102
 7367TIP3    H121981   7.080   0.526   5.040
 7367TIP3    H221982   7.016   0.551   5.176
 7368TIP3   OH221983   6.146   0.110   4.774
 7368TIP3    H121984   6.052   0.125   4.752
 7368TIP3    H221985   6.157   0.016   4.751
 7369TIP3   OH221986   6.435   0.125   4.463
 7369TIP3    H121987   6.524   0.112   4.427
 7369TIP3    H221988   6.378   0.124   4.383
 7370TIP3   OH221989   6.256   0.137   4.245
 7370TIP3    H121990   6.170   0.110   4.209
 7370TIP3    H221991   6.302   0.173   4.167
 7371TIP3   OH221992   7.374   1.820   5.184
 7371TIP3    H121993   7.372   1.841   5.089
 7371TIP3    H221994   7.451   1.871   5.215
 7372TIP3   OH221995   6.334   0.932   5.610
 7372TIP3    H121996   6.415   0.961   5.656
 7372TIP3    H221997   6.270   0.933   5.684
 7373TIP3   OH221998   6.806   0.389   4.871
 7373TIP3    H121999   6.861   0.332   4.816
 7373TIP3    H222000   6.801   0.338   4.954
 7374TIP3   OH222001   6.781   0.277   5.156
 7374TIP3    H122002   6.689   0.305   5.175
 7374TIP3    H222003   6.831   0.325   5.224
 7375TIP3   OH222004   6.511   0.673   4.247
 7375TIP3    H122005   6.441   0.605   4.239
 7375TIP3    H222006   6.496   0.705   4.339
 7376TIP3   OH222007   7.415   0.907   4.880
 7376TIP3    H122008   7.439   0.955   4.798
 7376TIP3    H222009   7.330   0.865   4.856
 7377TIP3   OH222010   6.921   0.993   5.244
 7377TIP3    H122011   6.925   0.960   5.334
 7377TIP3    H222012   6.874   1.078   5.254
 7378TIP3   OH222013   7.031   0.207   4.204
 7378TIP3    H122014   7.128   0.215   4.217
 7378TIP3    H222015   7.012   0.285   4.150
 7379TIP3   OH222016   6.205   0.692   4.925
 7379TIP3    H122017   6.242   0.664   4.838
 7379TIP3    H222018   6.241   0.625   4.984
 7380TIP3   OH222019   6.654   0.824   4.065
 7380TIP3    H122020   6.608   0.909   4.076
 7380TIP3    H222021   6.604   0.766   4.126
 7381TIP3   OH222022   6.078   0.619   5.539
 7381TIP3    H122023   6.105   0.601   5.631
 7381TIP3    H222024   6.013   0.548   5.522
 7382TIP3   OH222025   6.801   0.732   5.562
 7382TIP3    H122026   6.732   0.674   5.522
 7382TIP3    H222027   6.882   0.702   5.515
 7383TIP3   OH222028   7.076   1.252   5.137
 7383TIP3    H122029   6.980   1.245   5.150
 7383TIP3    H222030   7.101   1.302   5.218
 7384TIP3   OH222031   7.487   0.306   4.054
 7384TIP3    H122032   7.421   0.268   3.992
 7384TIP3    H222033   7.502   0.391   4.005
 7385TIP3   OH222034   7.702   1.175   5.131
 7385TIP3    H122035   7.604   1.172   5.122
 7385TIP3    H222036   7.727   1.146   5.041
 7386TIP3   OH222037   7.181   1.139   3.955
 7386TIP3    H122038   7.162   1.068   4.018
 7386TIP3    H222039   7.196   1.091   3.872
 7387TIP3   OH222040   7.180   0.767   4.804
 7387TIP3    H122041   7.086   0.742   4.812
 7387TIP3    H222042   7.214   0.690   4.755
 7388TIP3   OH222043   6.305   0.990   4.551
 7388TIP3    H122044   6.307   1.078   4.506
 7388TIP3    H222045   6.210   0.976   4.558
 7389TIP3   OH222046   5.859   0.310   4.247
 7389TIP3    H122047   5.911   0.390   4.270
 7389TIP3    H222048   5.786   0.315   4.312
 7390TIP3   OH222049   6.451   0.763   4.494
 7390TIP3    H122050   6.413   0.852   4.513
 7390TIP3    H222051   6.413   0.711   4.568
 7391TIP3   OH222052   6.573   1.341   5.021
 7391TIP3    H122053   6.613   1.413   4.967
 7391TIP3    H222054   6.650   1.307   5.068
 7392TIP3   OH222055   6.240   1.233   4.439
 7392TIP3    H122056   6.144   1.242   4.451
 7392TIP3    H222057   6.262   1.314   4.391
 7393TIP3   OH222058   6.967   0.975   4.975
 7393TIP3    H122059   6.960   0.973   5.073
 7393TIP3    H222060   7.044   0.919   4.960
 7394TIP3   OH222061   6.935   0.863   3.859
 7394TIP3    H122062   6.989   0.841   3.938
 7394TIP3    H222063   6.847   0.841   3.892
 7395TIP3   OH222064   7.213   1.512   5.029
 7395TIP3    H122065   7.135   1.453   5.021
 7395TIP3    H222066   7.196   1.575   4.956
 7396TIP3   OH222067   7.278   1.344   3.680
 7396TIP3    H122068   7.316   1.416   3.627
 7396TIP3    H222069   7.198   1.389   3.712
 7397TIP3   OH222070   7.095   0.804   4.078
 7397TIP3    H122071   7.086   0.735   4.147
 7397TIP3    H222072   7.192   0.801   4.064
 7398TIP3   OH222073   6.012   1.206   5.180
 7398TIP3    H122074   6.063   1.127   5.203
 7398TIP3    H222075   6.045   1.269   5.245
 7399TIP3   OH222076   6.302   0.844   3.856
 7399TIP3    H122077   6.324   0.753   3.830
 7399TIP3    H222078   6.283   0.834   3.951
 7400TIP3   OH222079   6.250   0.861   4.134
 7400TIP3    H122080   6.318   0.821   4.190
 7400TIP3    H222081   6.277   0.954   4.135
 7401TIP3   OH222082   5.986   0.548   4.332
 7401TIP3    H122083   5.922   0.593   4.391
 7401TIP3    H222084   6.004   0.619   4.267
 7402TIP3   OH222085   6.501   1.056   4.073
 7402TIP3    H122086   6.434   1.121   4.101
 7402TIP3    H222087   6.530   1.097   3.990
 7403TIP3   OH222088   6.727   0.107   4.490
 7403TIP3    H122089   6.769   0.193   4.471
 7403TIP3    H222090   6.689   0.121   4.577
 7404TIP3   OH222091   6.968   0.421   5.321
 7404TIP3    H122092   6.970   0.498   5.380
 7404TIP3    H222093   7.061   0.393   5.324
 7405TIP3   OH222094   7.264   0.532   4.670
 7405TIP3    H122095   7.192   0.468   4.681
 7405TIP3    H222096   7.339   0.487   4.715
 7406TIP3   OH222097   5.974   0.763   4.139
 7406TIP3    H122098   6.037   0.836   4.150
 7406TIP3    H222099   6.023   0.709   4.073
 7407TIP3   OH222100   5.937   0.041   4.213
 7407TIP3    H122101   5.909   0.124   4.256
 7407TIP3    H222102   5.901  -0.029   4.269
 7408TIP3   OH222103   7.232   1.482   4.621
 7408TIP3    H122104   7.189   1.529   4.546
 7408TIP3    H222105   7.326   1.501   4.599
 7409TIP3   OH222106   5.852   0.973   4.535
 7409TIP3    H122107   5.769   1.005   4.574
 7409TIP3    H222108   5.842   1.007   4.444
 7410TIP3   OH222109   6.000   1.507   5.599
 7410TIP3    H122110   6.087   1.505   5.645
 7410TIP3    H222111   5.979   1.412   5.596
 7411TIP3   OH222112   6.490   1.481   5.641
 7411TIP3    H122113   6.583   1.457   5.650
 7411TIP3    H222114   6.463   1.424   5.567
 7412TIP3   OH222115   6.470   1.050   3.770
 7412TIP3    H122116   6.410   0.986   3.813
 7412TIP3    H222117   6.544   0.992   3.746
 7413TIP3   OH222118   7.125   1.383   5.376
 7413TIP3    H122119   7.115   1.313   5.445
 7413TIP3    H222120   7.202   1.433   5.408
 7414TIP3   OH222121   6.904   1.091   3.680
 7414TIP3    H122122   6.952   1.032   3.740
 7414TIP3    H222123   6.962   1.096   3.602
 7415TIP3   OH222124   6.134   0.916   5.800
 7415TIP3    H122125   6.151   0.820   5.801
 7415TIP3    H222126   6.046   0.920   5.757
 7416TIP3   OH222127   6.111   0.572   3.990
 7416TIP3    H122128   6.161   0.532   4.062
 7416TIP3    H222129   6.180   0.575   3.920
 7417TIP3   OH222130   6.743   1.003   5.571
 7417TIP3    H122131   6.700   1.013   5.485
 7417TIP3    H222132   6.773   0.909   5.570
 7418TIP3   OH222133   6.612   0.768   3.796
 7418TIP3    H122134   6.620   0.781   3.893
 7418TIP3    H222135   6.615   0.670   3.793
 7419TIP3   OH222136   7.238   1.005   5.180
 7419TIP3    H122137   7.307   1.055   5.133
 7419TIP3    H222138   7.161   1.064   5.169
 7420TIP3   OH222139   6.247   0.646   5.781
 7420TIP3    H122140   6.320   0.587   5.757
 7420TIP3    H222141   6.276   0.678   5.869
 7421TIP3   OH222142   6.321   0.470   4.216
 7421TIP3    H122143   6.297   0.428   4.300
 7421TIP3    H222144   6.356   0.394   4.165
 7422TIP3   OH222145   6.586   0.587   5.449
 7422TIP3    H122146   6.498   0.632   5.445
 7422TIP3    H222147   6.619   0.595   5.358
 7423TIP3   OH222148   6.417   0.262   4.056
 7423TIP3    H122149   6.393   0.266   3.961
 7423TIP3    H222150   6.515   0.271   4.050
 7424TIP3   OH222151   7.106   0.943   5.581
 7424TIP3    H122152   7.184   0.919   5.530
 7424TIP3    H222153   7.102   0.871   5.647
 7425TIP3   OH222154   7.243   0.600   3.710
 7425TIP3    H122155   7.218   0.554   3.627
 7425TIP3    H222156   7.212   0.691   3.688
 7426TIP3   OH222157   6.628   0.320   5.459
 7426TIP3    H122158   6.686   0.307   5.537
 7426TIP3    H222159   6.609   0.416   5.468
 7427TIP3   OH222160   6.766   0.655   5.234
 7427TIP3    H122161   6.832   0.662   5.164
 7427TIP3    H222162   6.699   0.718   5.203
 7428TIP3   OH222163   7.334   0.623   5.647
 7428TIP3    H122164   7.372   0.538   5.622
 7428TIP3    H222165   7.391   0.685   5.600
 7429TIP3   OH222166   7.369   0.864   5.367
 7429TIP3    H122167   7.308   0.916   5.310
 7429TIP3    H222168   7.455   0.888   5.325
 7430TIP3   OH222169   6.547   0.484   5.766
 7430TIP3    H122170   6.499   0.418   5.816
 7430TIP3    H222171   6.561   0.558   5.826
 7431TIP3   OH222172   7.059   0.454   5.697
 7431TIP3    H122173   7.124   0.439   5.769
 7431TIP3    H222174   7.086   0.383   5.635
 7432TIP3   OH222175   5.707   0.710   4.176
 7432TIP3    H122176   5.801   0.734   4.163
 7432TIP3    H222177   5.703   0.621   4.135
 7433TIP3   OH222178   5.618   1.324   4.587
 7433TIP3    H122179   5.551   1.260   4.554
 7433TIP3    H222180   5.664   1.269   4.655
 7434TIP3   OH222181   5.753   1.181   4.776
 7434TIP3    H122182   5.747   1.102   4.830
 7434TIP3    H222183   5.807   1.239   4.833
 7435TIP3   OH222184   7.482   1.578   4.573
 7435TIP3    H122185   7.512   1.611   4.659
 7435TIP3    H222186   7.543   1.621   4.512
 7436TIP3   OH222187   7.515   1.597   4.856
 7436TIP3    H122188   7.471   1.509   4.850
 7436TIP3    H222189   7.590   1.573   4.912
 7437TIP3   OH222190   7.562   1.270   5.431
 7437TIP3    H122191   7.486   1.279   5.492
 7437TIP3    H222192   7.600   1.360   5.433
 7438TIP3   OH222193   7.372   0.792   4.051
 7438TIP3    H122194   7.445   0.850   4.023
 7438TIP3    H222195   7.413   0.745   4.127
 7439TIP3   OH222196   7.502   0.658   4.252
 7439TIP3    H122197   7.439   0.610   4.310
 7439TIP3    H222198   7.568   0.693   4.315
 7440TIP3   OH222199   7.557   1.042   4.688
 7440TIP3    H122200   7.608   0.978   4.634
 7440TIP3    H222201   7.545   1.116   4.625
 7441TIP3   OH222202   7.392   1.345   4.883
 7441TIP3    H122203   7.319   1.386   4.934
 7441TIP3    H222204   7.343   1.296   4.814
 7442TIP3   OH222205   7.419   0.538   3.914
 7442TIP3    H122206   7.366   0.562   3.835
 7442TIP3    H222207   7.429   0.625   3.956
 7443TIP3   OH222208   7.308   0.217   3.861
 7443TIP3    H122209   7.290   0.300   3.816
 7443TIP3    H222210   7.276   0.151   3.799
 7444TIP3   OH222211   7.318   0.508   4.403
 7444TIP3    H122212   7.331   0.412   4.402
 7444TIP3    H222213   7.305   0.526   4.499
 7445TIP3   OH222214   5.945   0.581   5.146
 7445TIP3    H122215   5.945   0.554   5.052
 7445TIP3    H222216   6.042   0.584   5.164
 7446TIP3   OH222217   7.611   0.930   5.257
 7446TIP3    H122218   7.685   0.868   5.245
 7446TIP3    H222219   7.632   1.001   5.194
 7447TIP3   OH222220   7.797   0.730   5.278
 7447TIP3    H122221   7.728   0.681   5.327
 7447TIP3    H222222   7.877   0.682   5.303
 7448TIP3   OH222223   7.301   0.223   4.249
 7448TIP3    H122224   7.350   0.190   4.328
 7448TIP3    H222225   7.373   0.260   4.194
 7449TIP3   OH222226   7.482   0.429   4.796
 7449TIP3    H122227   7.570   0.439   4.754
 7449TIP3    H222228   7.503   0.451   4.888
 7450TIP3   OH222229   7.545   0.550   5.042
 7450TIP3    H122230   7.461   0.591   5.071
 7450TIP3    H222231   7.580   0.619   4.982
 7451TIP3   OH222232   5.937   0.240   5.230
 7451TIP3    H122233   5.981   0.224   5.144
 7451TIP3    H222234   5.966   0.330   5.248
 7452TIP3   OH222235   7.069   1.441   4.234
 7452TIP3    H122236   7.117   1.421   4.150
 7452TIP3    H222237   7.128   1.507   4.274
 7453TIP3   OH222238   6.170   1.245   5.622
 7453TIP3    H122239   6.080   1.213   5.601
 7453TIP3    H222240   6.177   1.225   5.716
 7454TIP3   OH222241   6.345   1.274   5.167
 7454TIP3    H122242   6.297   1.350   5.127
 7454TIP3    H222243   6.432   1.288   5.124
 7455TIP3   OH222244   6.796   1.523   5.305
 7455TIP3    H122245   6.838   1.525   5.394
 7455TIP3    H222246   6.862   1.572   5.252
 7456TIP3   OH222247   6.973   1.672   5.161
 7456TIP3    H122248   7.044   1.621   5.119
 7456TIP3    H222249   7.025   1.729   5.222
 7457TIP3   OH222250   6.025   1.536   5.187
 7457TIP3    H122251   5.937   1.572   5.164
 7457TIP3    H222252   6.030   1.561   5.280
 7458TIP3   OH222253   6.262   1.513   5.046
 7458TIP3    H122254   6.176   1.527   5.091
 7458TIP3    H222255   6.242   1.545   4.956
 7459TIP3   OH222256   6.688   1.544   4.844
 7459TIP3    H122257   6.619   1.564   4.778
 7459TIP3    H222258   6.700   1.632   4.886
 7460TIP3   OH222259   6.955   1.485   4.896
 7460TIP3    H122260   6.860   1.499   4.875
 7460TIP3    H222261   6.996   1.561   4.853
 7461TIP3   OH222262   7.167   1.677   4.813
 7461TIP3    H122263   7.151   1.761   4.764
 7461TIP3    H222264   7.190   1.615   4.741
 7462TIP3   OH222265   5.935   1.329   4.936
 7462TIP3    H122266   5.963   1.304   5.027
 7462TIP3    H222267   6.007   1.284   4.884
 7463TIP3   OH222268   6.126   1.200   4.788
 7463TIP3    H122269   6.145   1.116   4.836
 7463TIP3    H222270   6.216   1.238   4.779
 7464TIP3   OH222271   6.394   1.299   4.791
 7464TIP3    H122272   6.425   1.209   4.773
 7464TIP3    H222273   6.435   1.314   4.878
 7465TIP3   OH222274   5.723   1.094   4.329
 7465TIP3    H122275   5.638   1.063   4.292
 7465TIP3    H222276   5.711   1.190   4.319
 7466TIP3   OH222277   7.213   1.405   4.000
 7466TIP3    H122278   7.204   1.308   3.987
 7466TIP3    H222279   7.169   1.438   3.919
 7467TIP3   OH222280   5.799   1.131   3.968
 7467TIP3    H122281   5.802   1.153   4.062
 7467TIP3    H222282   5.888   1.089   3.954
 7468TIP3   OH222283   7.443   1.552   5.190
 7468TIP3    H122284   7.364   1.518   5.142
 7468TIP3    H222285   7.422   1.648   5.190
 7469TIP3   OH222286   8.709   0.926   3.949
 7469TIP3    H122287   8.681   1.019   3.940
 7469TIP3    H222288   8.626   0.879   3.926
 7470TIP3   OH222289   8.694   0.920   4.334
 7470TIP3    H122290   8.732   0.887   4.417
 7470TIP3    H222291   8.659   0.837   4.296
 7471TIP3   OH222292   8.005   0.826   4.701
 7471TIP3    H122293   8.042   0.759   4.761
 7471TIP3    H222294   8.085   0.875   4.678
 7472TIP3   OH222295   8.944   1.227   4.014
 7472TIP3    H122296   8.943   1.154   4.078
 7472TIP3    H222297   8.977   1.300   4.070
 7473TIP3   OH222298   7.975   1.228   4.431
 7473TIP3    H122299   7.967   1.130   4.433
 7473TIP3    H222300   8.072   1.236   4.422
 7474TIP3   OH222301   7.671   0.420   4.230
 7474TIP3    H122302   7.633   0.509   4.228
 7474TIP3    H222303   7.618   0.376   4.161
 7475TIP3   OH222304   7.747   0.719   4.380
 7475TIP3    H122305   7.796   0.642   4.417
 7475TIP3    H222306   7.798   0.736   4.299
 7476TIP3   OH222307   8.596   1.686   4.031
 7476TIP3    H122308   8.642   1.613   3.986
 7476TIP3    H222309   8.591   1.652   4.122
 7477TIP3   OH222310   8.505   1.148   4.384
 7477TIP3    H122311   8.538   1.069   4.338
 7477TIP3    H222312   8.591   1.191   4.403
 7478TIP3   OH222313   8.919   0.655   4.412
 7478TIP3    H122314   8.946   0.562   4.418
 7478TIP3    H222315   8.892   0.657   4.318
 7479TIP3   OH222316   7.888   0.510   4.492
 7479TIP3    H122317   7.969   0.482   4.541
 7479TIP3    H222318   7.901   0.456   4.411
 7480TIP3   OH222319   8.330   0.711   4.284
 7480TIP3    H122320   8.421   0.677   4.298
 7480TIP3    H222321   8.285   0.629   4.253
 7481TIP3   OH222322   8.616   1.158   3.812
 7481TIP3    H122323   8.554   1.115   3.752
 7481TIP3    H222324   8.562   1.234   3.842
 7482TIP3   OH222325   8.363   1.066   4.620
 7482TIP3    H122326   8.296   1.128   4.656
 7482TIP3    H222327   8.400   1.117   4.546
 7483TIP3   OH222328   8.124   0.407   4.590
 7483TIP3    H122329   8.187   0.478   4.614
 7483TIP3    H222330   8.163   0.373   4.510
 7484TIP3   OH222331   8.184   1.258   4.711
 7484TIP3    H122332   8.158   1.342   4.667
 7484TIP3    H222333   8.105   1.244   4.767
 7485TIP3   OH222334   7.574   0.951   3.948
 7485TIP3    H122335   7.539   0.976   3.861
 7485TIP3    H222336   7.612   1.033   3.982
 7486TIP3   OH222337   9.009   1.452   4.176
 7486TIP3    H122338   8.919   1.453   4.215
 7486TIP3    H222339   9.014   1.539   4.134
 7487TIP3   OH222340   8.724   1.506   3.865
 7487TIP3    H122341   8.781   1.429   3.845
 7487TIP3    H222342   8.779   1.579   3.831
 7488TIP3   OH222343   8.876   1.282   3.753
 7488TIP3    H122344   8.795   1.227   3.749
 7488TIP3    H222345   8.907   1.261   3.845
 7489TIP3   OH222346   8.534   0.777   3.785
 7489TIP3    H122347   8.450   0.823   3.762
 7489TIP3    H222348   8.577   0.769   3.699
 7490TIP3   OH222349   8.496   0.565   3.501
 7490TIP3    H122350   8.570   0.606   3.548
 7490TIP3    H222351   8.541   0.490   3.457
 7491TIP3   OH222352   8.894   0.854   3.767
 7491TIP3    H122353   8.825   0.884   3.831
 7491TIP3    H222354   8.967   0.840   3.829
 7492TIP3   OH222355   9.125   0.905   4.659
 7492TIP3    H122356   9.107   0.987   4.705
 7492TIP3    H222357   9.043   0.892   4.609
 7493TIP3   OH222358   8.117   0.857   4.170
 7493TIP3    H122359   8.069   0.797   4.108
 7493TIP3    H222360   8.190   0.799   4.199
 7494TIP3   OH222361   8.247   1.268   4.323
 7494TIP3    H122362   8.224   1.218   4.243
 7494TIP3    H222363   8.338   1.234   4.341
 7495TIP3   OH222364   8.254   0.827   4.531
 7495TIP3    H122365   8.284   0.802   4.441
 7495TIP3    H222366   8.299   0.912   4.547
 7496TIP3   OH222367   8.772   1.468   4.304
 7496TIP3    H122368   8.763   1.544   4.364
 7496TIP3    H222369   8.765   1.391   4.364
 7497TIP3   OH222370   8.390   1.385   4.852
 7497TIP3    H122371   8.329   1.447   4.898
 7497TIP3    H222372   8.325   1.330   4.804
 7498TIP3   OH222373   8.727   0.707   3.592
 7498TIP3    H122374   8.791   0.759   3.644
 7498TIP3    H222375   8.757   0.728   3.500
 7499TIP3   OH222376   8.127   0.950   4.949
 7499TIP3    H122377   8.131   1.033   5.002
 7499TIP3    H222378   8.032   0.929   4.954
 7500TIP3   OH222379   8.464   1.396   3.859
 7500TIP3    H122380   8.542   1.450   3.883
 7500TIP3    H222381   8.403   1.461   3.822
 7501TIP3   OH222382   8.185   1.556   4.938
 7501TIP3    H122383   8.151   1.551   4.847
 7501TIP3    H222384   8.106   1.532   4.991
 7502TIP3   OH222385   7.973   0.690   3.984
 7502TIP3    H122386   7.917   0.746   3.927
 7502TIP3    H222387   7.937   0.602   3.962
 7503TIP3   OH222388   7.764   1.084   4.885
 7503TIP3    H122389   7.701   1.062   4.813
 7503TIP3    H222390   7.799   0.996   4.911
 7504TIP3   OH222391   7.618   1.274   4.522
 7504TIP3    H122392   7.713   1.266   4.508
 7504TIP3    H222393   7.612   1.356   4.573
 7505TIP3   OH222394   8.589   1.512   4.709
 7505TIP3    H122395   8.590   1.605   4.740
 7505TIP3    H222396   8.518   1.475   4.764
 7506TIP3   OH222397   8.348   1.644   3.659
 7506TIP3    H122398   8.301   1.623   3.576
 7506TIP3    H222399   8.316   1.733   3.680
 7507TIP3   OH222400   7.787   1.494   4.043
 7507TIP3    H122401   7.835   1.482   4.128
 7507TIP3    H222402   7.729   1.415   4.045
 7508TIP3   OH222403   8.552   1.544   3.302
 7508TIP3    H122404   8.614   1.475   3.268
 7508TIP3    H222405   8.582   1.553   3.395
 7509TIP3   OH222406   8.600   1.590   3.574
 7509TIP3    H122407   8.511   1.599   3.615
 7509TIP3    H222408   8.648   1.548   3.647
 7510TIP3   OH222409   7.969   1.267   4.879
 7510TIP3    H122410   8.020   1.246   4.960
 7510TIP3    H222411   7.896   1.201   4.883
 7511TIP3   OH222412   8.806   0.757   3.329
 7511TIP3    H122413   8.774   0.734   3.240
 7511TIP3    H222414   8.852   0.840   3.312
 7512TIP3   OH222415   8.300   0.596   4.667
 7512TIP3    H122416   8.267   0.622   4.755
 7512TIP3    H222417   8.285   0.678   4.616
 7513TIP3   OH222418   8.177   0.508   4.188
 7513TIP3    H122419   8.093   0.467   4.214
 7513TIP3    H222420   8.195   0.461   4.103
 7514TIP3   OH222421   8.679   0.584   3.908
 7514TIP3    H122422   8.613   0.654   3.886
 7514TIP3    H222423   8.728   0.583   3.825
 7515TIP3   OH222424   8.850   0.886   4.972
 7515TIP3    H122425   8.836   0.833   5.053
 7515TIP3    H222426   8.943   0.910   4.985
 7516TIP3   OH222427   8.827   0.612   4.160
 7516TIP3    H122428   8.783   0.614   4.073
 7516TIP3    H222429   8.858   0.520   4.166
 7517TIP3   OH222430   8.113   0.650   4.880
 7517TIP3    H122431   8.141   0.699   4.959
 7517TIP3    H222432   8.089   0.563   4.915
 7518TIP3   OH222433   8.843   0.855   4.577
 7518TIP3    H122434   8.876   0.780   4.522
 7518TIP3    H222435   8.818   0.810   4.658
 7519TIP3   OH222436   7.941   0.366   4.266
 7519TIP3    H122437   7.849   0.385   4.236
 7519TIP3    H222438   7.956   0.279   4.227
 7520TIP3   OH222439   8.235   0.380   3.952
 7520TIP3    H122440   8.326   0.366   3.921
 7520TIP3    H222441   8.185   0.389   3.870
 7521TIP3   OH222442   9.163   2.081   4.669
 7521TIP3    H122443   9.166   2.097   4.572
 7521TIP3    H222444   9.234   2.140   4.699
 7522TIP3   OH222445   8.129   1.188   5.097
 7522TIP3    H122446   8.211   1.217   5.142
 7522TIP3    H222447   8.066   1.190   5.171
 7523TIP3   OH222448   8.601   0.641   4.352
 7523TIP3    H122449   8.672   0.599   4.301
 7523TIP3    H222450   8.604   0.593   4.436
 7524TIP3   OH222451   8.576   0.531   4.647
 7524TIP3    H122452   8.484   0.560   4.659
 7524TIP3    H222453   8.624   0.583   4.714
 7525TIP3   OH222454   8.308   0.931   3.735
 7525TIP3    H122455   8.240   0.860   3.725
 7525TIP3    H222456   8.289   0.962   3.827
 7526TIP3   OH222457   8.727   1.253   4.732
 7526TIP3    H122458   8.717   1.214   4.820
 7526TIP3    H222459   8.671   1.333   4.738
 7527TIP3   OH222460   8.005   0.952   4.411
 7527TIP3    H122461   8.036   0.923   4.323
 7527TIP3    H222462   8.036   0.880   4.468
 7528TIP3   OH222463   8.453   1.077   3.552
 7528TIP3    H122464   8.407   1.164   3.562
 7528TIP3    H222465   8.399   1.022   3.613
 7529TIP3   OH222466   7.871   0.876   5.028
 7529TIP3    H122467   7.900   0.855   5.119
 7529TIP3    H222468   7.807   0.805   5.009
 7530TIP3   OH222469   8.607   0.991   5.052
 7530TIP3    H122470   8.530   0.946   5.011
 7530TIP3    H222471   8.681   0.958   4.997
 7531TIP3   OH222472   8.871   1.512   4.622
 7531TIP3    H122473   8.775   1.500   4.636
 7531TIP3    H222474   8.895   1.561   4.704
 7532TIP3   OH222475   8.992   1.376   3.424
 7532TIP3    H122476   8.965   1.348   3.514
 7532TIP3    H222477   8.929   1.328   3.369
 7533TIP3   OH222478   8.950   1.030   4.288
 7533TIP3    H122479   8.864   0.984   4.293
 7533TIP3    H222480   9.011   0.960   4.264
 7534TIP3   OH222481   8.100   1.253   4.037
 7534TIP3    H122482   8.100   1.334   3.982
 7534TIP3    H222483   8.006   1.232   4.040
 7535TIP3   OH222484   8.250   1.024   3.984
 7535TIP3    H122485   8.207   1.110   4.004
 7535TIP3    H222486   8.210   0.967   4.052
 7536TIP3   OH222487   8.369   1.599   4.508
 7536TIP3    H122488   8.410   1.669   4.454
 7536TIP3    H222489   8.446   1.563   4.554
 7537TIP3   OH222490   8.022   1.492   3.889
 7537TIP3    H122491   7.935   1.498   3.934
 7537TIP3    H222492   8.052   1.585   3.891
 7538TIP3   OH222493   8.765   1.234   4.460
 7538TIP3    H122494   8.762   1.225   4.557
 7538TIP3    H222495   8.838   1.175   4.435
 7539TIP3   OH222496   8.723   1.130   3.350
 7539TIP3    H122497   8.777   1.095   3.424
 7539TIP3    H222498   8.634   1.102   3.378
 7540TIP3   OH222499   8.998   1.769   4.517
 7540TIP3    H122500   8.920   1.711   4.503
 7540TIP3    H222501   8.989   1.831   4.442
 7541TIP3   OH222502   8.893   1.039   3.550
 7541TIP3    H122503   8.879   0.983   3.628
 7541TIP3    H222504   8.971   1.089   3.579
 7542TIP3   OH222505   7.809   1.464   4.667
 7542TIP3    H122506   7.857   1.383   4.688
 7542TIP3    H222507   7.844   1.524   4.733
 7543TIP3   OH222508   8.103   1.104   3.343
 7543TIP3    H122509   8.114   1.011   3.314
 7543TIP3    H222510   8.083   1.091   3.438
 7544TIP3   OH222511   8.045   1.110   3.615
 7544TIP3    H122512   8.108   1.076   3.679
 7544TIP3    H222513   8.055   1.207   3.626
 7545TIP3   OH222514   7.813   0.845   3.829
 7545TIP3    H122515   7.728   0.846   3.876
 7545TIP3    H222516   7.795   0.904   3.754
 7546TIP3   OH222517   8.313   1.309   3.567
 7546TIP3    H122518   8.226   1.336   3.603
 7546TIP3    H222519   8.326   1.379   3.501
 7547TIP3   OH222520   8.525   0.367   3.974
 7547TIP3    H122521   8.565   0.455   3.961
 7547TIP3    H222522   8.492   0.373   4.065
 7548TIP3   OH222523   8.758   0.668   4.818
 7548TIP3    H122524   8.781   0.751   4.863
 7548TIP3    H222525   8.844   0.633   4.787
 7549TIP3   OH222526   8.054   1.384   3.632
 7549TIP3    H122527   8.022   1.452   3.569
 7549TIP3    H222528   8.036   1.427   3.718
 7550TIP3   OH222529   7.768   1.024   3.619
 7550TIP3    H122530   7.836   1.092   3.632
 7550TIP3    H222531   7.817   0.965   3.558
 7551TIP3   OH222532   9.043   1.744   4.117
 7551TIP3    H122533   9.004   1.794   4.041
 7551TIP3    H222534   9.121   1.700   4.076
 7552TIP3   OH222535   7.652   1.241   4.023
 7552TIP3    H122536   7.566   1.261   4.062
 7552TIP3    H222537   7.635   1.267   3.930
 7553TIP3   OH222538   7.796   1.763   5.087
 7553TIP3    H122539   7.883   1.760   5.131
 7553TIP3    H222540   7.775   1.669   5.083
 7554TIP3   OH222541   8.287   1.738   5.129
 7554TIP3    H122542   8.380   1.713   5.136
 7554TIP3    H222543   8.259   1.681   5.054
 7555TIP3   OH222544   8.264   1.310   3.261
 7555TIP3    H122545   8.205   1.240   3.298
 7555TIP3    H222546   8.338   1.254   3.230
 7556TIP3   OH222547   8.918   1.641   4.865
 7556TIP3    H122548   8.908   1.569   4.931
 7556TIP3    H222549   8.997   1.688   4.896
 7557TIP3   OH222550   8.708   1.353   3.180
 7557TIP3    H122551   8.735   1.268   3.221
 7557TIP3    H222552   8.743   1.348   3.089
 7558TIP3   OH222553   7.930   1.173   5.287
 7558TIP3    H122554   7.947   1.077   5.289
 7558TIP3    H222555   7.842   1.176   5.243
 7559TIP3   OH222556   7.904   0.831   3.473
 7559TIP3    H122557   7.944   0.787   3.550
 7559TIP3    H222558   7.980   0.832   3.411
 7560TIP3   OH222559   8.539   1.259   5.059
 7560TIP3    H122560   8.495   1.269   4.972
 7560TIP3    H222561   8.570   1.166   5.057
 7561TIP3   OH222562   8.415   1.026   3.283
 7561TIP3    H122563   8.414   1.038   3.380
 7561TIP3    H222564   8.410   0.928   3.278
 7562TIP3   OH222565   9.042   1.269   4.666
 7562TIP3    H122566   9.084   1.311   4.590
 7562TIP3    H222567   8.955   1.312   4.664
 7563TIP3   OH222568   8.049   0.897   5.269
 7563TIP3    H122569   8.130   0.849   5.247
 7563TIP3    H222570   8.073   0.934   5.357
 7564TIP3   OH222571   8.128   0.725   3.708
 7564TIP3    H122572   8.074   0.689   3.780
 7564TIP3    H222573   8.153   0.643   3.659
 7565TIP3   OH222574   8.386   0.880   4.941
 7565TIP3    H122575   8.292   0.907   4.934
 7565TIP3    H222576   8.410   0.862   4.848
 7566TIP3   OH222577   8.221   0.518   3.549
 7566TIP3    H122578   8.185   0.518   3.458
 7566TIP3    H222579   8.316   0.535   3.532
 7567TIP3   OH222580   8.903   1.200   5.070
 7567TIP3    H122581   8.978   1.176   5.014
 7567TIP3    H222582   8.900   1.127   5.134
 7568TIP3   OH222583   8.418   0.616   4.926
 7568TIP3    H122584   8.474   0.579   4.996
 7568TIP3    H222585   8.428   0.711   4.944
 7569TIP3   OH222586   8.571   0.915   4.721
 7569TIP3    H122587   8.631   0.915   4.645
 7569TIP3    H222588   8.500   0.974   4.690
 7570TIP3   OH222589   9.136   0.882   5.133
 7570TIP3    H122590   9.162   0.794   5.103
 7570TIP3    H222591   9.198   0.941   5.088
 7571TIP3   OH222592   9.174   1.133   4.856
 7571TIP3    H122593   9.112   1.185   4.800
 7571TIP3    H222594   9.251   1.133   4.798
 7572TIP3   OH222595   8.356   0.719   5.284
 7572TIP3    H122596   8.291   0.647   5.274
 7572TIP3    H222597   8.427   0.691   5.223
 7573TIP3   OH222598   8.874   0.719   5.177
 7573TIP3    H122599   8.838   0.683   5.261
 7573TIP3    H222600   8.886   0.637   5.125
 7574TIP3   OH222601   8.021   1.588   3.446
 7574TIP3    H122602   8.117   1.585   3.426
 7574TIP3    H222603   7.989   1.631   3.365
 7575TIP3   OH222604   7.502   0.967   3.662
 7575TIP3    H122605   7.597   0.992   3.647
 7575TIP3    H222606   7.500   0.877   3.623
 7576TIP3   OH222607   7.414   1.580   4.073
 7576TIP3    H122608   7.347   1.517   4.040
 7576TIP3    H222609   7.459   1.525   4.141
 7577TIP3   OH222610   7.549   1.440   4.263
 7577TIP3    H122611   7.543   1.358   4.314
 7577TIP3    H222612   7.603   1.495   4.323
 7578TIP3   OH222613   9.163   1.555   4.393
 7578TIP3    H122614   9.092   1.615   4.423
 7578TIP3    H222615   9.121   1.510   4.317
 7579TIP3   OH222616   7.741   0.836   4.634
 7579TIP3    H122617   7.741   0.809   4.540
 7579TIP3    H222618   7.838   0.841   4.650
 7580TIP3   OH222619   7.735   0.496   4.719
 7580TIP3    H122620   7.778   0.479   4.632
 7580TIP3    H222621   7.761   0.588   4.731
 7581TIP3   OH222622   8.846   1.711   3.747
 7581TIP3    H122623   8.884   1.684   3.660
 7581TIP3    H222624   8.917   1.768   3.781
 7582TIP3   OH222625   7.966   1.503   5.109
 7582TIP3    H122626   7.876   1.470   5.087
 7582TIP3    H222627   7.972   1.481   5.203
 7583TIP3   OH222628   8.141   1.532   4.655
 7583TIP3    H122629   8.093   1.606   4.614
 7583TIP3    H222630   8.228   1.545   4.611
 7584TIP3   OH222631   8.592   1.780   4.793
 7584TIP3    H122632   8.635   1.782   4.881
 7584TIP3    H222633   8.657   1.828   4.738
 7585TIP3   OH222634   8.769   1.928   4.647
 7585TIP3    H122635   8.839   1.877   4.603
 7585TIP3    H222636   8.822   1.985   4.707
 7586TIP3   OH222637   7.822   1.794   4.674
 7586TIP3    H122638   7.734   1.829   4.649
 7586TIP3    H222639   7.824   1.815   4.768
 7587TIP3   OH222640   8.059   1.771   4.533
 7587TIP3    H122641   7.972   1.784   4.578
 7587TIP3    H222642   8.038   1.802   4.443
 7588TIP3   OH222643   8.483   1.801   4.330
 7588TIP3    H122644   8.414   1.822   4.265
 7588TIP3    H222645   8.496   1.889   4.373
 7589TIP3   OH222646   8.749   1.741   4.383
 7589TIP3    H122647   8.656   1.757   4.360
 7589TIP3    H222648   8.793   1.817   4.341
 7590TIP3   OH222649   8.957   1.930   4.303
 7590TIP3    H122650   8.942   2.015   4.257
 7590TIP3    H222651   8.989   1.872   4.231
 7591TIP3   OH222652   7.733   1.586   4.424
 7591TIP3    H122653   7.760   1.561   4.514
 7591TIP3    H222654   7.803   1.541   4.372
 7592TIP3   OH222655   7.923   1.456   4.277
 7592TIP3    H122656   7.941   1.371   4.323
 7592TIP3    H222657   8.014   1.493   4.270
 7593TIP3   OH222658   8.191   1.554   4.276
 7593TIP3    H122659   8.222   1.462   4.262
 7593TIP3    H222660   8.231   1.571   4.363
 7594TIP3   OH222661   7.520   1.352   3.815
 7594TIP3    H122662   7.436   1.318   3.779
 7594TIP3    H222663   7.505   1.447   3.802
 7595TIP3   OH222664   8.291   1.551   3.393
 7595TIP3    H122665   8.380   1.570   3.358
 7595TIP3    H222666   8.268   1.474   3.335
 7596TIP3   OH222667   8.947   1.638   3.513
 7596TIP3    H122668   8.980   1.553   3.479
 7596TIP3    H222669   8.920   1.683   3.431
 7597TIP3   OH222670   7.597   1.388   3.454
 7597TIP3    H122671   7.593   1.410   3.548
 7597TIP3    H222672   7.685   1.344   3.446
 7598TIP3   OH222673   9.208   1.813   4.689
 7598TIP3    H122674   9.146   1.770   4.627
 7598TIP3    H222675   9.181   1.907   4.674
 7599TIP3   OH222676   1.160   1.712   5.646
 7599TIP3    H122677   1.132   1.804   5.628
 7599TIP3    H222678   1.081   1.663   5.616
 7600TIP3   OH222679   1.154   1.712   6.024
 7600TIP3    H122680   1.185   1.680   6.110
 7600TIP3    H222681   1.114   1.632   5.986
 7601TIP3   OH222682   0.496   1.643   6.397
 7601TIP3    H122683   0.530   1.564   6.441
 7601TIP3    H222684   0.577   1.690   6.373
 7602TIP3   OH222685   1.396   2.013   5.706
 7602TIP3    H122686   1.391   1.940   5.769
 7602TIP3    H222687   1.432   2.085   5.761
 7603TIP3   OH222688   0.433   2.013   6.130
 7603TIP3    H122689   0.420   1.916   6.127
 7603TIP3    H222690   0.528   2.019   6.109
 7604TIP3   OH222691   1.054   2.471   5.727
 7604TIP3    H122692   1.099   2.410   5.664
 7604TIP3    H222693   1.047   2.413   5.803
 7605TIP3   OH222694   0.958   1.937   6.074
 7605TIP3    H122695   0.990   1.859   6.025
 7605TIP3    H222696   1.044   1.977   6.096
 7606TIP3   OH222697   1.968   1.258   6.069
 7606TIP3    H122698   1.995   1.339   6.117
 7606TIP3    H222699   1.987   1.284   5.977
 7607TIP3   OH222700   1.370   1.442   6.108
 7607TIP3    H122701   1.413   1.356   6.128
 7607TIP3    H222702   1.339   1.426   6.017
 7608TIP3   OH222703   1.398   1.187   5.697
 7608TIP3    H122704   1.471   1.171   5.762
 7608TIP3    H222705   1.449   1.225   5.623
 7609TIP3   OH222706   0.795   1.509   5.971
 7609TIP3    H122707   0.886   1.477   5.988
 7609TIP3    H222708   0.753   1.424   5.942
 7610TIP3   OH222709   2.041   1.462   6.241
 7610TIP3    H122710   1.958   1.512   6.223
 7610TIP3    H222711   2.060   1.492   6.332
 7611TIP3   OH222712   1.057   1.935   5.515
 7611TIP3    H122713   1.008   1.905   5.437
 7611TIP3    H222714   1.011   2.019   5.535
 7612TIP3   OH222715   0.811   1.855   6.306
 7612TIP3    H122716   0.747   1.919   6.344
 7612TIP3    H222717   0.853   1.908   6.235
 7613TIP3   OH222718   1.613   1.189   5.863
 7613TIP3    H122719   1.613   1.134   5.942
 7613TIP3    H222720   1.668   1.264   5.891
 7614TIP3   OH222721   0.635   2.045   6.403
 7614TIP3    H122722   0.604   2.126   6.357
 7614TIP3    H222723   0.554   2.026   6.455
 7615TIP3   OH222724   0.077   1.752   5.619
 7615TIP3    H122725  -0.004   1.768   5.570
 7615TIP3    H222726   0.075   1.825   5.684
 7616TIP3   OH222727   1.465   2.251   5.877
 7616TIP3    H122728   1.375   2.251   5.914
 7616TIP3    H222729   1.467   2.338   5.832
 7617TIP3   OH222730   1.760   1.166   6.238
 7617TIP3    H122731   1.673   1.194   6.205
 7617TIP3    H222732   1.819   1.191   6.164
 7618TIP3   OH222733   1.179   2.305   5.552
 7618TIP3    H122734   1.227   2.221   5.531
 7618TIP3    H222735   1.240   2.368   5.508
 7619TIP3   OH222736   1.319   2.089   5.452
 7619TIP3    H122737   1.275   2.011   5.415
 7619TIP3    H222738   1.351   2.053   5.538
 7620TIP3   OH222739   1.676   2.175   6.217
 7620TIP3    H122740   1.699   2.093   6.171
 7620TIP3    H222741   1.709   2.244   6.157
 7621TIP3   OH222742   0.990   1.563   5.473
 7621TIP3    H122743   0.908   1.613   5.451
 7621TIP3    H222744   1.035   1.560   5.387
 7622TIP3   OH222745   0.948   1.344   5.199
 7622TIP3    H122746   1.018   1.394   5.244
 7622TIP3    H222747   1.003   1.282   5.147
 7623TIP3   OH222748   1.895   1.799   6.059
 7623TIP3    H122749   1.814   1.854   6.071
 7623TIP3    H222750   1.924   1.829   5.971
 7624TIP3   OH222751   1.337   1.645   5.448
 7624TIP3    H122752   1.282   1.670   5.526
 7624TIP3    H222753   1.420   1.618   5.493
 7625TIP3   OH222754   1.573   1.686   6.356
 7625TIP3    H122755   1.575   1.771   6.403
 7625TIP3    H222756   1.486   1.693   6.311
 7626TIP3   OH222757   0.580   1.658   5.874
 7626TIP3    H122758   0.535   1.606   5.804
 7626TIP3    H222759   0.654   1.600   5.898
 7627TIP3   OH222760   0.697   2.050   6.018
 7627TIP3    H122761   0.674   2.011   5.932
 7627TIP3    H222762   0.789   2.019   6.030
 7628TIP3   OH222763   0.699   1.629   6.196
 7628TIP3    H122764   0.740   1.600   6.111
 7628TIP3    H222765   0.754   1.706   6.221
 7629TIP3   OH222766   1.222   2.266   6.014
 7629TIP3    H122767   1.240   2.302   6.102
 7629TIP3    H222768   1.214   2.171   6.037
 7630TIP3   OH222769   0.843   2.174   6.539
 7630TIP3    H122770   0.784   2.235   6.588
 7630TIP3    H222771   0.776   2.118   6.493
 7631TIP3   OH222772   1.181   1.502   5.273
 7631TIP3    H122773   1.238   1.562   5.327
 7631TIP3    H222774   1.207   1.528   5.182
 7632TIP3   OH222775   0.600   1.740   6.641
 7632TIP3    H122776   0.593   1.826   6.687
 7632TIP3    H222777   0.510   1.727   6.608
 7633TIP3   OH222778   0.919   2.185   5.546
 7633TIP3    H122779   0.993   2.242   5.573
 7633TIP3    H222780   0.854   2.247   5.512
 7634TIP3   OH222781   0.637   2.341   6.629
 7634TIP3    H122782   0.600   2.339   6.539
 7634TIP3    H222783   0.560   2.319   6.684
 7635TIP3   OH222784   1.693   0.746   5.319
 7635TIP3    H122785   1.613   0.763   5.372
 7635TIP3    H222786   1.704   0.831   5.272
 7636TIP3   OH222787   0.471   1.515   5.667
 7636TIP3    H122788   0.398   1.561   5.620
 7636TIP3    H222789   0.428   1.429   5.683
 7637TIP3   OH222790   1.490   2.114   4.866
 7637TIP3    H122791   1.500   2.211   4.855
 7637TIP3    H222792   1.583   2.084   4.856
 7638TIP3   OH222793   0.058   2.068   6.204
 7638TIP3    H122794   0.150   2.041   6.193
 7638TIP3    H222795   0.072   2.152   6.251
 7639TIP3   OH222796   1.932   2.510   6.256
 7639TIP3    H122797   1.934   2.414   6.270
 7639TIP3    H222798   1.853   2.534   6.309
 7640TIP3   OH222799   1.052   2.299   6.406
 7640TIP3    H122800   1.047   2.392   6.434
 7640TIP3    H222801   0.972   2.261   6.450
 7641TIP3   OH222802   0.803   2.432   5.349
 7641TIP3    H122803   0.753   2.412   5.267
 7641TIP3    H222804   0.768   2.520   5.374
 7642TIP3   OH222805   0.236   2.284   5.727
 7642TIP3    H122806   0.292   2.267   5.806
 7642TIP3    H222807   0.166   2.220   5.744
 7643TIP3   OH222808   1.004   2.331   4.991
 7643TIP3    H122809   1.064   2.261   4.956
 7643TIP3    H222810   1.036   2.339   5.083
 7644TIP3   OH222811   1.053   2.377   5.261
 7644TIP3    H122812   0.964   2.389   5.303
 7644TIP3    H222813   1.101   2.333   5.333
 7645TIP3   OH222814   1.829   1.645   6.541
 7645TIP3    H122815   1.754   1.666   6.484
 7645TIP3    H222816   1.841   1.549   6.525
 7646TIP3   OH222817   0.417   2.038   6.569
 7646TIP3    H122818   0.476   2.040   6.647
 7646TIP3    H222819   0.340   1.989   6.603
 7647TIP3   OH222820   1.343   0.988   6.553
 7647TIP3    H122821   1.430   0.966   6.594
 7647TIP3    H222822   1.287   0.993   6.631
 7648TIP3   OH222823   1.595   1.419   6.457
 7648TIP3    H122824   1.548   1.416   6.543
 7648TIP3    H222825   1.575   1.509   6.425
 7649TIP3   OH222826   1.255   1.554   5.018
 7649TIP3    H122827   1.221   1.526   4.931
 7649TIP3    H222828   1.333   1.607   4.992
 7650TIP3   OH222829   0.961   0.931   5.326
 7650TIP3    H122830   0.927   0.941   5.417
 7650TIP3    H222831   0.948   0.836   5.314
 7651TIP3   OH222832   0.805   1.436   6.358
 7651TIP3    H122833   0.726   1.408   6.406
 7651TIP3    H222834   0.766   1.494   6.289
 7652TIP3   OH222835   0.672   1.284   5.887
 7652TIP3    H122836   0.586   1.246   5.910
 7652TIP3    H222837   0.682   1.248   5.796
 7653TIP3   OH222838   1.134   1.371   5.606
 7653TIP3    H122839   1.076   1.439   5.567
 7653TIP3    H222840   1.183   1.339   5.528
 7654TIP3   OH222841   1.303   1.650   6.698
 7654TIP3    H122842   1.287   1.573   6.757
 7654TIP3    H222843   1.398   1.664   6.713
 7655TIP3   OH222844   1.287   1.395   5.848
 7655TIP3    H122845   1.229   1.425   5.776
 7655TIP3    H222846   1.318   1.311   5.807
 7656TIP3   OH222847   1.294   1.643   6.270
 7656TIP3    H122848   1.328   1.570   6.214
 7656TIP3    H222849   1.268   1.592   6.350
 7657TIP3   OH222850   0.971   1.117   5.938
 7657TIP3    H122851   0.882   1.113   5.977
 7657TIP3    H222852   1.028   1.111   6.016
 7658TIP3   OH222853   0.671   1.180   5.638
 7658TIP3    H122854   0.766   1.171   5.618
 7658TIP3    H222855   0.629   1.172   5.550
 7659TIP3   OH222856   1.455   1.178   6.143
 7659TIP3    H122857   1.421   1.189   6.234
 7659TIP3    H222858   1.393   1.112   6.108
 7660TIP3   OH222859   0.512   1.163   5.407
 7660TIP3    H122860   0.429   1.151   5.359
 7660TIP3    H222861   0.565   1.213   5.341
 7661TIP3   OH222862   1.621   2.867   6.361
 7661TIP3    H122863   1.621   2.890   6.266
 7661TIP3    H222864   1.697   2.918   6.394
 7662TIP3   OH222865   0.589   1.985   6.784
 7662TIP3    H122866   0.677   2.019   6.810
 7662TIP3    H222867   0.556   1.965   6.872
 7663TIP3   OH222868   1.053   1.431   6.042
 7663TIP3    H122869   1.119   1.385   5.989
 7663TIP3    H222870   1.063   1.389   6.130
 7664TIP3   OH222871   1.036   1.311   6.317
 7664TIP3    H122872   0.953   1.358   6.339
 7664TIP3    H222873   1.099   1.356   6.376
 7665TIP3   OH222874   0.761   1.717   5.425
 7665TIP3    H122875   0.688   1.653   5.414
 7665TIP3    H222876   0.744   1.750   5.517
 7666TIP3   OH222877   1.668   1.948   6.055
 7666TIP3    H122878   1.689   2.000   5.974
 7666TIP3    H222879   1.579   1.912   6.034
 7667TIP3   OH222880   1.215   1.032   5.279
 7667TIP3    H122881   1.119   1.019   5.290
 7667TIP3    H222882   1.230   1.125   5.306
 7668TIP3   OH222883   1.164   2.037   6.418
 7668TIP3    H122884   1.184   2.005   6.507
 7668TIP3    H222885   1.121   2.123   6.435
 7669TIP3   OH222886   1.291   1.273   5.385
 7669TIP3    H122887   1.387   1.280   5.404
 7669TIP3    H222888   1.273   1.354   5.334
 7670TIP3   OH222889   0.446   1.732   6.105
 7670TIP3    H122890   0.481   1.709   6.017
 7670TIP3    H222891   0.513   1.692   6.163
 7671TIP3   OH222892   0.906   1.866   5.243
 7671TIP3    H122893   0.859   1.953   5.252
 7671TIP3    H222894   0.852   1.810   5.303
 7672TIP3   OH222895   1.056   1.768   6.734
 7672TIP3    H122896   1.004   1.715   6.671
 7672TIP3    H222897   1.147   1.739   6.709
 7673TIP3   OH222898   1.309   2.324   6.297
 7673TIP3    H122899   1.223   2.294   6.332
 7673TIP3    H222900   1.350   2.355   6.380
 7674TIP3   OH222901   1.734   1.361   5.225
 7674TIP3    H122902   1.671   1.316   5.164
 7674TIP3    H222903   1.731   1.450   5.185
 7675TIP3   OH222904   1.431   2.184   5.132
 7675TIP3    H122905   1.407   2.116   5.196
 7675TIP3    H222906   1.442   2.134   5.049
 7676TIP3   OH222907   1.424   1.815   5.975
 7676TIP3    H122908   1.332   1.785   5.987
 7676TIP3    H222909   1.462   1.737   5.931
 7677TIP3   OH222910   0.553   2.039   5.722
 7677TIP3    H122911   0.554   2.124   5.674
 7677TIP3    H222912   0.459   2.031   5.742
 7678TIP3   OH222913   0.699   1.811   5.671
 7678TIP3    H122914   0.659   1.898   5.689
 7678TIP3    H222915   0.665   1.759   5.746
 7679TIP3   OH222916   0.475   2.278   5.578
 7679TIP3    H122917   0.389   2.286   5.623
 7679TIP3    H222918   0.506   2.372   5.581
 7680TIP3   OH222919   1.219   2.021   6.148
 7680TIP3    H122920   1.208   2.017   6.246
 7680TIP3    H222921   1.297   1.965   6.136
 7681TIP3   OH222922   1.183   1.910   5.035
 7681TIP3    H122923   1.235   1.886   5.114
 7681TIP3    H222924   1.094   1.885   5.065
 7682TIP3   OH222925   1.456   2.566   6.218
 7682TIP3    H122926   1.400   2.488   6.207
 7682TIP3    H222927   1.442   2.617   6.135
 7683TIP3   OH222928   1.526   2.389   4.856
 7683TIP3    H122929   1.565   2.463   4.806
 7683TIP3    H222930   1.445   2.434   4.889
 7684TIP3   OH222931   1.344   1.846   5.252
 7684TIP3    H122932   1.333   1.780   5.324
 7684TIP3    H222933   1.441   1.844   5.242
 7685TIP3   OH222934   0.249   2.237   6.385
 7685TIP3    H122935   0.324   2.177   6.395
 7685TIP3    H222936   0.285   2.322   6.415
 7686TIP3   OH222937   0.553   1.893   5.034
 7686TIP3    H122938   0.568   1.802   5.003
 7686TIP3    H222939   0.536   1.880   5.129
 7687TIP3   OH222940   0.499   1.896   5.307
 7687TIP3    H122941   0.566   1.869   5.371
 7687TIP3    H222942   0.503   1.994   5.313
 7688TIP3   OH222943   0.249   1.578   5.513
 7688TIP3    H122944   0.186   1.631   5.568
 7688TIP3    H222945   0.265   1.645   5.443
 7689TIP3   OH222946   1.380   1.224   6.403
 7689TIP3    H122947   1.460   1.267   6.438
 7689TIP3    H222948   1.368   1.147   6.461
 7690TIP3   OH222949   1.264   0.985   5.559
 7690TIP3    H122950   1.249   1.011   5.467
 7690TIP3    H222951   1.301   1.066   5.599
 7691TIP3   OH222952   0.763   2.096   5.256
 7691TIP3    H122953   0.677   2.124   5.293
 7691TIP3    H222954   0.779   2.167   5.192
 7692TIP3   OH222955   0.958   1.172   5.674
 7692TIP3    H122956   1.024   1.242   5.657
 7692TIP3    H222957   0.961   1.166   5.772
 7693TIP3   OH222958   1.226   1.481   6.477
 7693TIP3    H122959   1.235   1.534   6.558
 7693TIP3    H222960   1.281   1.404   6.496
 7694TIP3   OH222961   1.109   0.890   5.769
 7694TIP3    H122962   1.084   0.964   5.826
 7694TIP3    H222963   1.165   0.934   5.702
 7695TIP3   OH222964   0.504   2.170   5.322
 7695TIP3    H122965   0.473   2.240   5.259
 7695TIP3    H222966   0.488   2.213   5.409
 7696TIP3   OH222967   1.863   1.378   6.458
 7696TIP3    H122968   1.765   1.374   6.464
 7696TIP3    H222969   1.876   1.341   6.370
 7697TIP3   OH222970   1.513   1.574   5.845
 7697TIP3    H122971   1.438   1.514   5.859
 7697TIP3    H222972   1.586   1.528   5.893
 7698TIP3   OH222973   0.219   1.807   5.311
 7698TIP3    H122974   0.280   1.881   5.329
 7698TIP3    H222975   0.273   1.757   5.247
 7699TIP3   OH222976   1.478   2.522   5.795
 7699TIP3    H122977   1.439   2.572   5.720
 7699TIP3    H222978   1.573   2.542   5.779
 7700TIP3   OH222979   0.095   2.016   5.729
 7700TIP3    H122980   0.010   2.057   5.747
 7700TIP3    H222981   0.107   2.043   5.636
 7701TIP3   OH222982   0.266   2.560   6.762
 7701TIP3    H122983   0.343   2.560   6.822
 7701TIP3    H222984   0.231   2.471   6.772
 7702TIP3   OH222985   0.737   2.526   6.820
 7702TIP3    H122986   0.831   2.505   6.830
 7702TIP3    H222987   0.713   2.468   6.745
 7703TIP3   OH222988   0.717   2.098   4.950
 7703TIP3    H122989   0.658   2.028   4.988
 7703TIP3    H222990   0.791   2.043   4.919
 7704TIP3   OH222991   1.375   2.423   6.550
 7704TIP3    H122992   1.366   2.355   6.621
 7704TIP3    H222993   1.453   2.474   6.579
 7705TIP3   OH222994   1.154   2.141   4.858
 7705TIP3    H122995   1.198   2.076   4.917
 7705TIP3    H222996   1.212   2.141   4.779
 7706TIP3   OH222997   0.362   1.613   5.166
 7706TIP3    H122998   0.416   1.582   5.241
 7706TIP3    H222999   0.431   1.617   5.096
 7707TIP3   OH223000   0.989   2.043   6.749
 7707TIP3    H123001   0.953   2.057   6.659
 7707TIP3    H223002   1.024   1.952   6.744
 7708TIP3   OH223003   0.865   1.813   4.973
 7708TIP3    H123004   0.868   1.826   5.070
 7708TIP3    H223005   0.864   1.715   4.968
 7709TIP3   OH223006   1.481   2.046   6.355
 7709TIP3    H123007   1.557   2.090   6.310
 7709TIP3    H223008   1.411   2.112   6.341
 7710TIP3   OH223009   0.567   1.517   5.387
 7710TIP3    H123010   0.549   1.483   5.476
 7710TIP3    H223011   0.605   1.439   5.342
 7711TIP3   OH223012   0.822   1.579   6.620
 7711TIP3    H123013   0.757   1.652   6.622
 7711TIP3    H223014   0.875   1.598   6.540
 7712TIP3   OH223015   0.666   1.305   5.231
 7712TIP3    H123016   0.641   1.309   5.136
 7712TIP3    H223017   0.763   1.316   5.225
 7713TIP3   OH223018   1.354   1.984   6.754
 7713TIP3    H123019   1.434   1.966   6.704
 7713TIP3    H223020   1.356   1.914   6.822
 7714TIP3   OH223021   1.495   1.644   4.889
 7714TIP3    H123022   1.469   1.595   4.809
 7714TIP3    H223023   1.461   1.734   4.865
 7715TIP3   OH223024   0.996   1.383   6.732
 7715TIP3    H123025   0.949   1.308   6.692
 7715TIP3    H223026   0.932   1.454   6.712
 7716TIP3   OH223027   0.997   1.701   6.438
 7716TIP3    H123028   1.071   1.688   6.377
 7716TIP3    H223029   0.940   1.762   6.387
 7717TIP3   OH223030   1.574   1.661   6.807
 7717TIP3    H123031   1.624   1.578   6.820
 7717TIP3    H223032   1.643   1.720   6.774
 7718TIP3   OH223033   1.620   1.911   6.542
 7718TIP3    H123034   1.561   1.963   6.482
 7718TIP3    H223035   1.706   1.930   6.498
 7719TIP3   OH223036   1.242   1.428   6.839
 7719TIP3    H123037   1.234   1.427   6.936
 7719TIP3    H223038   1.151   1.411   6.808
 7720TIP3   OH223039   1.462   1.370   6.687
 7720TIP3    H123040   1.389   1.379   6.751
 7720TIP3    H223041   1.537   1.342   6.744
 7721TIP3   OH223042   1.687   1.312   6.840
 7721TIP3    H123043   1.701   1.217   6.861
 7721TIP3    H223044   1.684   1.354   6.928
 7722TIP3   OH223045   0.473   2.373   5.134
 7722TIP3    H123046   0.569   2.372   5.115
 7722TIP3    H223047   0.441   2.419   5.054
 7723TIP3   OH223048  -0.043   1.728   5.364
 7723TIP3    H123049   0.044   1.773   5.357
 7723TIP3    H223050  -0.019   1.639   5.332
 7724TIP3   OH223051  -0.130   2.355   5.747
 7724TIP3    H123052  -0.219   2.323   5.757
 7724TIP3    H223053  -0.085   2.316   5.825
 7725TIP3   OH223054  -0.004   2.229   5.950
 7725TIP3    H123055   0.004   2.149   6.004
 7725TIP3    H223056   0.054   2.288   6.002
 7726TIP3   OH223057   1.728   2.622   5.750
 7726TIP3    H123058   1.755   2.653   5.839
 7726TIP3    H223059   1.790   2.669   5.693
 7727TIP3   OH223060   1.766   2.642   6.029
 7727TIP3    H123061   1.722   2.554   6.025
 7727TIP3    H223062   1.837   2.622   6.091
 7728TIP3   OH223063   1.782   2.326   6.596
 7728TIP3    H123064   1.728   2.329   6.676
 7728TIP3    H223065   1.846   2.398   6.609
 7729TIP3   OH223066   1.625   1.831   5.227
 7729TIP3    H123067   1.696   1.893   5.202
 7729TIP3    H223068   1.664   1.789   5.307
 7730TIP3   OH223069   1.751   1.698   5.429
 7730TIP3    H123070   1.686   1.655   5.489
 7730TIP3    H223071   1.816   1.737   5.492
 7731TIP3   OH223072   1.797   2.085   5.857
 7731TIP3    H123073   1.859   2.025   5.811
 7731TIP3    H223074   1.793   2.162   5.798
 7732TIP3   OH223075   1.645   2.397   6.047
 7732TIP3    H123076   1.583   2.412   6.120
 7732TIP3    H223077   1.595   2.335   5.990
 7733TIP3   OH223078   1.692   1.605   5.078
 7733TIP3    H123079   1.620   1.608   5.010
 7733TIP3    H223080   1.664   1.680   5.134
 7734TIP3   OH223081   1.564   1.277   5.031
 7734TIP3    H123082   1.519   1.318   4.957
 7734TIP3    H223083   1.535   1.184   5.022
 7735TIP3   OH223084   1.568   1.551   5.578
 7735TIP3    H123085   1.576   1.455   5.575
 7735TIP3    H223086   1.555   1.568   5.675
 7736TIP3   OH223087   1.852   1.970   6.414
 7736TIP3    H123088   1.934   1.920   6.431
 7736TIP3    H223089   1.887   2.061   6.408
 7737TIP3   OH223090   2.048   1.786   6.463
 7737TIP3    H123091   1.971   1.737   6.496
 7737TIP3    H223092   2.116   1.716   6.467
 7738TIP3   OH223093   1.506   1.012   5.020
 7738TIP3    H123094   1.582   0.983   5.074
 7738TIP3    H223095   1.433   0.954   5.047
 7739TIP3   OH223096   1.562   1.267   5.475
 7739TIP3    H123097   1.601   1.178   5.491
 7739TIP3    H223098   1.622   1.300   5.406
 7740TIP3   OH223099   1.726   1.447   5.967
 7740TIP3    H123100   1.813   1.473   5.929
 7740TIP3    H223101   1.738   1.482   6.058
 7741TIP3   OH223102   1.791   1.586   6.202
 7741TIP3    H123103   1.713   1.621   6.249
 7741TIP3    H223104   1.825   1.666   6.157
 7742TIP3   OH223105   2.251   1.177   6.759
 7742TIP3    H123106   2.304   1.110   6.712
 7742TIP3    H223107   2.217   1.232   6.685
 7743TIP3   OH223108   1.672   1.017   5.509
 7743TIP3    H123109   1.721   1.002   5.593
 7743TIP3    H223110   1.612   0.940   5.509
 7744TIP3   OH223111   2.117   1.316   6.569
 7744TIP3    H123112   2.030   1.357   6.588
 7744TIP3    H223113   2.090   1.248   6.504
 7745TIP3   OH223114   1.755   0.958   5.140
 7745TIP3    H123115   1.796   0.882   5.092
 7745TIP3    H223116   1.824   1.027   5.132
 7746TIP3   OH223117   1.316   2.484   5.408
 7746TIP3    H123118   1.370   2.468   5.327
 7746TIP3    H223119   1.369   2.551   5.455
 7747TIP3   OH223120   0.417   2.273   6.801
 7747TIP3    H123121   0.330   2.234   6.783
 7747TIP3    H223122   0.417   2.286   6.896
 7748TIP3   OH223123   0.580   2.319   6.348
 7748TIP3    H123124   0.520   2.384   6.308
 7748TIP3    H223125   0.662   2.336   6.300
 7749TIP3   OH223126   1.045   2.571   6.478
 7749TIP3    H123127   1.082   2.567   6.569
 7749TIP3    H223128   1.118   2.616   6.431
 7750TIP3   OH223129   1.233   2.708   6.332
 7750TIP3    H123130   1.314   2.664   6.300
 7750TIP3    H223131   1.274   2.771   6.396
 7751TIP3   OH223132   2.015   1.082   6.439
 7751TIP3    H123133   1.922   1.077   6.409
 7751TIP3    H223134   2.044   0.988   6.427
 7752TIP3   OH223135   0.275   2.545   6.392
 7752TIP3    H123136   0.224   2.595   6.326
 7752TIP3    H223137   0.268   2.606   6.467
 7753TIP3   OH223138   1.416   2.717   5.992
 7753TIP3    H123139   1.400   2.802   5.945
 7753TIP3    H223140   1.437   2.657   5.917
 7754TIP3   OH223141   0.174   2.350   6.115
 7754TIP3    H123142   0.204   2.363   6.206
 7754TIP3    H223143   0.247   2.390   6.064
 7755TIP3   OH223144   0.390   2.222   5.937
 7755TIP3    H123145   0.399   2.163   6.014
 7755TIP3    H223146   0.435   2.304   5.963
 7756TIP3   OH223147   0.700   2.341   5.960
 7756TIP3    H123148   0.681   2.246   5.954
 7756TIP3    H223149   0.626   2.375   6.014
 7757TIP3   OH223150   1.226   0.992   6.060
 7757TIP3    H123151   1.179   0.908   6.073
 7757TIP3    H223152   1.299   0.964   6.002
 7758TIP3   OH223153   1.741   0.885   5.962
 7758TIP3    H123154   1.778   0.927   5.882
 7758TIP3    H223155   1.646   0.899   5.951
 7759TIP3   OH223156   1.840   0.982   5.724
 7759TIP3    H123157   1.912   0.928   5.687
 7759TIP3    H223158   1.875   1.073   5.710
 7760TIP3   OH223159   1.455   0.881   5.938
 7760TIP3    H123160   1.461   0.846   5.849
 7760TIP3    H223161   1.446   0.799   5.992
 7761TIP3   OH223162   1.488   0.805   5.495
 7761TIP3    H123163   1.401   0.847   5.509
 7761TIP3    H223164   1.476   0.722   5.547
 7762TIP3   OH223165  -0.037   2.141   5.513
 7762TIP3    H123166  -0.100   2.107   5.448
 7762TIP3    H223167  -0.045   2.237   5.497
 7763TIP3   OH223168   0.871   0.934   5.586
 7763TIP3    H123169   0.928   0.874   5.636
 7763TIP3    H223170   0.904   1.021   5.619
 7764TIP3   OH223171   0.743   2.338   5.082
 7764TIP3    H123172   0.833   2.358   5.048
 7764TIP3    H223173   0.722   2.261   5.025
 7765TIP3   OH223174   1.463   2.451   5.175
 7765TIP3    H123175   1.454   2.353   5.164
 7765TIP3    H223176   1.416   2.483   5.096
 7766TIP3   OH223177   0.048   2.170   5.145
 7766TIP3    H123178   0.046   2.209   5.234
 7766TIP3    H223179   0.139   2.134   5.138
 7767TIP3   OH223180   1.747   1.042   6.875
 7767TIP3    H123181   1.771   1.011   6.965
 7767TIP3    H223182   1.832   1.036   6.828
 7768TIP3   OH223183   1.692   2.601   6.367
 7768TIP3    H123184   1.611   2.568   6.324
 7768TIP3    H223185   1.673   2.697   6.366
 7769TIP3   OH223186   2.956   1.966   5.133
 7769TIP3    H123187   2.931   2.060   5.117
 7769TIP3    H223188   2.875   1.921   5.103
 7770TIP3   OH223189   2.955   1.965   5.507
 7770TIP3    H123190   2.982   1.938   5.596
 7770TIP3    H223191   2.909   1.886   5.475
 7771TIP3   OH223192   2.257   1.863   5.870
 7771TIP3    H123193   2.284   1.800   5.939
 7771TIP3    H223194   2.324   1.932   5.882
 7772TIP3   OH223195   3.194   2.269   5.192
 7772TIP3    H123196   3.184   2.199   5.257
 7772TIP3    H223197   3.223   2.344   5.246
 7773TIP3   OH223198   2.222   2.272   5.600
 7773TIP3    H123199   2.213   2.175   5.608
 7773TIP3    H223200   2.318   2.281   5.605
 7774TIP3   OH223201   1.934   1.480   5.390
 7774TIP3    H123202   1.884   1.563   5.403
 7774TIP3    H223203   1.862   1.421   5.360
 7775TIP3   OH223204   1.992   1.764   5.554
 7775TIP3    H123205   2.039   1.689   5.596
 7775TIP3    H223206   2.054   1.789   5.484
 7776TIP3   OH223207   2.841   2.731   5.206
 7776TIP3    H123208   2.893   2.659   5.164
 7776TIP3    H223209   2.838   2.703   5.298
 7777TIP3   OH223210   2.754   2.193   5.557
 7777TIP3    H123211   2.791   2.116   5.510
 7777TIP3    H223212   2.838   2.237   5.582
 7778TIP3   OH223213   3.762   1.516   5.556
 7778TIP3    H123214   3.791   1.596   5.603
 7778TIP3    H223215   3.786   1.538   5.465
 7779TIP3   OH223216   3.166   1.697   5.595
 7779TIP3    H123217   3.207   1.612   5.616
 7779TIP3    H223218   3.136   1.682   5.504
 7780TIP3   OH223219   2.502   1.355   5.559
 7780TIP3    H123220   2.478   1.428   5.498
 7780TIP3    H223221   2.453   1.281   5.516
 7781TIP3   OH223222   3.196   1.444   5.186
 7781TIP3    H123223   3.271   1.430   5.249
 7781TIP3    H223224   3.244   1.483   5.111
 7782TIP3   OH223225   2.136   1.559   5.664
 7782TIP3    H123226   2.218   1.539   5.713
 7782TIP3    H223227   2.148   1.500   5.587
 7783TIP3   OH223228   2.580   1.756   5.449
 7783TIP3    H123229   2.671   1.728   5.470
 7783TIP3    H223230   2.538   1.671   5.423
 7784TIP3   OH223231   3.837   1.719   5.728
 7784TIP3    H123232   3.754   1.769   5.710
 7784TIP3    H223233   3.851   1.743   5.821
 7785TIP3   OH223234   2.500   1.338   5.992
 7785TIP3    H123235   2.438   1.376   5.927
 7785TIP3    H223236   2.450   1.354   6.075
 7786TIP3   OH223237   2.855   2.192   5.000
 7786TIP3    H123238   2.802   2.163   4.924
 7786TIP3    H223239   2.810   2.276   5.022
 7787TIP3   OH223240   2.606   2.112   5.793
 7787TIP3    H123241   2.539   2.172   5.833
 7787TIP3    H223242   2.646   2.169   5.725
 7788TIP3   OH223243   3.411   1.444   5.352
 7788TIP3    H123244   3.406   1.396   5.435
 7788TIP3    H223245   3.465   1.521   5.375
 7789TIP3   OH223246   2.369   1.454   5.778
 7789TIP3    H123247   2.430   1.526   5.802
 7789TIP3    H223248   2.419   1.412   5.704
 7790TIP3   OH223249   2.429   2.302   5.885
 7790TIP3    H123250   2.404   2.390   5.850
 7790TIP3    H223251   2.353   2.287   5.946
 7791TIP3   OH223252   1.834   1.995   5.122
 7791TIP3    H123253   1.787   2.023   5.041
 7791TIP3    H223254   1.861   2.080   5.161
 7792TIP3   OH223255   3.269   2.510   5.361
 7792TIP3    H123256   3.180   2.502   5.402
 7792TIP3    H223257   3.261   2.597   5.318
 7793TIP3   OH223258   3.558   1.415   5.724
 7793TIP3    H123259   3.471   1.449   5.696
 7793TIP3    H223260   3.616   1.445   5.652
 7794TIP3   OH223261   2.860   1.062   5.706
 7794TIP3    H123262   2.847   0.966   5.722
 7794TIP3    H223263   2.781   1.098   5.751
 7795TIP3   OH223264   2.977   2.559   5.039
 7795TIP3    H123265   3.027   2.478   5.016
 7795TIP3    H223266   3.035   2.626   4.996
 7796TIP3   OH223267   3.118   2.344   4.937
 7796TIP3    H123268   3.069   2.267   4.904
 7796TIP3    H223269   3.150   2.310   5.024
 7797TIP3   OH223270   3.496   2.428   5.705
 7797TIP3    H123271   3.485   2.350   5.647
 7797TIP3    H223272   3.479   2.502   5.643
 7798TIP3   OH223273   2.785   1.818   4.960
 7798TIP3    H123274   2.704   1.869   4.938
 7798TIP3    H223275   2.832   1.817   4.875
 7799TIP3   OH223276   2.745   1.603   4.681
 7799TIP3    H123277   2.813   1.652   4.730
 7799TIP3    H223278   2.802   1.538   4.634
 7800TIP3   OH223279   3.690   2.060   5.548
 7800TIP3    H123280   3.608   2.113   5.556
 7800TIP3    H223281   3.719   2.085   5.458
 7801TIP3   OH223282   3.133   1.901   4.935
 7801TIP3    H123283   3.078   1.927   5.013
 7801TIP3    H223284   3.216   1.876   4.979
 7802TIP3   OH223285   3.369   1.944   5.842
 7802TIP3    H123286   3.366   2.027   5.893
 7802TIP3    H223287   3.282   1.948   5.798
 7803TIP3   OH223288   2.367   1.902   5.348
 7803TIP3    H123289   2.325   1.843   5.282
 7803TIP3    H223290   2.444   1.848   5.377
 7804TIP3   OH223291   2.499   2.316   5.496
 7804TIP3    H123292   2.475   2.260   5.421
 7804TIP3    H223293   2.588   2.283   5.518
 7805TIP3   OH223294   2.512   1.869   5.703
 7805TIP3    H123295   2.540   1.858   5.610
 7805TIP3    H223296   2.547   1.957   5.727
 7806TIP3   OH223297   3.028   2.508   5.481
 7806TIP3    H123298   3.014   2.588   5.534
 7806TIP3    H223299   3.014   2.436   5.545
 7807TIP3   OH223300   2.638   2.430   6.027
 7807TIP3    H123301   2.579   2.491   6.076
 7807TIP3    H223302   2.571   2.374   5.982
 7808TIP3   OH223303   2.977   1.759   4.760
 7808TIP3    H123304   3.034   1.818   4.814
 7808TIP3    H223305   3.003   1.786   4.668
 7809TIP3   OH223306   2.389   1.988   6.120
 7809TIP3    H123307   2.394   2.073   6.169
 7809TIP3    H223308   2.295   1.965   6.137
 7810TIP3   OH223309   2.716   2.442   5.030
 7810TIP3    H123310   2.790   2.496   5.063
 7810TIP3    H223311   2.652   2.508   5.002
 7811TIP3   OH223312   2.434   2.600   6.115
 7811TIP3    H123313   2.397   2.593   6.025
 7811TIP3    H223314   2.356   2.578   6.171
 7812TIP3   OH223315   3.477   1.023   4.813
 7812TIP3    H123316   3.384   1.017   4.788
 7812TIP3    H223317   3.509   1.095   4.754
 7813TIP3   OH223318   2.233   1.741   5.153
 7813TIP3    H123319   2.167   1.787   5.097
 7813TIP3    H223320   2.188   1.659   5.173
 7814TIP3   OH223321   3.286   2.373   4.346
 7814TIP3    H123322   3.301   2.470   4.343
 7814TIP3    H223323   3.379   2.341   4.339
 7815TIP3   OH223324   2.025   2.125   6.046
 7815TIP3    H123325   1.949   2.093   5.996
 7815TIP3    H223326   2.051   2.048   6.100
 7816TIP3   OH223327   1.867   2.321   5.693
 7816TIP3    H123328   1.963   2.311   5.690
 7816TIP3    H223329   1.857   2.397   5.752
 7817TIP3   OH223330   3.733   2.768   5.749
 7817TIP3    H123331   3.731   2.671   5.763
 7817TIP3    H223332   3.650   2.794   5.794
 7818TIP3   OH223333   2.838   2.558   5.884
 7818TIP3    H123334   2.840   2.650   5.917
 7818TIP3    H223335   2.767   2.519   5.939
 7819TIP3   OH223336   2.596   2.689   4.835
 7819TIP3    H123337   2.547   2.671   4.753
 7819TIP3    H223338   2.564   2.778   4.859
 7820TIP3   OH223339   2.035   2.537   5.219
 7820TIP3    H123340   2.085   2.527   5.304
 7820TIP3    H223341   1.973   2.463   5.228
 7821TIP3   OH223342   2.799   2.585   4.479
 7821TIP3    H123343   2.859   2.515   4.448
 7821TIP3    H223344   2.830   2.599   4.571
 7822TIP3   OH223345   2.847   2.632   4.748
 7822TIP3    H123346   2.760   2.643   4.792
 7822TIP3    H223347   2.899   2.593   4.820
 7823TIP3   OH223348   3.624   1.903   6.024
 7823TIP3    H123349   3.543   1.918   5.972
 7823TIP3    H223350   3.637   1.807   6.014
 7824TIP3   OH223351   2.220   2.313   6.058
 7824TIP3    H123352   2.265   2.292   6.142
 7824TIP3    H223353   2.146   2.248   6.060
 7825TIP3   OH223354   2.619   1.135   5.830
 7825TIP3    H123355   2.529   1.103   5.808
 7825TIP3    H223356   2.594   1.217   5.878
 7826TIP3   OH223357   3.150   1.249   6.028
 7826TIP3    H123358   3.217   1.223   6.094
 7826TIP3    H223359   3.065   1.230   6.073
 7827TIP3   OH223360   3.393   1.678   5.947
 7827TIP3    H123361   3.344   1.673   6.032
 7827TIP3    H223362   3.367   1.766   5.913
 7828TIP3   OH223363   3.049   1.813   4.504
 7828TIP3    H123364   3.018   1.782   4.417
 7828TIP3    H223365   3.131   1.860   4.479
 7829TIP3   OH223366   2.766   1.183   4.804
 7829TIP3    H123367   2.733   1.182   4.896
 7829TIP3    H223368   2.724   1.101   4.772
 7830TIP3   OH223369   2.550   1.648   5.854
 7830TIP3    H123370   2.498   1.670   5.935
 7830TIP3    H223371   2.534   1.728   5.800
 7831TIP3   OH223372   2.433   1.534   5.367
 7831TIP3    H123373   2.340   1.509   5.384
 7831TIP3    H223374   2.446   1.493   5.278
 7832TIP3   OH223375   2.924   1.620   5.092
 7832TIP3    H123376   2.869   1.692   5.055
 7832TIP3    H223377   2.977   1.595   5.015
 7833TIP3   OH223378   3.098   1.902   6.182
 7833TIP3    H123379   3.075   1.829   6.244
 7833TIP3    H223380   3.192   1.916   6.204
 7834TIP3   OH223381   3.083   1.650   5.336
 7834TIP3    H123382   3.025   1.685   5.265
 7834TIP3    H223383   3.112   1.567   5.293
 7835TIP3   OH223384   2.370   1.678   6.063
 7835TIP3    H123385   2.381   1.745   6.132
 7835TIP3    H223386   2.356   1.597   6.116
 7836TIP3   OH223387   2.419   1.154   4.772
 7836TIP3    H123388   2.413   1.151   4.869
 7836TIP3    H223389   2.338   1.204   4.749
 7837TIP3   OH223390   1.962   1.207   5.638
 7837TIP3    H123391   2.038   1.233   5.694
 7837TIP3    H223392   2.003   1.165   5.561
 7838TIP3   OH223393   1.942   1.183   5.161
 7838TIP3    H123394   1.987   1.223   5.084
 7838TIP3    H223395   1.879   1.255   5.184
 7839TIP3   OH223396   3.093   1.899   5.758
 7839TIP3    H123397   3.125   1.825   5.702
 7839TIP3    H223398   3.064   1.849   5.838
 7840TIP3   OH223399   2.758   1.353   5.430
 7840TIP3    H123400   2.672   1.353   5.477
 7840TIP3    H223401   2.820   1.365   5.504
 7841TIP3   OH223402   2.196   1.412   5.437
 7841TIP3    H123403   2.101   1.420   5.412
 7841TIP3    H223404   2.216   1.319   5.416
 7842TIP3   OH223405   2.469   1.410   5.124
 7842TIP3    H123406   2.563   1.427   5.101
 7842TIP3    H223407   2.421   1.433   5.041
 7843TIP3   OH223408   3.248   1.431   5.626
 7843TIP3    H123409   3.221   1.445   5.720
 7843TIP3    H223410   3.177   1.371   5.596
 7844TIP3   OH223411   2.302   1.441   4.906
 7844TIP3    H123412   2.227   1.400   4.861
 7844TIP3    H223413   2.353   1.475   4.830
 7845TIP3   OH223414   3.419   3.121   5.848
 7845TIP3    H123415   3.418   3.145   5.753
 7845TIP3    H223416   3.495   3.173   5.881
 7846TIP3   OH223417   2.378   2.222   6.274
 7846TIP3    H123418   2.443   2.259   6.336
 7846TIP3    H223419   2.304   2.200   6.336
 7847TIP3   OH223420   2.843   1.682   5.526
 7847TIP3    H123421   2.919   1.644   5.479
 7847TIP3    H223422   2.855   1.646   5.616
 7848TIP3   OH223423   2.371   1.173   5.402
 7848TIP3    H123424   2.336   1.094   5.448
 7848TIP3    H223425   2.423   1.135   5.330
 7849TIP3   OH223426   2.821   1.579   5.816
 7849TIP3    H123427   2.732   1.616   5.830
 7849TIP3    H223428   2.878   1.639   5.869
 7850TIP3   OH223429   2.558   1.974   4.911
 7850TIP3    H123430   2.486   1.908   4.901
 7850TIP3    H223431   2.541   2.007   5.003
 7851TIP3   OH223432   3.461   2.209   5.543
 7851TIP3    H123433   3.484   2.258   5.460
 7851TIP3    H223434   3.374   2.169   5.520
 7852TIP3   OH223435   3.018   1.285   4.769
 7852TIP3    H123436   2.921   1.271   4.778
 7852TIP3    H223437   3.029   1.379   4.794
 7853TIP3   OH223438   2.961   2.293   5.908
 7853TIP3    H123439   2.973   2.264   5.999
 7853TIP3    H223440   2.917   2.379   5.917
 7854TIP3   OH223441   3.088   1.531   4.872
 7854TIP3    H123442   3.183   1.539   4.891
 7854TIP3    H223443   3.069   1.611   4.821
 7855TIP3   OH223444   2.249   1.994   5.590
 7855TIP3    H123445   2.288   1.961   5.506
 7855TIP3    H223446   2.282   1.929   5.655
 7856TIP3   OH223447   2.701   2.122   4.728
 7856TIP3    H123448   2.655   2.209   4.738
 7856TIP3    H223449   2.649   2.066   4.789
 7857TIP3   OH223450   2.132   1.911   6.197
 7857TIP3    H123451   2.128   1.932   6.292
 7857TIP3    H223452   2.058   1.849   6.187
 7858TIP3   OH223453   2.853   2.027   6.220
 7858TIP3    H123454   2.793   1.968   6.172
 7858TIP3    H223455   2.941   1.994   6.191
 7859TIP3   OH223456   3.119   2.551   5.801
 7859TIP3    H123457   3.023   2.548   5.815
 7859TIP3    H223458   3.147   2.601   5.880
 7860TIP3   OH223459   3.528   1.619   4.714
 7860TIP3    H123460   3.465   1.575   4.652
 7860TIP3    H223461   3.527   1.708   4.672
 7861TIP3   OH223462   3.746   2.476   5.795
 7861TIP3    H123463   3.648   2.473   5.787
 7861TIP3    H223464   3.771   2.447   5.704
 7862TIP3   OH223465   3.220   2.441   4.615
 7862TIP3    H123466   3.205   2.375   4.685
 7862TIP3    H223467   3.241   2.386   4.537
 7863TIP3   OH223468   3.224   2.070   5.463
 7863TIP3    H123469   3.131   2.044   5.476
 7863TIP3    H223470   3.258   1.992   5.417
 7864TIP3   OH223471   2.348   2.293   5.205
 7864TIP3    H123472   2.350   2.379   5.158
 7864TIP3    H223473   2.253   2.284   5.224
 7865TIP3   OH223474   1.911   1.603   4.912
 7865TIP3    H123475   1.958   1.685   4.934
 7865TIP3    H223476   1.835   1.608   4.974
 7866TIP3   OH223477   2.495   2.065   5.157
 7866TIP3    H123478   2.456   2.153   5.175
 7866TIP3    H223479   2.458   2.014   5.231
 7867TIP3   OH223480   2.617   2.642   5.683
 7867TIP3    H123481   2.659   2.715   5.633
 7867TIP3    H223482   2.693   2.609   5.733
 7868TIP3   OH223483   2.270   2.537   5.064
 7868TIP3    H123484   2.184   2.542   5.111
 7868TIP3    H223485   2.300   2.630   5.069
 7869TIP3   OH223486   3.011   2.275   5.639
 7869TIP3    H123487   3.002   2.275   5.737
 7869TIP3    H223488   3.092   2.224   5.628
 7870TIP3   OH223489   2.978   2.172   4.522
 7870TIP3    H123490   3.033   2.145   4.600
 7870TIP3    H223491   2.891   2.141   4.553
 7871TIP3   OH223492   3.258   2.811   5.691
 7871TIP3    H123493   3.179   2.754   5.684
 7871TIP3    H223494   3.241   2.876   5.619
 7872TIP3   OH223495   3.322   2.646   4.347
 7872TIP3    H123496   3.365   2.717   4.296
 7872TIP3    H223497   3.242   2.694   4.375
 7873TIP3   OH223498   2.344   1.418   6.210
 7873TIP3    H123499   2.249   1.428   6.228
 7873TIP3    H223500   2.371   1.357   6.282
 7874TIP3   OH223501   3.140   2.100   4.736
 7874TIP3    H123502   3.128   2.037   4.809
 7874TIP3    H223503   3.237   2.100   4.728
 7875TIP3   OH223504   2.060   2.505   5.842
 7875TIP3    H123505   2.105   2.427   5.875
 7875TIP3    H223506   2.084   2.570   5.909
 7876TIP3   OH223507   2.350   2.150   4.520
 7876TIP3    H123508   2.364   2.058   4.491
 7876TIP3    H223509   2.332   2.137   4.616
 7877TIP3   OH223510   2.296   2.154   4.792
 7877TIP3    H123511   2.361   2.125   4.858
 7877TIP3    H223512   2.301   2.252   4.801
 7878TIP3   OH223513   2.033   1.849   4.996
 7878TIP3    H123514   1.967   1.893   5.055
 7878TIP3    H223515   2.047   1.921   4.931
 7879TIP3   OH223516   3.180   1.481   5.884
 7879TIP3    H123517   3.254   1.524   5.931
 7879TIP3    H223518   3.161   1.404   5.941
 7880TIP3   OH223519   3.054   1.241   5.055
 7880TIP3    H123520   3.046   1.258   4.959
 7880TIP3    H223521   3.096   1.324   5.087
 7881TIP3   OH223522   2.558   2.352   4.741
 7881TIP3    H123523   2.474   2.380   4.780
 7881TIP3    H223524   2.576   2.426   4.682
 7882TIP3   OH223525   2.754   1.411   5.156
 7882TIP3    H123526   2.817   1.485   5.138
 7882TIP3    H223527   2.754   1.409   5.254
 7883TIP3   OH223528   3.019   1.737   5.964
 7883TIP3    H123529   3.029   1.793   6.044
 7883TIP3    H223530   3.074   1.660   5.987
 7884TIP3   OH223531   2.903   1.152   5.268
 7884TIP3    H123532   2.882   1.232   5.320
 7884TIP3    H223533   2.953   1.191   5.192
 7885TIP3   OH223534   2.301   2.428   4.808
 7885TIP3    H123535   2.269   2.497   4.747
 7885TIP3    H223536   2.284   2.470   4.896
 7886TIP3   OH223537   2.404   1.139   5.048
 7886TIP3    H123538   2.401   1.229   5.085
 7886TIP3    H223539   2.500   1.120   5.058
 7887TIP3   OH223540   3.660   1.635   5.944
 7887TIP3    H123541   3.562   1.633   5.952
 7887TIP3    H223542   3.671   1.597   5.856
 7888TIP3   OH223543   3.309   1.830   5.331
 7888TIP3    H123544   3.234   1.771   5.347
 7888TIP3    H223545   3.382   1.784   5.380
 7889TIP3   OH223546   2.019   2.063   4.803
 7889TIP3    H123547   2.081   2.137   4.814
 7889TIP3    H223548   2.068   2.011   4.736
 7890TIP3   OH223549   1.969   1.335   4.932
 7890TIP3    H123550   1.963   1.432   4.929
 7890TIP3    H223551   1.881   1.309   4.903
 7891TIP3   OH223552   3.277   2.781   5.283
 7891TIP3    H123553   3.235   2.828   5.208
 7891TIP3    H223554   3.371   2.801   5.263
 7892TIP3   OH223555   2.355   1.056   5.810
 7892TIP3    H123556   2.321   1.021   5.725
 7892TIP3    H223557   2.346   0.977   5.869
 7893TIP3   OH223558   1.896   2.273   5.196
 7893TIP3    H123559   1.818   2.304   5.243
 7893TIP3    H223560   1.879   2.310   5.106
 7894TIP3   OH223561   2.045   2.807   6.263
 7894TIP3    H123562   2.132   2.805   6.308
 7894TIP3    H223563   2.025   2.712   6.259
 7895TIP3   OH223564   2.536   2.783   6.305
 7895TIP3    H123565   2.628   2.758   6.313
 7895TIP3    H223566   2.507   2.725   6.231
 7896TIP3   OH223567   2.513   2.355   4.436
 7896TIP3    H123568   2.454   2.287   4.475
 7896TIP3    H223569   2.587   2.297   4.408
 7897TIP3   OH223570   3.172   2.682   6.037
 7897TIP3    H123571   3.161   2.614   6.108
 7897TIP3    H223572   3.248   2.734   6.071
 7898TIP3   OH223573   2.954   2.393   4.341
 7898TIP3    H123574   2.979   2.329   4.411
 7898TIP3    H223575   3.040   2.409   4.298
 7899TIP3   OH223576   2.156   1.874   4.652
 7899TIP3    H123577   2.207   1.837   4.726
 7899TIP3    H223578   2.226   1.877   4.583
 7900TIP3   OH223579   2.790   2.303   6.234
 7900TIP3    H123580   2.742   2.314   6.150
 7900TIP3    H223581   2.818   2.209   6.231
 7901TIP3   OH223582   2.661   2.070   4.459
 7901TIP3    H123583   2.664   2.082   4.556
 7901TIP3    H223584   2.660   1.971   4.454
 7902TIP3   OH223585   3.281   2.306   5.840
 7902TIP3    H123586   3.352   2.356   5.797
 7902TIP3    H223587   3.207   2.369   5.832
 7903TIP3   OH223588   2.368   1.773   4.880
 7903TIP3    H123589   2.337   1.733   4.963
 7903TIP3    H223590   2.400   1.695   4.830
 7904TIP3   OH223591   2.636   1.840   6.109
 7904TIP3    H123592   2.555   1.896   6.115
 7904TIP3    H223593   2.677   1.872   6.026
 7905TIP3   OH223594   2.462   1.563   4.719
 7905TIP3    H123595   2.436   1.564   4.625
 7905TIP3    H223596   2.560   1.573   4.712
 7906TIP3   OH223597   3.149   2.240   6.241
 7906TIP3    H123598   3.232   2.222   6.195
 7906TIP3    H223599   3.148   2.171   6.310
 7907TIP3   OH223600   3.285   1.903   4.378
 7907TIP3    H123601   3.267   1.851   4.297
 7907TIP3    H223602   3.258   1.992   4.347
 7908TIP3   OH223603   2.760   1.624   6.231
 7908TIP3    H123604   2.754   1.543   6.176
 7908TIP3    H223605   2.713   1.690   6.175
 7909TIP3   OH223606   2.759   1.409   6.036
 7909TIP3    H123607   2.784   1.452   5.953
 7909TIP3    H223608   2.664   1.388   6.021
 7910TIP3   OH223609   2.793   1.949   5.908
 7910TIP3    H123610   2.872   1.958   5.854
 7910TIP3    H223611   2.733   2.017   5.869
 7911TIP3   OH223612   3.371   1.915   6.296
 7911TIP3    H123613   3.421   1.833   6.305
 7911TIP3    H223614   3.439   1.976   6.263
 7912TIP3   OH223615   3.412   2.166   6.030
 7912TIP3    H123616   3.352   2.218   5.970
 7912TIP3    H223617   3.498   2.187   5.988
 7913TIP3   OH223618   2.645   1.738   6.464
 7913TIP3    H123619   2.562   1.687   6.476
 7913TIP3    H223620   2.671   1.713   6.374
 7914TIP3   OH223621   2.891   1.175   6.102
 7914TIP3    H123622   2.843   1.259   6.082
 7914TIP3    H223623   2.820   1.109   6.093
 7915TIP3   OH223624   3.018   1.683   6.322
 7915TIP3    H123625   3.006   1.673   6.418
 7915TIP3    H223626   2.927   1.658   6.293
 7916TIP3   OH223627   3.256   1.626   6.175
 7916TIP3    H123628   3.180   1.632   6.237
 7916TIP3    H223629   3.329   1.598   6.234
 7917TIP3   OH223630   3.486   1.569   6.328
 7917TIP3    H123631   3.497   1.474   6.350
 7917TIP3    H223632   3.482   1.611   6.417
 7918TIP3   OH223633   2.470   1.522   6.512
 7918TIP3    H123634   2.480   1.431   6.477
 7918TIP3    H223635   2.506   1.511   6.602
 7919TIP3   OH223636   2.987   1.185   6.360
 7919TIP3    H123637   3.055   1.115   6.354
 7919TIP3    H223638   2.946   1.178   6.271
 7920TIP3   OH223639   3.051   1.400   6.522
 7920TIP3    H123640   3.027   1.331   6.457
 7920TIP3    H223641   2.975   1.461   6.516
 7921TIP3   OH223642   2.269   2.632   4.622
 7921TIP3    H123643   2.365   2.629   4.603
 7921TIP3    H223644   2.238   2.675   4.540
 7922TIP3   OH223645   1.751   2.012   4.837
 7922TIP3    H123646   1.846   2.034   4.826
 7922TIP3    H223647   1.747   1.922   4.798
 7923TIP3   OH223648   1.666   2.624   5.249
 7923TIP3    H123649   1.597   2.562   5.217
 7923TIP3    H223650   1.709   2.570   5.318
 7924TIP3   OH223651   1.801   2.481   5.438
 7924TIP3    H123652   1.792   2.404   5.496
 7924TIP3    H223653   1.852   2.540   5.497
 7925TIP3   OH223654   3.526   2.878   5.236
 7925TIP3    H123655   3.553   2.910   5.324
 7925TIP3    H223656   3.587   2.926   5.178
 7926TIP3   OH223657   3.559   2.896   5.517
 7926TIP3    H123658   3.517   2.807   5.515
 7926TIP3    H223659   3.633   2.878   5.576
 7927TIP3   OH223660   3.605   2.573   6.092
 7927TIP3    H123661   3.530   2.580   6.155
 7927TIP3    H223662   3.645   2.662   6.096
 7928TIP3   OH223663   3.420   2.088   4.713
 7928TIP3    H123664   3.492   2.150   4.687
 7928TIP3    H223665   3.461   2.047   4.793
 7929TIP3   OH223666   3.547   1.955   4.916
 7929TIP3    H123667   3.483   1.912   4.976
 7929TIP3    H223668   3.612   1.994   4.978
 7930TIP3   OH223669   3.600   2.343   5.349
 7930TIP3    H123670   3.654   2.282   5.296
 7930TIP3    H223671   3.588   2.419   5.288
 7931TIP3   OH223672   3.436   2.645   5.545
 7931TIP3    H123673   3.365   2.688   5.598
 7931TIP3    H223674   3.384   2.597   5.478
 7932TIP3   OH223675   3.486   1.861   4.565
 7932TIP3    H123676   3.414   1.865   4.498
 7932TIP3    H223677   3.461   1.937   4.621
 7933TIP3   OH223678   3.358   1.536   4.521
 7933TIP3    H123679   3.320   1.577   4.442
 7933TIP3    H223680   3.329   1.442   4.510
 7934TIP3   OH223681   3.364   1.810   5.065
 7934TIP3    H123682   3.372   1.713   5.061
 7934TIP3    H223683   3.351   1.825   5.161
 7935TIP3   OH223684   1.990   1.886   5.808
 7935TIP3    H123685   1.991   1.858   5.715
 7935TIP3    H223686   2.087   1.886   5.827
 7936TIP3   OH223687   3.652   2.234   5.919
 7936TIP3    H123688   3.726   2.169   5.912
 7936TIP3    H223689   3.680   2.305   5.860
 7937TIP3   OH223690   3.839   2.043   5.943
 7937TIP3    H123691   3.765   1.992   5.982
 7937TIP3    H223692   3.912   1.978   5.955
 7938TIP3   OH223693   3.301   1.271   4.509
 7938TIP3    H123694   3.378   1.237   4.558
 7938TIP3    H223695   3.229   1.210   4.531
 7939TIP3   OH223696   3.357   1.531   4.961
 7939TIP3    H123697   3.397   1.442   4.978
 7939TIP3    H223698   3.417   1.563   4.891
 7940TIP3   OH223699   3.522   1.703   5.453
 7940TIP3    H123700   3.609   1.729   5.415
 7940TIP3    H223701   3.534   1.738   5.544
 7941TIP3   OH223702   3.587   1.842   5.688
 7941TIP3    H123703   3.509   1.877   5.736
 7941TIP3    H223704   3.620   1.923   5.643
 7942TIP3   OH223705   2.203   1.564   6.477
 7942TIP3    H123706   2.301   1.563   6.482
 7942TIP3    H223707   2.183   1.483   6.527
 7943TIP3   OH223708   4.040   1.431   6.244
 7943TIP3    H123709   4.099   1.365   6.201
 7943TIP3    H223710   4.015   1.489   6.169
 7944TIP3   OH223711   3.468   1.284   4.997
 7944TIP3    H123712   3.519   1.273   5.081
 7944TIP3    H223713   3.449   1.192   4.974
 7945TIP3   OH223714   2.168   1.261   5.812
 7945TIP3    H123715   2.231   1.187   5.826
 7945TIP3    H223716   2.229   1.337   5.812
 7946TIP3   OH223717   1.974   1.535   5.890
 7946TIP3    H123718   2.023   1.532   5.806
 7946TIP3    H223719   1.999   1.622   5.924
 7947TIP3   OH223720   3.916   1.577   6.051
 7947TIP3    H123721   3.828   1.614   6.074
 7947TIP3    H223722   3.889   1.506   5.991
 7948TIP3   OH223723   3.551   1.209   4.628
 7948TIP3    H123724   3.595   1.140   4.574
 7948TIP3    H223725   3.616   1.282   4.622
 7949TIP3   OH223726   1.954   1.041   5.391
 7949TIP3    H123727   1.861   1.038   5.417
 7949TIP3    H223728   1.952   1.099   5.312
 7950TIP3   OH223729   3.110   2.742   4.893
 7950TIP3    H123730   3.166   2.726   4.814
 7950TIP3    H223731   3.162   2.807   4.943
 7951TIP3   OH223732   2.173   1.118   6.204
 7951TIP3    H123733   2.124   1.113   6.288
 7951TIP3    H223734   2.106   1.159   6.146
 7952TIP3   OH223735   2.213   2.552   6.286
 7952TIP3    H123736   2.129   2.510   6.261
 7952TIP3    H223737   2.224   2.519   6.376
 7953TIP3   OH223738   2.391   2.573   5.829
 7953TIP3    H123739   2.341   2.649   5.792
 7953TIP3    H223740   2.477   2.589   5.785
 7954TIP3   OH223741   2.841   2.823   5.968
 7954TIP3    H123742   2.881   2.826   6.057
 7954TIP3    H223743   2.907   2.874   5.916
 7955TIP3   OH223744   3.019   2.972   5.823
 7955TIP3    H123745   3.093   2.922   5.786
 7955TIP3    H223746   3.068   3.031   5.885
 7956TIP3   OH223747   3.811   1.338   5.926
 7956TIP3    H123748   3.720   1.334   5.894
 7956TIP3    H223749   3.840   1.244   5.914
 7957TIP3   OH223750   2.070   2.837   5.850
 7957TIP3    H123751   1.981   2.872   5.829
 7957TIP3    H223752   2.077   2.863   5.943
 7958TIP3   OH223753   2.306   2.814   5.708
 7958TIP3    H123754   2.221   2.827   5.756
 7958TIP3    H223755   2.284   2.849   5.620
 7959TIP3   OH223756   2.734   2.847   5.504
 7959TIP3    H123757   2.662   2.869   5.442
 7959TIP3    H223758   2.746   2.932   5.551
 7960TIP3   OH223759   3.000   2.784   5.555
 7960TIP3    H123760   2.905   2.801   5.537
 7960TIP3    H223761   3.041   2.865   5.521
 7961TIP3   OH223762   3.210   2.977   5.477
 7961TIP3    H123763   3.196   3.062   5.429
 7961TIP3    H223764   3.234   2.916   5.404
 7962TIP3   OH223765   1.982   2.630   5.598
 7962TIP3    H123766   2.007   2.606   5.690
 7962TIP3    H223767   2.053   2.584   5.550
 7963TIP3   OH223768   2.173   2.500   5.450
 7963TIP3    H123769   2.188   2.416   5.501
 7963TIP3    H223770   2.263   2.538   5.449
 7964TIP3   OH223771   2.439   2.597   5.453
 7964TIP3    H123772   2.471   2.505   5.444
 7964TIP3    H223773   2.478   2.619   5.540
 7965TIP3   OH223774   3.019   1.254   5.551
 7965TIP3    H123775   2.964   1.195   5.607
 7965TIP3    H223776   3.072   1.189   5.504
 7966TIP3   OH223777   3.548   1.139   5.458
 7966TIP3    H123778   3.584   1.179   5.376
 7966TIP3    H223779   3.452   1.146   5.442
 7967TIP3   OH223780   3.631   1.233   5.209
 7967TIP3    H123781   3.707   1.181   5.175
 7967TIP3    H223782   3.668   1.324   5.200
 7968TIP3   OH223783   2.266   0.961   5.561
 7968TIP3    H123784   2.174   0.927   5.564
 7968TIP3    H223785   2.316   0.877   5.558
 7969TIP3   OH223786   2.048   0.830   5.204
 7969TIP3    H123787   2.078   0.892   5.136
 7969TIP3    H223788   2.019   0.891   5.275
 7970TIP3   OH223789   2.712   0.992   5.437
 7970TIP3    H123790   2.770   1.054   5.392
 7970TIP3    H223791   2.713   1.025   5.527
 7971TIP3   OH223792   3.277   1.118   5.401
 7971TIP3    H123793   3.193   1.136   5.358
 7971TIP3    H223794   3.251   1.056   5.474
 7972TIP3   OH223795   1.770   2.396   4.989
 7972TIP3    H123796   1.685   2.363   4.955
 7972TIP3    H223797   1.754   2.491   4.983
 7973TIP3   OH223798   2.165   0.993   4.972
 7973TIP3    H123799   2.216   0.930   4.917
 7973TIP3    H223800   2.237   1.046   5.011
 7974TIP3   OH223801   2.682   1.163   5.071
 7974TIP3    H123802   2.735   1.115   5.135
 7974TIP3    H223803   2.704   1.255   5.096
 7975TIP3   OH223804   2.538   2.595   4.568
 7975TIP3    H123805   2.629   2.614   4.537
 7975TIP3    H223806   2.518   2.517   4.512
 7976TIP3   OH223807   3.258   2.706   4.662
 7976TIP3    H123808   3.248   2.609   4.649
 7976TIP3    H223809   3.214   2.740   4.581
 7977TIP3   OH223810   2.473   1.242   6.452
 7977TIP3    H123811   2.439   1.172   6.510
 7977TIP3    H223812   2.568   1.244   6.479
 7978TIP3   OH223813   2.721   1.239   6.573
 7978TIP3    H123814   2.806   1.214   6.532
 7978TIP3    H223815   2.709   1.168   6.639
 7979TIP3   OH223816   1.846   2.434   4.631
 7979TIP3    H123817   1.840   2.453   4.726
 7979TIP3    H223818   1.934   2.391   4.623
 7980TIP3   OH223819   3.545   1.298   6.360
 7980TIP3    H123820   3.565   1.267   6.451
 7980TIP3    H223821   3.633   1.295   6.317
 7981TIP3   OH223822   3.489   2.854   5.851
 7981TIP3    H123823   3.409   2.820   5.806
 7981TIP3    H223824   3.468   2.950   5.853
 7982TIP3   OH223825   4.751   2.224   4.619
 7982TIP3    H123826   4.725   2.317   4.601
 7982TIP3    H223827   4.671   2.178   4.592
 7983TIP3   OH223828   4.748   2.224   4.996
 7983TIP3    H123829   4.779   2.193   5.083
 7983TIP3    H223830   4.707   2.143   4.960
 7984TIP3   OH223831   4.052   2.122   5.363
 7984TIP3    H123832   4.083   2.055   5.427
 7984TIP3    H223833   4.128   2.181   5.359
 7985TIP3   OH223834   4.989   2.524   4.679
 7985TIP3    H123835   4.981   2.450   4.741
 7985TIP3    H223836   5.021   2.595   4.737
 7986TIP3   OH223837   4.019   2.528   5.091
 7986TIP3    H123838   4.011   2.430   5.095
 7986TIP3    H223839   4.115   2.537   5.088
 7987TIP3   OH223840   3.728   1.734   4.878
 7987TIP3    H123841   3.681   1.819   4.891
 7987TIP3    H223842   3.656   1.679   4.843
 7988TIP3   OH223843   3.788   2.020   5.041
 7988TIP3    H123844   3.836   1.945   5.082
 7988TIP3    H223845   3.849   2.046   4.971
 7989TIP3   OH223846   4.636   2.987   4.693
 7989TIP3    H123847   4.689   2.917   4.650
 7989TIP3    H223848   4.630   2.955   4.784
 7990TIP3   OH223849   4.550   2.450   5.045
 7990TIP3    H123850   4.586   2.372   4.999
 7990TIP3    H223851   4.635   2.493   5.069
 7991TIP3   OH223852   5.558   1.772   5.043
 7991TIP3    H123853   5.588   1.853   5.089
 7991TIP3    H223854   5.582   1.793   4.951
 7992TIP3   OH223855   4.961   1.955   5.082
 7992TIP3    H123856   5.004   1.869   5.103
 7992TIP3    H223857   4.932   1.938   4.991
 7993TIP3   OH223858   4.295   1.611   5.047
 7993TIP3    H123859   4.276   1.683   4.984
 7993TIP3    H223860   4.248   1.537   5.002
 7994TIP3   OH223861   4.990   1.701   4.670
 7994TIP3    H123862   5.062   1.684   4.735
 7994TIP3    H223863   5.044   1.737   4.597
 7995TIP3   OH223864   3.933   1.815   5.151
 7995TIP3    H123865   4.015   1.795   5.200
 7995TIP3    H223866   3.945   1.758   5.072
 7996TIP3   OH223867   4.375   2.012   4.941
 7996TIP3    H123868   4.468   1.985   4.957
 7996TIP3    H223869   4.335   1.928   4.911
 7997TIP3   OH223870   5.634   1.976   5.214
 7997TIP3    H123871   5.551   2.025   5.196
 7997TIP3    H223872   5.648   2.000   5.307
 7998TIP3   OH223873   4.296   1.595   5.479
 7998TIP3    H123874   4.234   1.632   5.413
 7998TIP3    H223875   4.246   1.611   5.561
 7999TIP3   OH223876   4.648   2.447   4.487
 7999TIP3    H123877   4.600   2.421   4.407
 7999TIP3    H223878   4.604   2.532   4.508
 8000TIP3   OH223879   4.402   2.369   5.279
 8000TIP3    H123880   4.337   2.431   5.318
 8000TIP3    H223881   4.443   2.424   5.209
 8001TIP3   OH223882   5.205   1.702   4.836
 8001TIP3    H123883   5.201   1.649   4.917
 8001TIP3    H223884   5.261   1.777   4.864
 8002TIP3   OH223885   4.164   1.710   5.265
 8002TIP3    H123886   4.227   1.782   5.289
 8002TIP3    H223887   4.213   1.668   5.191
 8003TIP3   OH223888   4.227   2.560   5.372
 8003TIP3    H123889   4.202   2.646   5.333
 8003TIP3    H223890   4.149   2.546   5.430
 8004TIP3   OH223891   3.628   2.252   4.610
 8004TIP3    H123892   3.588   2.279   4.525
 8004TIP3    H223893   3.658   2.337   4.648
 8005TIP3   OH223894   5.067   2.762   4.845
 8005TIP3    H123895   4.987   2.752   4.901
 8005TIP3    H223896   5.034   2.826   4.781
 8006TIP3   OH223897   5.353   1.673   5.211
 8006TIP3    H123898   5.266   1.704   5.182
 8006TIP3    H223899   5.412   1.703   5.139
 8007TIP3   OH223900   4.655   1.316   5.191
 8007TIP3    H123901   4.645   1.221   5.209
 8007TIP3    H223902   4.577   1.352   5.238
 8008TIP3   OH223903   4.777   2.817   4.532
 8008TIP3    H123904   4.822   2.734   4.504
 8008TIP3    H223905   4.833   2.882   4.485
 8009TIP3   OH223906   4.912   2.601   4.426
 8009TIP3    H123907   4.867   2.525   4.388
 8009TIP3    H223908   4.944   2.564   4.511
 8010TIP3   OH223909   5.286   2.689   5.188
 8010TIP3    H123910   5.286   2.604   5.140
 8010TIP3    H223911   5.267   2.750   5.116
 8011TIP3   OH223912   4.579   2.072   4.445
 8011TIP3    H123913   4.500   2.127   4.426
 8011TIP3    H223914   4.629   2.079   4.362
 8012TIP3   OH223915   4.550   1.852   4.153
 8012TIP3    H123916   4.614   1.906   4.204
 8012TIP3    H223917   4.571   1.763   4.184
 8013TIP3   OH223918   5.485   2.314   5.034
 8013TIP3    H123919   5.406   2.371   5.044
 8013TIP3    H223920   5.515   2.341   4.945
 8014TIP3   OH223921   4.929   2.157   4.422
 8014TIP3    H123922   4.875   2.183   4.501
 8014TIP3    H223923   5.013   2.131   4.467
 8015TIP3   OH223924   5.165   2.201   5.329
 8015TIP3    H123925   5.163   2.283   5.380
 8015TIP3    H223926   5.078   2.205   5.285
 8016TIP3   OH223927   4.162   2.158   4.837
 8016TIP3    H123928   4.120   2.100   4.770
 8016TIP3    H223929   4.240   2.105   4.864
 8017TIP3   OH223930   4.293   2.569   4.986
 8017TIP3    H123931   4.270   2.520   4.906
 8017TIP3    H223932   4.383   2.537   5.005
 8018TIP3   OH223933   4.301   2.127   5.191
 8018TIP3    H123934   4.333   2.110   5.100
 8018TIP3    H223935   4.342   2.214   5.213
 8019TIP3   OH223936   4.828   2.765   4.970
 8019TIP3    H123937   4.813   2.840   5.030
 8019TIP3    H223938   4.813   2.688   5.028
 8020TIP3   OH223939   4.435   2.686   5.513
 8020TIP3    H123940   4.377   2.748   5.562
 8020TIP3    H223941   4.368   2.632   5.467
 8021TIP3   OH223942   4.773   2.017   4.246
 8021TIP3    H123943   4.831   2.075   4.302
 8021TIP3    H223944   4.801   2.044   4.155
 8022TIP3   OH223945   4.188   2.245   5.611
 8022TIP3    H123946   4.192   2.330   5.661
 8022TIP3    H223947   4.092   2.225   5.621
 8023TIP3   OH223948   4.513   2.699   4.521
 8023TIP3    H123949   4.584   2.757   4.551
 8023TIP3    H223950   4.449   2.761   4.483
 8024TIP3   OH223951   4.231   2.855   5.601
 8024TIP3    H123952   4.194   2.851   5.511
 8024TIP3    H223953   4.152   2.833   5.657
 8025TIP3   OH223954   5.287   1.261   4.293
 8025TIP3    H123955   5.206   1.276   4.346
 8025TIP3    H223956   5.294   1.345   4.245
 8026TIP3   OH223957   4.028   1.999   4.643
 8026TIP3    H123958   3.964   2.044   4.584
 8026TIP3    H223959   3.985   1.914   4.656
 8027TIP3   OH223960   5.083   2.627   3.840
 8027TIP3    H123961   5.092   2.724   3.829
 8027TIP3    H223962   5.176   2.598   3.830
 8028TIP3   OH223963   3.810   2.383   5.549
 8028TIP3    H123964   3.746   2.359   5.480
 8028TIP3    H223965   3.846   2.296   5.577
 8029TIP3   OH223966   3.663   2.576   5.182
 8029TIP3    H123967   3.759   2.570   5.175
 8029TIP3    H223968   3.653   2.656   5.237
 8030TIP3   OH223969   5.534   3.030   5.261
 8030TIP3    H123970   5.533   2.934   5.251
 8030TIP3    H223971   5.445   3.047   5.299
 8031TIP3   OH223972   4.634   2.815   5.371
 8031TIP3    H123973   4.636   2.907   5.405
 8031TIP3    H223974   4.563   2.776   5.426
 8032TIP3   OH223975   4.392   2.944   4.323
 8032TIP3    H123976   4.347   2.924   4.239
 8032TIP3    H223977   4.361   3.034   4.344
 8033TIP3   OH223978   3.831   2.794   4.706
 8033TIP3    H123979   3.881   2.784   4.790
 8033TIP3    H223980   3.768   2.720   4.716
 8034TIP3   OH223981   4.596   2.844   3.965
 8034TIP3    H123982   4.655   2.775   3.929
 8034TIP3    H223983   4.629   2.853   4.057
 8035TIP3   OH223984   4.644   2.891   4.236
 8035TIP3    H123985   4.556   2.901   4.278
 8035TIP3    H223986   4.693   2.846   4.307
 8036TIP3   OH223987   5.418   2.159   5.512
 8036TIP3    H123988   5.339   2.173   5.458
 8036TIP3    H223989   5.433   2.063   5.500
 8037TIP3   OH223990   4.015   2.566   5.541
 8037TIP3    H123991   4.065   2.550   5.624
 8037TIP3    H223992   3.941   2.502   5.549
 8038TIP3   OH223993   4.414   1.391   5.318
 8038TIP3    H123994   4.324   1.360   5.295
 8038TIP3    H223995   4.391   1.474   5.364
 8039TIP3   OH223996   4.947   1.507   5.515
 8039TIP3    H123997   5.014   1.479   5.580
 8039TIP3    H223998   4.862   1.485   5.560
 8040TIP3   OH223999   5.189   1.934   5.433
 8040TIP3    H124000   5.141   1.929   5.519
 8040TIP3    H224001   5.164   2.022   5.400
 8041TIP3   OH224002   4.841   2.073   3.990
 8041TIP3    H124003   4.818   2.039   3.902
 8041TIP3    H224004   4.922   2.123   3.970
 8042TIP3   OH224005   4.559   1.448   4.296
 8042TIP3    H124006   4.527   1.437   4.387
 8042TIP3    H224007   4.527   1.365   4.257
 8043TIP3   OH224008   4.345   1.905   5.340
 8043TIP3    H124009   4.295   1.928   5.422
 8043TIP3    H224010   4.329   1.985   5.286
 8044TIP3   OH224011   4.230   1.791   4.854
 8044TIP3    H124012   4.136   1.766   4.871
 8044TIP3    H224013   4.243   1.751   4.766
 8045TIP3   OH224014   4.721   1.878   4.580
 8045TIP3    H124015   4.665   1.949   4.540
 8045TIP3    H224016   4.776   1.852   4.505
 8046TIP3   OH224017   4.894   2.160   5.670
 8046TIP3    H124018   4.872   2.085   5.731
 8046TIP3    H224019   4.988   2.173   5.690
 8047TIP3   OH224020   4.879   1.908   4.822
 8047TIP3    H124021   4.820   1.938   4.750
 8047TIP3    H224022   4.911   1.824   4.781
 8048TIP3   OH224023   4.163   1.935   5.550
 8048TIP3    H124024   4.191   1.998   5.618
 8048TIP3    H224025   4.153   1.853   5.601
 8049TIP3   OH224026   4.215   1.411   4.259
 8049TIP3    H124027   4.210   1.407   4.357
 8049TIP3    H224028   4.134   1.460   4.237
 8050TIP3   OH224029   3.758   1.457   5.128
 8050TIP3    H124030   3.832   1.490   5.184
 8050TIP3    H224031   3.803   1.424   5.049
 8051TIP3   OH224032   3.735   1.439   4.650
 8051TIP3    H124033   3.782   1.477   4.572
 8051TIP3    H224034   3.676   1.513   4.671
 8052TIP3   OH224035   4.887   2.156   5.245
 8052TIP3    H124036   4.920   2.082   5.189
 8052TIP3    H224037   4.860   2.105   5.325
 8053TIP3   OH224038   4.553   1.618   4.917
 8053TIP3    H124039   4.471   1.612   4.969
 8053TIP3    H224040   4.621   1.615   4.986
 8054TIP3   OH224041   3.991   1.668   4.926
 8054TIP3    H124042   3.897   1.674   4.898
 8054TIP3    H224043   4.016   1.577   4.901
 8055TIP3   OH224044   4.263   1.668   4.612
 8055TIP3    H124045   4.358   1.681   4.592
 8055TIP3    H224046   4.218   1.691   4.527
 8056TIP3   OH224047   5.047   1.691   5.116
 8056TIP3    H124048   5.012   1.701   5.207
 8056TIP3    H224049   4.984   1.626   5.079
 8057TIP3   OH224050   4.097   1.699   4.392
 8057TIP3    H124051   4.024   1.655   4.345
 8057TIP3    H224052   4.149   1.732   4.317
 8058TIP3   OH224053   5.215   3.379   5.338
 8058TIP3    H124054   5.212   3.410   5.246
 8058TIP3    H224055   5.294   3.426   5.372
 8059TIP3   OH224056   4.176   2.488   5.759
 8059TIP3    H124057   4.256   2.518   5.808
 8059TIP3    H224058   4.111   2.488   5.832
 8060TIP3   OH224059   4.641   1.941   5.014
 8060TIP3    H124060   4.712   1.899   4.963
 8060TIP3    H224061   4.652   1.901   5.102
 8061TIP3   OH224062   4.165   1.431   4.886
 8061TIP3    H124063   4.136   1.350   4.932
 8061TIP3    H224064   4.224   1.397   4.818
 8062TIP3   OH224065   4.618   1.835   5.304
 8062TIP3    H124066   4.528   1.873   5.317
 8062TIP3    H224067   4.675   1.894   5.355
 8063TIP3   OH224068   4.355   2.230   4.399
 8063TIP3    H124069   4.282   2.164   4.388
 8063TIP3    H224070   4.336   2.263   4.490
 8064TIP3   OH224071   5.257   2.467   5.030
 8064TIP3    H124072   5.281   2.514   4.947
 8064TIP3    H224073   5.172   2.425   5.007
 8065TIP3   OH224074   4.809   1.548   4.248
 8065TIP3    H124075   4.715   1.527   4.266
 8065TIP3    H224076   4.821   1.639   4.283
 8066TIP3   OH224077   4.758   2.551   5.394
 8066TIP3    H124078   4.772   2.520   5.484
 8066TIP3    H224079   4.712   2.635   5.406
 8067TIP3   OH224080   4.883   1.788   4.361
 8067TIP3    H124081   4.979   1.790   4.380
 8067TIP3    H224082   4.870   1.869   4.309
 8068TIP3   OH224083   4.045   2.249   5.076
 8068TIP3    H124084   4.083   2.221   4.991
 8068TIP3    H224085   4.083   2.185   5.138
 8069TIP3   OH224086   4.501   2.381   4.222
 8069TIP3    H124087   4.453   2.467   4.228
 8069TIP3    H224088   4.443   2.325   4.279
 8070TIP3   OH224089   3.924   2.173   5.687
 8070TIP3    H124090   3.948   2.160   5.781
 8070TIP3    H224091   3.856   2.105   5.674
 8071TIP3   OH224092   4.649   2.284   5.706
 8071TIP3    H124093   4.593   2.224   5.655
 8071TIP3    H224094   4.739   2.252   5.680
 8072TIP3   OH224095   4.913   2.822   5.283
 8072TIP3    H124096   4.819   2.806   5.302
 8072TIP3    H224097   4.942   2.861   5.368
 8073TIP3   OH224098   5.328   1.876   4.202
 8073TIP3    H124099   5.263   1.830   4.143
 8073TIP3    H224100   5.324   1.964   4.160
 8074TIP3   OH224101   5.541   2.731   5.285
 8074TIP3    H124102   5.444   2.730   5.274
 8074TIP3    H224103   5.568   2.704   5.194
 8075TIP3   OH224104   5.023   2.697   4.105
 8075TIP3    H124105   5.000   2.627   4.168
 8075TIP3    H224106   5.035   2.649   4.022
 8076TIP3   OH224107   5.019   2.327   4.949
 8076TIP3    H124108   4.927   2.300   4.962
 8076TIP3    H224109   5.055   2.249   4.904
 8077TIP3   OH224110   4.145   2.552   4.697
 8077TIP3    H124111   4.148   2.635   4.645
 8077TIP3    H224112   4.050   2.539   4.706
 8078TIP3   OH224113   3.708   1.859   4.397
 8078TIP3    H124114   3.756   1.942   4.418
 8078TIP3    H224115   3.632   1.866   4.460
 8079TIP3   OH224116   4.291   2.322   4.645
 8079TIP3    H124117   4.253   2.411   4.663
 8079TIP3    H224118   4.253   2.271   4.719
 8080TIP3   OH224119   4.413   2.898   5.170
 8080TIP3    H124120   4.453   2.972   5.120
 8080TIP3    H224121   4.489   2.866   5.221
 8081TIP3   OH224122   4.067   2.793   4.552
 8081TIP3    H124123   3.981   2.800   4.597
 8081TIP3    H224124   4.098   2.886   4.555
 8082TIP3   OH224125   4.809   2.533   5.125
 8082TIP3    H124126   4.799   2.531   5.223
 8082TIP3    H224127   4.887   2.478   5.113
 8083TIP3   OH224128   4.776   2.421   4.007
 8083TIP3    H124129   4.825   2.398   4.089
 8083TIP3    H224130   4.685   2.398   4.034
 8084TIP3   OH224131   5.048   3.077   5.179
 8084TIP3    H124132   5.005   2.991   5.192
 8084TIP3    H224133   4.990   3.116   5.112
 8085TIP3   OH224134   5.118   2.901   3.830
 8085TIP3    H124135   5.157   2.974   3.778
 8085TIP3    H224136   5.038   2.948   3.862
 8086TIP3   OH224137   4.140   1.677   5.698
 8086TIP3    H124138   4.044   1.683   5.714
 8086TIP3    H224139   4.169   1.615   5.767
 8087TIP3   OH224140   4.936   2.357   4.226
 8087TIP3    H124141   4.926   2.293   4.299
 8087TIP3    H224142   5.033   2.357   4.215
 8088TIP3   OH224143   3.855   2.763   5.328
 8088TIP3    H124144   3.905   2.686   5.358
 8088TIP3    H224145   3.882   2.829   5.394
 8089TIP3   OH224146   4.177   2.409   4.025
 8089TIP3    H124147   4.126   2.355   3.961
 8089TIP3    H224148   4.137   2.383   4.110
 8090TIP3   OH224149   4.083   2.411   4.291
 8090TIP3    H124150   4.159   2.384   4.345
 8090TIP3    H224151   4.094   2.509   4.290
 8091TIP3   OH224152   3.829   2.105   4.483
 8091TIP3    H124153   3.764   2.152   4.540
 8091TIP3    H224154   3.845   2.173   4.415
 8092TIP3   OH224155   4.972   1.742   5.375
 8092TIP3    H124156   5.051   1.779   5.415
 8092TIP3    H224157   4.957   1.661   5.430
 8093TIP3   OH224158   4.850   1.498   4.537
 8093TIP3    H124159   4.842   1.523   4.443
 8093TIP3    H224160   4.892   1.578   4.576
 8094TIP3   OH224161   4.357   2.610   4.232
 8094TIP3    H124162   4.270   2.638   4.266
 8094TIP3    H224163   4.371   2.675   4.162
 8095TIP3   OH224164   4.546   1.672   4.642
 8095TIP3    H124165   4.612   1.742   4.626
 8095TIP3    H224166   4.549   1.664   4.740
 8096TIP3   OH224167   4.814   1.994   5.452
 8096TIP3    H124168   4.829   2.047   5.533
 8096TIP3    H224169   4.869   1.916   5.468
 8097TIP3   OH224170   4.691   1.405   4.747
 8097TIP3    H124171   4.689   1.480   4.810
 8097TIP3    H224172   4.749   1.442   4.677
 8098TIP3   OH224173   4.098   2.685   4.294
 8098TIP3    H124174   4.067   2.755   4.232
 8098TIP3    H224175   4.082   2.728   4.381
 8099TIP3   OH224176   4.199   1.396   4.535
 8099TIP3    H124177   4.199   1.486   4.572
 8099TIP3    H224178   4.294   1.374   4.544
 8100TIP3   OH224179   5.456   1.892   5.430
 8100TIP3    H124180   5.358   1.889   5.438
 8100TIP3    H224181   5.467   1.853   5.343
 8101TIP3   OH224182   5.105   2.087   4.819
 8101TIP3    H124183   5.031   2.026   4.833
 8101TIP3    H224184   5.178   2.041   4.866
 8102TIP3   OH224185   3.812   2.320   4.290
 8102TIP3    H124186   3.880   2.389   4.300
 8102TIP3    H224187   3.859   2.264   4.224
 8103TIP3   OH224188   3.763   1.591   4.425
 8103TIP3    H124189   3.762   1.688   4.417
 8103TIP3    H224190   3.681   1.566   4.381
 8104TIP3   OH224191   4.148   1.311   5.300
 8104TIP3    H124192   4.117   1.277   5.213
 8104TIP3    H224193   4.140   1.232   5.357
 8105TIP3   OH224194   3.692   2.528   4.684
 8105TIP3    H124195   3.613   2.563   4.728
 8105TIP3    H224196   3.680   2.565   4.594
 8106TIP3   OH224197   3.842   3.065   5.749
 8106TIP3    H124198   3.928   3.064   5.795
 8106TIP3    H224199   3.821   2.970   5.747
 8107TIP3   OH224200   4.331   3.039   5.791
 8107TIP3    H124201   4.424   3.016   5.802
 8107TIP3    H224202   4.305   2.981   5.717
 8108TIP3   OH224203   4.314   2.616   3.923
 8108TIP3    H124204   4.261   2.544   3.965
 8108TIP3    H224205   4.386   2.563   3.885
 8109TIP3   OH224206   4.970   2.937   5.524
 8109TIP3    H124207   4.957   2.870   5.595
 8109TIP3    H224208   5.045   2.990   5.558
 8110TIP3   OH224209   4.746   2.654   3.832
 8110TIP3    H124210   4.793   2.592   3.890
 8110TIP3    H224211   4.803   2.656   3.752
 8111TIP3   OH224212   3.976   2.475   5.949
 8111TIP3    H124213   3.992   2.379   5.954
 8111TIP3    H224214   3.887   2.477   5.907
 8112TIP3   OH224215   3.950   2.132   4.143
 8112TIP3    H124216   4.015   2.093   4.205
 8112TIP3    H224217   4.009   2.151   4.068
 8113TIP3   OH224218   4.585   2.559   5.721
 8113TIP3    H124219   4.541   2.570   5.635
 8113TIP3    H224220   4.616   2.466   5.718
 8114TIP3   OH224221   4.476   2.317   3.945
 8114TIP3    H124222   4.453   2.340   4.037
 8114TIP3    H224223   4.435   2.230   3.936
 8115TIP3   OH224224   5.076   2.562   5.327
 8115TIP3    H124225   5.148   2.612   5.283
 8115TIP3    H224226   5.002   2.624   5.317
 8116TIP3   OH224227   4.094   2.206   5.929
 8116TIP3    H124228   4.168   2.145   5.915
 8116TIP3    H224229   4.116   2.241   6.018
 8117TIP3   OH224230   4.167   2.028   4.369
 8117TIP3    H124231   4.135   1.986   4.451
 8117TIP3    H224232   4.195   1.950   4.317
 8118TIP3   OH224233   4.428   2.093   5.592
 8118TIP3    H124234   4.352   2.155   5.598
 8118TIP3    H224235   4.475   2.127   5.513
 8119TIP3   OH224236   4.258   1.821   4.207
 8119TIP3    H124237   4.225   1.815   4.114
 8119TIP3    H224238   4.351   1.840   4.192
 8120TIP3   OH224239   4.946   2.497   5.727
 8120TIP3    H124240   5.029   2.479   5.682
 8120TIP3    H224241   4.945   2.428   5.796
 8121TIP3   OH224242   5.086   2.157   3.863
 8121TIP3    H124243   5.061   2.111   3.781
 8121TIP3    H224244   5.054   2.247   3.842
 8122TIP3   OH224245   4.552   1.880   5.722
 8122TIP3    H124246   4.552   1.799   5.667
 8122TIP3    H224247   4.508   1.945   5.663
 8123TIP3   OH224248   4.554   1.668   5.525
 8123TIP3    H124249   4.581   1.708   5.441
 8123TIP3    H224250   4.460   1.645   5.507
 8124TIP3   OH224251   4.587   2.206   5.398
 8124TIP3    H124252   4.667   2.209   5.345
 8124TIP3    H224253   4.530   2.274   5.355
 8125TIP3   OH224254   5.167   2.173   5.782
 8125TIP3    H124255   5.215   2.089   5.792
 8125TIP3    H224256   5.237   2.232   5.749
 8126TIP3   OH224257   5.208   2.423   5.516
 8126TIP3    H124258   5.150   2.475   5.457
 8126TIP3    H224259   5.295   2.443   5.476
 8127TIP3   OH224260   4.426   2.001   5.946
 8127TIP3    H124261   4.359   1.931   5.961
 8127TIP3    H224262   4.464   1.972   5.860
 8128TIP3   OH224263   4.687   1.433   5.589
 8128TIP3    H124264   4.638   1.516   5.569
 8128TIP3    H224265   4.617   1.365   5.579
 8129TIP3   OH224266   4.813   1.941   5.809
 8129TIP3    H124267   4.806   1.929   5.905
 8129TIP3    H224268   4.722   1.914   5.782
 8130TIP3   OH224269   5.053   1.886   5.663
 8130TIP3    H124270   4.977   1.888   5.725
 8130TIP3    H224271   5.126   1.855   5.721
 8131TIP3   OH224272   5.282   1.825   5.815
 8131TIP3    H124273   5.294   1.730   5.836
 8131TIP3    H224274   5.278   1.867   5.904
 8132TIP3   OH224275   4.270   1.779   5.999
 8132TIP3    H124276   4.278   1.688   5.963
 8132TIP3    H224277   4.304   1.766   6.089
 8133TIP3   OH224278   4.783   1.444   5.846
 8133TIP3    H124279   4.851   1.373   5.843
 8133TIP3    H224280   4.743   1.434   5.757
 8134TIP3   OH224281   4.848   1.658   6.008
 8134TIP3    H124282   4.825   1.587   5.944
 8134TIP3    H224283   4.771   1.717   6.001
 8135TIP3   OH224284   4.066   2.887   4.108
 8135TIP3    H124285   4.161   2.886   4.090
 8135TIP3    H224286   4.035   2.933   4.028
 8136TIP3   OH224287   3.546   2.267   4.330
 8136TIP3    H124288   3.639   2.293   4.314
 8136TIP3    H224289   3.543   2.178   4.288
 8137TIP3   OH224290   3.462   2.880   4.736
 8137TIP3    H124291   3.393   2.817   4.704
 8137TIP3    H224292   3.505   2.826   4.806
 8138TIP3   OH224293   3.597   2.738   4.925
 8138TIP3    H124294   3.588   2.660   4.983
 8138TIP3    H224295   3.647   2.797   4.984
 8139TIP3   OH224296   5.399   2.830   5.579
 8139TIP3    H124297   5.326   2.838   5.643
 8139TIP3    H224298   5.441   2.918   5.583
 8140TIP3   OH224299   5.217   2.344   4.200
 8140TIP3    H124300   5.287   2.406   4.174
 8140TIP3    H224301   5.257   2.303   4.280
 8141TIP3   OH224302   5.343   2.212   4.403
 8141TIP3    H124303   5.279   2.168   4.464
 8141TIP3    H224304   5.409   2.249   4.465
 8142TIP3   OH224305   5.386   2.594   4.825
 8142TIP3    H124306   5.450   2.533   4.783
 8142TIP3    H224307   5.385   2.671   4.766
 8143TIP3   OH224308   5.283   2.117   4.051
 8143TIP3    H124309   5.211   2.123   3.985
 8143TIP3    H224310   5.258   2.193   4.109
 8144TIP3   OH224311   5.155   1.795   4.014
 8144TIP3    H124312   5.128   1.836   3.931
 8144TIP3    H224313   5.127   1.701   4.002
 8145TIP3   OH224314   5.160   2.065   4.552
 8145TIP3    H124315   5.169   1.968   4.549
 8145TIP3    H224316   5.147   2.081   4.649
 8146TIP3   OH224317   3.787   2.141   5.295
 8146TIP3    H124318   3.787   2.113   5.201
 8146TIP3    H224319   3.884   2.141   5.313
 8147TIP3   OH224320   5.447   2.491   5.404
 8147TIP3    H124321   5.521   2.425   5.399
 8147TIP3    H224322   5.480   2.563   5.348
 8148TIP3   OH224323   5.633   2.299   5.432
 8148TIP3    H124324   5.560   2.247   5.470
 8148TIP3    H224325   5.707   2.236   5.443
 8149TIP3   OH224326   5.101   1.531   3.987
 8149TIP3    H124327   5.174   1.498   4.043
 8149TIP3    H224328   5.025   1.473   4.014
 8150TIP3   OH224329   5.153   1.780   4.448
 8150TIP3    H124330   5.193   1.691   4.464
 8150TIP3    H224331   5.215   1.813   4.380
 8151TIP3   OH224332   5.318   1.961   4.940
 8151TIP3    H124333   5.405   1.987   4.902
 8151TIP3    H224334   5.331   1.995   5.031
 8152TIP3   OH224335   5.384   2.098   5.176
 8152TIP3    H124336   5.305   2.134   5.223
 8152TIP3    H224337   5.417   2.178   5.129
 8153TIP3   OH224338   4.003   1.828   5.970
 8153TIP3    H124339   4.100   1.820   5.972
 8153TIP3    H224340   3.978   1.745   6.014
 8154TIP3   OH224341   5.838   1.689   5.731
 8154TIP3    H124342   5.896   1.623   5.687
 8154TIP3    H224343   5.811   1.746   5.656
 8155TIP3   OH224344   5.264   1.531   4.484
 8155TIP3    H124345   5.313   1.516   4.567
 8155TIP3    H224346   5.204   1.453   4.484
 8156TIP3   OH224347   3.963   1.519   5.302
 8156TIP3    H124348   4.025   1.444   5.314
 8156TIP3    H224349   4.026   1.593   5.299
 8157TIP3   OH224350   3.769   1.793   5.376
 8157TIP3    H124351   3.818   1.786   5.293
 8157TIP3    H224352   3.798   1.880   5.408
 8158TIP3   OH224353   5.712   1.833   5.539
 8158TIP3    H124354   5.623   1.870   5.560
 8158TIP3    H224355   5.685   1.762   5.478
 8159TIP3   OH224356   5.347   1.473   4.110
 8159TIP3    H124357   5.389   1.395   4.068
 8159TIP3    H224358   5.418   1.539   4.107
 8160TIP3   OH224359   3.749   1.295   4.875
 8160TIP3    H124360   3.657   1.306   4.901
 8160TIP3    H224361   3.754   1.355   4.797
 8161TIP3   OH224362   4.911   2.997   4.384
 8161TIP3    H124363   4.960   2.981   4.300
 8161TIP3    H224364   4.963   3.067   4.425
 8162TIP3   OH224365   3.970   1.378   5.693
 8162TIP3    H124366   3.921   1.371   5.776
 8162TIP3    H224367   3.902   1.414   5.633
 8163TIP3   OH224368   4.011   2.801   5.771
 8163TIP3    H124369   3.920   2.771   5.752
 8163TIP3    H224370   4.019   2.783   5.865
 8164TIP3   OH224371   4.186   2.830   5.316
 8164TIP3    H124372   4.137   2.906   5.278
 8164TIP3    H224373   4.272   2.846   5.272
 8165TIP3   OH224374   4.638   3.081   5.454
 8165TIP3    H124375   4.677   3.082   5.544
 8165TIP3    H224376   4.704   3.132   5.403
 8166TIP3   OH224377   4.818   3.228   5.310
 8166TIP3    H124378   4.892   3.171   5.285
 8166TIP3    H224379   4.864   3.290   5.372
 8167TIP3   OH224380   5.607   1.595   5.413
 8167TIP3    H124381   5.515   1.590   5.381
 8167TIP3    H224382   5.636   1.501   5.401
 8168TIP3   OH224383   3.866   3.092   5.338
 8168TIP3    H124384   3.778   3.128   5.315
 8168TIP3    H224385   3.873   3.121   5.430
 8169TIP3   OH224386   4.102   3.070   5.196
 8169TIP3    H124387   4.017   3.084   5.242
 8169TIP3    H224388   4.082   3.105   5.107
 8170TIP3   OH224389   4.530   3.099   4.994
 8170TIP3    H124390   4.460   3.121   4.929
 8170TIP3    H224391   4.542   3.186   5.038
 8171TIP3   OH224392   4.804   3.064   5.027
 8171TIP3    H124393   4.708   3.048   5.026
 8171TIP3    H224394   4.806   3.152   4.987
 8172TIP3   OH224395   3.777   2.887   5.085
 8172TIP3    H124396   3.803   2.863   5.177
 8172TIP3    H224397   3.849   2.842   5.036
 8173TIP3   OH224398   3.969   2.757   4.938
 8173TIP3    H124399   3.986   2.673   4.987
 8173TIP3    H224400   4.059   2.795   4.934
 8174TIP3   OH224401   4.235   2.854   4.940
 8174TIP3    H124402   4.267   2.763   4.928
 8174TIP3    H224403   4.274   2.875   5.027
 8175TIP3   OH224404   4.809   1.509   5.026
 8175TIP3    H124405   4.767   1.442   5.083
 8175TIP3    H224406   4.882   1.459   4.986
 8176TIP3   OH224407   5.339   1.390   4.938
 8176TIP3    H124408   5.375   1.441   4.863
 8176TIP3    H224409   5.243   1.406   4.931
 8177TIP3   OH224410   5.431   1.493   4.701
 8177TIP3    H124411   5.504   1.440   4.661
 8177TIP3    H224412   5.465   1.584   4.686
 8178TIP3   OH224413   4.061   1.218   5.050
 8178TIP3    H124414   3.970   1.183   5.048
 8178TIP3    H224415   4.112   1.134   5.048
 8179TIP3   OH224416   3.840   1.087   4.694
 8179TIP3    H124417   3.878   1.142   4.623
 8179TIP3    H224418   3.818   1.153   4.762
 8180TIP3   OH224419   4.499   1.255   4.928
 8180TIP3    H124420   4.562   1.303   4.872
 8180TIP3    H224421   4.523   1.287   5.016
 8181TIP3   OH224422   5.055   1.396   4.913
 8181TIP3    H124423   5.050   1.359   4.824
 8181TIP3    H224424   5.039   1.315   4.968
 8182TIP3   OH224425   5.082   1.316   4.474
 8182TIP3    H124426   4.992   1.354   4.481
 8182TIP3    H224427   5.069   1.232   4.523
 8183TIP3   OH224428   3.565   2.654   4.480
 8183TIP3    H124429   3.481   2.622   4.442
 8183TIP3    H224430   3.551   2.749   4.472
 8184TIP3   OH224431   3.962   1.247   4.461
 8184TIP3    H124432   4.011   1.184   4.405
 8184TIP3    H224433   4.035   1.301   4.497
 8185TIP3   OH224434   4.476   1.421   4.559
 8185TIP3    H124435   4.536   1.372   4.618
 8185TIP3    H224436   4.500   1.513   4.586
 8186TIP3   OH224437   4.335   2.854   4.056
 8186TIP3    H124438   4.425   2.873   4.022
 8186TIP3    H224439   4.314   2.777   3.999
 8187TIP3   OH224440   5.053   2.964   4.150
 8187TIP3    H124441   5.045   2.866   4.136
 8187TIP3    H224442   5.010   2.997   4.069
 8188TIP3   OH224443   4.269   1.500   5.939
 8188TIP3    H124444   4.236   1.429   5.997
 8188TIP3    H224445   4.364   1.500   5.965
 8189TIP3   OH224446   4.518   1.496   6.058
 8189TIP3    H124447   4.603   1.470   6.019
 8189TIP3    H224448   4.505   1.426   6.126
 8190TIP3   OH224449   3.641   2.694   4.116
 8190TIP3    H124450   3.643   2.710   4.212
 8190TIP3    H224451   3.722   2.640   4.102
 8191TIP3   OH224452   5.341   1.555   5.847
 8191TIP3    H124453   5.361   1.523   5.938
 8191TIP3    H224454   5.429   1.550   5.804
 8192TIP3   OH224455   5.276   3.109   5.344
 8192TIP3    H124456   5.196   3.080   5.296
 8192TIP3    H224457   5.261   3.206   5.345
 8193TIP3   OH224458   6.548   2.481   4.108
 8193TIP3    H124459   6.521   2.573   4.089
 8193TIP3    H224460   6.470   2.433   4.076
 8194TIP3   OH224461   6.545   2.480   4.483
 8194TIP3    H124462   6.574   2.448   4.570
 8194TIP3    H224463   6.504   2.401   4.445
 8195TIP3   OH224464   5.846   2.379   4.849
 8195TIP3    H124465   5.878   2.312   4.914
 8195TIP3    H224466   5.921   2.440   4.849
 8196TIP3   OH224467   6.787   2.782   4.165
 8196TIP3    H124468   6.777   2.711   4.230
 8196TIP3    H224469   6.815   2.856   4.221
 8197TIP3   OH224470   5.811   2.782   4.567
 8197TIP3    H124471   5.807   2.684   4.576
 8197TIP3    H224472   5.907   2.797   4.577
 8198TIP3   OH224473   5.525   1.993   4.365
 8198TIP3    H124474   5.476   2.076   4.376
 8198TIP3    H224475   5.454   1.935   4.333
 8199TIP3   OH224476   5.584   2.277   4.529
 8199TIP3    H124477   5.632   2.201   4.569
 8199TIP3    H224478   5.646   2.303   4.459
 8200TIP3   OH224479   6.434   3.244   4.181
 8200TIP3    H124480   6.485   3.173   4.136
 8200TIP3    H224481   6.431   3.212   4.272
 8201TIP3   OH224482   6.346   2.706   4.532
 8201TIP3    H124483   6.383   2.629   4.485
 8201TIP3    H224484   6.431   2.750   4.555
 8202TIP3   OH224485   7.356   2.028   4.530
 8202TIP3    H124486   7.385   2.111   4.574
 8202TIP3    H224487   7.378   2.048   4.438
 8203TIP3   OH224488   6.758   2.211   4.569
 8203TIP3    H124489   6.800   2.125   4.589
 8203TIP3    H224490   6.728   2.196   4.478
 8204TIP3   OH224491   6.090   1.867   4.534
 8204TIP3    H124492   6.072   1.940   4.470
 8204TIP3    H224493   6.044   1.793   4.489
 8205TIP3   OH224494   6.786   1.956   4.156
 8205TIP3    H124495   6.858   1.939   4.222
 8205TIP3    H224496   6.838   1.992   4.083
 8206TIP3   OH224497   5.729   2.072   4.638
 8206TIP3    H124498   5.811   2.051   4.686
 8206TIP3    H224499   5.741   2.014   4.559
 8207TIP3   OH224500   6.171   2.269   4.428
 8207TIP3    H124501   6.264   2.242   4.443
 8207TIP3    H224502   6.132   2.184   4.397
 8208TIP3   OH224503   7.431   2.235   4.701
 8208TIP3    H124504   7.348   2.282   4.681
 8208TIP3    H224505   7.439   2.253   4.796
 8209TIP3   OH224506   6.092   1.852   4.966
 8209TIP3    H124507   6.031   1.889   4.900
 8209TIP3    H224508   6.042   1.869   5.048
 8210TIP3   OH224509   6.444   2.703   3.977
 8210TIP3    H124510   6.398   2.677   3.896
 8210TIP3    H224511   6.400   2.789   3.996
 8211TIP3   OH224512   6.194   2.628   4.769
 8211TIP3    H124513   6.128   2.688   4.809
 8211TIP3    H224514   6.234   2.684   4.700
 8212TIP3   OH224515   7.000   1.959   4.322
 8212TIP3    H124516   6.997   1.903   4.401
 8212TIP3    H224517   7.057   2.033   4.351
 8213TIP3   OH224518   5.960   1.967   4.752
 8213TIP3    H124519   6.024   2.039   4.775
 8213TIP3    H224520   6.009   1.925   4.677
 8214TIP3   OH224521   6.010   2.813   4.871
 8214TIP3    H124522   5.992   2.902   4.834
 8214TIP3    H224523   5.930   2.799   4.924
 8215TIP3   OH224524   5.424   2.508   4.096
 8215TIP3    H124525   5.381   2.536   4.013
 8215TIP3    H224526   5.453   2.593   4.135
 8216TIP3   OH224527   6.862   3.024   4.338
 8216TIP3    H124528   6.772   3.015   4.377
 8216TIP3    H224529   6.854   3.109   4.291
 8217TIP3   OH224530   7.149   1.932   4.700
 8217TIP3    H124531   7.061   1.958   4.668
 8217TIP3    H224532   7.207   1.959   4.626
 8218TIP3   OH224533   6.452   1.572   4.678
 8218TIP3    H124534   6.440   1.477   4.696
 8218TIP3    H224535   6.373   1.609   4.724
 8219TIP3   OH224536   6.568   3.073   4.014
 8219TIP3    H124537   6.617   2.991   3.990
 8219TIP3    H224538   6.627   3.139   3.970
 8220TIP3   OH224539   6.707   2.858   3.913
 8220TIP3    H124540   6.668   2.780   3.872
 8220TIP3    H224541   6.740   2.822   3.998
 8221TIP3   OH224542   7.089   2.941   4.679
 8221TIP3    H124543   7.077   2.862   4.621
 8221TIP3    H224544   7.071   3.014   4.616
 8222TIP3   OH224545   6.378   2.333   3.934
 8222TIP3    H124546   6.297   2.383   3.910
 8222TIP3    H224547   6.425   2.329   3.849
 8223TIP3   OH224548   6.341   2.110   3.664
 8223TIP3    H124549   6.411   2.163   3.706
 8223TIP3    H224550   6.395   2.056   3.603
 8224TIP3   OH224551   7.283   2.575   4.523
 8224TIP3    H124552   7.200   2.628   4.529
 8224TIP3    H224553   7.311   2.598   4.432
 8225TIP3   OH224554   6.725   2.414   3.909
 8225TIP3    H124555   6.671   2.439   3.987
 8225TIP3    H224556   6.809   2.388   3.953
 8226TIP3   OH224557   6.962   2.458   4.815
 8226TIP3    H124558   6.957   2.541   4.865
 8226TIP3    H224559   6.874   2.459   4.770
 8227TIP3   OH224560   5.959   2.415   4.324
 8227TIP3    H124561   5.917   2.357   4.256
 8227TIP3    H224562   6.036   2.361   4.352
 8228TIP3   OH224563   6.091   2.828   4.471
 8228TIP3    H124564   6.068   2.775   4.394
 8228TIP3    H224565   6.181   2.795   4.491
 8229TIP3   OH224566   6.097   2.385   4.677
 8229TIP3    H124567   6.131   2.367   4.587
 8229TIP3    H224568   6.138   2.471   4.700
 8230TIP3   OH224569   6.620   3.022   4.455
 8230TIP3    H124570   6.606   3.101   4.509
 8230TIP3    H224571   6.606   2.948   4.517
 8231TIP3   OH224572   6.228   2.942   5.002
 8231TIP3    H124573   6.169   3.006   5.047
 8231TIP3    H224574   6.161   2.888   4.956
 8232TIP3   OH224575   6.569   2.271   3.735
 8232TIP3    H124576   6.626   2.331   3.788
 8232TIP3    H224577   6.595   2.297   3.643
 8233TIP3   OH224578   5.984   2.500   5.096
 8233TIP3    H124579   5.990   2.585   5.145
 8233TIP3    H224580   5.888   2.482   5.108
 8234TIP3   OH224581   6.307   2.956   4.007
 8234TIP3    H124582   6.383   3.010   4.035
 8234TIP3    H224583   6.245   3.022   3.973
 8235TIP3   OH224584   6.025   3.114   5.088
 8235TIP3    H124585   5.986   3.107   4.999
 8235TIP3    H224586   5.948   3.093   5.147
 8236TIP3   OH224587   7.084   1.517   3.780
 8236TIP3    H124588   7.002   1.531   3.832
 8236TIP3    H224589   7.092   1.601   3.732
 8237TIP3   OH224590   5.824   2.256   4.129
 8237TIP3    H124591   5.760   2.299   4.070
 8237TIP3    H224592   5.782   2.171   4.145
 8238TIP3   OH224593   6.880   2.884   3.328
 8238TIP3    H124594   6.889   2.981   3.315
 8238TIP3    H224595   6.972   2.854   3.317
 8239TIP3   OH224596   5.585   2.627   5.045
 8239TIP3    H124597   5.548   2.604   4.958
 8239TIP3    H224598   5.643   2.552   5.066
 8240TIP3   OH224599   5.470   2.848   4.684
 8240TIP3    H124600   5.546   2.801   4.648
 8240TIP3    H224601   5.516   2.901   4.753
 8241TIP3   OH224602   7.325   3.282   4.723
 8241TIP3    H124603   7.323   3.185   4.734
 8241TIP3    H224604   7.242   3.307   4.768
 8242TIP3   OH224605   6.431   3.070   4.859
 8242TIP3    H124606   6.431   3.163   4.892
 8242TIP3    H224607   6.357   3.032   4.913
 8243TIP3   OH224608   6.186   3.200   3.810
 8243TIP3    H124609   6.143   3.182   3.725
 8243TIP3    H224610   6.157   3.291   3.831
 8244TIP3   OH224611   5.627   3.050   4.193
 8244TIP3    H124612   5.678   3.040   4.277
 8244TIP3    H224613   5.567   2.974   4.200
 8245TIP3   OH224614   6.392   3.099   3.452
 8245TIP3    H124615   6.452   3.031   3.416
 8245TIP3    H224616   6.426   3.109   3.544
 8246TIP3   OH224617   6.440   3.148   3.724
 8246TIP3    H124618   6.352   3.156   3.768
 8246TIP3    H224619   6.492   3.105   3.794
 8247TIP3   OH224620   7.215   2.417   4.997
 8247TIP3    H124621   7.135   2.431   4.944
 8247TIP3    H224622   7.230   2.321   4.986
 8248TIP3   OH224623   6.210   1.647   4.806
 8248TIP3    H124624   6.121   1.616   4.782
 8248TIP3    H224625   6.186   1.730   4.851
 8249TIP3   OH224626   6.742   1.764   5.002
 8249TIP3    H124627   6.809   1.734   5.067
 8249TIP3    H224628   6.658   1.742   5.046
 8250TIP3   OH224629   6.988   2.193   4.923
 8250TIP3    H124630   6.936   2.187   5.006
 8250TIP3    H224631   6.959   2.278   4.886
 8251TIP3   OH224632   6.643   2.325   3.480
 8251TIP3    H124633   6.609   2.297   3.392
 8251TIP3    H224634   6.722   2.375   3.453
 8252TIP3   OH224635   6.141   2.162   4.827
 8252TIP3    H124636   6.090   2.184   4.908
 8252TIP3    H224637   6.125   2.242   4.772
 8253TIP3   OH224638   6.026   2.047   4.340
 8253TIP3    H124639   5.933   2.021   4.356
 8253TIP3    H224640   6.041   2.005   4.252
 8254TIP3   OH224641   6.519   2.136   4.066
 8254TIP3    H124642   6.461   2.206   4.028
 8254TIP3    H224643   6.570   2.109   3.988
 8255TIP3   OH224644   6.690   2.416   5.158
 8255TIP3    H124645   6.668   2.342   5.218
 8255TIP3    H224646   6.785   2.428   5.177
 8256TIP3   OH224647   6.676   2.165   4.308
 8256TIP3    H124648   6.617   2.195   4.236
 8256TIP3    H224649   6.706   2.081   4.268
 8257TIP3   OH224650   5.960   2.192   5.036
 8257TIP3    H124651   5.983   2.257   5.104
 8257TIP3    H224652   5.950   2.110   5.089
 8258TIP3   OH224653   6.015   1.677   3.749
 8258TIP3    H124654   6.002   1.674   3.847
 8258TIP3    H224655   5.932   1.720   3.722
 8259TIP3   OH224656   5.554   1.717   4.613
 8259TIP3    H124657   5.630   1.746   4.668
 8259TIP3    H224658   5.596   1.678   4.535
 8260TIP3   OH224659   5.533   1.694   4.134
 8260TIP3    H124660   5.581   1.734   4.059
 8260TIP3    H224661   5.473   1.768   4.158
 8261TIP3   OH224662   6.687   2.412   4.733
 8261TIP3    H124663   6.718   2.338   4.675
 8261TIP3    H224664   6.656   2.361   4.811
 8262TIP3   OH224665   6.351   1.875   4.402
 8262TIP3    H124666   6.268   1.867   4.453
 8262TIP3    H224667   6.418   1.872   4.472
 8263TIP3   OH224668   5.788   1.924   4.412
 8263TIP3    H124669   5.693   1.930   4.385
 8263TIP3    H224670   5.812   1.832   4.389
 8264TIP3   OH224671   6.062   1.916   4.099
 8264TIP3    H124672   6.159   1.928   4.084
 8264TIP3    H224673   6.022   1.948   4.015
 8265TIP3   OH224674   6.844   1.946   4.604
 8265TIP3    H124675   6.807   1.957   4.694
 8265TIP3    H224676   6.781   1.882   4.566
 8266TIP3   OH224677   5.891   1.958   3.878
 8266TIP3    H124678   5.819   1.913   3.830
 8266TIP3    H224679   5.944   1.991   3.803
 8267TIP3   OH224680   7.011   3.634   4.821
 8267TIP3    H124681   7.009   3.656   4.726
 8267TIP3    H224682   7.086   3.688   4.852
 8268TIP3   OH224683   5.982   2.733   5.246
 8268TIP3    H124684   6.054   2.775   5.298
 8268TIP3    H224685   5.906   2.749   5.304
 8269TIP3   OH224686   6.437   2.199   4.501
 8269TIP3    H124687   6.506   2.155   4.449
 8269TIP3    H224688   6.449   2.157   4.589
 8270TIP3   OH224689   5.961   1.686   4.372
 8270TIP3    H124690   5.929   1.608   4.422
 8270TIP3    H224691   6.034   1.650   4.321
 8271TIP3   OH224692   6.413   2.091   4.791
 8271TIP3    H124693   6.324   2.129   4.803
 8271TIP3    H224694   6.471   2.152   4.842
 8272TIP3   OH224695   6.149   2.488   3.884
 8272TIP3    H124696   6.077   2.421   3.874
 8272TIP3    H224697   6.133   2.520   3.976
 8273TIP3   OH224698   7.052   2.723   4.517
 8273TIP3    H124699   7.075   2.771   4.434
 8273TIP3    H224700   6.967   2.681   4.494
 8274TIP3   OH224701   6.583   1.806   3.747
 8274TIP3    H124702   6.504   1.854   3.719
 8274TIP3    H224703   6.644   1.881   3.762
 8275TIP3   OH224704   6.554   2.806   4.882
 8275TIP3    H124705   6.564   2.777   4.973
 8275TIP3    H224706   6.510   2.892   4.890
 8276TIP3   OH224707   6.688   2.039   3.838
 8276TIP3    H124708   6.782   2.052   3.863
 8276TIP3    H224709   6.666   2.121   3.790
 8277TIP3   OH224710   5.839   2.503   4.564
 8277TIP3    H124711   5.879   2.476   4.479
 8277TIP3    H224712   5.879   2.440   4.626
 8278TIP3   OH224713   6.294   2.636   3.703
 8278TIP3    H124714   6.248   2.722   3.711
 8278TIP3    H224715   6.241   2.580   3.763
 8279TIP3   OH224716   5.725   2.425   5.172
 8279TIP3    H124717   5.747   2.417   5.267
 8279TIP3    H224718   5.653   2.360   5.164
 8280TIP3   OH224719   6.445   2.540   5.194
 8280TIP3    H124720   6.386   2.482   5.143
 8280TIP3    H224721   6.533   2.508   5.166
 8281TIP3   OH224722   6.712   3.066   4.775
 8281TIP3    H124723   6.616   3.060   4.787
 8281TIP3    H224724   6.738   3.116   4.855
 8282TIP3   OH224725   7.122   2.132   3.686
 8282TIP3    H124726   7.059   2.087   3.626
 8282TIP3    H224727   7.119   2.220   3.644
 8283TIP3   OH224728   7.339   2.991   4.768
 8283TIP3    H124729   7.241   2.987   4.760
 8283TIP3    H224730   7.364   2.960   4.677
 8284TIP3   OH224731   6.817   2.954   3.592
 8284TIP3    H124732   6.797   2.883   3.655
 8284TIP3    H224733   6.832   2.906   3.509
 8285TIP3   OH224734   6.816   2.583   4.438
 8285TIP3    H124735   6.723   2.557   4.449
 8285TIP3    H224736   6.851   2.504   4.391
 8286TIP3   OH224737   5.940   2.807   4.181
 8286TIP3    H124738   5.945   2.891   4.132
 8286TIP3    H224739   5.846   2.798   4.195
 8287TIP3   OH224740   5.501   2.117   3.881
 8287TIP3    H124741   5.552   2.197   3.904
 8287TIP3    H224742   5.428   2.122   3.946
 8288TIP3   OH224743   6.087   2.578   4.131
 8288TIP3    H124744   6.049   2.667   4.148
 8288TIP3    H224745   6.050   2.527   4.206
 8289TIP3   OH224746   6.213   3.160   4.651
 8289TIP3    H124747   6.257   3.231   4.600
 8289TIP3    H224748   6.287   3.124   4.702
 8290TIP3   OH224749   5.863   3.050   4.038
 8290TIP3    H124750   5.777   3.058   4.084
 8290TIP3    H224751   5.894   3.143   4.041
 8291TIP3   OH224752   6.604   2.789   4.613
 8291TIP3    H124753   6.596   2.787   4.711
 8291TIP3    H224754   6.683   2.735   4.599
 8292TIP3   OH224755   6.571   2.679   3.496
 8292TIP3    H124756   6.625   2.655   3.575
 8292TIP3    H224757   6.483   2.655   3.528
 8293TIP3   OH224758   6.850   3.326   4.665
 8293TIP3    H124759   6.772   3.267   4.658
 8293TIP3    H224760   6.834   3.390   4.593
 8294TIP3   OH224761   6.915   3.158   3.317
 8294TIP3    H124762   6.954   3.231   3.265
 8294TIP3    H224763   6.834   3.205   3.348
 8295TIP3   OH224764   5.936   1.934   5.185
 8295TIP3    H124765   5.840   1.939   5.200
 8295TIP3    H224766   5.964   1.871   5.254
 8296TIP3   OH224767   6.732   2.617   3.714
 8296TIP3    H124768   6.722   2.549   3.784
 8296TIP3    H224769   6.829   2.614   3.701
 8297TIP3   OH224770   5.940   2.663   3.494
 8297TIP3    H124771   5.959   2.573   3.464
 8297TIP3    H224772   5.924   2.649   3.590
 8298TIP3   OH224773   5.887   2.667   3.769
 8298TIP3    H124774   5.958   2.639   3.829
 8298TIP3    H224775   5.893   2.765   3.774
 8299TIP3   OH224776   5.623   2.361   3.970
 8299TIP3    H124777   5.559   2.406   4.028
 8299TIP3    H224778   5.641   2.432   3.905
 8300TIP3   OH224779   6.767   2.000   4.864
 8300TIP3    H124780   6.849   2.034   4.903
 8300TIP3    H224781   6.751   1.919   4.916
 8301TIP3   OH224782   6.643   1.756   4.024
 8301TIP3    H124783   6.630   1.788   3.933
 8301TIP3    H224784   6.684   1.833   4.068
 8302TIP3   OH224785   6.150   2.865   3.716
 8302TIP3    H124786   6.065   2.895   3.752
 8302TIP3    H224787   6.170   2.936   3.654
 8303TIP3   OH224788   6.339   1.928   4.122
 8303TIP3    H124789   6.408   1.996   4.109
 8303TIP3    H224790   6.344   1.912   4.218
 8304TIP3   OH224791   6.610   2.250   4.938
 8304TIP3    H124792   6.625   2.303   5.019
 8304TIP3    H224793   6.665   2.172   4.953
 8305TIP3   OH224794   6.496   1.663   4.247
 8305TIP3    H124795   6.476   1.744   4.297
 8305TIP3    H224796   6.543   1.699   4.170
 8306TIP3   OH224797   5.891   2.940   3.782
 8306TIP3    H124798   5.862   3.010   3.719
 8306TIP3    H224799   5.877   2.984   3.868
 8307TIP3   OH224800   5.994   1.653   4.023
 8307TIP3    H124801   6.000   1.744   4.061
 8307TIP3    H224802   6.067   1.609   4.069
 8308TIP3   OH224803   7.254   2.149   4.915
 8308TIP3    H124804   7.156   2.148   4.926
 8308TIP3    H224805   7.261   2.106   4.829
 8309TIP3   OH224806   6.902   2.344   4.306
 8309TIP3    H124807   6.826   2.283   4.318
 8309TIP3    H224808   6.974   2.297   4.353
 8310TIP3   OH224809   5.611   2.577   3.777
 8310TIP3    H124810   5.674   2.650   3.787
 8310TIP3    H224811   5.660   2.524   3.710
 8311TIP3   OH224812   5.562   1.849   3.909
 8311TIP3    H124813   5.558   1.946   3.902
 8311TIP3    H224814   5.476   1.822   3.875
 8312TIP3   OH224815   6.869   3.296   4.258
 8312TIP3    H124816   6.826   3.343   4.183
 8312TIP3    H224817   6.963   3.315   4.236
 8313TIP3   OH224818   5.944   1.568   4.786
 8313TIP3    H124819   5.914   1.534   4.700
 8313TIP3    H224820   5.936   1.489   4.843
 8314TIP3   OH224821   5.488   2.790   4.173
 8314TIP3    H124822   5.403   2.820   4.209
 8314TIP3    H224823   5.479   2.822   4.081
 8315TIP3   OH224824   5.634   3.319   5.235
 8315TIP3    H124825   5.721   3.311   5.279
 8315TIP3    H224826   5.610   3.225   5.223
 8316TIP3   OH224827   6.128   3.295   5.276
 8316TIP3    H124828   6.221   3.268   5.284
 8316TIP3    H224829   6.097   3.238   5.204
 8317TIP3   OH224830   6.105   2.868   3.411
 8317TIP3    H124831   6.048   2.797   3.448
 8317TIP3    H224832   6.180   2.815   3.379
 8318TIP3   OH224833   6.763   3.197   5.013
 8318TIP3    H124834   6.752   3.127   5.081
 8318TIP3    H224835   6.840   3.247   5.045
 8319TIP3   OH224836   6.542   2.910   3.318
 8319TIP3    H124837   6.588   2.848   3.377
 8319TIP3    H224838   6.599   2.912   3.239
 8320TIP3   OH224839   5.772   2.734   5.435
 8320TIP3    H124840   5.793   2.639   5.434
 8320TIP3    H224841   5.684   2.735   5.391
 8321TIP3   OH224842   5.747   2.385   3.627
 8321TIP3    H124843   5.801   2.350   3.700
 8321TIP3    H224844   5.815   2.390   3.556
 8322TIP3   OH224845   6.381   2.816   5.208
 8322TIP3    H124846   6.334   2.828   5.123
 8322TIP3    H224847   6.410   2.722   5.204
 8323TIP3   OH224848   6.249   2.583   3.434
 8323TIP3    H124849   6.257   2.595   3.531
 8323TIP3    H224850   6.253   2.484   3.429
 8324TIP3   OH224851   6.874   2.820   4.815
 8324TIP3    H124852   6.944   2.869   4.770
 8324TIP3    H224853   6.799   2.881   4.805
 8325TIP3   OH224854   5.888   2.459   5.417
 8325TIP3    H124855   5.965   2.405   5.400
 8325TIP3    H224856   5.910   2.497   5.505
 8326TIP3   OH224857   5.957   2.285   3.852
 8326TIP3    H124858   5.932   2.243   3.936
 8326TIP3    H224859   5.993   2.210   3.802
 8327TIP3   OH224860   6.225   2.352   5.081
 8327TIP3    H124861   6.147   2.411   5.086
 8327TIP3    H224862   6.270   2.384   5.000
 8328TIP3   OH224863   6.055   2.077   3.693
 8328TIP3    H124864   6.030   2.076   3.599
 8328TIP3    H224865   6.153   2.082   3.686
 8329TIP3   OH224866   6.743   2.754   5.216
 8329TIP3    H124867   6.822   2.733   5.166
 8329TIP3    H224868   6.741   2.683   5.282
 8330TIP3   OH224869   6.882   2.414   3.351
 8330TIP3    H124870   6.859   2.364   3.270
 8330TIP3    H224871   6.849   2.503   3.325
 8331TIP3   OH224872   6.349   2.137   5.208
 8331TIP3    H124873   6.348   2.057   5.153
 8331TIP3    H224874   6.305   2.203   5.149
 8332TIP3   OH224875   6.350   1.924   5.013
 8332TIP3    H124876   6.378   1.964   4.928
 8332TIP3    H224877   6.257   1.901   4.994
 8333TIP3   OH224878   6.382   2.464   4.884
 8333TIP3    H124879   6.462   2.468   4.829
 8333TIP3    H224880   6.325   2.532   4.843
 8334TIP3   OH224881   6.964   2.430   5.271
 8334TIP3    H124882   7.011   2.345   5.277
 8334TIP3    H224883   7.033   2.487   5.235
 8335TIP3   OH224884   7.004   2.681   5.006
 8335TIP3    H124885   6.945   2.732   4.945
 8335TIP3    H224886   7.091   2.700   4.964
 8336TIP3   OH224887   6.225   2.256   5.434
 8336TIP3    H124888   6.156   2.188   5.448
 8336TIP3    H224889   6.260   2.230   5.347
 8337TIP3   OH224890   6.484   1.690   5.077
 8337TIP3    H124891   6.434   1.772   5.056
 8337TIP3    H224892   6.414   1.622   5.065
 8338TIP3   OH224893   6.609   2.197   5.295
 8338TIP3    H124894   6.599   2.185   5.392
 8338TIP3    H224895   6.519   2.171   5.267
 8339TIP3   OH224896   6.850   2.145   5.151
 8339TIP3    H124897   6.773   2.144   5.211
 8339TIP3    H224898   6.922   2.111   5.209
 8340TIP3   OH224899   7.082   2.083   5.303
 8340TIP3    H124900   7.091   1.987   5.323
 8340TIP3    H224901   7.076   2.123   5.392
 8341TIP3   OH224902   6.065   2.036   5.486
 8341TIP3    H124903   6.073   1.945   5.449
 8341TIP3    H224904   6.100   2.022   5.576
 8342TIP3   OH224905   6.580   1.700   5.334
 8342TIP3    H124906   6.647   1.629   5.329
 8342TIP3    H224907   6.539   1.692   5.245
 8343TIP3   OH224908   6.644   1.914   5.495
 8343TIP3    H124909   6.621   1.843   5.431
 8343TIP3    H224910   6.567   1.974   5.488
 8344TIP3   OH224911   5.862   3.143   3.595
 8344TIP3    H124912   5.958   3.141   3.577
 8344TIP3    H224913   5.832   3.190   3.514
 8345TIP3   OH224914   5.344   2.525   3.814
 8345TIP3    H124915   5.439   2.548   3.800
 8345TIP3    H224916   5.341   2.436   3.772
 8346TIP3   OH224917   5.258   3.136   4.222
 8346TIP3    H124918   5.189   3.074   4.190
 8346TIP3    H224919   5.299   3.083   4.294
 8347TIP3   OH224920   5.389   2.999   4.419
 8347TIP3    H124921   5.396   2.915   4.467
 8347TIP3    H224922   5.448   3.055   4.472
 8348TIP3   OH224923   7.119   3.391   4.210
 8348TIP3    H124924   7.147   3.425   4.297
 8348TIP3    H224925   7.178   3.437   4.149
 8349TIP3   OH224926   7.152   3.410   4.492
 8349TIP3    H124927   7.108   3.322   4.487
 8349TIP3    H224928   7.227   3.388   4.549
 8350TIP3   OH224929   7.198   3.086   5.066
 8350TIP3    H124930   7.123   3.093   5.128
 8350TIP3    H224931   7.237   3.176   5.071
 8351TIP3   OH224932   7.012   2.601   3.688
 8351TIP3    H124933   7.083   2.663   3.661
 8351TIP3    H224934   7.053   2.560   3.767
 8352TIP3   OH224935   7.140   2.468   3.890
 8352TIP3    H124936   7.075   2.425   3.949
 8352TIP3    H224937   7.204   2.507   3.953
 8353TIP3   OH224938   7.193   2.857   4.324
 8353TIP3    H124939   7.246   2.794   4.270
 8353TIP3    H224940   7.182   2.932   4.263
 8354TIP3   OH224941   7.028   3.159   4.520
 8354TIP3    H124942   6.956   3.200   4.571
 8354TIP3    H224943   6.979   3.110   4.451
 8355TIP3   OH224944   7.080   2.375   3.539
 8355TIP3    H124945   7.008   2.377   3.471
 8355TIP3    H224946   7.052   2.451   3.594
 8356TIP3   OH224947   6.950   2.050   3.494
 8356TIP3    H124948   6.911   2.089   3.415
 8356TIP3    H224949   6.921   1.956   3.486
 8357TIP3   OH224950   6.956   2.322   4.039
 8357TIP3    H124951   6.965   2.225   4.035
 8357TIP3    H224952   6.943   2.337   4.135
 8358TIP3   OH224953   5.583   2.403   4.781
 8358TIP3    H124954   5.583   2.371   4.689
 8358TIP3    H224955   5.680   2.400   4.801
 8359TIP3   OH224956   7.245   2.747   4.894
 8359TIP3    H124957   7.318   2.682   4.886
 8359TIP3    H224958   7.271   2.816   4.832
 8360TIP3   OH224959   7.432   2.557   4.919
 8360TIP3    H124960   7.357   2.506   4.956
 8360TIP3    H224961   7.504   2.491   4.931
 8361TIP3   OH224962   6.892   1.785   3.488
 8361TIP3    H124963   6.974   1.754   3.533
 8361TIP3    H224964   6.827   1.715   3.507
 8362TIP3   OH224965   6.951   2.038   3.936
 8362TIP3    H124966   6.990   1.949   3.951
 8362TIP3    H224967   7.011   2.070   3.866
 8363TIP3   OH224968   7.115   2.218   4.428
 8363TIP3    H124969   7.202   2.244   4.389
 8363TIP3    H224970   7.128   2.251   4.518
 8364TIP3   OH224971   7.181   2.356   4.663
 8364TIP3    H124972   7.102   2.390   4.709
 8364TIP3    H224973   7.213   2.437   4.616
 8365TIP3   OH224974   5.798   2.085   5.458
 8365TIP3    H124975   5.896   2.077   5.458
 8365TIP3    H224976   5.774   2.001   5.501
 8366TIP3   OH224977   7.636   1.947   5.218
 8366TIP3    H124978   7.692   1.880   5.174
 8366TIP3    H224979   7.607   2.003   5.142
 8367TIP3   OH224980   7.060   1.788   3.971
 8367TIP3    H124981   7.109   1.772   4.055
 8367TIP3    H224982   7.000   1.710   3.971
 8368TIP3   OH224983   5.759   1.775   4.790
 8368TIP3    H124984   5.821   1.700   4.800
 8368TIP3    H224985   5.822   1.849   4.786
 8369TIP3   OH224986   5.565   2.050   4.863
 8369TIP3    H124987   5.615   2.042   4.780
 8369TIP3    H224988   5.596   2.135   4.895
 8370TIP3   OH224989   7.507   2.090   5.025
 8370TIP3    H124990   7.419   2.127   5.044
 8370TIP3    H224991   7.483   2.018   4.964
 8371TIP3   OH224992   7.144   1.728   3.599
 8371TIP3    H124993   7.184   1.651   3.552
 8371TIP3    H224994   7.213   1.796   3.591
 8372TIP3   OH224995   5.546   1.555   4.365
 8372TIP3    H124996   5.452   1.553   4.389
 8372TIP3    H224997   5.545   1.612   4.285
 8373TIP3   OH224998   6.704   3.255   3.869
 8373TIP3    H124999   6.755   3.238   3.787
 8373TIP3    H225000   6.759   3.321   3.913
 8374TIP3   OH225001   5.766   1.635   5.180
 8374TIP3    H125002   5.716   1.627   5.263
 8374TIP3    H225003   5.698   1.671   5.120
 8375TIP3   OH225004   5.817   3.060   5.266
 8375TIP3    H125005   5.738   3.032   5.217
 8375TIP3    H225006   5.791   3.036   5.356
 8376TIP3   OH225007   5.996   3.078   4.804
 8376TIP3    H125008   5.929   3.143   4.778
 8376TIP3    H225009   6.072   3.110   4.751
 8377TIP3   OH225010   6.433   3.336   4.942
 8377TIP3    H125011   6.475   3.340   5.031
 8377TIP3    H225012   6.499   3.387   4.889
 8378TIP3   OH225013   6.611   3.486   4.797
 8378TIP3    H125014   6.682   3.435   4.757
 8378TIP3    H225015   6.662   3.544   4.859
 8379TIP3   OH225016   7.403   1.851   4.900
 8379TIP3    H125017   7.312   1.847   4.867
 8379TIP3    H225018   7.431   1.758   4.888
 8380TIP3   OH225019   5.666   3.369   4.811
 8380TIP3    H125020   5.570   3.388   4.807
 8380TIP3    H225021   5.672   3.322   4.896
 8381TIP3   OH225022   5.903   3.330   4.680
 8381TIP3    H125023   5.819   3.345   4.729
 8381TIP3    H225024   5.879   3.363   4.592
 8382TIP3   OH225025   6.327   3.360   4.479
 8382TIP3    H125026   6.255   3.381   4.415
 8382TIP3    H225027   6.338   3.447   4.524
 8383TIP3   OH225028   6.592   3.298   4.531
 8383TIP3    H125029   6.498   3.314   4.511
 8383TIP3    H225030   6.633   3.376   4.491
 8384TIP3   OH225031   6.803   3.491   4.450
 8384TIP3    H125032   6.789   3.575   4.402
 8384TIP3    H225033   6.827   3.429   4.378
 8385TIP3   OH225034   5.575   3.139   4.578
 8385TIP3    H125035   5.611   3.135   4.669
 8385TIP3    H225036   5.645   3.092   4.528
 8386TIP3   OH225037   5.764   3.014   4.425
 8386TIP3    H125038   5.781   2.929   4.473
 8386TIP3    H225039   5.854   3.052   4.421
 8387TIP3   OH225040   6.030   3.110   4.427
 8387TIP3    H125041   6.063   3.019   4.417
 8387TIP3    H225042   6.070   3.133   4.513
 8388TIP3   OH225043   6.610   1.769   4.522
 8388TIP3    H125044   6.563   1.700   4.572
 8388TIP3    H225045   6.672   1.717   4.469
 8389TIP3   OH225046   7.136   1.650   4.428
 8389TIP3    H125047   7.171   1.699   4.351
 8389TIP3    H225048   7.039   1.660   4.417
 8390TIP3   OH225049   7.228   1.749   4.189
 8390TIP3    H125050   7.300   1.697   4.147
 8390TIP3    H225051   7.261   1.840   4.173
 8391TIP3   OH225052   5.857   1.478   4.536
 8391TIP3    H125053   5.765   1.443   4.537
 8391TIP3    H225054   5.907   1.393   4.534
 8392TIP3   OH225055   5.633   1.343   4.179
 8392TIP3    H125056   5.671   1.402   4.111
 8392TIP3    H225057   5.612   1.405   4.250
 8393TIP3   OH225058   6.285   1.531   4.410
 8393TIP3    H125059   6.357   1.566   4.355
 8393TIP3    H225060   6.321   1.538   4.499
 8394TIP3   OH225061   6.856   1.652   4.398
 8394TIP3    H125062   6.843   1.616   4.309
 8394TIP3    H225063   6.837   1.572   4.454
 8395TIP3   OH225064   6.878   1.574   3.961
 8395TIP3    H125065   6.787   1.608   3.972
 8395TIP3    H225066   6.869   1.487   4.006
 8396TIP3   OH225067   5.360   2.910   3.966
 8396TIP3    H125068   5.275   2.878   3.929
 8396TIP3    H225069   5.348   3.005   3.954
 8397TIP3   OH225070   5.757   1.506   3.944
 8397TIP3    H125071   5.808   1.440   3.893
 8397TIP3    H225072   5.829   1.560   3.983
 8398TIP3   OH225073   6.132   3.108   3.543
 8398TIP3    H125074   6.222   3.128   3.510
 8398TIP3    H225075   6.110   3.031   3.486
 8399TIP3   OH225076   6.849   3.220   3.637
 8399TIP3    H125077   6.841   3.123   3.623
 8399TIP3    H225078   6.806   3.253   3.555
 8400TIP3   OH225079   6.065   1.757   5.427
 8400TIP3    H125080   6.032   1.685   5.484
 8400TIP3    H225081   6.160   1.757   5.452
 8401TIP3   OH225082   6.314   1.753   5.546
 8401TIP3    H125083   6.398   1.726   5.505
 8401TIP3    H225084   6.302   1.683   5.613
 8402TIP3   OH225085   5.437   2.942   3.604
 8402TIP3    H125086   5.435   2.971   3.696
 8402TIP3    H225087   5.526   2.902   3.595
 8403TIP3   OH225088   7.137   1.812   5.334
 8403TIP3    H125089   7.157   1.780   5.425
 8403TIP3    H225090   7.225   1.807   5.291
 8404TIP3   OH225091   7.080   3.367   4.827
 8404TIP3    H125092   7.001   3.333   4.779
 8404TIP3    H225093   7.059   3.462   4.827
 8405TIP3   OH225094   8.342   2.742   3.591
 8405TIP3    H125095   8.317   2.835   3.589
 8405TIP3    H225096   8.263   2.699   3.553
 8406TIP3   OH225097   8.342   2.737   3.969
 8406TIP3    H125098   8.370   2.702   4.055
 8406TIP3    H225099   8.300   2.660   3.928
 8407TIP3   OH225100   7.644   2.636   4.338
 8407TIP3    H125101   7.677   2.569   4.401
 8407TIP3    H225102   7.722   2.691   4.327
 8408TIP3   OH225103   8.632   3.015   3.677
 8408TIP3    H125104   8.567   2.963   3.725
 8408TIP3    H225105   8.589   3.102   3.673
 8409TIP3   OH225106   7.613   3.042   4.069
 8409TIP3    H125107   7.605   2.944   4.071
 8409TIP3    H225108   7.709   3.050   4.057
 8410TIP3   OH225109   7.320   2.249   3.853
 8410TIP3    H125110   7.270   2.332   3.862
 8410TIP3    H225111   7.251   2.191   3.818
 8411TIP3   OH225112   7.382   2.535   4.016
 8411TIP3    H125113   7.429   2.458   4.055
 8411TIP3    H225114   7.439   2.557   3.942
 8412TIP3   OH225115   8.251   3.490   3.659
 8412TIP3    H125116   8.261   3.413   3.596
 8412TIP3    H225117   8.235   3.441   3.740
 8413TIP3   OH225118   8.141   2.963   4.022
 8413TIP3    H125119   8.175   2.887   3.971
 8413TIP3    H225120   8.227   3.006   4.043
 8414TIP3   OH225121   9.088   2.308   4.028
 8414TIP3    H125122   9.152   2.360   4.081
 8414TIP3    H225123   9.129   2.314   3.940
 8415TIP3   OH225124   8.552   2.468   4.057
 8415TIP3    H125125   8.595   2.382   4.076
 8415TIP3    H225126   8.524   2.454   3.965
 8416TIP3   OH225127   7.888   2.124   4.021
 8416TIP3    H125128   7.868   2.196   3.958
 8416TIP3    H225129   7.842   2.050   3.976
 8417TIP3   OH225130   8.583   2.215   3.645
 8417TIP3    H125131   8.656   2.198   3.708
 8417TIP3    H225132   8.634   2.251   3.570
 8418TIP3   OH225133   7.525   2.328   4.125
 8418TIP3    H125134   7.608   2.306   4.172
 8418TIP3    H225135   7.535   2.271   4.046
 8419TIP3   OH225136   7.967   2.525   3.917
 8419TIP3    H125137   8.060   2.498   3.930
 8419TIP3    H225138   7.927   2.441   3.885
 8420TIP3   OH225139   9.224   2.490   4.184
 8420TIP3    H125140   9.140   2.539   4.178
 8420TIP3    H225141   9.258   2.521   4.270
 8421TIP3   OH225142   7.889   2.109   4.453
 8421TIP3    H125143   7.827   2.144   4.386
 8421TIP3    H225144   7.838   2.126   4.535
 8422TIP3   OH225145   7.996   2.882   4.253
 8422TIP3    H125146   7.931   2.945   4.291
 8422TIP3    H225147   8.034   2.934   4.180
 8423TIP3   OH225148   8.800   2.213   3.810
 8423TIP3    H125149   8.794   2.161   3.891
 8423TIP3    H225150   8.854   2.288   3.839
 8424TIP3   OH225151   7.757   2.223   4.239
 8424TIP3    H125152   7.821   2.295   4.261
 8424TIP3    H225153   7.805   2.181   4.163
 8425TIP3   OH225154   7.821   3.074   4.348
 8425TIP3    H125155   7.794   3.157   4.304
 8425TIP3    H225156   7.741   3.060   4.405
 8426TIP3   OH225157   7.220   2.765   3.583
 8426TIP3    H125158   7.178   2.791   3.499
 8426TIP3    H225159   7.249   2.850   3.621
 8427TIP3   OH225160   8.667   3.290   3.835
 8427TIP3    H125161   8.576   3.270   3.868
 8427TIP3    H225162   8.648   3.366   3.778
 8428TIP3   OH225163   8.926   2.180   4.199
 8428TIP3    H125164   8.840   2.208   4.165
 8428TIP3    H225165   8.986   2.218   4.131
 8429TIP3   OH225166   8.248   1.829   4.165
 8429TIP3    H125167   8.237   1.734   4.182
 8429TIP3    H225168   8.169   1.865   4.212
 8430TIP3   OH225169   8.884   3.197   4.163
 8430TIP3    H125170   8.869   3.118   4.106
 8430TIP3    H225171   8.863   3.270   4.102
 8431TIP3   OH225172   8.175   2.591   3.421
 8431TIP3    H125173   8.094   2.641   3.398
 8431TIP3    H225174   8.222   2.588   3.336
 8432TIP3   OH225175   8.134   2.372   3.142
 8432TIP3    H125176   8.202   2.422   3.190
 8432TIP3    H225177   8.191   2.308   3.095
 8433TIP3   OH225178   9.078   2.837   4.014
 8433TIP3    H125179   8.992   2.885   4.017
 8433TIP3    H225180   9.102   2.847   3.920
 8434TIP3   OH225181   8.521   2.668   3.398
 8434TIP3    H125182   8.467   2.697   3.475
 8434TIP3    H225183   8.605   2.645   3.442
 8435TIP3   OH225184   8.757   2.715   4.302
 8435TIP3    H125185   8.751   2.799   4.350
 8435TIP3    H225186   8.670   2.714   4.256
 8436TIP3   OH225187   7.753   2.671   3.812
 8436TIP3    H125188   7.710   2.614   3.744
 8436TIP3    H225189   7.831   2.618   3.838
 8437TIP3   OH225190   7.881   3.078   3.963
 8437TIP3    H125191   7.861   3.037   3.878
 8437TIP3    H225192   7.973   3.047   3.978
 8438TIP3   OH225193   7.893   2.640   4.167
 8438TIP3    H125194   7.923   2.621   4.075
 8438TIP3    H225195   7.935   2.727   4.185
 8439TIP3   OH225196   8.421   3.279   3.945
 8439TIP3    H125197   8.400   3.357   3.999
 8439TIP3    H225198   8.404   3.204   4.005
 8440TIP3   OH225199   8.027   3.199   4.490
 8440TIP3    H125200   7.965   3.261   4.535
 8440TIP3    H225201   7.962   3.144   4.441
 8441TIP3   OH225202   8.365   2.528   3.221
 8441TIP3    H125203   8.423   2.588   3.274
 8441TIP3    H225204   8.391   2.553   3.129
 8442TIP3   OH225205   7.781   2.757   4.587
 8442TIP3    H125206   7.784   2.842   4.636
 8442TIP3    H225207   7.686   2.737   4.592
 8443TIP3   OH225208   7.823   3.371   4.576
 8443TIP3    H125209   7.789   3.367   4.484
 8443TIP3    H225210   7.744   3.346   4.629
 8444TIP3   OH225211   8.886   1.786   3.295
 8444TIP3    H125212   8.796   1.803   3.331
 8444TIP3    H225213   8.891   1.852   3.223
 8445TIP3   OH225214   7.619   2.513   3.619
 8445TIP3    H125215   7.557   2.558   3.558
 8445TIP3    H225216   7.577   2.427   3.629
 8446TIP3   OH225217   8.677   3.141   2.808
 8446TIP3    H125218   8.683   3.239   2.799
 8446TIP3    H225219   8.771   3.116   2.800
 8447TIP3   OH225220   7.403   2.897   4.523
 8447TIP3    H125221   7.339   2.874   4.453
 8447TIP3    H225222   7.438   2.809   4.549
 8448TIP3   OH225223   7.255   3.088   4.158
 8448TIP3    H125224   7.351   3.082   4.146
 8448TIP3    H225225   7.246   3.170   4.210
 8449TIP3   OH225226   9.116   3.543   4.207
 8449TIP3    H125227   9.120   3.446   4.216
 8449TIP3    H225228   9.033   3.562   4.256
 8450TIP3   OH225229   8.228   3.326   4.347
 8450TIP3    H125230   8.227   3.419   4.378
 8450TIP3    H225231   8.155   3.288   4.400
 8451TIP3   OH225232   7.969   3.461   3.288
 8451TIP3    H125233   7.937   3.444   3.198
 8451TIP3    H225234   7.950   3.554   3.305
 8452TIP3   OH225235   7.422   3.308   3.681
 8452TIP3    H125236   7.472   3.297   3.764
 8452TIP3    H225237   7.361   3.232   3.687
 8453TIP3   OH225238   8.175   3.353   2.962
 8453TIP3    H125239   8.234   3.332   2.888
 8453TIP3    H225240   8.232   3.351   3.042
 8454TIP3   OH225241   8.241   3.407   3.231
 8454TIP3    H125242   8.151   3.410   3.268
 8454TIP3    H225243   8.281   3.352   3.302
 8455TIP3   OH225244   9.017   2.678   4.478
 8455TIP3    H125245   8.935   2.687   4.427
 8455TIP3    H225246   9.033   2.582   4.470
 8456TIP3   OH225247   7.606   3.081   4.516
 8456TIP3    H125248   7.657   3.060   4.597
 8456TIP3    H225249   7.533   3.015   4.521
 8457TIP3   OH225250   8.007   1.904   4.292
 8457TIP3    H125251   7.917   1.872   4.268
 8457TIP3    H225252   7.982   1.987   4.336
 8458TIP3   OH225253   8.539   2.021   4.489
 8458TIP3    H125254   8.606   1.990   4.552
 8458TIP3    H225255   8.454   1.998   4.533
 8459TIP3   OH225256   8.780   2.448   4.408
 8459TIP3    H125257   8.731   2.444   4.493
 8459TIP3    H225258   8.754   2.535   4.372
 8460TIP3   OH225259   8.438   2.574   2.964
 8460TIP3    H125260   8.408   2.550   2.874
 8460TIP3    H225261   8.507   2.639   2.946
 8461TIP3   OH225262   8.154   1.954   3.265
 8461TIP3    H125263   8.121   1.952   3.357
 8461TIP3    H225264   8.115   1.871   3.233
 8462TIP3   OH225265   7.939   2.418   4.315
 8462TIP3    H125266   7.886   2.440   4.395
 8462TIP3    H225267   7.923   2.498   4.259
 8463TIP3   OH225268   7.822   2.304   3.828
 8463TIP3    H125269   7.729   2.279   3.844
 8463TIP3    H225270   7.836   2.264   3.739
 8464TIP3   OH225271   8.313   2.391   3.553
 8464TIP3    H125272   8.258   2.463   3.514
 8464TIP3    H225273   8.367   2.364   3.477
 8465TIP3   OH225274   8.487   2.676   4.648
 8465TIP3    H125275   8.464   2.599   4.706
 8465TIP3    H225276   8.583   2.681   4.663
 8466TIP3   OH225277   8.470   2.422   3.795
 8466TIP3    H125278   8.412   2.452   3.723
 8466TIP3    H225279   8.502   2.338   3.755
 8467TIP3   OH225280   7.757   2.449   4.523
 8467TIP3    H125281   7.781   2.511   4.593
 8467TIP3    H225282   7.745   2.366   4.573
 8468TIP3   OH225283   7.807   1.924   3.232
 8468TIP3    H125284   7.802   1.921   3.330
 8468TIP3    H225285   7.726   1.973   3.211
 8469TIP3   OH225286   7.350   1.974   4.102
 8469TIP3    H125287   7.428   2.001   4.154
 8469TIP3    H225288   7.387   1.936   4.021
 8470TIP3   OH225289   7.330   1.952   3.623
 8470TIP3    H125290   7.375   1.991   3.545
 8470TIP3    H225291   7.268   2.025   3.644
 8471TIP3   OH225292   8.484   2.668   4.222
 8471TIP3    H125293   8.515   2.596   4.162
 8471TIP3    H225294   8.453   2.615   4.298
 8472TIP3   OH225295   8.146   2.131   3.891
 8472TIP3    H125296   8.063   2.125   3.942
 8472TIP3    H225297   8.213   2.128   3.961
 8473TIP3   OH225298   7.584   2.181   3.900
 8473TIP3    H125299   7.489   2.188   3.873
 8473TIP3    H225300   7.607   2.089   3.876
 8474TIP3   OH225301   7.857   2.182   3.585
 8474TIP3    H125302   7.951   2.195   3.564
 8474TIP3    H225303   7.811   2.204   3.501
 8475TIP3   OH225304   8.638   2.205   4.091
 8475TIP3    H125305   8.599   2.214   4.181
 8475TIP3    H225306   8.577   2.139   4.052
 8476TIP3   OH225307   7.690   2.211   3.366
 8476TIP3    H125308   7.616   2.169   3.318
 8476TIP3    H225309   7.742   2.247   3.290
 8477TIP3   OH225310   8.807   3.891   4.308
 8477TIP3    H125311   8.804   3.912   4.212
 8477TIP3    H225312   8.885   3.943   4.336
 8478TIP3   OH225313   7.768   3.002   4.733
 8478TIP3    H125314   7.847   3.033   4.781
 8478TIP3    H225315   7.703   3.000   4.805
 8479TIP3   OH225316   8.234   2.454   3.988
 8479TIP3    H125317   8.304   2.414   3.934
 8479TIP3    H225318   8.247   2.411   4.074
 8480TIP3   OH225319   7.760   1.944   3.861
 8480TIP3    H125320   7.727   1.863   3.906
 8480TIP3    H225321   7.814   1.908   3.790
 8481TIP3   OH225322   8.210   2.347   4.278
 8481TIP3    H125323   8.121   2.384   4.290
 8481TIP3    H225324   8.267   2.408   4.329
 8482TIP3   OH225325   7.947   2.741   3.373
 8482TIP3    H125326   7.873   2.678   3.362
 8482TIP3    H225327   7.929   2.777   3.464
 8483TIP3   OH225328   8.845   2.979   4.003
 8483TIP3    H125329   8.863   3.025   3.918
 8483TIP3    H225330   8.760   2.934   3.983
 8484TIP3   OH225331   8.405   2.058   3.227
 8484TIP3    H125332   8.308   2.042   3.237
 8484TIP3    H225333   8.416   2.152   3.254
 8485TIP3   OH225334   8.354   3.064   4.369
 8485TIP3    H125335   8.358   3.033   4.460
 8485TIP3    H225336   8.307   3.148   4.376
 8486TIP3   OH225337   8.477   2.301   3.334
 8486TIP3    H125338   8.573   2.308   3.349
 8486TIP3    H225339   8.457   2.381   3.282
 8487TIP3   OH225340   7.639   2.764   4.050
 8487TIP3    H125341   7.674   2.736   3.963
 8487TIP3    H225342   7.674   2.696   4.109
 8488TIP3   OH225343   8.089   2.886   3.178
 8488TIP3    H125344   8.055   2.976   3.197
 8488TIP3    H225345   8.045   2.836   3.250
 8489TIP3   OH225346   7.516   2.686   4.661
 8489TIP3    H125347   7.537   2.671   4.755
 8489TIP3    H225348   7.448   2.619   4.645
 8490TIP3   OH225349   8.241   2.797   4.681
 8490TIP3    H125350   8.182   2.739   4.629
 8490TIP3    H225351   8.329   2.764   4.653
 8491TIP3   OH225352   8.511   3.324   4.264
 8491TIP3    H125353   8.414   3.315   4.272
 8491TIP3    H225354   8.531   3.375   4.344
 8492TIP3   OH225355   8.914   2.383   3.183
 8492TIP3    H125356   8.856   2.336   3.119
 8492TIP3    H225357   8.935   2.459   3.127
 8493TIP3   OH225358   9.135   3.242   4.247
 8493TIP3    H125359   9.036   3.240   4.242
 8493TIP3    H225360   9.156   3.209   4.158
 8494TIP3   OH225361   8.625   3.204   3.080
 8494TIP3    H125362   8.581   3.140   3.137
 8494TIP3    H225363   8.622   3.160   2.993
 8495TIP3   OH225364   8.613   2.834   3.937
 8495TIP3    H125365   8.518   2.810   3.941
 8495TIP3    H225366   8.647   2.764   3.879
 8496TIP3   OH225367   7.738   3.066   3.676
 8496TIP3    H125368   7.746   3.146   3.620
 8496TIP3    H225369   7.643   3.053   3.675
 8497TIP3   OH225370   7.300   2.372   3.372
 8497TIP3    H125371   7.348   2.455   3.393
 8497TIP3    H225372   7.224   2.378   3.434
 8498TIP3   OH225373   7.883   2.835   3.621
 8498TIP3    H125374   7.848   2.924   3.637
 8498TIP3    H225375   7.842   2.785   3.694
 8499TIP3   OH225376   8.006   3.413   4.145
 8499TIP3    H125377   8.045   3.484   4.089
 8499TIP3    H225378   8.085   3.378   4.189
 8500TIP3   OH225379   7.658   3.304   3.527
 8500TIP3    H125380   7.572   3.315   3.571
 8500TIP3    H225381   7.691   3.396   3.526
 8501TIP3   OH225382   8.400   3.045   4.100
 8501TIP3    H125383   8.394   3.041   4.198
 8501TIP3    H225384   8.477   2.989   4.082
 8502TIP3   OH225385   8.358   2.919   2.980
 8502TIP3    H125386   8.417   2.902   3.057
 8502TIP3    H225387   8.272   2.913   3.023
 8503TIP3   OH225388   8.646   3.584   4.153
 8503TIP3    H125389   8.569   3.525   4.144
 8503TIP3    H225390   8.630   3.647   4.079
 8504TIP3   OH225391   8.711   3.419   2.793
 8504TIP3    H125392   8.753   3.503   2.766
 8504TIP3    H225393   8.629   3.454   2.835
 8505TIP3   OH225394   7.732   2.192   4.672
 8505TIP3    H125395   7.635   2.195   4.685
 8505TIP3    H225396   7.758   2.127   4.739
 8506TIP3   OH225397   8.531   2.863   3.187
 8506TIP3    H125398   8.515   2.812   3.269
 8506TIP3    H225399   8.629   2.866   3.185
 8507TIP3   OH225400   7.446   3.278   4.303
 8507TIP3    H125401   7.495   3.198   4.327
 8507TIP3    H225402   7.479   3.340   4.369
 8508TIP3   OH225403   7.732   2.919   2.981
 8508TIP3    H125404   7.757   2.830   2.952
 8508TIP3    H225405   7.720   2.906   3.077
 8509TIP3   OH225406   7.682   2.923   3.258
 8509TIP3    H125407   7.760   2.898   3.309
 8509TIP3    H225408   7.688   3.021   3.259
 8510TIP3   OH225409   7.421   2.619   3.457
 8510TIP3    H125410   7.355   2.664   3.514
 8510TIP3    H225411   7.438   2.688   3.391
 8511TIP3   OH225412   8.562   2.258   4.352
 8511TIP3    H125413   8.647   2.290   4.386
 8511TIP3    H225414   8.548   2.176   4.404
 8512TIP3   OH225415   8.443   2.010   3.510
 8512TIP3    H125416   8.430   2.035   3.417
 8512TIP3    H225417   8.482   2.092   3.548
 8513TIP3   OH225418   7.940   3.117   3.199
 8513TIP3    H125419   7.862   3.158   3.240
 8513TIP3    H225420   7.978   3.192   3.152
 8514TIP3   OH225421   8.139   2.184   3.615
 8514TIP3    H125422   8.204   2.255   3.597
 8514TIP3    H225423   8.143   2.178   3.713
 8515TIP3   OH225424   8.405   2.506   4.425
 8515TIP3    H125425   8.422   2.557   4.507
 8515TIP3    H225426   8.461   2.427   4.437
 8516TIP3   OH225427   8.284   1.919   3.722
 8516TIP3    H125428   8.278   1.995   3.782
 8516TIP3    H225429   8.342   1.955   3.651
 8517TIP3   OH225430   7.680   3.198   3.268
 8517TIP3    H125431   7.655   3.269   3.206
 8517TIP3    H225432   7.672   3.242   3.355
 8518TIP3   OH225433   7.792   1.909   3.509
 8518TIP3    H125434   7.791   2.000   3.544
 8518TIP3    H225435   7.888   1.889   3.518
 8519TIP3   OH225436   9.046   2.407   4.403
 8519TIP3    H125437   8.948   2.403   4.408
 8519TIP3    H225438   9.060   2.370   4.315
 8520TIP3   OH225439   8.691   2.604   3.789
 8520TIP3    H125440   8.618   2.541   3.804
 8520TIP3    H225441   8.765   2.561   3.837
 8521TIP3   OH225442   7.408   2.834   3.263
 8521TIP3    H125443   7.473   2.905   3.275
 8521TIP3    H225444   7.456   2.780   3.196
 8522TIP3   OH225445   7.356   2.104   3.397
 8522TIP3    H125446   7.352   2.202   3.389
 8522TIP3    H225447   7.272   2.078   3.358
 8523TIP3   OH225448   8.666   3.559   3.747
 8523TIP3    H125449   8.619   3.602   3.673
 8523TIP3    H225450   8.759   3.575   3.721
 8524TIP3   OH225451   7.741   1.825   4.273
 8524TIP3    H125452   7.710   1.791   4.186
 8524TIP3    H225453   7.731   1.745   4.330
 8525TIP3   OH225454   7.285   3.045   3.659
 8525TIP3    H125455   7.203   3.076   3.699
 8525TIP3    H225456   7.274   3.078   3.567
 8526TIP3   OH225457   7.433   3.577   4.724
 8526TIP3    H125458   7.520   3.573   4.768
 8526TIP3    H225459   7.411   3.482   4.719
 8527TIP3   OH225460   7.926   3.551   4.767
 8527TIP3    H125461   8.019   3.523   4.770
 8527TIP3    H225462   7.894   3.496   4.692
 8528TIP3   OH225463   7.898   3.125   2.894
 8528TIP3    H125464   7.844   3.055   2.938
 8528TIP3    H225465   7.975   3.074   2.868
 8529TIP3   OH225466   8.554   3.457   4.504
 8529TIP3    H125467   8.546   3.384   4.568
 8529TIP3    H225468   8.636   3.502   4.532
 8530TIP3   OH225469   7.568   2.988   4.923
 8530TIP3    H125470   7.585   2.892   4.926
 8530TIP3    H225471   7.480   2.991   4.880
 8531TIP3   OH225472   7.543   2.642   3.114
 8531TIP3    H125473   7.597   2.607   3.187
 8531TIP3    H225474   7.611   2.648   3.043
 8532TIP3   OH225475   8.177   3.072   4.695
 8532TIP3    H125476   8.133   3.084   4.609
 8532TIP3    H225477   8.206   2.978   4.691
 8533TIP3   OH225478   8.040   2.834   2.917
 8533TIP3    H125479   8.051   2.851   3.013
 8533TIP3    H225480   8.043   2.736   2.917
 8534TIP3   OH225481   8.671   3.078   4.305
 8534TIP3    H125482   8.740   3.126   4.256
 8534TIP3    H225483   8.594   3.136   4.290
 8535TIP3   OH225484   7.686   2.722   4.903
 8535TIP3    H125485   7.757   2.659   4.886
 8535TIP3    H225486   7.709   2.754   4.992
 8536TIP3   OH225487   7.752   2.541   3.340
 8536TIP3    H125488   7.728   2.497   3.423
 8536TIP3    H225489   7.788   2.467   3.287
 8537TIP3   OH225490   8.022   2.609   4.569
 8537TIP3    H125491   7.943   2.668   4.572
 8537TIP3    H225492   8.067   2.640   4.487
 8538TIP3   OH225493   7.851   2.334   3.181
 8538TIP3    H125494   7.825   2.335   3.086
 8538TIP3    H225495   7.948   2.343   3.173
 8539TIP3   OH225496   8.542   3.013   4.705
 8539TIP3    H125497   8.616   2.987   4.649
 8539TIP3    H225498   8.537   2.938   4.767
 8540TIP3   OH225499   8.685   2.674   2.831
 8540TIP3    H125500   8.651   2.623   2.756
 8540TIP3    H225501   8.645   2.762   2.812
 8541TIP3   OH225502   8.145   2.394   4.695
 8541TIP3    H125503   8.144   2.313   4.640
 8541TIP3    H225504   8.101   2.459   4.636
 8542TIP3   OH225505   8.146   2.182   4.500
 8542TIP3    H125506   8.174   2.221   4.415
 8542TIP3    H225507   8.053   2.158   4.482
 8543TIP3   OH225508   8.181   2.722   4.374
 8543TIP3    H125509   8.259   2.723   4.316
 8543TIP3    H225510   8.123   2.788   4.330
 8544TIP3   OH225511   8.763   2.688   4.760
 8544TIP3    H125512   8.806   2.600   4.762
 8544TIP3    H225513   8.834   2.742   4.721
 8545TIP3   OH225514   8.799   2.940   4.497
 8545TIP3    H125515   8.742   2.990   4.434
 8545TIP3    H225516   8.887   2.955   4.454
 8546TIP3   OH225517   8.021   2.513   4.921
 8546TIP3    H125518   7.952   2.444   4.935
 8546TIP3    H225519   8.056   2.487   4.834
 8547TIP3   OH225520   8.280   1.947   4.564
 8547TIP3    H125521   8.230   2.029   4.543
 8547TIP3    H225522   8.211   1.879   4.552
 8548TIP3   OH225523   8.404   2.455   4.782
 8548TIP3    H125524   8.394   2.441   4.878
 8548TIP3    H225525   8.314   2.428   4.753
 8549TIP3   OH225526   8.647   2.407   4.640
 8549TIP3    H125527   8.570   2.400   4.699
 8549TIP3    H225528   8.719   2.369   4.695
 8550TIP3   OH225529   8.877   2.340   4.791
 8550TIP3    H125530   8.887   2.244   4.809
 8550TIP3    H225531   8.872   2.379   4.881
 8551TIP3   OH225532   7.863   2.293   4.972
 8551TIP3    H125533   7.868   2.202   4.935
 8551TIP3    H225534   7.897   2.277   5.063
 8552TIP3   OH225535   8.376   1.957   4.821
 8552TIP3    H125536   8.443   1.886   4.816
 8552TIP3    H225537   8.335   1.949   4.732
 8553TIP3   OH225538   8.441   2.171   4.982
 8553TIP3    H125539   8.418   2.100   4.918
 8553TIP3    H225540   8.363   2.230   4.974
 8554TIP3   OH225541   7.656   3.403   3.082
 8554TIP3    H125542   7.752   3.396   3.065
 8554TIP3    H225543   7.630   3.448   2.999
 8555TIP3   OH225544   7.140   2.781   3.301
 8555TIP3    H125545   7.235   2.804   3.287
 8555TIP3    H225546   7.136   2.692   3.259
 8556TIP3   OH225547   7.052   3.394   3.710
 8556TIP3    H125548   6.985   3.331   3.677
 8556TIP3    H225549   7.097   3.339   3.778
 8557TIP3   OH225550   7.188   3.252   3.899
 8557TIP3    H125551   7.180   3.173   3.954
 8557TIP3    H225552   7.240   3.310   3.958
 8558TIP3   OH225553   8.920   3.643   3.697
 8558TIP3    H125554   8.942   3.680   3.783
 8558TIP3    H225555   8.974   3.695   3.637
 8559TIP3   OH225556   8.949   3.668   3.980
 8559TIP3    H125557   8.903   3.581   3.974
 8559TIP3    H225558   9.023   3.643   4.037
 8560TIP3   OH225559   8.996   3.347   4.552
 8560TIP3    H125560   8.920   3.349   4.613
 8560TIP3    H225561   9.033   3.437   4.562
 8561TIP3   OH225562   8.809   2.860   3.173
 8561TIP3    H125563   8.881   2.923   3.152
 8561TIP3    H225564   8.846   2.815   3.252
 8562TIP3   OH225565   8.926   2.723   3.374
 8562TIP3    H125566   8.858   2.678   3.430
 8562TIP3    H225567   8.982   2.766   3.442
 8563TIP3   OH225568   8.996   3.109   3.811
 8563TIP3    H125569   9.027   3.055   3.738
 8563TIP3    H225570   8.962   3.187   3.763
 8564TIP3   OH225571   8.827   3.419   4.009
 8564TIP3    H125572   8.753   3.459   4.058
 8564TIP3    H225573   8.778   3.370   3.939
 8565TIP3   OH225574   8.883   2.639   3.019
 8565TIP3    H125575   8.807   2.635   2.956
 8565TIP3    H225576   8.849   2.709   3.079
 8566TIP3   OH225577   8.740   2.303   2.989
 8566TIP3    H125578   8.715   2.347   2.907
 8566TIP3    H225579   8.714   2.210   2.971
 8567TIP3   OH225580   8.755   2.578   3.526
 8567TIP3    H125581   8.760   2.481   3.521
 8567TIP3    H225582   8.738   2.593   3.622
 8568TIP3   OH225583   7.379   2.653   4.270
 8568TIP3    H125584   7.378   2.626   4.176
 8568TIP3    H225585   7.476   2.655   4.287
 8569TIP3   OH225586   9.042   3.003   4.383
 8569TIP3    H125587   9.115   2.938   4.372
 8569TIP3    H225588   9.066   3.072   4.319
 8570TIP3   OH225589   9.239   2.820   4.407
 8570TIP3    H125590   9.159   2.771   4.439
 8570TIP3    H225591   9.304   2.747   4.415
 8571TIP3   OH225592   8.688   2.038   2.969
 8571TIP3    H125593   8.763   2.005   3.023
 8571TIP3    H225594   8.614   1.980   2.995
 8572TIP3   OH225595   8.750   2.296   3.422
 8572TIP3    H125596   8.791   2.207   3.437
 8572TIP3    H225597   8.805   2.328   3.348
 8573TIP3   OH225598   8.901   2.488   3.909
 8573TIP3    H125599   8.987   2.517   3.872
 8573TIP3    H225600   8.920   2.497   4.004
 8574TIP3   OH225601   8.978   2.615   4.154
 8574TIP3    H125602   8.896   2.647   4.197
 8574TIP3    H225603   9.007   2.694   4.104
 8575TIP3   OH225604   7.596   2.343   4.949
 8575TIP3    H125605   7.693   2.332   4.946
 8575TIP3    H225606   7.570   2.258   4.989
 8576TIP3   OH225607   8.858   2.043   3.464
 8576TIP3    H125608   8.892   2.029   3.554
 8576TIP3    H225609   8.796   1.967   3.456
 8577TIP3   OH225610   7.556   2.032   4.278
 8577TIP3    H125611   7.618   1.956   4.287
 8577TIP3    H225612   7.620   2.106   4.272
 8578TIP3   OH225613   7.362   2.308   4.352
 8578TIP3    H125614   7.410   2.296   4.267
 8578TIP3    H225615   7.393   2.395   4.378
 8579TIP3   OH225616   9.285   2.339   4.527
 8579TIP3    H125617   9.201   2.387   4.540
 8579TIP3    H225618   9.259   2.282   4.453
 8580TIP3   OH225619   8.938   1.972   3.084
 8580TIP3    H125620   8.983   1.888   3.063
 8580TIP3    H225621   8.983   2.033   3.022
 8581TIP3   OH225622   7.342   1.816   3.854
 8581TIP3    H125623   7.248   1.809   3.875
 8581TIP3    H225624   7.342   1.870   3.773
 8582TIP3   OH225625   8.499   3.557   3.338
 8582TIP3    H125626   8.534   3.482   3.288
 8582TIP3    H225627   8.562   3.564   3.410
 8583TIP3   OH225628   7.563   1.893   4.668
 8583TIP3    H125629   7.511   1.884   4.749
 8583TIP3    H225630   7.496   1.928   4.607
 8584TIP3   OH225631   7.603   3.317   4.747
 8584TIP3    H125632   7.514   3.285   4.723
 8584TIP3    H225633   7.608   3.294   4.840
 8585TIP3   OH225634   7.779   3.346   4.293
 8585TIP3    H125635   7.730   3.420   4.252
 8585TIP3    H225636   7.865   3.361   4.247
 8586TIP3   OH225637   8.230   3.593   4.432
 8586TIP3    H125638   8.273   3.598   4.519
 8586TIP3    H225639   8.293   3.642   4.376
 8587TIP3   OH225640   8.405   3.743   4.287
 8587TIP3    H125641   8.472   3.692   4.238
 8587TIP3    H225642   8.460   3.799   4.345
 8588TIP3   OH225643   9.195   2.109   4.393
 8588TIP3    H125644   9.107   2.111   4.351
 8588TIP3    H225645   9.229   2.023   4.362
 8589TIP3   OH225646   7.459   3.607   4.312
 8589TIP3    H125647   7.372   3.642   4.286
 8589TIP3    H225648   7.459   3.631   4.405
 8590TIP3   OH225649   7.696   3.585   4.170
 8590TIP3    H125650   7.610   3.598   4.215
 8590TIP3    H225651   7.675   3.617   4.080
 8591TIP3   OH225652   8.119   3.614   3.971
 8591TIP3    H125653   8.053   3.633   3.902
 8591TIP3    H225654   8.133   3.703   4.010
 8592TIP3   OH225655   8.387   3.559   4.025
 8592TIP3    H125656   8.293   3.567   3.998
 8592TIP3    H225657   8.428   3.628   3.971
 8593TIP3   OH225658   8.604   3.750   3.938
 8593TIP3    H125659   8.585   3.832   3.887
 8593TIP3    H225660   8.624   3.686   3.866
 8594TIP3   OH225661   7.369   3.400   4.060
 8594TIP3    H125662   7.396   3.375   4.151
 8594TIP3    H225663   7.440   3.355   4.009
 8595TIP3   OH225664   7.560   3.270   3.913
 8595TIP3    H125665   7.578   3.186   3.960
 8595TIP3    H225666   7.650   3.309   3.906
 8596TIP3   OH225667   7.825   3.370   3.914
 8596TIP3    H125668   7.859   3.281   3.895
 8596TIP3    H225669   7.867   3.386   4.001
 8597TIP3   OH225670   8.403   2.023   4.003
 8597TIP3    H125671   8.360   1.954   4.057
 8597TIP3    H225672   8.474   1.973   3.959
 8598TIP3   OH225673   8.928   1.909   3.931
 8598TIP3    H125674   8.962   1.955   3.850
 8598TIP3    H225675   8.832   1.915   3.917
 8599TIP3   OH225676   9.016   2.000   3.693
 8599TIP3    H125677   9.101   1.957   3.669
 8599TIP3    H225678   9.040   2.095   3.682
 8600TIP3   OH225679   7.654   1.732   4.024
 8600TIP3    H125680   7.562   1.699   4.023
 8600TIP3    H225681   7.703   1.647   4.021
 8601TIP3   OH225682   7.436   1.599   3.667
 8601TIP3    H125683   7.469   1.658   3.596
 8601TIP3    H225684   7.409   1.663   3.735
 8602TIP3   OH225685   8.093   1.767   3.901
 8602TIP3    H125686   8.155   1.817   3.845
 8602TIP3    H225687   8.114   1.800   3.989
 8603TIP3   OH225688   8.645   1.910   3.888
 8603TIP3    H125689   8.646   1.873   3.798
 8603TIP3    H225690   8.632   1.829   3.942
 8604TIP3   OH225691   8.664   1.835   3.451
 8604TIP3    H125692   8.575   1.875   3.463
 8604TIP3    H225693   8.652   1.750   3.499
 8605TIP3   OH225694   7.156   3.167   3.454
 8605TIP3    H125695   7.072   3.134   3.416
 8605TIP3    H225696   7.143   3.262   3.441
 8606TIP3   OH225697   7.554   1.762   3.433
 8606TIP3    H125698   7.603   1.698   3.378
 8606TIP3    H225699   7.627   1.815   3.471
 8607TIP3   OH225700   8.069   1.934   3.532
 8607TIP3    H125701   8.128   1.886   3.592
 8607TIP3    H225702   8.093   2.026   3.558
 8608TIP3   OH225703   7.919   3.369   3.026
 8608TIP3    H125704   8.015   3.381   3.003
 8608TIP3    H225705   7.903   3.288   2.972
 8609TIP3   OH225706   8.665   3.471   3.114
 8609TIP3    H125707   8.647   3.375   3.108
 8609TIP3    H225708   8.603   3.507   3.047
 8610TIP3   OH225709   7.861   2.015   4.915
 8610TIP3    H125710   7.828   1.942   4.970
 8610TIP3    H225711   7.956   2.014   4.940
 8611TIP3   OH225712   8.111   2.011   5.034
 8611TIP3    H125713   8.194   1.983   4.991
 8611TIP3    H225714   8.098   1.940   5.100
 8612TIP3   OH225715   7.234   3.201   3.091
 8612TIP3    H125716   7.232   3.226   3.185
 8612TIP3    H225717   7.322   3.159   3.081
 8613TIP3   OH225718   8.932   2.069   4.822
 8613TIP3    H125719   8.954   2.037   4.912
 8613TIP3    H225720   9.019   2.064   4.777
 8614TIP3   OH225721   8.872   3.623   4.319
 8614TIP3    H125722   8.796   3.589   4.266
 8614TIP3    H225723   8.854   3.719   4.314
 8615TIP3   OH225724   9.097   2.505   3.354
 8615TIP3    H125725   9.031   2.577   3.353
 8615TIP3    H225726   9.049   2.437   3.303
 8616TIP3   OH225727   9.155   2.796   3.505
 8616TIP3    H125728   9.189   2.713   3.542
 8616TIP3    H225729   9.185   2.788   3.413
 8617TIP3   OH225730   9.016   3.027   3.092
 8617TIP3    H125731   8.984   3.031   3.001
 8617TIP3    H225732   9.040   3.119   3.111
 8618TIP3   OH225733   9.199   3.136   3.995
 8618TIP3    H125734   9.123   3.111   3.937
 8618TIP3    H225735   9.227   3.050   4.033
 8619TIP3   OH225736   9.056   3.348   3.642
 8619TIP3    H125737   9.152   3.354   3.638
 8619TIP3    H225738   9.033   3.427   3.693
 8620TIP3   OH225739   9.192   3.568   3.181
 8620TIP3    H125740   9.242   3.562   3.265
 8620TIP3    H225741   9.139   3.486   3.185
 8621TIP3   OH225742   9.336   3.363   4.029
 8621TIP3    H125743   9.379   3.327   4.108
 8621TIP3    H225744   9.275   3.289   4.007
 8622TIP3   OH225745   9.110   2.244   3.620
 8622TIP3    H125746   9.184   2.287   3.665
 8622TIP3    H225747   9.123   2.269   3.528
 8623TIP3   OH225748   9.300   2.936   4.154
 8623TIP3    H125749   9.320   2.903   4.243
 8623TIP3    H225750   9.232   2.872   4.125
 8624TIP3   OH225751   9.077   2.703   2.838
 8624TIP3    H125752   9.147   2.698   2.906
 8624TIP3    H225753   8.999   2.678   2.893
 8625TIP3   OH225754   9.247   3.536   3.791
 8625TIP3    H125755   9.276   3.457   3.839
 8625TIP3    H225756   9.270   3.606   3.853
 8626TIP3   OH225757   9.077   3.303   3.144
 8626TIP3    H125758   8.994   3.326   3.187
 8626TIP3    H225759   9.061   3.340   3.054
 8627TIP3   OH225760   9.227   3.830   4.213
 8627TIP3    H125761   9.318   3.819   4.247
 8627TIP3    H225762   9.201   3.737   4.204
 8628TIP3   OH225763   9.360   3.270   4.398
 8628TIP3    H125764   9.390   3.183   4.428
 8628TIP3    H225765   9.276   3.250   4.352
 8629TIP3   OH225766   8.938   3.046   2.773
 8629TIP3    H125767   9.033   3.032   2.789
 8629TIP3    H225768   8.916   2.961   2.730
 8630TIP3   OH225769   8.851   3.653   3.196
 8630TIP3    H125770   8.781   3.591   3.164
 8630TIP3    H225771   8.893   3.597   3.265
 8631TIP3   OH225772   8.982   3.507   3.388
 8631TIP3    H125773   8.967   3.430   3.444
 8631TIP3    H225774   9.033   3.564   3.449
 8632TIP3   OH225775   9.204   2.892   3.758
 8632TIP3    H125776   9.171   2.874   3.667
 8632TIP3    H225777   9.282   2.946   3.738
 8633TIP3   OH225778   9.373   2.587   4.418
 8633TIP3    H125779   9.466   2.615   4.427
 8633TIP3    H225780   9.369   2.511   4.479
 8634TIP3   OH225781   9.142   2.587   3.817
 8634TIP3    H125782   9.208   2.518   3.799
 8634TIP3    H225783   9.195   2.665   3.838
 8635TIP3   OH225784   9.103   2.119   3.322
 8635TIP3    H125785   9.008   2.102   3.334
 8635TIP3    H225786   9.108   2.132   3.226
 8636TIP3   OH225787   9.395   3.581   4.249
 8636TIP3    H125788   9.317   3.540   4.208
 8636TIP3    H225789   9.398   3.537   4.335
 8637TIP3   OH225790   9.249   3.860   3.801
 8637TIP3    H125791   9.163   3.899   3.774
 8637TIP3    H225792   9.256   3.895   3.890
 8638TIP3   OH225793   9.493   3.834   3.661
 8638TIP3    H125794   9.404   3.847   3.699
 8638TIP3    H225795   9.484   3.875   3.573
 8639TIP3   OH225796   9.167   3.658   3.545
 8639TIP3    H125797   9.195   3.637   3.637
 8639TIP3    H225798   9.242   3.620   3.496
 8640TIP3   OH225799   9.363   3.542   3.390
 8640TIP3    H125800   9.382   3.447   3.399
 8640TIP3    H225801   9.453   3.581   3.394
 8641TIP3   OH225802   8.957   3.421   2.932
 8641TIP3    H125803   8.872   3.384   2.904
 8641TIP3    H225804   8.936   3.514   2.939
 8642TIP3   OH225805   9.058   3.476   2.590
 8642TIP3    H125806   9.016   3.487   2.677
 8642TIP3    H225807   9.106   3.393   2.603
 8643TIP3   OH225808   0.798   3.524   5.281
 8643TIP3    H125809   0.772   3.618   5.267
 8643TIP3    H225810   0.716   3.479   5.255
 8644TIP3   OH225811   0.791   3.523   5.659
 8644TIP3    H125812   0.824   3.499   5.747
 8644TIP3    H225813   0.750   3.440   5.629
 8645TIP3   OH225814   0.094   3.423   6.023
 8645TIP3    H125815   0.123   3.354   6.086
 8645TIP3    H225816   0.173   3.480   6.022
 8646TIP3   OH225817   1.034   3.827   5.343
 8646TIP3    H125818   1.027   3.756   5.409
 8646TIP3    H225819   1.066   3.901   5.397
 8647TIP3   OH225820   0.072   3.831   5.755
 8647TIP3    H125821   0.056   3.735   5.760
 8647TIP3    H225822   0.169   3.832   5.753
 8648TIP3   OH225823  -0.267   3.037   5.532
 8648TIP3    H125824  -0.274   3.127   5.569
 8648TIP3    H225825  -0.284   2.983   5.610
 8649TIP3   OH225826  -0.159   3.322   5.706
 8649TIP3    H125827  -0.112   3.247   5.748
 8649TIP3    H225828  -0.103   3.343   5.631
 8650TIP3   OH225829   0.684   4.289   5.360
 8650TIP3    H125830   0.733   4.219   5.311
 8650TIP3    H225831   0.684   4.253   5.449
 8651TIP3   OH225832   0.596   3.752   5.708
 8651TIP3    H125833   0.631   3.673   5.663
 8651TIP3    H225834   0.681   3.793   5.733
 8652TIP3   OH225835   1.603   3.073   5.708
 8652TIP3    H125836   1.631   3.153   5.758
 8652TIP3    H225837   1.622   3.101   5.617
 8653TIP3   OH225838   1.008   3.255   5.746
 8653TIP3    H125839   1.051   3.169   5.764
 8653TIP3    H225840   0.976   3.240   5.655
 8654TIP3   OH225841   0.345   2.913   5.708
 8654TIP3    H125842   0.319   2.985   5.646
 8654TIP3    H225843   0.296   2.838   5.669
 8655TIP3   OH225844   1.036   3.001   5.335
 8655TIP3    H125845   1.108   2.984   5.399
 8655TIP3    H225846   1.086   3.039   5.262
 8656TIP3   OH225847  -0.022   3.114   5.810
 8656TIP3    H125848   0.055   3.098   5.868
 8656TIP3    H225849  -0.002   3.053   5.736
 8657TIP3   OH225850   0.420   3.314   5.602
 8657TIP3    H125851   0.512   3.286   5.621
 8657TIP3    H225852   0.379   3.229   5.575
 8658TIP3   OH225853   1.673   3.276   5.881
 8658TIP3    H125854   1.593   3.329   5.863
 8658TIP3    H225855   1.695   3.308   5.970
 8659TIP3   OH225856   0.347   2.918   6.162
 8659TIP3    H125857   0.293   2.915   6.081
 8659TIP3    H225858   0.280   2.935   6.231
 8660TIP3   OH225859   0.695   3.750   5.150
 8660TIP3    H125860   0.643   3.720   5.074
 8660TIP3    H225861   0.650   3.834   5.172
 8661TIP3   OH225862   0.448   3.670   5.942
 8661TIP3    H125863   0.382   3.731   5.981
 8661TIP3    H225864   0.490   3.725   5.874
 8662TIP3   OH225865   1.253   3.002   5.500
 8662TIP3    H125866   1.240   2.955   5.583
 8662TIP3    H225867   1.304   3.080   5.529
 8663TIP3   OH225868   0.211   3.007   5.928
 8663TIP3    H125869   0.273   3.077   5.956
 8663TIP3    H225870   0.263   2.966   5.855
 8664TIP3   OH225871   0.274   3.860   6.035
 8664TIP3    H125872   0.248   3.946   5.996
 8664TIP3    H225873   0.196   3.846   6.094
 8665TIP3   OH225874  -0.271   3.581   5.218
 8665TIP3    H125875  -0.360   3.603   5.186
 8665TIP3    H225876  -0.267   3.630   5.302
 8666TIP3   OH225877   1.107   4.067   5.511
 8666TIP3    H125878   1.018   4.059   5.551
 8666TIP3    H225879   1.101   4.155   5.469
 8667TIP3   OH225880   1.397   2.967   5.872
 8667TIP3    H125881   1.312   3.007   5.847
 8667TIP3    H225882   1.458   3.001   5.803
 8668TIP3   OH225883   0.711   2.620   5.861
 8668TIP3    H125884   0.703   2.522   5.869
 8668TIP3    H225885   0.628   2.642   5.908
 8669TIP3   OH225886   0.815   4.119   5.188
 8669TIP3    H125887   0.865   4.036   5.168
 8669TIP3    H225888   0.876   4.184   5.145
 8670TIP3   OH225889   0.957   3.902   5.089
 8670TIP3    H125890   0.908   3.826   5.056
 8670TIP3    H225891   0.990   3.868   5.175
 8671TIP3   OH225892   1.336   3.990   5.856
 8671TIP3    H125893   1.327   3.907   5.805
 8671TIP3    H225894   1.326   4.057   5.786
 8672TIP3   OH225895   0.625   3.375   5.110
 8672TIP3    H125896   0.544   3.427   5.088
 8672TIP3    H225897   0.672   3.375   5.025
 8673TIP3   OH225898   0.585   3.161   4.831
 8673TIP3    H125899   0.654   3.209   4.881
 8673TIP3    H225900   0.641   3.095   4.785
 8674TIP3   OH225901   1.531   3.613   5.695
 8674TIP3    H125902   1.451   3.669   5.708
 8674TIP3    H225903   1.560   3.644   5.607
 8675TIP3   OH225904   0.975   3.459   5.085
 8675TIP3    H125905   0.919   3.485   5.163
 8675TIP3    H225906   1.057   3.433   5.132
 8676TIP3   OH225907   1.209   3.507   5.993
 8676TIP3    H125908   1.217   3.597   6.029
 8676TIP3    H225909   1.123   3.514   5.950
 8677TIP3   OH225910   0.209   3.460   5.498
 8677TIP3    H125911   0.166   3.401   5.433
 8677TIP3    H225912   0.285   3.406   5.528
 8678TIP3   OH225913   0.342   3.875   5.646
 8678TIP3    H125914   0.316   3.819   5.572
 8678TIP3    H225915   0.431   3.839   5.667
 8679TIP3   OH225916   0.349   3.428   5.855
 8679TIP3    H125917   0.379   3.412   5.763
 8679TIP3    H225918   0.388   3.515   5.877
 8680TIP3   OH225919   0.865   4.068   5.631
 8680TIP3    H125920   0.858   4.144   5.692
 8680TIP3    H225921   0.855   3.991   5.692
 8681TIP3   OH225922   0.479   3.989   6.180
 8681TIP3    H125923   0.418   4.050   6.226
 8681TIP3    H225924   0.415   3.933   6.131
 8682TIP3   OH225925   0.819   3.316   4.911
 8682TIP3    H125926   0.875   3.377   4.965
 8682TIP3    H225927   0.845   3.343   4.819
 8683TIP3   OH225928   0.244   3.549   6.271
 8683TIP3    H125929   0.242   3.636   6.317
 8683TIP3    H225930   0.150   3.521   6.283
 8684TIP3   OH225931   0.556   3.999   5.183
 8684TIP3    H125932   0.631   4.054   5.211
 8684TIP3    H225933   0.492   4.064   5.150
 8685TIP3   OH225934   0.276   4.164   6.266
 8685TIP3    H125935   0.242   4.152   6.175
 8685TIP3    H225936   0.207   4.121   6.321
 8686TIP3   OH225937   1.330   2.560   4.957
 8686TIP3    H125938   1.250   2.576   5.010
 8686TIP3    H225939   1.339   2.646   4.911
 8687TIP3   OH225940   0.076   3.299   5.308
 8687TIP3    H125941   0.013   3.340   5.244
 8687TIP3    H225942   0.032   3.216   5.326
 8688TIP3   OH225943   1.127   3.928   4.504
 8688TIP3    H125944   1.135   4.025   4.492
 8688TIP3    H225945   1.221   3.900   4.494
 8689TIP3   OH225946  -0.140   3.699   6.206
 8689TIP3    H125947  -0.193   3.658   6.136
 8689TIP3    H225948  -0.108   3.619   6.252
 8690TIP3   OH225949   1.570   4.331   5.896
 8690TIP3    H125950   1.580   4.234   5.909
 8690TIP3    H225951   1.487   4.346   5.946
 8691TIP3   OH225952   0.677   4.117   6.036
 8691TIP3    H125953   0.678   4.210   6.069
 8691TIP3    H225954   0.606   4.077   6.090
 8692TIP3   OH225955   0.436   4.246   4.986
 8692TIP3    H125956   0.391   4.225   4.902
 8692TIP3    H225957   0.405   4.336   5.006
 8693TIP3   OH225958  -0.084   4.084   5.343
 8693TIP3    H125959  -0.063   4.055   5.435
 8693TIP3    H225960  -0.166   4.038   5.322
 8694TIP3   OH225961   0.640   4.144   4.629
 8694TIP3    H125962   0.700   4.076   4.593
 8694TIP3    H225963   0.674   4.153   4.721
 8695TIP3   OH225964   0.689   4.192   4.901
 8695TIP3    H125965   0.601   4.201   4.944
 8695TIP3    H225966   0.740   4.149   4.971
 8696TIP3   OH225967   1.476   3.458   6.163
 8696TIP3    H125968   1.386   3.486   6.144
 8696TIP3    H225969   1.470   3.361   6.165
 8697TIP3   OH225970   0.066   3.875   6.205
 8697TIP3    H125971   0.113   3.858   6.289
 8697TIP3    H225972  -0.004   3.806   6.208
 8698TIP3   OH225973   0.990   2.762   6.185
 8698TIP3    H125974   1.058   2.788   6.249
 8698TIP3    H225975   0.907   2.787   6.227
 8699TIP3   OH225976   1.230   3.236   6.094
 8699TIP3    H125977   1.189   3.234   6.183
 8699TIP3    H225978   1.214   3.329   6.066
 8700TIP3   OH225979   0.893   3.365   4.654
 8700TIP3    H125980   0.859   3.339   4.567
 8700TIP3    H225981   0.965   3.426   4.630
 8701TIP3   OH225982   0.607   2.742   4.955
 8701TIP3    H125983   0.575   2.740   5.048
 8701TIP3    H225984   0.567   2.659   4.923
 8702TIP3   OH225985   0.393   3.206   6.003
 8702TIP3    H125986   0.339   3.224   6.083
 8702TIP3    H225987   0.375   3.286   5.950
 8703TIP3   OH225988   0.273   3.093   5.516
 8703TIP3    H125989   0.180   3.068   5.533
 8703TIP3    H225990   0.287   3.051   5.428
 8704TIP3   OH225991   0.765   3.179   5.243
 8704TIP3    H125992   0.709   3.251   5.206
 8704TIP3    H225993   0.817   3.152   5.166
 8705TIP3   OH225994   0.933   3.465   6.327
 8705TIP3    H125995   0.936   3.395   6.395
 8705TIP3    H225996   1.010   3.521   6.354
 8706TIP3   OH225997   0.924   3.209   5.486
 8706TIP3    H125998   0.865   3.241   5.415
 8706TIP3    H225999   0.953   3.125   5.444
 8707TIP3   OH226000   0.214   3.238   6.210
 8707TIP3    H126001   0.227   3.301   6.282
 8707TIP3    H226002   0.200   3.154   6.259
 8708TIP3   OH226003   0.260   2.713   4.921
 8708TIP3    H126004   0.256   2.709   5.019
 8708TIP3    H226005   0.178   2.761   4.901
 8709TIP3   OH226006  -0.191   2.784   5.758
 8709TIP3    H126007  -0.136   2.798   5.838
 8709TIP3    H226008  -0.154   2.701   5.725
 8710TIP3   OH226009  -0.212   2.761   5.324
 8710TIP3    H126010  -0.172   2.782   5.238
 8710TIP3    H226011  -0.262   2.841   5.341
 8711TIP3   OH226012   0.923   3.456   5.905
 8711TIP3    H126013   0.962   3.382   5.852
 8711TIP3    H226014   0.905   3.409   5.989
 8712TIP3   OH226015   0.599   2.914   5.580
 8712TIP3    H126016   0.513   2.912   5.627
 8712TIP3    H226017   0.661   2.921   5.655
 8713TIP3   OH226018   0.034   2.968   5.582
 8713TIP3    H126019  -0.058   2.957   5.554
 8713TIP3    H226020   0.070   2.877   5.571
 8714TIP3   OH226021   0.309   2.969   5.274
 8714TIP3    H126022   0.404   2.983   5.254
 8714TIP3    H226023   0.263   2.992   5.191
 8715TIP3   OH226024   1.090   2.989   5.772
 8715TIP3    H126025   1.061   3.002   5.866
 8715TIP3    H226026   1.022   2.927   5.741
 8716TIP3   OH226027   0.141   3.002   5.055
 8716TIP3    H126028   0.069   2.956   5.007
 8716TIP3    H226029   0.193   3.035   4.979
 8717TIP3   OH226030   1.259   4.685   5.997
 8717TIP3    H126031   1.256   4.699   5.901
 8717TIP3    H226032   1.344   4.727   6.020
 8718TIP3   OH226033   0.228   3.786   6.420
 8718TIP3    H126034   0.306   3.821   6.467
 8718TIP3    H226035   0.160   3.796   6.491
 8719TIP3   OH226036   0.684   3.241   5.676
 8719TIP3    H126037   0.758   3.200   5.629
 8719TIP3    H226038   0.695   3.205   5.766
 8720TIP3   OH226039   0.209   2.736   5.550
 8720TIP3    H126040   0.169   2.659   5.598
 8720TIP3    H226041   0.266   2.691   5.487
 8721TIP3   OH226042   0.665   3.138   5.965
 8721TIP3    H126043   0.573   3.171   5.978
 8721TIP3    H226044   0.718   3.199   6.020
 8722TIP3   OH226045   0.399   3.532   5.062
 8722TIP3    H126046   0.327   3.466   5.051
 8722TIP3    H226047   0.381   3.565   5.153
 8723TIP3   OH226048   1.305   3.768   5.693
 8723TIP3    H126049   1.326   3.816   5.610
 8723TIP3    H226050   1.216   3.731   5.675
 8724TIP3   OH226051   0.856   2.848   4.912
 8724TIP3    H126052   0.760   2.829   4.927
 8724TIP3    H226053   0.866   2.940   4.944
 8725TIP3   OH226054   0.794   3.851   6.054
 8725TIP3    H126055   0.814   3.818   6.142
 8725TIP3    H226056   0.756   3.939   6.070
 8726TIP3   OH226057   0.928   3.088   5.022
 8726TIP3    H126058   1.023   3.096   5.043
 8726TIP3    H226059   0.909   3.170   4.973
 8727TIP3   OH226060   0.096   3.557   5.738
 8727TIP3    H126061   0.132   3.521   5.655
 8727TIP3    H226062   0.118   3.488   5.802
 8728TIP3   OH226063   0.542   3.680   4.879
 8728TIP3    H126064   0.497   3.767   4.888
 8728TIP3    H226065   0.489   3.625   4.940
 8729TIP3   OH226066  -0.005   3.475   6.352
 8729TIP3    H126067   0.002   3.461   6.448
 8729TIP3    H226068  -0.095   3.440   6.333
 8730TIP3   OH226069   0.692   3.584   6.370
 8730TIP3    H126070   0.634   3.526   6.318
 8730TIP3    H226071   0.780   3.550   6.343
 8731TIP3   OH226072   0.957   4.126   5.947
 8731TIP3    H126073   0.863   4.108   5.964
 8731TIP3    H226074   0.984   4.167   6.032
 8732TIP3   OH226075   1.371   3.174   4.857
 8732TIP3    H126076   1.306   3.132   4.796
 8732TIP3    H226077   1.362   3.267   4.826
 8733TIP3   OH226078   1.586   4.039   5.947
 8733TIP3    H126079   1.489   4.031   5.940
 8733TIP3    H226080   1.612   4.006   5.858
 8734TIP3   OH226081   1.065   3.999   4.768
 8734TIP3    H126082   1.044   3.930   4.833
 8734TIP3    H226083   1.079   3.949   4.686
 8735TIP3   OH226084   1.063   3.631   5.608
 8735TIP3    H126085   0.971   3.603   5.626
 8735TIP3    H226086   1.099   3.550   5.567
 8736TIP3   OH226087   0.192   3.854   5.357
 8736TIP3    H126088   0.195   3.936   5.305
 8736TIP3    H226089   0.097   3.843   5.373
 8737TIP3   OH226090  -0.249   3.163   5.068
 8737TIP3    H126091  -0.181   3.232   5.077
 8737TIP3    H226092  -0.319   3.204   5.121
 8738TIP3   OH226093   0.336   3.624   5.307
 8738TIP3    H126094   0.298   3.712   5.327
 8738TIP3    H226095   0.300   3.571   5.381
 8739TIP3   OH226096   0.459   4.203   5.832
 8739TIP3    H126097   0.505   4.272   5.780
 8739TIP3    H226098   0.533   4.164   5.880
 8740TIP3   OH226099   0.142   4.098   5.202
 8740TIP3    H126100   0.056   4.097   5.250
 8740TIP3    H226101   0.162   4.193   5.205
 8741TIP3   OH226102   0.852   3.833   5.787
 8741TIP3    H126103   0.844   3.832   5.885
 8741TIP3    H226104   0.939   3.791   5.778
 8742TIP3   OH226105   0.820   3.721   4.671
 8742TIP3    H126106   0.872   3.699   4.751
 8742TIP3    H226107   0.730   3.700   4.703
 8743TIP3   OH226108   1.095   4.377   5.849
 8743TIP3    H126109   1.024   4.310   5.840
 8743TIP3    H226110   1.080   4.433   5.770
 8744TIP3   OH226111   1.163   4.203   4.493
 8744TIP3    H126112   1.202   4.275   4.441
 8744TIP3    H226113   1.083   4.249   4.525
 8745TIP3   OH226114   0.182   2.984   6.375
 8745TIP3    H126115   0.086   2.977   6.385
 8745TIP3    H226116   0.212   2.910   6.432
 8746TIP3   OH226117   0.981   3.657   4.887
 8746TIP3    H126118   0.970   3.594   4.961
 8746TIP3    H226119   1.078   3.658   4.879
 8747TIP3   OH226120  -0.068   4.085   5.986
 8747TIP3    H126121  -0.047   3.991   5.994
 8747TIP3    H226122  -0.064   4.112   6.079
 8748TIP3   OH226123   0.190   3.707   4.670
 8748TIP3    H126124   0.205   3.616   4.641
 8748TIP3    H226125   0.173   3.694   4.766
 8749TIP3   OH226126   0.139   3.711   4.944
 8749TIP3    H126127   0.205   3.683   5.008
 8749TIP3    H226128   0.144   3.809   4.950
 8750TIP3   OH226129  -0.107   3.392   5.127
 8750TIP3    H126130  -0.170   3.446   5.180
 8750TIP3    H226131  -0.088   3.459   5.060
 8751TIP3   OH226132   1.027   3.032   6.033
 8751TIP3    H126133   1.093   3.089   6.075
 8751TIP3    H226134   1.003   2.971   6.103
 8752TIP3   OH226135   0.900   2.797   5.199
 8752TIP3    H126136   0.884   2.824   5.107
 8752TIP3    H226137   0.936   2.879   5.239
 8753TIP3   OH226138   0.400   3.910   4.893
 8753TIP3    H126139   0.314   3.939   4.929
 8753TIP3    H226140   0.417   3.980   4.829
 8754TIP3   OH226141   0.593   2.971   5.306
 8754TIP3    H126142   0.657   3.044   5.290
 8754TIP3    H226143   0.594   2.965   5.404
 8755TIP3   OH226144   0.859   3.294   6.119
 8755TIP3    H126145   0.872   3.355   6.195
 8755TIP3    H226146   0.920   3.223   6.141
 8756TIP3   OH226147   0.739   2.708   5.414
 8756TIP3    H126148   0.725   2.787   5.471
 8756TIP3    H226149   0.796   2.745   5.343
 8757TIP3   OH226150   0.140   3.984   4.954
 8757TIP3    H126151   0.109   4.055   4.894
 8757TIP3    H226152   0.134   4.028   5.041
 8758TIP3   OH226153   0.246   2.697   5.196
 8758TIP3    H126154   0.242   2.785   5.238
 8758TIP3    H226155   0.341   2.677   5.208
 8759TIP3   OH226156   1.497   3.180   6.096
 8759TIP3    H126157   1.399   3.183   6.099
 8759TIP3    H226158   1.512   3.163   6.003
 8760TIP3   OH226159   1.151   3.386   5.480
 8760TIP3    H126160   1.075   3.328   5.498
 8760TIP3    H226161   1.223   3.342   5.530
 8761TIP3   OH226162  -0.129   3.628   4.945
 8761TIP3    H126163  -0.059   3.693   4.959
 8761TIP3    H226164  -0.086   3.572   4.877
 8762TIP3   OH226165  -0.190   2.892   5.085
 8762TIP3    H126166  -0.195   2.990   5.084
 8762TIP3    H226167  -0.270   2.867   5.038
 8763TIP3   OH226168   1.116   4.342   5.434
 8763TIP3    H126169   1.076   4.390   5.359
 8763TIP3    H226170   1.211   4.361   5.417
 8764TIP3   OH226171  -0.242   3.804   5.379
 8764TIP3    H126172  -0.332   3.840   5.371
 8764TIP3    H226173  -0.207   3.827   5.293
 8765TIP3   OH226174   0.375   4.347   6.452
 8765TIP3    H126175   0.465   4.316   6.466
 8765TIP3    H226176   0.345   4.286   6.382
 8766TIP3   OH226177   0.354   3.913   4.588
 8766TIP3    H126178   0.296   3.842   4.625
 8766TIP3    H226179   0.428   3.859   4.556
 8767TIP3   OH226180   1.006   4.244   6.196
 8767TIP3    H126181   1.001   4.169   6.259
 8767TIP3    H226182   1.090   4.287   6.220
 8768TIP3   OH226183   0.790   3.955   4.495
 8768TIP3    H126184   0.838   3.894   4.553
 8768TIP3    H226185   0.846   3.958   4.415
 8769TIP3   OH226186   0.040   3.760   6.622
 8769TIP3    H126187   0.072   3.668   6.614
 8769TIP3    H226188  -0.055   3.745   6.603
 8770TIP3   OH226189  -0.001   3.431   4.803
 8770TIP3    H126190   0.051   3.394   4.876
 8770TIP3    H226191   0.068   3.435   4.733
 8771TIP3   OH226192   0.631   3.858   6.384
 8771TIP3    H126193   0.587   3.871   6.298
 8771TIP3    H226194   0.657   3.763   6.380
 8772TIP3   OH226195   0.502   3.626   4.610
 8772TIP3    H126196   0.505   3.640   4.707
 8772TIP3    H226197   0.499   3.528   4.606
 8773TIP3   OH226198   1.110   3.847   5.956
 8773TIP3    H126199   1.197   3.889   5.951
 8773TIP3    H226200   1.054   3.921   5.982
 8774TIP3   OH226201   0.126   3.494   6.609
 8774TIP3    H126202   0.203   3.446   6.574
 8774TIP3    H226203   0.161   3.529   6.693
 8775TIP3   OH226204   0.209   3.331   5.030
 8775TIP3    H126205   0.179   3.290   5.113
 8775TIP3    H226206   0.241   3.253   4.980
 8776TIP3   OH226207   0.477   3.400   6.262
 8776TIP3    H126208   0.396   3.456   6.260
 8776TIP3    H226209   0.521   3.426   6.178
 8777TIP3   OH226210   0.303   3.121   4.870
 8777TIP3    H126211   0.277   3.122   4.775
 8777TIP3    H226212   0.400   3.131   4.862
 8778TIP3   OH226213   1.137   3.458   4.524
 8778TIP3    H126214   1.104   3.411   4.445
 8778TIP3    H226215   1.101   3.548   4.504
 8779TIP3   OH226216   0.596   3.182   6.386
 8779TIP3    H126217   0.594   3.102   6.329
 8779TIP3    H226218   0.554   3.249   6.328
 8780TIP3   OH226219   0.609   2.969   6.187
 8780TIP3    H126220   0.627   3.011   6.100
 8780TIP3    H226221   0.514   2.945   6.176
 8781TIP3   OH226222   0.634   3.507   6.062
 8781TIP3    H126223   0.714   3.511   6.007
 8781TIP3    H226224   0.576   3.574   6.018
 8782TIP3   OH226225   0.472   3.302   6.612
 8782TIP3    H126226   0.406   3.231   6.623
 8782TIP3    H226227   0.508   3.279   6.524
 8783TIP3   OH226228   0.721   2.731   6.245
 8783TIP3    H126229   0.685   2.822   6.232
 8783TIP3    H226230   0.643   2.680   6.216
 8784TIP3   OH226231   0.862   3.238   6.472
 8784TIP3    H126232   0.852   3.229   6.568
 8784TIP3    H226233   0.770   3.216   6.444
 8785TIP3   OH226234   1.093   3.168   6.323
 8785TIP3    H126235   1.023   3.191   6.387
 8785TIP3    H226236   1.171   3.159   6.381
 8786TIP3   OH226237   1.324   3.125   6.480
 8786TIP3    H126238   1.336   3.032   6.507
 8786TIP3    H226239   1.322   3.172   6.566
 8787TIP3   OH226240   0.314   3.083   6.664
 8787TIP3    H126241   0.320   2.996   6.621
 8787TIP3    H226242   0.349   3.063   6.753
 8788TIP3   OH226243   0.826   2.746   6.505
 8788TIP3    H126244   0.895   2.676   6.503
 8788TIP3    H226245   0.782   2.732   6.420
 8789TIP3   OH226246   0.889   2.955   6.675
 8789TIP3    H126247   0.866   2.888   6.607
 8789TIP3    H226248   0.816   3.020   6.666
 8790TIP3   OH226249   0.111   4.191   4.772
 8790TIP3    H126250   0.206   4.187   4.753
 8790TIP3    H226251   0.079   4.234   4.691
 8791TIP3   OH226252  -0.397   3.586   4.931
 8791TIP3    H126253  -0.304   3.598   4.962
 8791TIP3    H226254  -0.400   3.488   4.920
 8792TIP3   OH226255   1.363   4.447   5.386
 8792TIP3    H126256   1.400   4.468   5.474
 8792TIP3    H226257   1.435   4.474   5.327
 8793TIP3   OH226258   1.399   4.457   5.671
 8793TIP3    H126259   1.358   4.368   5.667
 8793TIP3    H226260   1.480   4.435   5.720
 8794TIP3   OH226261   1.445   4.134   6.238
 8794TIP3    H126262   1.375   4.132   6.306
 8794TIP3    H226263   1.487   4.221   6.252
 8795TIP3   OH226264   1.264   3.642   4.862
 8795TIP3    H126265   1.333   3.708   4.839
 8795TIP3    H226266   1.303   3.603   4.944
 8796TIP3   OH226267   1.388   3.509   5.065
 8796TIP3    H126268   1.323   3.469   5.127
 8796TIP3    H226269   1.454   3.550   5.125
 8797TIP3   OH226270   1.437   3.901   5.493
 8797TIP3    H126271   1.496   3.841   5.444
 8797TIP3    H226272   1.431   3.979   5.435
 8798TIP3   OH226273   1.276   4.207   5.689
 8798TIP3    H126274   1.206   4.235   5.751
 8798TIP3    H226275   1.226   4.151   5.625
 8799TIP3   OH226276   1.333   3.418   4.709
 8799TIP3    H126277   1.258   3.424   4.646
 8799TIP3    H226278   1.308   3.492   4.769
 8800TIP3   OH226279   1.207   3.091   4.660
 8800TIP3    H126280   1.148   3.133   4.597
 8800TIP3    H226281   1.176   2.998   4.656
 8801TIP3   OH226282   1.206   3.365   5.215
 8801TIP3    H126283   1.211   3.268   5.217
 8801TIP3    H226284   1.192   3.384   5.311
 8802TIP3   OH226285  -0.167   3.481   5.940
 8802TIP3    H126286  -0.170   3.430   5.857
 8802TIP3    H226287  -0.078   3.459   5.973
 8803TIP3   OH226288   1.487   3.786   6.057
 8803TIP3    H126289   1.564   3.726   6.063
 8803TIP3    H226290   1.525   3.867   6.020
 8804TIP3   OH226291   1.685   3.606   6.092
 8804TIP3    H126292   1.609   3.556   6.129
 8804TIP3    H226293   1.755   3.539   6.104
 8805TIP3   OH226294   1.143   2.827   4.657
 8805TIP3    H126295   1.217   2.795   4.713
 8805TIP3    H226296   1.068   2.769   4.683
 8806TIP3   OH226297   1.198   3.080   5.113
 8806TIP3    H126298   1.237   2.991   5.128
 8806TIP3    H226299   1.259   3.115   5.047
 8807TIP3   OH226300   1.363   3.260   5.604
 8807TIP3    H126301   1.450   3.287   5.566
 8807TIP3    H226302   1.373   3.297   5.694
 8808TIP3   OH226303   1.424   3.399   5.836
 8808TIP3    H126304   1.352   3.436   5.891
 8808TIP3    H226305   1.460   3.480   5.794
 8809TIP3   OH226306   0.042   3.122   6.652
 8809TIP3    H126307   0.135   3.132   6.628
 8809TIP3    H226308   0.045   3.037   6.697
 8810TIP3   OH226309   1.885   2.991   6.396
 8810TIP3    H126310   1.940   2.924   6.351
 8810TIP3    H226311   1.854   3.046   6.321
 8811TIP3   OH226312   1.312   2.831   5.144
 8811TIP3    H126313   1.358   2.818   5.230
 8811TIP3    H226314   1.250   2.756   5.145
 8812TIP3   OH226315   0.014   2.805   5.954
 8812TIP3    H126316   0.081   2.738   5.971
 8812TIP3    H226317   0.066   2.887   5.960
 8813TIP3   OH226318  -0.155   3.104   6.064
 8813TIP3    H126319  -0.135   3.084   5.971
 8813TIP3    H226320  -0.181   3.197   6.059
 8814TIP3   OH226321   1.757   3.134   6.204
 8814TIP3    H126322   1.671   3.174   6.231
 8814TIP3    H226323   1.725   3.066   6.142
 8815TIP3   OH226324   1.393   2.772   4.777
 8815TIP3    H126325   1.429   2.694   4.730
 8815TIP3    H226326   1.462   2.839   4.761
 8816TIP3   OH226327  -0.213   2.584   5.524
 8816TIP3    H126328  -0.296   2.615   5.560
 8816TIP3    H226329  -0.199   2.649   5.451
 8817TIP3   OH226330   0.952   4.302   5.045
 8817TIP3    H126331   1.003   4.283   4.964
 8817TIP3    H226332   1.011   4.364   5.091
 8818TIP3   OH226333   0.010   2.703   6.376
 8818TIP3    H126334  -0.054   2.670   6.440
 8818TIP3    H226335  -0.045   2.715   6.298
 8819TIP3   OH226336   0.090   4.066   6.442
 8819TIP3    H126337  -0.001   4.091   6.418
 8819TIP3    H226338   0.084   4.066   6.540
 8820TIP3   OH226339   0.240   4.130   5.985
 8820TIP3    H126340   0.180   4.196   5.946
 8820TIP3    H226341   0.322   4.151   5.937
 8821TIP3   OH226342   0.681   4.384   6.121
 8821TIP3    H126343   0.726   4.383   6.208
 8821TIP3    H226344   0.749   4.430   6.066
 8822TIP3   OH226345   0.859   4.532   5.973
 8822TIP3    H126346   0.928   4.478   5.931
 8822TIP3    H226347   0.913   4.587   6.034
 8823TIP3   OH226348   1.654   2.897   6.076
 8823TIP3    H126349   1.562   2.897   6.044
 8823TIP3    H226350   1.679   2.802   6.063
 8824TIP3   OH226351   0.144   4.378   5.869
 8824TIP3    H126352   0.055   4.374   5.907
 8824TIP3    H226353   0.126   4.403   5.777
 8825TIP3   OH226354   0.573   4.405   5.657
 8825TIP3    H126355   0.506   4.427   5.591
 8825TIP3    H226356   0.587   4.491   5.701
 8826TIP3   OH226357   0.840   4.344   5.709
 8826TIP3    H126358   0.746   4.359   5.686
 8826TIP3    H226359   0.884   4.419   5.667
 8827TIP3   OH226360   1.049   4.536   5.626
 8827TIP3    H126361   1.037   4.619   5.575
 8827TIP3    H226362   1.077   4.473   5.556
 8828TIP3   OH226363  -0.127   4.210   5.737
 8828TIP3    H126364  -0.111   4.168   5.825
 8828TIP3    H226365  -0.075   4.147   5.681
 8829TIP3   OH226366   0.022   4.039   5.591
 8829TIP3    H126367   0.036   3.960   5.649
 8829TIP3    H226368   0.112   4.077   5.591
 8830TIP3   OH226369   0.283   4.158   5.606
 8830TIP3    H126370   0.313   4.066   5.589
 8830TIP3    H226371   0.327   4.172   5.692
 8831TIP3   OH226372   0.861   2.811   5.702
 8831TIP3    H126373   0.811   2.745   5.753
 8831TIP3    H226374   0.921   2.757   5.648
 8832TIP3   OH226375   1.384   2.686   5.598
 8832TIP3    H126376   1.420   2.743   5.527
 8832TIP3    H226377   1.289   2.707   5.595
 8833TIP3   OH226378   1.477   2.795   5.362
 8833TIP3    H126379   1.551   2.744   5.325
 8833TIP3    H226380   1.510   2.887   5.351
 8834TIP3   OH226381   0.102   2.525   5.688
 8834TIP3    H126382   0.015   2.482   5.700
 8834TIP3    H226383   0.161   2.451   5.711
 8835TIP3   OH226384  -0.102   2.383   5.363
 8835TIP3    H126385  -0.084   2.443   5.289
 8835TIP3    H226386  -0.136   2.445   5.431
 8836TIP3   OH226387   0.547   2.550   5.587
 8836TIP3    H126388   0.612   2.609   5.546
 8836TIP3    H226389   0.540   2.585   5.677
 8837TIP3   OH226390   1.102   2.696   5.575
 8837TIP3    H126391   1.091   2.664   5.485
 8837TIP3    H226392   1.087   2.615   5.629
 8838TIP3   OH226393   1.126   2.619   5.137
 8838TIP3    H126394   1.038   2.660   5.147
 8838TIP3    H226395   1.112   2.535   5.186
 8839TIP3   OH226396   0.007   2.555   5.117
 8839TIP3    H126397   0.058   2.488   5.067
 8839TIP3    H226398   0.079   2.605   5.160
 8840TIP3   OH226399   0.523   2.721   5.221
 8840TIP3    H126400   0.579   2.672   5.284
 8840TIP3    H226401   0.545   2.813   5.248
 8841TIP3   OH226402   0.380   4.153   4.719
 8841TIP3    H126403   0.470   4.172   4.686
 8841TIP3    H226404   0.359   4.076   4.662
 8842TIP3   OH226405   1.098   4.265   4.814
 8842TIP3    H126406   1.090   4.167   4.800
 8842TIP3    H226407   1.055   4.298   4.732
 8843TIP3   OH226408   0.310   2.802   6.606
 8843TIP3    H126409   0.278   2.727   6.660
 8843TIP3    H226410   0.405   2.801   6.631
 8844TIP3   OH226411   0.562   2.798   6.726
 8844TIP3    H126412   0.647   2.776   6.683
 8844TIP3    H226413   0.551   2.721   6.786
 8845TIP3   OH226414  -0.299   3.992   4.810
 8845TIP3    H126415  -0.277   4.080   4.842
 8845TIP3    H226416  -0.214   3.954   4.780
 8846TIP3   OH226417   1.382   2.852   6.510
 8846TIP3    H126418   1.406   2.822   6.600
 8846TIP3    H226419   1.470   2.853   6.466
 8847TIP3   OH226420   1.324   4.413   6.009
 8847TIP3    H126421   1.248   4.377   5.959
 8847TIP3    H226422   1.305   4.508   6.001
 8848TIP3   OH226423   2.593   3.779   4.769
 8848TIP3    H126424   2.571   3.874   4.756
 8848TIP3    H226425   2.509   3.738   4.744
 8849TIP3   OH226426   2.592   3.777   5.143
 8849TIP3    H126427   2.620   3.752   5.233
 8849TIP3    H226428   2.546   3.698   5.113
 8850TIP3   OH226429   1.895   3.680   5.509
 8850TIP3    H126430   1.924   3.615   5.577
 8850TIP3    H226431   1.962   3.748   5.520
 8851TIP3   OH226432   2.831   4.082   4.827
 8851TIP3    H126433   2.823   4.019   4.899
 8851TIP3    H226434   2.858   4.163   4.876
 8852TIP3   OH226435   1.854   4.084   5.232
 8852TIP3    H126436   1.851   3.987   5.244
 8852TIP3    H226437   1.944   4.103   5.262
 8853TIP3   OH226438   1.573   3.292   5.020
 8853TIP3    H126439   1.532   3.378   5.041
 8853TIP3    H226440   1.493   3.238   5.008
 8854TIP3   OH226441   1.628   3.575   5.186
 8854TIP3    H126442   1.677   3.504   5.233
 8854TIP3    H226443   1.697   3.616   5.133
 8855TIP3   OH226444   2.474   4.545   4.839
 8855TIP3    H126445   2.531   4.470   4.810
 8855TIP3    H226446   2.474   4.536   4.935
 8856TIP3   OH226447   2.391   4.004   5.192
 8856TIP3    H126448   2.434   3.929   5.146
 8856TIP3    H226449   2.472   4.054   5.217
 8857TIP3   OH226450   3.400   3.330   5.194
 8857TIP3    H126451   3.429   3.410   5.241
 8857TIP3    H226452   3.421   3.355   5.102
 8858TIP3   OH226453   2.802   3.512   5.233
 8858TIP3    H126454   2.844   3.427   5.254
 8858TIP3    H226455   2.773   3.496   5.142
 8859TIP3   OH226456   2.137   3.167   5.196
 8859TIP3    H126457   2.117   3.242   5.135
 8859TIP3    H226458   2.087   3.096   5.152
 8860TIP3   OH226459   2.832   3.256   4.820
 8860TIP3    H126460   2.903   3.241   4.886
 8860TIP3    H226461   2.884   3.296   4.748
 8861TIP3   OH226462   1.774   3.374   5.300
 8861TIP3    H126463   1.855   3.355   5.352
 8861TIP3    H226464   1.789   3.315   5.223
 8862TIP3   OH226465   2.218   3.571   5.085
 8862TIP3    H126466   2.310   3.544   5.107
 8862TIP3    H226467   2.177   3.485   5.061
 8863TIP3   OH226468   3.473   3.534   5.365
 8863TIP3    H126469   3.392   3.585   5.346
 8863TIP3    H226470   3.488   3.559   5.458
 8864TIP3   OH226471   2.136   3.152   5.628
 8864TIP3    H126472   2.075   3.192   5.565
 8864TIP3    H226473   2.088   3.168   5.712
 8865TIP3   OH226474   2.492   4.006   4.635
 8865TIP3    H126475   2.438   3.982   4.560
 8865TIP3    H226476   2.452   4.091   4.662
 8866TIP3   OH226477   2.240   3.928   5.431
 8866TIP3    H126478   2.173   3.989   5.470
 8866TIP3    H226479   2.280   3.986   5.364
 8867TIP3   OH226480   3.048   3.259   4.987
 8867TIP3    H126481   3.036   3.212   5.071
 8867TIP3    H226482   3.100   3.336   5.014
 8868TIP3   OH226483   2.005   3.268   5.415
 8868TIP3    H126484   2.066   3.342   5.441
 8868TIP3    H226485   2.058   3.227   5.343
 8869TIP3   OH226486   2.061   4.124   5.499
 8869TIP3    H126487   2.094   4.216   5.512
 8869TIP3    H226488   1.991   4.120   5.567
 8870TIP3   OH226489   1.471   3.809   4.759
 8870TIP3    H126490   1.425   3.840   4.679
 8870TIP3    H226491   1.500   3.894   4.800
 8871TIP3   OH226492   2.899   4.307   4.977
 8871TIP3    H126493   2.817   4.309   5.031
 8871TIP3    H226494   2.911   4.403   4.961
 8872TIP3   OH226495   3.194   3.228   5.360
 8872TIP3    H126496   3.107   3.263   5.334
 8872TIP3    H226497   3.253   3.261   5.288
 8873TIP3   OH226498   2.496   2.874   5.341
 8873TIP3    H126499   2.485   2.779   5.361
 8873TIP3    H226500   2.418   2.911   5.388
 8874TIP3   OH226501   2.614   4.370   4.672
 8874TIP3    H126502   2.668   4.292   4.651
 8874TIP3    H226503   2.670   4.441   4.633
 8875TIP3   OH226504   2.759   4.154   4.572
 8875TIP3    H126505   2.701   4.081   4.548
 8875TIP3    H226506   2.791   4.125   4.661
 8876TIP3   OH226507   2.418   3.627   4.595
 8876TIP3    H126508   2.341   3.685   4.576
 8876TIP3    H226509   2.470   3.635   4.513
 8877TIP3   OH226510   2.381   3.417   4.318
 8877TIP3    H126511   2.446   3.466   4.371
 8877TIP3    H226512   2.439   3.353   4.272
 8878TIP3   OH226513   3.330   3.872   5.185
 8878TIP3    H126514   3.246   3.924   5.192
 8878TIP3    H226515   3.359   3.900   5.095
 8879TIP3   OH226516   2.770   3.713   4.572
 8879TIP3    H126517   2.715   3.741   4.650
 8879TIP3    H226518   2.854   3.690   4.617
 8880TIP3   OH226519   3.007   3.758   5.479
 8880TIP3    H126520   3.004   3.839   5.533
 8880TIP3    H226521   2.920   3.763   5.435
 8881TIP3   OH226522   2.005   3.714   4.985
 8881TIP3    H126523   1.967   3.655   4.917
 8881TIP3    H226524   2.083   3.664   5.016
 8882TIP3   OH226525   2.138   4.135   5.128
 8882TIP3    H126526   2.116   4.071   5.059
 8882TIP3    H226527   2.225   4.102   5.158
 8883TIP3   OH226528   2.145   3.687   5.338
 8883TIP3    H126529   2.180   3.676   5.248
 8883TIP3    H226530   2.182   3.773   5.366
 8884TIP3   OH226531   2.672   4.316   5.119
 8884TIP3    H126532   2.653   4.407   5.153
 8884TIP3    H226533   2.641   4.258   5.190
 8885TIP3   OH226534   2.615   3.573   4.397
 8885TIP3    H126535   2.671   3.632   4.452
 8885TIP3    H226536   2.641   3.600   4.306
 8886TIP3   OH226537   2.027   3.799   5.760
 8886TIP3    H126538   2.035   3.885   5.806
 8886TIP3    H226539   1.932   3.782   5.775
 8887TIP3   OH226540   2.352   4.256   4.667
 8887TIP3    H126541   2.427   4.309   4.699
 8887TIP3    H226542   2.289   4.324   4.642
 8888TIP3   OH226543   3.124   2.817   4.442
 8888TIP3    H126544   3.046   2.836   4.498
 8888TIP3    H226545   3.137   2.902   4.397
 8889TIP3   OH226546   1.874   3.550   4.780
 8889TIP3    H126547   1.807   3.601   4.730
 8889TIP3    H226548   1.820   3.483   4.822
 8890TIP3   OH226549   2.923   4.183   3.986
 8890TIP3    H126550   2.931   4.281   3.980
 8890TIP3    H226551   3.018   4.157   3.980
 8891TIP3   OH226552   1.646   3.937   5.704
 8891TIP3    H126553   1.586   3.911   5.632
 8891TIP3    H226554   1.687   3.852   5.731
 8892TIP3   OH226555   1.506   4.137   5.332
 8892TIP3    H126556   1.602   4.124   5.324
 8892TIP3    H226557   1.503   4.211   5.394
 8893TIP3   OH226558   2.232   4.502   4.472
 8893TIP3    H126559   2.186   4.488   4.387
 8893TIP3    H226560   2.202   4.592   4.498
 8894TIP3   OH226561   1.672   4.351   4.856
 8894TIP3    H126562   1.725   4.343   4.939
 8894TIP3    H226563   1.607   4.280   4.872
 8895TIP3   OH226564   2.436   4.400   4.116
 8895TIP3    H126565   2.497   4.332   4.082
 8895TIP3    H226566   2.468   4.412   4.207
 8896TIP3   OH226567   2.484   4.446   4.386
 8896TIP3    H126568   2.397   4.458   4.431
 8896TIP3    H226569   2.537   4.412   4.461
 8897TIP3   OH226570   3.261   3.717   5.660
 8897TIP3    H126571   3.178   3.732   5.612
 8897TIP3    H226572   3.273   3.621   5.650
 8898TIP3   OH226573   1.855   4.119   5.684
 8898TIP3    H126574   1.903   4.125   5.769
 8898TIP3    H226575   1.784   4.056   5.705
 8899TIP3   OH226576   2.255   2.950   5.467
 8899TIP3    H126577   2.165   2.918   5.447
 8899TIP3    H226578   2.233   3.032   5.515
 8900TIP3   OH226579   2.787   3.063   5.665
 8900TIP3    H126580   2.854   3.038   5.731
 8900TIP3    H226581   2.702   3.044   5.711
 8901TIP3   OH226582   3.031   3.494   5.585
 8901TIP3    H126583   2.981   3.487   5.669
 8901TIP3    H226584   3.004   3.581   5.551
 8902TIP3   OH226585   2.684   3.621   4.139
 8902TIP3    H126586   2.657   3.596   4.049
 8902TIP3    H226587   2.760   3.679   4.121
 8903TIP3   OH226588   2.402   2.999   4.442
 8903TIP3    H126589   2.372   2.998   4.535
 8903TIP3    H226590   2.363   2.915   4.412
 8904TIP3   OH226591   2.184   3.463   5.489
 8904TIP3    H126592   2.139   3.487   5.572
 8904TIP3    H226593   2.170   3.544   5.436
 8905TIP3   OH226594   2.071   3.348   5.003
 8905TIP3    H126595   1.978   3.323   5.022
 8905TIP3    H226596   2.084   3.305   4.916
 8906TIP3   OH226597   2.559   3.432   4.728
 8906TIP3    H126598   2.505   3.506   4.692
 8906TIP3    H226599   2.616   3.410   4.652
 8907TIP3   OH226600   2.741   3.708   5.808
 8907TIP3    H126601   2.713   3.645   5.877
 8907TIP3    H226602   2.828   3.737   5.841
 8908TIP3   OH226603   2.720   3.464   4.974
 8908TIP3    H126604   2.662   3.499   4.903
 8908TIP3    H226605   2.749   3.381   4.931
 8909TIP3   OH226606   2.003   3.491   5.699
 8909TIP3    H126607   2.028   3.560   5.762
 8909TIP3    H226608   1.994   3.413   5.756
 8910TIP3   OH226609   2.059   2.973   4.409
 8910TIP3    H126610   2.061   2.967   4.507
 8910TIP3    H226611   1.966   2.989   4.393
 8911TIP3   OH226612   1.599   3.021   5.272
 8911TIP3    H126613   1.672   3.048   5.332
 8911TIP3    H226614   1.645   2.975   5.201
 8912TIP3   OH226615   1.575   3.006   4.782
 8912TIP3    H126616   1.659   3.053   4.795
 8912TIP3    H226617   1.508   3.067   4.819
 8913TIP3   OH226618   2.728   3.714   5.396
 8913TIP3    H126619   2.761   3.640   5.341
 8913TIP3    H226620   2.701   3.665   5.476
 8914TIP3   OH226621   2.392   3.173   5.066
 8914TIP3    H126622   2.311   3.170   5.120
 8914TIP3    H226623   2.461   3.176   5.135
 8915TIP3   OH226624   1.834   3.226   5.070
 8915TIP3    H126625   1.737   3.232   5.051
 8915TIP3    H226626   1.855   3.132   5.059
 8916TIP3   OH226627   2.106   3.221   4.759
 8916TIP3    H126628   2.203   3.235   4.753
 8916TIP3    H226629   2.071   3.261   4.678
 8917TIP3   OH226630   2.888   3.247   5.262
 8917TIP3    H126631   2.859   3.259   5.355
 8917TIP3    H226632   2.822   3.184   5.230
 8918TIP3   OH226633   1.913   3.253   4.523
 8918TIP3    H126634   1.879   3.196   4.452
 8918TIP3    H226635   1.985   3.299   4.476
 8919TIP3   OH226636   2.016   4.035   5.910
 8919TIP3    H126637   2.093   4.075   5.953
 8919TIP3    H226638   1.947   4.055   5.977
 8920TIP3   OH226639   2.480   3.496   5.163
 8920TIP3    H126640   2.556   3.458   5.116
 8920TIP3    H226641   2.492   3.461   5.253
 8921TIP3   OH226642   2.002   2.988   5.035
 8921TIP3    H126643   1.972   2.909   5.084
 8921TIP3    H226644   2.070   2.951   4.977
 8922TIP3   OH226645   2.458   3.394   5.454
 8922TIP3    H126646   2.369   3.432   5.468
 8922TIP3    H226647   2.516   3.453   5.507
 8923TIP3   OH226648   2.197   3.787   4.548
 8923TIP3    H126649   2.121   3.726   4.538
 8923TIP3    H226650   2.180   3.823   4.639
 8924TIP3   OH226651   3.101   4.015   5.184
 8924TIP3    H126652   3.123   4.077   5.112
 8924TIP3    H226653   3.011   3.985   5.160
 8925TIP3   OH226654   2.651   3.106   4.393
 8925TIP3    H126655   2.556   3.089   4.413
 8925TIP3    H226656   2.666   3.196   4.429
 8926TIP3   OH226657   2.726   3.343   4.507
 8926TIP3    H126658   2.821   3.351   4.529
 8926TIP3    H226659   2.708   3.427   4.460
 8927TIP3   OH226660   1.876   3.795   5.226
 8927TIP3    H126661   1.925   3.775   5.144
 8927TIP3    H226662   1.925   3.743   5.293
 8928TIP3   OH226663   2.337   3.935   4.363
 8928TIP3    H126664   2.292   4.023   4.371
 8928TIP3    H226665   2.285   3.882   4.427
 8929TIP3   OH226666   1.766   3.727   5.836
 8929TIP3    H126667   1.789   3.721   5.931
 8929TIP3    H226668   1.693   3.663   5.830
 8930TIP3   OH226669   2.488   3.818   5.875
 8930TIP3    H126670   2.431   3.789   5.802
 8930TIP3    H226671   2.575   3.824   5.831
 8931TIP3   OH226672   3.167   3.433   4.350
 8931TIP3    H126673   3.103   3.388   4.288
 8931TIP3    H226674   3.164   3.522   4.310
 8932TIP3   OH226675   2.859   4.256   4.253
 8932TIP3    H126676   2.841   4.191   4.323
 8932TIP3    H226677   2.876   4.201   4.175
 8933TIP3   OH226678   2.856   3.885   5.102
 8933TIP3    H126679   2.763   3.856   5.111
 8933TIP3    H226680   2.895   3.809   5.055
 8934TIP3   OH226681   1.982   4.102   4.834
 8934TIP3    H126682   1.991   4.192   4.797
 8934TIP3    H226683   1.891   4.104   4.866
 8935TIP3   OH226684   1.560   3.385   4.561
 8935TIP3    H126685   1.605   3.473   4.569
 8935TIP3    H226686   1.477   3.407   4.612
 8936TIP3   OH226687   2.132   3.877   4.792
 8936TIP3    H126688   2.093   3.967   4.807
 8936TIP3    H226689   2.096   3.830   4.869
 8937TIP3   OH226690   1.907   4.352   4.699
 8937TIP3    H126691   1.822   4.359   4.747
 8937TIP3    H226692   1.940   4.444   4.707
 8938TIP3   OH226693   2.646   4.085   5.282
 8938TIP3    H126694   2.658   4.088   5.378
 8938TIP3    H226695   2.727   4.040   5.253
 8939TIP3   OH226696   2.616   3.974   4.157
 8939TIP3    H126697   2.670   3.953   4.237
 8939TIP3    H226698   2.527   3.959   4.193
 8940TIP3   OH226699   2.959   4.459   3.980
 8940TIP3    H126700   2.999   4.533   3.931
 8940TIP3    H226701   2.879   4.505   4.013
 8941TIP3   OH226702   1.982   3.232   5.848
 8941TIP3    H126703   1.887   3.243   5.868
 8941TIP3    H226704   2.010   3.172   5.920
 8942TIP3   OH226705   2.776   3.908   4.370
 8942TIP3    H126706   2.767   3.850   4.448
 8942TIP3    H226707   2.874   3.915   4.366
 8943TIP3   OH226708   1.695   4.320   5.487
 8943TIP3    H126709   1.748   4.245   5.516
 8943TIP3    H226710   1.742   4.392   5.533
 8944TIP3   OH226711   1.987   3.963   4.157
 8944TIP3    H126712   2.002   3.871   4.130
 8944TIP3    H226713   1.971   3.954   4.253
 8945TIP3   OH226714   1.936   3.967   4.430
 8945TIP3    H126715   1.999   3.945   4.499
 8945TIP3    H226716   1.936   4.065   4.435
 8946TIP3   OH226717   1.665   3.658   4.630
 8946TIP3    H126718   1.602   3.704   4.690
 8946TIP3    H226719   1.683   3.730   4.568
 8947TIP3   OH226720   2.818   3.294   5.520
 8947TIP3    H126721   2.889   3.339   5.569
 8947TIP3    H226722   2.798   3.218   5.578
 8948TIP3   OH226723   2.696   3.054   4.685
 8948TIP3    H126724   2.683   3.085   4.594
 8948TIP3    H226725   2.734   3.134   4.728
 8949TIP3   OH226726   2.194   4.165   4.374
 8949TIP3    H126727   2.112   4.194   4.417
 8949TIP3    H226728   2.217   4.244   4.324
 8950TIP3   OH226729   2.383   3.230   4.793
 8950TIP3    H126730   2.449   3.300   4.775
 8950TIP3    H226731   2.390   3.221   4.891
 8951TIP3   OH226732   2.654   3.549   5.601
 8951TIP3    H126733   2.667   3.609   5.677
 8951TIP3    H226734   2.711   3.475   5.625
 8952TIP3   OH226735   2.531   2.963   4.897
 8952TIP3    H126736   2.530   3.035   4.963
 8952TIP3    H226737   2.592   3.001   4.829
 8953TIP3   OH226738   1.935   4.239   4.445
 8953TIP3    H126739   1.906   4.311   4.384
 8953TIP3    H226740   1.921   4.283   4.532
 8954TIP3   OH226741   2.045   2.956   4.683
 8954TIP3    H126742   2.048   3.045   4.725
 8954TIP3    H226743   2.138   2.930   4.696
 8955TIP3   OH226744   3.298   3.448   5.581
 8955TIP3    H126745   3.200   3.446   5.590
 8955TIP3    H226746   3.307   3.414   5.491
 8956TIP3   OH226747   2.947   3.643   4.967
 8956TIP3    H126748   2.871   3.585   4.986
 8956TIP3    H226749   3.020   3.599   5.017
 8957TIP3   OH226750   1.656   3.876   4.442
 8957TIP3    H126751   1.711   3.954   4.455
 8957TIP3    H226752   1.708   3.830   4.373
 8958TIP3   OH226753   2.927   4.585   4.928
 8958TIP3    H126754   2.872   4.638   4.866
 8958TIP3    H226755   3.016   4.616   4.901
 8959TIP3   OH226756   1.991   2.868   5.449
 8959TIP3    H126757   1.958   2.833   5.364
 8959TIP3    H226758   1.981   2.790   5.508
 8960TIP3   OH226759   1.530   4.079   4.833
 8960TIP3    H126760   1.455   4.118   4.880
 8960TIP3    H226761   1.520   4.122   4.745
 8961TIP3   OH226762   1.671   4.621   5.915
 8961TIP3    H126763   1.768   4.629   5.923
 8961TIP3    H226764   1.661   4.526   5.897
 8962TIP3   OH226765   2.148   4.170   4.071
 8962TIP3    H126766   2.091   4.102   4.112
 8962TIP3    H226767   2.224   4.115   4.046
 8963TIP3   OH226768   2.585   4.208   3.981
 8963TIP3    H126769   2.635   4.153   4.042
 8963TIP3    H226770   2.646   4.217   3.905
 8964TIP3   OH226771   1.815   4.033   6.108
 8964TIP3    H126772   1.834   3.937   6.101
 8964TIP3    H226773   1.729   4.039   6.061
 8965TIP3   OH226774   1.794   3.682   4.290
 8965TIP3    H126775   1.850   3.659   4.366
 8965TIP3    H226776   1.862   3.691   4.220
 8966TIP3   OH226777   2.298   3.882   4.095
 8966TIP3    H126778   2.302   3.898   4.192
 8966TIP3    H226779   2.293   3.784   4.094
 8967TIP3   OH226780   2.919   4.122   5.473
 8967TIP3    H126781   2.978   4.167   5.410
 8967TIP3    H226782   2.853   4.191   5.492
 8968TIP3   OH226783   1.936   3.762   6.079
 8968TIP3    H126784   2.013   3.707   6.064
 8968TIP3    H226785   1.955   3.800   6.167
 8969TIP3   OH226786   1.998   3.589   4.513
 8969TIP3    H126787   1.975   3.555   4.601
 8969TIP3    H226788   2.037   3.511   4.468
 8970TIP3   OH226789   2.265   3.644   5.738
 8970TIP3    H126790   2.193   3.710   5.750
 8970TIP3    H226791   2.315   3.683   5.663
 8971TIP3   OH226792   2.099   3.374   4.362
 8971TIP3    H126793   2.075   3.381   4.267
 8971TIP3    H226794   2.196   3.384   4.357
 8972TIP3   OH226795   2.782   4.027   5.863
 8972TIP3    H126796   2.870   4.060   5.846
 8972TIP3    H226797   2.789   3.986   5.950
 8973TIP3   OH226798   2.927   3.713   4.011
 8973TIP3    H126799   2.900   3.666   3.930
 8973TIP3    H226800   2.895   3.804   3.990
 8974TIP3   OH226801   2.394   3.439   5.871
 8974TIP3    H126802   2.392   3.359   5.816
 8974TIP3    H226803   2.350   3.506   5.814
 8975TIP3   OH226804   2.396   3.223   5.674
 8975TIP3    H126805   2.421   3.268   5.591
 8975TIP3    H226806   2.301   3.203   5.657
 8976TIP3   OH226807   2.425   3.763   5.547
 8976TIP3    H126808   2.504   3.769   5.492
 8976TIP3    H226809   2.366   3.831   5.508
 8977TIP3   OH226810   3.009   3.731   5.937
 8977TIP3    H126811   3.061   3.649   5.940
 8977TIP3    H226812   3.073   3.794   5.902
 8978TIP3   OH226813   3.052   3.978   5.663
 8978TIP3    H126814   2.990   4.031   5.608
 8978TIP3    H226815   3.138   4.002   5.622
 8979TIP3   OH226816   2.271   3.555   6.101
 8979TIP3    H126817   2.201   3.488   6.111
 8979TIP3    H226818   2.306   3.534   6.012
 8980TIP3   OH226819   2.528   2.990   5.739
 8980TIP3    H126820   2.480   3.073   5.719
 8980TIP3    H226821   2.457   2.923   5.730
 8981TIP3   OH226822   2.656   3.496   5.959
 8981TIP3    H126823   2.644   3.489   6.055
 8981TIP3    H226824   2.565   3.474   5.930
 8982TIP3   OH226825   2.893   3.436   5.811
 8982TIP3    H126826   2.817   3.449   5.871
 8982TIP3    H226827   2.965   3.410   5.872
 8983TIP3   OH226828   3.127   3.384   5.967
 8983TIP3    H126829   3.134   3.289   5.988
 8983TIP3    H226830   3.120   3.426   6.055
 8984TIP3   OH226831   2.109   3.336   6.149
 8984TIP3    H126832   2.119   3.245   6.114
 8984TIP3    H226833   2.144   3.324   6.240
 8985TIP3   OH226834   2.625   3.001   5.996
 8985TIP3    H126835   2.692   2.930   5.992
 8985TIP3    H226836   2.584   2.992   5.908
 8986TIP3   OH226837   2.688   3.215   6.159
 8986TIP3    H126838   2.665   3.145   6.094
 8986TIP3    H226839   2.612   3.276   6.152
 8987TIP3   OH226840   1.905   4.441   4.256
 8987TIP3    H126841   2.002   4.443   4.240
 8987TIP3    H226842   1.875   4.491   4.178
 8988TIP3   OH226843   1.388   3.826   4.475
 8988TIP3    H126844   1.483   3.850   4.465
 8988TIP3    H226845   1.385   3.737   4.436
 8989TIP3   OH226846   1.300   4.438   4.889
 8989TIP3    H126847   1.233   4.374   4.855
 8989TIP3    H226848   1.345   4.384   4.957
 8990TIP3   OH226849   1.439   4.294   5.075
 8990TIP3    H126850   1.432   4.218   5.135
 8990TIP3    H226851   1.493   4.354   5.130
 8991TIP3   OH226852   3.178   4.691   4.885
 8991TIP3    H126853   3.197   4.756   4.955
 8991TIP3    H226854   3.210   4.740   4.807
 8992TIP3   OH226855   3.246   4.386   5.737
 8992TIP3    H126856   3.164   4.395   5.791
 8992TIP3    H226857   3.277   4.479   5.736
 8993TIP3   OH226858   3.059   3.901   4.350
 8993TIP3    H126859   3.129   3.965   4.326
 8993TIP3    H226860   3.098   3.861   4.430
 8994TIP3   OH226861   3.184   3.768   4.553
 8994TIP3    H126862   3.120   3.727   4.614
 8994TIP3    H226863   3.249   3.808   4.614
 8995TIP3   OH226864   3.237   4.155   4.988
 8995TIP3    H126865   3.292   4.097   4.933
 8995TIP3    H226866   3.216   4.228   4.927
 8996TIP3   OH226867   3.124   3.674   4.202
 8996TIP3    H126868   3.052   3.681   4.135
 8996TIP3    H226869   3.100   3.750   4.259
 8997TIP3   OH226870   2.997   3.346   4.156
 8997TIP3    H126871   2.953   3.392   4.083
 8997TIP3    H226872   2.968   3.254   4.143
 8998TIP3   OH226873   3.001   3.622   4.702
 8998TIP3    H126874   3.011   3.526   4.702
 8998TIP3    H226875   2.988   3.641   4.798
 8999TIP3   OH226876   1.629   3.700   5.445
 8999TIP3    H126877   1.630   3.675   5.351
 8999TIP3    H226878   1.726   3.700   5.464
 9000TIP3   OH226879   3.291   4.052   5.555
 9000TIP3    H126880   3.362   3.984   5.552
 9000TIP3    H226881   3.309   4.104   5.477
 9001TIP3   OH226882   3.475   3.857   5.579
 9001TIP3    H126883   3.402   3.806   5.619
 9001TIP3    H226884   3.549   3.794   5.592
 9002TIP3   OH226885   2.940   3.080   4.138
 9002TIP3    H126886   3.018   3.056   4.192
 9002TIP3    H226887   2.868   3.027   4.176
 9003TIP3   OH226888   2.994   3.337   4.598
 9003TIP3    H126889   3.035   3.249   4.613
 9003TIP3    H226890   3.055   3.373   4.532
 9004TIP3   OH226891   3.160   3.517   5.091
 9004TIP3    H126892   3.246   3.544   5.053
 9004TIP3    H226893   3.171   3.553   5.181
 9005TIP3   OH226894   3.224   3.657   5.324
 9005TIP3    H126895   3.146   3.692   5.373
 9005TIP3    H226896   3.257   3.738   5.279
 9006TIP3   OH226897   1.842   3.383   6.113
 9006TIP3    H126898   1.940   3.377   6.120
 9006TIP3    H226899   1.816   3.303   6.163
 9007TIP3   OH226900   3.680   3.247   5.882
 9007TIP3    H126901   3.737   3.181   5.837
 9007TIP3    H226902   3.651   3.304   5.807
 9008TIP3   OH226903   3.106   3.088   4.633
 9008TIP3    H126904   3.155   3.075   4.717
 9008TIP3    H226905   3.045   3.011   4.635
 9009TIP3   OH226906   1.805   3.074   5.446
 9009TIP3    H126907   1.868   3.001   5.464
 9009TIP3    H226908   1.865   3.151   5.449
 9010TIP3   OH226909   1.610   3.349   5.526
 9010TIP3    H126910   1.662   3.349   5.443
 9010TIP3    H226911   1.634   3.435   5.564
 9011TIP3   OH226912   3.553   3.391   5.690
 9011TIP3    H126913   3.466   3.429   5.713
 9011TIP3    H226914   3.524   3.321   5.628
 9012TIP3   OH226915   3.188   3.031   4.260
 9012TIP3    H126916   3.235   2.954   4.223
 9012TIP3    H226917   3.257   3.099   4.260
 9013TIP3   OH226918   1.590   2.858   5.022
 9013TIP3    H126919   1.499   2.850   5.057
 9013TIP3    H226920   1.576   2.910   4.941
 9014TIP3   OH226921   2.747   4.556   4.530
 9014TIP3    H126922   2.806   4.543   4.453
 9014TIP3    H226923   2.796   4.620   4.584
 9015TIP3   OH226924   1.811   2.933   5.841
 9015TIP3    H126925   1.764   2.928   5.926
 9015TIP3    H226926   1.742   2.972   5.784
 9016TIP3   OH226927   1.845   4.299   5.948
 9016TIP3    H126928   1.758   4.318   5.911
 9016TIP3    H226929   1.856   4.364   6.017
 9017TIP3   OH226930   3.449   3.153   5.563
 9017TIP3    H126931   3.357   3.151   5.532
 9017TIP3    H226932   3.475   3.059   5.550
 9018TIP3   OH226933   1.702   4.646   5.479
 9018TIP3    H126934   1.616   4.693   5.478
 9018TIP3    H226935   1.737   4.668   5.566
 9019TIP3   OH226936   1.946   4.624   5.324
 9019TIP3    H126937   1.874   4.628   5.389
 9019TIP3    H226938   1.912   4.676   5.249
 9020TIP3   OH226939   2.376   4.687   5.113
 9020TIP3    H126940   2.286   4.697   5.078
 9020TIP3    H226941   2.369   4.732   5.198
 9021TIP3   OH226942   2.625   4.584   5.150
 9021TIP3    H126943   2.530   4.598   5.169
 9021TIP3    H226944   2.652   4.674   5.132
 9022TIP3   OH226945   1.616   4.442   5.236
 9022TIP3    H126946   1.648   4.428   5.328
 9022TIP3    H226947   1.691   4.400   5.188
 9023TIP3   OH226948   1.809   4.314   5.086
 9023TIP3    H126949   1.827   4.231   5.136
 9023TIP3    H226950   1.899   4.354   5.085
 9024TIP3   OH226951   2.072   4.413   5.089
 9024TIP3    H126952   2.111   4.323   5.095
 9024TIP3    H226953   2.088   4.447   5.178
 9025TIP3   OH226954   2.649   3.065   5.173
 9025TIP3    H126955   2.608   3.001   5.234
 9025TIP3    H226956   2.725   3.015   5.138
 9026TIP3   OH226957   3.180   2.942   5.085
 9026TIP3    H126958   3.216   2.999   5.013
 9026TIP3    H226959   3.085   2.965   5.083
 9027TIP3   OH226960   3.272   3.050   4.849
 9027TIP3    H126961   3.347   2.999   4.810
 9027TIP3    H226962   3.306   3.142   4.837
 9028TIP3   OH226963   1.903   2.776   5.197
 9028TIP3    H126964   1.812   2.741   5.201
 9028TIP3    H226965   1.954   2.692   5.196
 9029TIP3   OH226966   1.682   2.643   4.843
 9029TIP3    H126967   1.716   2.705   4.776
 9029TIP3    H226968   1.657   2.704   4.915
 9030TIP3   OH226969   2.340   2.813   5.077
 9030TIP3    H126970   2.404   2.864   5.025
 9030TIP3    H226971   2.360   2.844   5.167
 9031TIP3   OH226972   2.896   2.953   5.064
 9031TIP3    H126973   2.890   2.918   4.975
 9031TIP3    H226974   2.880   2.873   5.119
 9032TIP3   OH226975   2.920   2.874   4.622
 9032TIP3    H126976   2.835   2.918   4.637
 9032TIP3    H226977   2.908   2.791   4.674
 9033TIP3   OH226978   1.406   4.211   4.628
 9033TIP3    H126979   1.321   4.181   4.592
 9033TIP3    H226980   1.394   4.307   4.618
 9034TIP3   OH226981   1.806   2.821   4.617
 9034TIP3    H126982   1.838   2.756   4.553
 9034TIP3    H226983   1.889   2.862   4.648
 9035TIP3   OH226984   2.321   2.978   4.708
 9035TIP3    H126985   2.378   2.931   4.771
 9035TIP3    H226986   2.341   3.070   4.735
 9036TIP3   OH226987   2.176   4.409   4.207
 9036TIP3    H126988   2.266   4.430   4.174
 9036TIP3    H226989   2.155   4.333   4.149
 9037TIP3   OH226990   2.897   4.522   4.298
 9037TIP3    H126991   2.886   4.425   4.286
 9037TIP3    H226992   2.850   4.556   4.220
 9038TIP3   OH226993   2.111   3.056   6.088
 9038TIP3    H126994   2.076   2.987   6.147
 9038TIP3    H226995   2.205   3.057   6.116
 9039TIP3   OH226996   2.358   3.055   6.209
 9039TIP3    H126997   2.443   3.028   6.170
 9039TIP3    H226998   2.345   2.985   6.277
 9040TIP3   OH226999   1.481   4.241   4.268
 9040TIP3    H127000   1.479   4.274   4.359
 9040TIP3    H227001   1.572   4.204   4.260
 9041TIP3   OH227002   3.181   3.111   5.997
 9041TIP3    H127003   3.202   3.081   6.088
 9041TIP3    H227004   3.270   3.108   5.955
 9042TIP3   OH227005   4.389   4.037   4.257
 9042TIP3    H127006   4.364   4.130   4.241
 9042TIP3    H227007   4.309   3.992   4.226
 9043TIP3   OH227008   4.385   4.037   4.633
 9043TIP3    H127009   4.415   4.009   4.721
 9043TIP3    H227010   4.343   3.957   4.598
 9044TIP3   OH227011   3.691   3.934   4.996
 9044TIP3    H127012   3.721   3.870   5.063
 9044TIP3    H227013   3.762   4.000   5.001
 9045TIP3   OH227014   4.627   4.339   4.315
 9045TIP3    H127015   4.619   4.273   4.384
 9045TIP3    H227016   4.656   4.418   4.366
 9046TIP3   OH227017   3.661   4.344   4.725
 9046TIP3    H127018   3.645   4.248   4.734
 9046TIP3    H227019   3.757   4.346   4.721
 9047TIP3   OH227020   3.367   3.549   4.513
 9047TIP3    H127021   3.321   3.634   4.529
 9047TIP3    H227022   3.293   3.494   4.483
 9048TIP3   OH227023   3.425   3.834   4.675
 9048TIP3    H127024   3.473   3.760   4.719
 9048TIP3    H227025   3.489   3.862   4.609
 9049TIP3   OH227026   4.270   4.803   4.327
 9049TIP3    H127027   4.325   4.730   4.292
 9049TIP3    H227028   4.269   4.786   4.423
 9050TIP3   OH227029   4.188   4.265   4.682
 9050TIP3    H127030   4.223   4.187   4.635
 9050TIP3    H227031   4.273   4.306   4.708
 9051TIP3   OH227032   5.203   3.584   4.679
 9051TIP3    H127033   5.225   3.668   4.725
 9051TIP3    H227034   5.219   3.609   4.587
 9052TIP3   OH227035   4.599   3.767   4.720
 9052TIP3    H127036   4.642   3.682   4.739
 9052TIP3    H227037   4.569   3.752   4.628
 9053TIP3   OH227038   3.933   3.425   4.683
 9053TIP3    H127039   3.913   3.498   4.622
 9053TIP3    H227040   3.885   3.352   4.639
 9054TIP3   OH227041   4.628   3.515   4.308
 9054TIP3    H127042   4.701   3.498   4.372
 9054TIP3    H227043   4.679   3.552   4.234
 9055TIP3   OH227044   3.569   3.630   4.788
 9055TIP3    H127045   3.652   3.610   4.837
 9055TIP3    H227046   3.583   3.572   4.710
 9056TIP3   OH227047   4.013   3.827   4.575
 9056TIP3    H127048   4.105   3.800   4.594
 9056TIP3    H227049   3.973   3.742   4.548
 9057TIP3   OH227050   5.270   3.789   4.855
 9057TIP3    H127051   5.189   3.840   4.834
 9057TIP3    H227052   5.287   3.821   4.946
 9058TIP3   OH227053   3.933   3.409   5.116
 9058TIP3    H127054   3.872   3.447   5.050
 9058TIP3    H227055   3.883   3.426   5.199
 9059TIP3   OH227056   4.286   4.261   4.125
 9059TIP3    H127057   4.237   4.236   4.046
 9059TIP3    H227058   4.244   4.347   4.148
 9060TIP3   OH227059   4.036   4.184   4.917
 9060TIP3    H127060   3.974   4.248   4.957
 9060TIP3    H227061   4.080   4.239   4.850
 9061TIP3   OH227062   4.844   3.515   4.473
 9061TIP3    H127063   4.834   3.466   4.556
 9061TIP3    H227064   4.897   3.592   4.502
 9062TIP3   OH227065   3.802   3.524   4.902
 9062TIP3    H127066   3.863   3.597   4.926
 9062TIP3    H227067   3.852   3.483   4.828
 9063TIP3   OH227068   3.862   4.384   4.998
 9063TIP3    H127069   3.810   4.447   4.948
 9063TIP3    H227070   3.794   4.363   5.068
 9064TIP3   OH227071   3.266   4.067   4.246
 9064TIP3    H127072   3.222   4.097   4.165
 9064TIP3    H227073   3.295   4.152   4.287
 9065TIP3   OH227074   4.696   4.563   4.470
 9065TIP3    H127075   4.612   4.569   4.521
 9065TIP3    H227076   4.707   4.657   4.445
 9066TIP3   OH227077   5.008   3.486   4.863
 9066TIP3    H127078   4.916   3.499   4.837
 9066TIP3    H227079   5.056   3.508   4.781
 9067TIP3   OH227080   4.294   3.130   4.830
 9067TIP3    H127081   4.280   3.035   4.847
 9067TIP3    H227082   4.215   3.168   4.876
 9068TIP3   OH227083   4.408   4.629   4.162
 9068TIP3    H127084   4.460   4.549   4.140
 9068TIP3    H227085   4.467   4.697   4.121
 9069TIP3   OH227086   4.551   4.414   4.061
 9069TIP3    H127087   4.504   4.337   4.028
 9069TIP3    H227088   4.584   4.381   4.148
 9070TIP3   OH227089   4.904   4.470   4.832
 9070TIP3    H127090   4.906   4.400   4.764
 9070TIP3    H227091   4.892   4.550   4.779
 9071TIP3   OH227092   4.218   3.888   4.084
 9071TIP3    H127093   4.138   3.941   4.061
 9071TIP3    H227094   4.266   3.889   3.999
 9072TIP3   OH227095   4.178   3.673   3.805
 9072TIP3    H127096   4.246   3.723   3.855
 9072TIP3    H227097   4.235   3.609   3.758
 9073TIP3   OH227098   5.126   4.127   4.672
 9073TIP3    H127099   5.042   4.178   4.676
 9073TIP3    H227100   5.157   4.154   4.582
 9074TIP3   OH227101   4.566   3.971   4.059
 9074TIP3    H127102   4.512   3.998   4.137
 9074TIP3    H227103   4.650   3.946   4.104
 9075TIP3   OH227104   4.802   4.015   4.965
 9075TIP3    H127105   4.800   4.098   5.018
 9075TIP3    H227106   4.715   4.021   4.921
 9076TIP3   OH227107   3.800   3.972   4.473
 9076TIP3    H127108   3.758   3.914   4.406
 9076TIP3    H227109   3.877   3.919   4.502
 9077TIP3   OH227110   3.934   4.385   4.624
 9077TIP3    H127111   3.908   4.336   4.544
 9077TIP3    H227112   4.023   4.348   4.641
 9078TIP3   OH227113   3.941   3.941   4.827
 9078TIP3    H127114   3.973   3.927   4.736
 9078TIP3    H227115   3.980   4.028   4.851
 9079TIP3   OH227116   4.465   4.582   4.611
 9079TIP3    H127117   4.433   4.653   4.667
 9079TIP3    H227118   4.449   4.502   4.665
 9080TIP3   OH227119   4.068   4.491   5.153
 9080TIP3    H127120   4.026   4.570   5.192
 9080TIP3    H227121   3.992   4.448   5.109
 9081TIP3   OH227122   4.410   3.830   3.884
 9081TIP3    H127123   4.467   3.889   3.938
 9081TIP3    H227124   4.437   3.856   3.792
 9082TIP3   OH227125   3.823   4.058   5.248
 9082TIP3    H127126   3.831   4.142   5.297
 9082TIP3    H227127   3.727   4.043   5.257
 9083TIP3   OH227128   4.147   4.514   4.158
 9083TIP3    H127129   4.224   4.568   4.185
 9083TIP3    H227130   4.086   4.580   4.124
 9084TIP3   OH227131   4.923   3.074   3.930
 9084TIP3    H127132   4.843   3.092   3.983
 9084TIP3    H227133   4.934   3.159   3.883
 9085TIP3   OH227134   3.666   3.813   4.277
 9085TIP3    H127135   3.601   3.858   4.220
 9085TIP3    H227136   3.621   3.730   4.296
 9086TIP3   OH227137   4.720   4.441   3.477
 9086TIP3    H127138   4.729   4.538   3.466
 9086TIP3    H227139   4.813   4.412   3.467
 9087TIP3   OH227140   3.462   4.187   5.162
 9087TIP3    H127141   3.381   4.166   5.113
 9087TIP3    H227142   3.483   4.105   5.209
 9088TIP3   OH227143   3.301   4.393   4.812
 9088TIP3    H127144   3.396   4.383   4.825
 9088TIP3    H227145   3.278   4.467   4.870
 9089TIP3   OH227146   4.028   4.758   3.960
 9089TIP3    H127147   3.983   4.742   3.875
 9089TIP3    H227148   3.998   4.848   3.983
 9090TIP3   OH227149   3.468   4.607   4.342
 9090TIP3    H127150   3.518   4.598   4.427
 9090TIP3    H227151   3.400   4.539   4.356
 9091TIP3   OH227152   4.232   4.657   3.602
 9091TIP3    H127153   4.293   4.589   3.567
 9091TIP3    H227154   4.266   4.667   3.694
 9092TIP3   OH227155   4.281   4.704   3.873
 9092TIP3    H127156   4.193   4.715   3.917
 9092TIP3    H227157   4.333   4.667   3.946
 9093TIP3   OH227158   5.058   3.973   5.148
 9093TIP3    H127159   4.977   3.991   5.099
 9093TIP3    H227160   5.067   3.876   5.137
 9094TIP3   OH227161   3.669   4.360   5.178
 9094TIP3    H127162   3.709   4.339   5.265
 9094TIP3    H227163   3.589   4.304   5.175
 9095TIP3   OH227164   4.052   3.205   4.955
 9095TIP3    H127165   3.962   3.174   4.933
 9095TIP3    H227166   4.029   3.289   5.001
 9096TIP3   OH227167   4.584   3.319   5.151
 9096TIP3    H127168   4.649   3.296   5.220
 9096TIP3    H227169   4.498   3.301   5.196
 9097TIP3   OH227170   4.827   3.751   5.072
 9097TIP3    H127171   4.778   3.745   5.157
 9097TIP3    H227172   4.801   3.838   5.037
 9098TIP3   OH227173   4.483   3.881   3.627
 9098TIP3    H127174   4.452   3.853   3.539
 9098TIP3    H227175   4.560   3.935   3.604
 9099TIP3   OH227176   4.197   3.256   3.928
 9099TIP3    H127177   4.166   3.254   4.021
 9099TIP3    H227178   4.160   3.171   3.897
 9100TIP3   OH227179   3.981   3.718   4.977
 9100TIP3    H127180   3.932   3.742   5.059
 9100TIP3    H227181   3.967   3.799   4.923
 9101TIP3   OH227182   3.867   3.605   4.491
 9101TIP3    H127183   3.774   3.580   4.508
 9101TIP3    H227184   3.880   3.564   4.403
 9102TIP3   OH227185   4.357   3.691   4.216
 9102TIP3    H127186   4.302   3.763   4.178
 9102TIP3    H227187   4.411   3.665   4.140
 9103TIP3   OH227188   4.530   3.967   5.300
 9103TIP3    H127189   4.511   3.898   5.367
 9103TIP3    H227190   4.620   3.995   5.326
 9104TIP3   OH227191   4.516   3.722   4.460
 9104TIP3    H127192   4.458   3.755   4.388
 9104TIP3    H227193   4.546   3.639   4.417
 9105TIP3   OH227194   3.801   3.749   5.187
 9105TIP3    H127195   3.826   3.814   5.253
 9105TIP3    H227196   3.790   3.668   5.240
 9106TIP3   OH227197   3.850   3.225   3.895
 9106TIP3    H127198   3.848   3.222   3.993
 9106TIP3    H227199   3.770   3.277   3.877
 9107TIP3   OH227200   3.395   3.274   4.763
 9107TIP3    H127201   3.469   3.305   4.820
 9107TIP3    H227202   3.441   3.237   4.686
 9108TIP3   OH227203   3.372   3.252   4.284
 9108TIP3    H127204   3.422   3.292   4.209
 9108TIP3    H227205   3.313   3.327   4.308
 9109TIP3   OH227206   4.523   3.969   4.881
 9109TIP3    H127207   4.557   3.895   4.826
 9109TIP3    H227208   4.497   3.920   4.962
 9110TIP3   OH227209   4.190   3.429   4.554
 9110TIP3    H127210   4.107   3.426   4.605
 9110TIP3    H227211   4.256   3.433   4.625
 9111TIP3   OH227212   3.629   3.483   4.562
 9111TIP3    H127213   3.534   3.490   4.536
 9111TIP3    H227214   3.652   3.391   4.539
 9112TIP3   OH227215   3.901   3.481   4.248
 9112TIP3    H127216   3.996   3.496   4.229
 9112TIP3    H227217   3.856   3.505   4.164
 9113TIP3   OH227218   4.685   3.501   4.751
 9113TIP3    H127219   4.652   3.515   4.843
 9113TIP3    H227220   4.618   3.440   4.716
 9114TIP3   OH227221   3.734   3.512   4.028
 9114TIP3    H127222   3.660   3.471   3.979
 9114TIP3    H227223   3.787   3.548   3.954
 9115TIP3   OH227224   3.819   4.297   5.400
 9115TIP3    H127225   3.898   4.331   5.447
 9115TIP3    H227226   3.753   4.302   5.471
 9116TIP3   OH227227   4.277   3.753   4.649
 9116TIP3    H127228   4.351   3.715   4.600
 9116TIP3    H227229   4.290   3.717   4.739
 9117TIP3   OH227230   3.802   3.246   4.524
 9117TIP3    H127231   3.772   3.165   4.570
 9117TIP3    H227232   3.861   3.210   4.456
 9118TIP3   OH227233   4.254   3.649   4.943
 9118TIP3    H127234   4.166   3.688   4.954
 9118TIP3    H227235   4.312   3.710   4.993
 9119TIP3   OH227236   3.991   4.045   4.035
 9119TIP3    H127237   3.918   3.980   4.025
 9119TIP3    H227238   3.974   4.078   4.127
 9120TIP3   OH227239   4.895   4.267   4.657
 9120TIP3    H127240   4.916   4.320   4.577
 9120TIP3    H227241   4.805   4.233   4.637
 9121TIP3   OH227242   4.449   3.359   3.889
 9121TIP3    H127243   4.353   3.344   3.900
 9121TIP3    H227244   4.461   3.452   3.918
 9122TIP3   OH227245   4.382   4.353   5.039
 9122TIP3    H127246   4.422   4.317   5.120
 9122TIP3    H227247   4.348   4.437   5.069
 9123TIP3   OH227248   4.521   3.602   3.996
 9123TIP3    H127249   4.617   3.608   4.015
 9123TIP3    H227250   4.503   3.683   3.945
 9124TIP3   OH227251   3.681   4.063   4.713
 9124TIP3    H127252   3.721   4.033   4.629
 9124TIP3    H227253   3.718   4.000   4.777
 9125TIP3   OH227254   4.135   4.193   3.852
 9125TIP3    H127255   4.089   4.280   3.860
 9125TIP3    H227256   4.082   4.138   3.914
 9126TIP3   OH227257   3.557   3.988   5.328
 9126TIP3    H127258   3.582   3.971   5.422
 9126TIP3    H227259   3.491   3.919   5.312
 9127TIP3   OH227260   4.287   4.091   5.346
 9127TIP3    H127261   4.232   4.034   5.290
 9127TIP3    H227262   4.377   4.066   5.316
 9128TIP3   OH227263   4.576   4.591   4.936
 9128TIP3    H127264   4.504   4.638   4.893
 9128TIP3    H227265   4.628   4.663   4.974
 9129TIP3   OH227266   4.963   3.689   3.836
 9129TIP3    H127267   4.900   3.645   3.775
 9129TIP3    H227268   4.960   3.778   3.796
 9130TIP3   OH227269   4.659   4.512   3.742
 9130TIP3    H127270   4.636   4.444   3.808
 9130TIP3    H227271   4.672   4.461   3.660
 9131TIP3   OH227272   4.654   4.141   4.587
 9131TIP3    H127273   4.561   4.114   4.599
 9131TIP3    H227274   4.690   4.063   4.541
 9132TIP3   OH227275   3.782   4.367   4.334
 9132TIP3    H127276   3.785   4.450   4.283
 9132TIP3    H227277   3.686   4.356   4.345
 9133TIP3   OH227278   3.343   3.675   4.033
 9133TIP3    H127279   3.393   3.756   4.055
 9133TIP3    H227280   3.269   3.680   4.097
 9134TIP3   OH227281   3.927   4.136   4.281
 9134TIP3    H127282   3.890   4.225   4.299
 9134TIP3    H227283   3.890   4.086   4.356
 9135TIP3   OH227284   3.705   4.607   4.189
 9135TIP3    H127285   3.618   4.615   4.234
 9135TIP3    H227286   3.736   4.700   4.192
 9136TIP3   OH227287   4.443   4.349   4.765
 9136TIP3    H127288   4.438   4.344   4.864
 9136TIP3    H227289   4.524   4.299   4.749
 9137TIP3   OH227290   4.412   4.235   3.645
 9137TIP3    H127291   4.466   4.212   3.725
 9137TIP3    H227292   4.323   4.214   3.678
 9138TIP3   OH227293   4.756   4.716   3.467
 9138TIP3    H127294   4.794   4.789   3.416
 9138TIP3    H227295   4.675   4.762   3.500
 9139TIP3   OH227296   3.777   3.490   5.335
 9139TIP3    H127297   3.682   3.498   5.352
 9139TIP3    H227298   3.805   3.430   5.406
 9140TIP3   OH227299   4.573   4.171   3.862
 9140TIP3    H127300   4.563   4.107   3.935
 9140TIP3    H227301   4.670   4.172   3.852
 9141TIP3   OH227302   3.782   4.220   3.644
 9141TIP3    H127303   3.799   4.129   3.616
 9141TIP3    H227304   3.765   4.208   3.740
 9142TIP3   OH227305   3.729   4.224   3.918
 9142TIP3    H127306   3.797   4.198   3.981
 9142TIP3    H227307   3.733   4.322   3.923
 9143TIP3   OH227308   3.464   3.919   4.120
 9143TIP3    H127309   3.400   3.965   4.179
 9143TIP3    H227310   3.481   3.990   4.055
 9144TIP3   OH227311   4.612   3.553   5.009
 9144TIP3    H127312   4.686   3.596   5.056
 9144TIP3    H227313   4.594   3.475   5.066
 9145TIP3   OH227314   4.489   3.311   4.174
 9145TIP3    H127315   4.477   3.336   4.081
 9145TIP3    H227316   4.528   3.393   4.212
 9146TIP3   OH227317   3.991   4.422   3.865
 9146TIP3    H127318   3.907   4.452   3.903
 9146TIP3    H227319   4.012   4.497   3.806
 9147TIP3   OH227320   4.183   3.485   4.279
 9147TIP3    H127321   4.248   3.556   4.261
 9147TIP3    H227322   4.187   3.479   4.377
 9148TIP3   OH227323   4.450   3.807   5.089
 9148TIP3    H127324   4.465   3.864   5.167
 9148TIP3    H227325   4.507   3.731   5.110
 9149TIP3   OH227326   4.329   3.220   4.385
 9149TIP3    H127327   4.321   3.296   4.445
 9149TIP3    H227328   4.387   3.257   4.315
 9150TIP3   OH227329   3.732   4.497   3.932
 9150TIP3    H127330   3.703   4.567   3.870
 9150TIP3    H227331   3.718   4.542   4.019
 9151TIP3   OH227332   3.837   3.211   4.171
 9151TIP3    H127333   3.836   3.301   4.208
 9151TIP3    H227334   3.932   3.190   4.181
 9152TIP3   OH227335   5.092   3.704   5.068
 9152TIP3    H127336   4.994   3.701   5.077
 9152TIP3    H227337   5.101   3.677   4.976
 9153TIP3   OH227338   4.743   3.900   4.455
 9153TIP3    H127339   4.667   3.841   4.470
 9153TIP3    H227340   4.815   3.854   4.504
 9154TIP3   OH227341   3.452   4.133   3.927
 9154TIP3    H127342   3.511   4.209   3.939
 9154TIP3    H227343   3.503   4.084   3.860
 9155TIP3   OH227344   3.401   3.406   4.056
 9155TIP3    H127345   3.401   3.503   4.052
 9155TIP3    H227346   3.311   3.384   4.031
 9156TIP3   OH227347   4.720   4.834   4.403
 9156TIP3    H127348   4.668   4.894   4.347
 9156TIP3    H227349   4.810   4.868   4.386
 9157TIP3   OH227350   3.787   3.125   4.936
 9157TIP3    H127351   3.754   3.092   4.850
 9157TIP3    H227352   3.777   3.046   4.994
 9158TIP3   OH227353   3.327   4.337   4.319
 9158TIP3    H127354   3.253   4.375   4.369
 9158TIP3    H227355   3.313   4.379   4.231
 9159TIP3   OH227356   3.946   4.426   3.560
 9159TIP3    H127357   3.888   4.356   3.598
 9159TIP3    H227358   4.021   4.372   3.529
 9160TIP3   OH227359   4.382   4.467   3.468
 9160TIP3    H127360   4.430   4.406   3.527
 9160TIP3    H227361   4.440   4.471   3.390
 9161TIP3   OH227362   3.611   4.286   5.581
 9161TIP3    H127363   3.635   4.192   5.588
 9161TIP3    H227364   3.515   4.281   5.586
 9162TIP3   OH227365   3.588   3.942   3.776
 9162TIP3    H127366   3.641   3.909   3.850
 9162TIP3    H227367   3.658   3.948   3.707
 9163TIP3   OH227368   4.215   4.360   5.361
 9163TIP3    H127369   4.176   4.381   5.274
 9163TIP3    H227370   4.250   4.269   5.351
 9164TIP3   OH227371   4.092   4.139   3.584
 9164TIP3    H127372   4.098   4.153   3.680
 9164TIP3    H227373   4.092   4.041   3.580
 9165TIP3   OH227374   4.704   4.357   4.969
 9165TIP3    H127375   4.780   4.398   4.924
 9165TIP3    H227376   4.641   4.432   4.964
 9166TIP3   OH227377   3.730   4.020   5.568
 9166TIP3    H127378   3.805   3.962   5.551
 9166TIP3    H227379   3.754   4.055   5.657
 9167TIP3   OH227380   3.798   3.844   4.003
 9167TIP3    H127381   3.772   3.803   4.087
 9167TIP3    H227382   3.833   3.767   3.953
 9168TIP3   OH227383   4.065   3.906   5.229
 9168TIP3    H127384   3.990   3.968   5.236
 9168TIP3    H227385   4.112   3.940   5.149
 9169TIP3   OH227386   3.896   3.634   3.844
 9169TIP3    H127387   3.870   3.636   3.750
 9169TIP3    H227388   3.993   3.644   3.837
 9170TIP3   OH227389   4.574   4.287   5.343
 9170TIP3    H127390   4.665   4.311   5.324
 9170TIP3    H227391   4.580   4.247   5.431
 9171TIP3   OH227392   4.724   3.971   3.500
 9171TIP3    H127393   4.699   3.923   3.419
 9171TIP3    H227394   4.691   4.061   3.477
 9172TIP3   OH227395   4.190   3.695   5.358
 9172TIP3    H127396   4.188   3.615   5.303
 9172TIP3    H227397   4.146   3.761   5.300
 9173TIP3   OH227398   4.192   3.480   5.162
 9173TIP3    H127399   4.218   3.524   5.078
 9173TIP3    H227400   4.097   3.459   5.144
 9174TIP3   OH227401   4.223   4.018   5.033
 9174TIP3    H127402   4.305   4.027   4.982
 9174TIP3    H227403   4.167   4.089   4.994
 9175TIP3   OH227404   4.804   3.987   5.422
 9175TIP3    H127405   4.856   3.906   5.429
 9175TIP3    H227406   4.869   4.050   5.387
 9176TIP3   OH227407   4.849   4.234   5.155
 9176TIP3    H127408   4.784   4.282   5.099
 9176TIP3    H227409   4.933   4.261   5.111
 9177TIP3   OH227410   4.065   3.814   5.585
 9177TIP3    H127411   3.996   3.745   5.598
 9177TIP3    H227412   4.101   3.788   5.498
 9178TIP3   OH227413   4.325   3.247   5.226
 9178TIP3    H127414   4.276   3.330   5.206
 9178TIP3    H227415   4.254   3.180   5.216
 9179TIP3   OH227416   4.452   3.752   5.446
 9179TIP3    H127417   4.442   3.744   5.543
 9179TIP3    H227418   4.361   3.728   5.419
 9180TIP3   OH227419   4.689   3.694   5.298
 9180TIP3    H127420   4.614   3.704   5.360
 9180TIP3    H227421   4.762   3.668   5.359
 9181TIP3   OH227422   4.921   3.639   5.453
 9181TIP3    H127423   4.930   3.544   5.476
 9181TIP3    H227424   4.915   3.682   5.541
 9182TIP3   OH227425   3.906   3.593   5.636
 9182TIP3    H127426   3.915   3.502   5.600
 9182TIP3    H227427   3.941   3.581   5.726
 9183TIP3   OH227428   4.420   3.257   5.483
 9183TIP3    H127429   4.488   3.186   5.479
 9183TIP3    H227430   4.380   3.249   5.394
 9184TIP3   OH227431   4.485   3.471   5.646
 9184TIP3    H127432   4.461   3.402   5.581
 9184TIP3    H227433   4.408   3.533   5.639
 9185TIP3   OH227434   3.702   4.699   3.744
 9185TIP3    H127435   3.798   4.699   3.727
 9185TIP3    H227436   3.672   4.748   3.665
 9186TIP3   OH227437   3.184   4.083   3.961
 9186TIP3    H127438   3.279   4.107   3.952
 9186TIP3    H227439   3.183   3.993   3.922
 9187TIP3   OH227440   3.101   4.694   4.372
 9187TIP3    H127441   3.030   4.634   4.340
 9187TIP3    H227442   3.142   4.639   4.442
 9188TIP3   OH227443   3.235   4.549   4.560
 9188TIP3    H127444   3.224   4.474   4.621
 9188TIP3    H227445   3.286   4.609   4.618
 9189TIP3   OH227446   4.975   4.946   4.377
 9189TIP3    H127447   4.983   5.023   4.436
 9189TIP3    H227448   5.006   4.986   4.294
 9190TIP3   OH227449   5.038   4.639   5.227
 9190TIP3    H127450   4.961   4.647   5.286
 9190TIP3    H227451   5.075   4.730   5.228
 9191TIP3   OH227452   4.854   4.158   3.837
 9191TIP3    H127453   4.925   4.221   3.812
 9191TIP3    H227454   4.894   4.117   3.917
 9192TIP3   OH227455   4.981   4.025   4.040
 9192TIP3    H127456   4.916   3.983   4.100
 9192TIP3    H227457   5.045   4.065   4.102
 9193TIP3   OH227458   5.032   4.414   4.473
 9193TIP3    H127459   5.088   4.353   4.420
 9193TIP3    H227460   5.018   4.488   4.411
 9194TIP3   OH227461   4.921   3.932   3.689
 9194TIP3    H127462   4.849   3.936   3.621
 9194TIP3    H227463   4.894   4.008   3.745
 9195TIP3   OH227464   4.793   3.605   3.643
 9195TIP3    H127465   4.750   3.647   3.568
 9195TIP3    H227466   4.764   3.511   3.632
 9196TIP3   OH227467   4.797   3.879   4.189
 9196TIP3    H127468   4.806   3.783   4.186
 9196TIP3    H227469   4.784   3.896   4.285
 9197TIP3   OH227470   3.425   3.949   4.932
 9197TIP3    H127471   3.425   3.927   4.838
 9197TIP3    H227472   3.521   3.955   4.951
 9198TIP3   OH227473   5.085   4.310   5.044
 9198TIP3    H127474   5.162   4.249   5.031
 9198TIP3    H227475   5.090   4.369   4.967
 9199TIP3   OH227476   5.273   4.115   5.068
 9199TIP3    H127477   5.198   4.065   5.106
 9199TIP3    H227478   5.345   4.049   5.079
 9200TIP3   OH227479   4.735   3.339   3.630
 9200TIP3    H127480   4.812   3.311   3.684
 9200TIP3    H227481   4.663   3.281   3.659
 9201TIP3   OH227482   4.791   3.595   4.085
 9201TIP3    H127483   4.832   3.506   4.101
 9201TIP3    H227484   4.851   3.629   4.017
 9202TIP3   OH227485   4.956   3.773   4.578
 9202TIP3    H127486   5.043   3.800   4.540
 9202TIP3    H227487   4.968   3.809   4.668
 9203TIP3   OH227488   5.021   3.913   4.813
 9203TIP3    H127489   4.943   3.948   4.860
 9203TIP3    H227490   5.054   3.993   4.767
 9204TIP3   OH227491   3.639   3.642   5.606
 9204TIP3    H127492   3.737   3.635   5.609
 9204TIP3    H227493   3.614   3.559   5.652
 9205TIP3   OH227494   5.474   3.501   5.370
 9205TIP3    H127495   5.532   3.435   5.328
 9205TIP3    H227496   5.451   3.559   5.295
 9206TIP3   OH227497   4.902   3.345   4.120
 9206TIP3    H127498   4.950   3.331   4.204
 9206TIP3    H227499   4.841   3.268   4.121
 9207TIP3   OH227500   3.601   3.332   4.937
 9207TIP3    H127501   3.664   3.258   4.950
 9207TIP3    H227502   3.661   3.408   4.935
 9208TIP3   OH227503   3.407   3.607   5.014
 9208TIP3    H127504   3.457   3.603   4.930
 9208TIP3    H227505   3.430   3.695   5.046
 9209TIP3   OH227506   5.350   3.652   5.179
 9209TIP3    H127507   5.263   3.690   5.205
 9209TIP3    H227508   5.318   3.580   5.121
 9210TIP3   OH227509   4.985   3.285   3.751
 9210TIP3    H127510   5.026   3.210   3.703
 9210TIP3    H227511   5.053   3.354   3.744
 9211TIP3   OH227512   3.387   3.107   4.511
 9211TIP3    H127513   3.294   3.111   4.541
 9211TIP3    H227514   3.386   3.169   4.434
 9212TIP3   OH227515   4.544   4.812   4.018
 9212TIP3    H127516   4.599   4.798   3.939
 9212TIP3    H227517   4.596   4.876   4.069
 9213TIP3   OH227518   3.607   3.190   5.328
 9213TIP3    H127519   3.558   3.185   5.412
 9213TIP3    H227520   3.539   3.229   5.270
 9214TIP3   OH227521   5.229   3.430   5.060
 9214TIP3    H127522   5.145   3.448   5.011
 9214TIP3    H227523   5.248   3.339   5.033
 9215TIP3   OH227524   4.165   4.913   4.618
 9215TIP3    H127525   4.096   4.952   4.563
 9215TIP3    H227526   4.198   4.989   4.669
 9216TIP3   OH227527   3.415   4.703   4.716
 9216TIP3    H127528   3.443   4.697   4.808
 9216TIP3    H227529   3.487   4.655   4.670
 9217TIP3   OH227530   3.605   4.569   4.574
 9217TIP3    H127531   3.623   4.485   4.623
 9217TIP3    H227532   3.694   4.607   4.566
 9218TIP3   OH227533   3.866   4.664   4.572
 9218TIP3    H127534   3.903   4.574   4.561
 9218TIP3    H227535   3.912   4.693   4.651
 9219TIP3   OH227536   4.449   3.324   4.667
 9219TIP3    H127537   4.405   3.258   4.722
 9219TIP3    H227538   4.519   3.272   4.623
 9220TIP3   OH227539   4.987   3.208   4.580
 9220TIP3    H127540   5.015   3.259   4.501
 9220TIP3    H227541   4.890   3.218   4.578
 9221TIP3   OH227542   5.069   3.305   4.336
 9221TIP3    H127543   5.143   3.255   4.295
 9221TIP3    H227544   5.101   3.398   4.323
 9222TIP3   OH227545   3.699   3.033   4.686
 9222TIP3    H127546   3.607   2.998   4.688
 9222TIP3    H227547   3.749   2.948   4.684
 9223TIP3   OH227548   3.471   2.901   4.328
 9223TIP3    H127549   3.512   2.959   4.261
 9223TIP3    H227550   3.451   2.965   4.399
 9224TIP3   OH227551   4.138   3.067   4.565
 9224TIP3    H127552   4.199   3.119   4.510
 9224TIP3    H227553   4.156   3.103   4.653
 9225TIP3   OH227554   4.699   3.209   4.551
 9225TIP3    H127555   4.687   3.178   4.461
 9225TIP3    H227556   4.679   3.128   4.603
 9226TIP3   OH227557   4.718   3.131   4.111
 9226TIP3    H127558   4.631   3.173   4.119
 9226TIP3    H227559   4.703   3.047   4.160
 9227TIP3   OH227560   3.203   4.468   4.114
 9227TIP3    H127561   3.117   4.437   4.079
 9227TIP3    H227562   3.190   4.563   4.109
 9228TIP3   OH227563   3.599   3.064   4.095
 9228TIP3    H127564   3.650   3.000   4.042
 9228TIP3    H227565   3.671   3.118   4.133
 9229TIP3   OH227566   4.114   3.235   4.196
 9229TIP3    H127567   4.174   3.187   4.256
 9229TIP3    H227568   4.137   3.327   4.221
 9230TIP3   OH227569   3.973   4.666   3.694
 9230TIP3    H127570   4.062   4.686   3.660
 9230TIP3    H227571   3.951   4.589   3.636
 9231TIP3   OH227572   4.693   4.778   3.786
 9231TIP3    H127573   4.683   4.681   3.774
 9231TIP3    H227574   4.647   4.812   3.707
 9232TIP3   OH227575   3.907   3.313   5.575
 9232TIP3    H127576   3.873   3.243   5.634
 9232TIP3    H227577   4.001   3.314   5.602
 9233TIP3   OH227578   4.154   3.310   5.696
 9233TIP3    H127579   4.240   3.285   5.657
 9233TIP3    H227580   4.142   3.240   5.763
 9234TIP3   OH227581   3.276   4.498   3.755
 9234TIP3    H127582   3.273   4.529   3.846
 9234TIP3    H227583   3.367   4.461   3.747
 9235TIP3   OH227584   4.977   3.367   5.485
 9235TIP3    H127585   4.997   3.337   5.576
 9235TIP3    H227586   5.066   3.366   5.443
 9236TIP3   OH227587   6.182   4.300   3.753
 9236TIP3    H127588   6.149   4.389   3.729
 9236TIP3    H227589   6.111   4.246   3.714
 9237TIP3   OH227590   6.176   4.304   4.127
 9237TIP3    H127591   6.209   4.263   4.210
 9237TIP3    H227592   6.142   4.226   4.080
 9238TIP3   OH227593   5.485   4.189   4.482
 9238TIP3    H127594   5.517   4.125   4.548
 9238TIP3    H227595   5.554   4.257   4.488
 9239TIP3   OH227596   6.420   4.606   3.861
 9239TIP3    H127597   6.435   4.515   3.853
 9239TIP3    H227598   6.488   4.647   3.811
 9240TIP3   OH227599   5.454   4.601   4.212
 9240TIP3    H127600   5.441   4.504   4.220
 9240TIP3    H227601   5.551   4.604   4.213
 9241TIP3   OH227602   5.162   3.806   4.001
 9241TIP3    H127603   5.114   3.890   4.015
 9241TIP3    H227604   5.090   3.750   3.968
 9242TIP3   OH227605   5.223   4.091   4.164
 9242TIP3    H127606   5.270   4.016   4.206
 9242TIP3    H227607   5.284   4.115   4.093
 9243TIP3   OH227608   6.064   5.057   3.807
 9243TIP3    H127609   6.125   4.986   3.778
 9243TIP3    H227610   6.063   5.050   3.903
 9244TIP3   OH227611   5.983   4.521   4.162
 9244TIP3    H127612   6.005   4.442   4.111
 9244TIP3    H227613   6.063   4.529   4.215
 9245TIP3   OH227614   6.992   3.841   4.167
 9245TIP3    H127615   7.020   3.923   4.213
 9245TIP3    H227616   7.014   3.864   4.075
 9246TIP3   OH227617   6.394   4.025   4.205
 9246TIP3    H127618   6.437   3.940   4.227
 9246TIP3    H227619   6.366   4.008   4.114
 9247TIP3   OH227620   5.729   3.682   4.170
 9247TIP3    H127621   5.709   3.755   4.108
 9247TIP3    H227622   5.681   3.609   4.126
 9248TIP3   OH227623   6.424   3.772   3.794
 9248TIP3    H127624   6.497   3.755   3.858
 9248TIP3    H227625   6.475   3.808   3.720
 9249TIP3   OH227626   5.365   3.886   4.275
 9249TIP3    H127627   5.448   3.866   4.323
 9249TIP3    H227628   5.378   3.829   4.196
 9250TIP3   OH227629   5.809   4.084   4.064
 9250TIP3    H127630   5.902   4.056   4.081
 9250TIP3    H227631   5.769   3.999   4.035
 9251TIP3   OH227632   7.065   4.045   4.340
 9251TIP3    H127633   6.990   4.102   4.314
 9251TIP3    H227634   7.082   4.078   4.430
 9252TIP3   OH227635   5.730   3.666   4.601
 9252TIP3    H127636   5.668   3.704   4.536
 9252TIP3    H227637   5.680   3.681   4.684
 9253TIP3   OH227638   6.064   4.513   3.629
 9253TIP3    H127639   6.079   4.503   3.534
 9253TIP3    H227640   6.029   4.604   3.634
 9254TIP3   OH227641   5.837   4.440   4.402
 9254TIP3    H127642   5.769   4.498   4.445
 9254TIP3    H227643   5.871   4.502   4.336
 9255TIP3   OH227644   6.639   3.773   3.961
 9255TIP3    H127645   6.634   3.722   4.042
 9255TIP3    H227646   6.695   3.848   3.987
 9256TIP3   OH227647   5.597   3.781   4.389
 9256TIP3    H127648   5.660   3.853   4.413
 9256TIP3    H227649   5.647   3.740   4.314
 9257TIP3   OH227650   5.664   4.640   4.475
 9257TIP3    H127651   5.622   4.722   4.444
 9257TIP3    H227652   5.595   4.614   4.541
 9258TIP3   OH227653   5.062   4.323   3.733
 9258TIP3    H127654   5.017   4.351   3.651
 9258TIP3    H227655   5.090   4.408   3.772
 9259TIP3   OH227656   6.787   3.743   4.335
 9259TIP3    H127657   6.699   3.774   4.306
 9259TIP3    H227658   6.846   3.773   4.263
 9260TIP3   OH227659   6.089   3.387   4.316
 9260TIP3    H127660   6.078   3.292   4.334
 9260TIP3    H227661   6.010   3.424   4.362
 9261TIP3   OH227662   6.221   4.877   3.665
 9261TIP3    H127663   6.251   4.797   3.618
 9261TIP3    H227664   6.267   4.945   3.611
 9262TIP3   OH227665   6.716   4.758   4.330
 9262TIP3    H127666   6.709   4.688   4.262
 9262TIP3    H227667   6.735   4.837   4.278
 9263TIP3   OH227668   6.016   4.147   3.573
 9263TIP3    H127669   5.937   4.200   3.548
 9263TIP3    H227670   6.066   4.147   3.489
 9264TIP3   OH227671   5.973   3.930   3.291
 9264TIP3    H127672   6.040   3.982   3.340
 9264TIP3    H227673   6.031   3.866   3.245
 9265TIP3   OH227674   6.354   4.198   3.558
 9265TIP3    H127675   6.309   4.250   3.628
 9265TIP3    H227676   6.446   4.196   3.592
 9266TIP3   OH227677   6.598   4.270   4.452
 9266TIP3    H127678   6.599   4.354   4.502
 9266TIP3    H227679   6.511   4.277   4.409
 9267TIP3   OH227680   5.595   4.229   3.961
 9267TIP3    H127681   5.553   4.171   3.894
 9267TIP3    H227682   5.673   4.175   3.988
 9268TIP3   OH227683   5.730   4.644   4.108
 9268TIP3    H127684   5.699   4.597   4.029
 9268TIP3    H227685   5.818   4.603   4.123
 9269TIP3   OH227686   5.738   4.196   4.315
 9269TIP3    H127687   5.767   4.180   4.223
 9269TIP3    H227688   5.776   4.284   4.336
 9270TIP3   OH227689   5.865   4.733   4.647
 9270TIP3    H127690   5.841   4.825   4.668
 9270TIP3    H227691   5.789   4.705   4.593
 9271TIP3   OH227692   6.200   4.085   3.368
 9271TIP3    H127693   6.259   4.139   3.427
 9271TIP3    H227694   6.231   4.113   3.279
 9272TIP3   OH227695   5.619   4.311   4.729
 9272TIP3    H127696   5.629   4.392   4.783
 9272TIP3    H227697   5.523   4.295   4.739
 9273TIP3   OH227698   5.943   4.779   3.648
 9273TIP3    H127699   6.016   4.838   3.673
 9273TIP3    H227700   5.880   4.840   3.607
 9274TIP3   OH227701   6.719   3.331   3.417
 9274TIP3    H127702   6.639   3.348   3.470
 9274TIP3    H227703   6.730   3.416   3.370
 9275TIP3   OH227704   5.461   4.070   3.767
 9275TIP3    H127705   5.397   4.115   3.708
 9275TIP3    H227706   5.418   3.986   3.782
 9276TIP3   OH227707   6.511   4.700   2.941
 9276TIP3    H127708   6.525   4.797   2.952
 9276TIP3    H227709   6.603   4.668   2.950
 9277TIP3   OH227710   5.278   4.422   4.622
 9277TIP3    H127711   5.191   4.403   4.585
 9277TIP3    H227712   5.292   4.349   4.686
 9278TIP3   OH227713   5.095   4.647   4.304
 9278TIP3    H127714   5.191   4.639   4.308
 9278TIP3    H227715   5.076   4.730   4.350
 9279TIP3   OH227716   5.821   5.012   3.449
 9279TIP3    H127717   5.780   4.997   3.362
 9279TIP3    H227718   5.795   5.104   3.470
 9280TIP3   OH227719   5.264   4.865   3.829
 9280TIP3    H127720   5.313   4.854   3.914
 9280TIP3    H227721   5.200   4.792   3.838
 9281TIP3   OH227722   6.031   4.910   3.089
 9281TIP3    H127723   6.092   4.840   3.058
 9281TIP3    H227724   6.063   4.923   3.181
 9282TIP3   OH227725   6.077   4.967   3.357
 9282TIP3    H127726   5.993   4.969   3.409
 9282TIP3    H227727   6.130   4.900   3.405
 9283TIP3   OH227728   6.855   4.230   4.632
 9283TIP3    H127729   6.775   4.247   4.580
 9283TIP3    H227730   6.865   4.133   4.621
 9284TIP3   OH227731   5.475   4.603   4.654
 9284TIP3    H127732   5.508   4.580   4.742
 9284TIP3    H227733   5.395   4.546   4.645
 9285TIP3   OH227734   5.847   3.463   4.440
 9285TIP3    H127735   5.756   3.431   4.419
 9285TIP3    H227736   5.823   3.545   4.487
 9286TIP3   OH227737   6.380   3.578   4.639
 9286TIP3    H127738   6.447   3.550   4.704
 9286TIP3    H227739   6.295   3.557   4.683
 9287TIP3   OH227740   6.623   4.006   4.557
 9287TIP3    H127741   6.574   4.001   4.642
 9287TIP3    H227742   6.598   4.094   4.523
 9288TIP3   OH227743   6.277   4.133   3.113
 9288TIP3    H127744   6.252   4.108   3.023
 9288TIP3    H227745   6.352   4.194   3.097
 9289TIP3   OH227746   5.993   3.513   3.415
 9289TIP3    H127747   5.963   3.511   3.508
 9289TIP3    H227748   5.956   3.428   3.384
 9290TIP3   OH227749   5.778   3.975   4.465
 9290TIP3    H127750   5.727   3.998   4.546
 9290TIP3    H227751   5.762   4.055   4.410
 9291TIP3   OH227752   5.663   3.862   3.978
 9291TIP3    H127753   5.570   3.837   3.995
 9291TIP3    H227754   5.677   3.822   3.890
 9292TIP3   OH227755   6.152   3.948   3.704
 9292TIP3    H127756   6.098   4.020   3.665
 9292TIP3    H227757   6.210   3.925   3.628
 9293TIP3   OH227758   6.325   4.226   4.790
 9293TIP3    H127759   6.307   4.154   4.855
 9293TIP3    H227760   6.417   4.249   4.812
 9294TIP3   OH227761   6.313   3.980   3.945
 9294TIP3    H127762   6.255   4.011   3.872
 9294TIP3    H227763   6.343   3.896   3.904
 9295TIP3   OH227764   5.597   4.006   4.674
 9295TIP3    H127765   5.620   4.071   4.742
 9295TIP3    H227766   5.587   3.924   4.726
 9296TIP3   OH227767   5.646   3.481   3.382
 9296TIP3    H127768   5.644   3.478   3.480
 9296TIP3    H227769   5.566   3.533   3.363
 9297TIP3   OH227770   5.191   3.530   4.252
 9297TIP3    H127771   5.267   3.560   4.306
 9297TIP3    H227772   5.232   3.495   4.172
 9298TIP3   OH227773   5.170   3.510   3.772
 9298TIP3    H127774   5.217   3.549   3.696
 9298TIP3    H227775   5.109   3.583   3.795
 9299TIP3   OH227776   6.317   4.225   4.366
 9299TIP3    H127777   6.352   4.150   4.312
 9299TIP3    H227778   6.293   4.177   4.448
 9300TIP3   OH227779   5.986   3.688   4.041
 9300TIP3    H127780   5.904   3.683   4.093
 9300TIP3    H227781   6.054   3.686   4.111
 9301TIP3   OH227782   5.425   3.739   4.049
 9301TIP3    H127783   5.330   3.746   4.022
 9301TIP3    H227784   5.448   3.647   4.026
 9302TIP3   OH227785   5.697   3.738   3.735
 9302TIP3    H127786   5.792   3.752   3.717
 9302TIP3    H227787   5.653   3.762   3.651
 9303TIP3   OH227788   6.481   3.762   4.240
 9303TIP3    H127789   6.445   3.772   4.331
 9303TIP3    H227790   6.418   3.697   4.203
 9304TIP3   OH227791   5.530   3.769   3.516
 9304TIP3    H127792   5.456   3.728   3.468
 9304TIP3    H227793   5.582   3.805   3.441
 9305TIP3   OH227794   5.619   4.536   4.893
 9305TIP3    H127795   5.698   4.576   4.936
 9305TIP3    H227796   5.571   4.501   4.969
 9306TIP3   OH227797   6.075   4.013   4.138
 9306TIP3    H127798   6.146   3.972   4.086
 9306TIP3    H227799   6.087   3.971   4.225
 9307TIP3   OH227800   5.599   3.503   4.010
 9307TIP3    H127801   5.569   3.421   4.056
 9307TIP3    H227802   5.657   3.467   3.942
 9308TIP3   OH227803   6.051   3.906   4.428
 9308TIP3    H127804   5.962   3.943   4.441
 9308TIP3    H227805   6.108   3.965   4.480
 9309TIP3   OH227806   5.787   4.301   3.521
 9309TIP3    H127807   5.714   4.236   3.514
 9309TIP3    H227808   5.773   4.336   3.613
 9310TIP3   OH227809   6.653   4.564   4.152
 9310TIP3    H127810   6.737   4.551   4.105
 9310TIP3    H227811   6.602   4.486   4.123
 9311TIP3   OH227812   6.245   3.617   3.375
 9311TIP3    H127813   6.149   3.602   3.387
 9311TIP3    H227814   6.258   3.709   3.404
 9312TIP3   OH227815   6.189   4.643   4.525
 9312TIP3    H127816   6.217   4.582   4.596
 9312TIP3    H227817   6.119   4.693   4.569
 9313TIP3   OH227818   6.318   3.858   3.482
 9313TIP3    H127819   6.413   3.867   3.502
 9313TIP3    H227820   6.299   3.941   3.434
 9314TIP3   OH227821   5.480   4.322   4.201
 9314TIP3    H127822   5.517   4.290   4.116
 9314TIP3    H227823   5.512   4.256   4.264
 9315TIP3   OH227824   5.924   4.446   3.327
 9315TIP3    H127825   5.887   4.535   3.346
 9315TIP3    H227826   5.880   4.394   3.398
 9316TIP3   OH227827   5.355   4.244   4.817
 9316TIP3    H127828   5.383   4.232   4.910
 9316TIP3    H227829   5.288   4.174   4.807
 9317TIP3   OH227830   6.082   4.353   4.832
 9317TIP3    H127831   6.026   4.294   4.779
 9317TIP3    H227832   6.172   4.325   4.804
 9318TIP3   OH227833   6.759   3.945   3.323
 9318TIP3    H127834   6.696   3.901   3.262
 9318TIP3    H227835   6.756   4.034   3.283
 9319TIP3   OH227836   6.441   4.404   4.058
 9319TIP3    H127837   6.357   4.365   4.089
 9319TIP3    H227838   6.483   4.324   4.020
 9320TIP3   OH227839   5.578   4.625   3.825
 9320TIP3    H127840   5.582   4.706   3.770
 9320TIP3    H227841   5.483   4.610   3.830
 9321TIP3   OH227842   5.140   3.930   3.522
 9321TIP3    H127843   5.188   4.013   3.543
 9321TIP3    H227844   5.064   3.936   3.584
 9322TIP3   OH227845   5.721   4.392   3.769
 9322TIP3    H127846   5.687   4.482   3.787
 9322TIP3    H227847   5.684   4.342   3.844
 9323TIP3   OH227848   5.500   4.863   3.676
 9323TIP3    H127849   5.414   4.872   3.721
 9323TIP3    H227850   5.532   4.956   3.679
 9324TIP3   OH227851   6.209   4.486   3.135
 9324TIP3    H127852   6.257   4.531   3.209
 9324TIP3    H227853   6.128   4.463   3.182
 9325TIP3   OH227854   6.552   4.975   2.959
 9325TIP3    H127855   6.591   5.044   2.903
 9325TIP3    H227856   6.472   5.022   2.988
 9326TIP3   OH227857   5.573   3.745   4.821
 9326TIP3    H127858   5.480   3.758   4.844
 9326TIP3    H227859   5.605   3.689   4.894
 9327TIP3   OH227860   5.574   4.474   3.128
 9327TIP3    H127861   5.597   4.382   3.105
 9327TIP3    H227862   5.561   4.467   3.225
 9328TIP3   OH227863   5.526   4.482   3.402
 9328TIP3    H127864   5.596   4.452   3.462
 9328TIP3    H227865   5.531   4.579   3.412
 9329TIP3   OH227866   5.261   4.176   3.607
 9329TIP3    H127867   5.196   4.221   3.665
 9329TIP3    H227868   5.277   4.247   3.542
 9330TIP3   OH227869   6.405   3.813   4.499
 9330TIP3    H127870   6.485   3.850   4.539
 9330TIP3    H227871   6.389   3.733   4.554
 9331TIP3   OH227872   6.285   3.568   3.660
 9331TIP3    H127873   6.273   3.594   3.567
 9331TIP3    H227874   6.325   3.649   3.699
 9332TIP3   OH227875   5.786   4.680   3.351
 9332TIP3    H127876   5.701   4.711   3.389
 9332TIP3    H227877   5.810   4.756   3.296
 9333TIP3   OH227878   5.979   3.741   3.765
 9333TIP3    H127879   6.044   3.812   3.747
 9333TIP3    H227880   5.984   3.735   3.863
 9334TIP3   OH227881   6.247   4.065   4.575
 9334TIP3    H127882   6.263   4.119   4.655
 9334TIP3    H227883   6.302   3.987   4.592
 9335TIP3   OH227884   6.125   3.476   3.871
 9335TIP3    H127885   6.120   3.551   3.933
 9335TIP3    H227886   6.183   3.513   3.801
 9336TIP3   OH227887   5.527   4.755   3.419
 9336TIP3    H127888   5.498   4.825   3.357
 9336TIP3    H227889   5.513   4.799   3.506
 9337TIP3   OH227890   5.633   3.467   3.658
 9337TIP3    H127891   5.632   3.558   3.695
 9337TIP3    H227892   5.729   3.447   3.669
 9338TIP3   OH227893   6.890   3.961   4.558
 9338TIP3    H127894   6.792   3.958   4.562
 9338TIP3    H227895   6.904   3.930   4.467
 9339TIP3   OH227896   6.537   4.162   3.948
 9339TIP3    H127897   6.465   4.097   3.956
 9339TIP3    H227898   6.612   4.114   3.992
 9340TIP3   OH227899   5.249   4.390   3.414
 9340TIP3    H127900   5.311   4.464   3.426
 9340TIP3    H227901   5.299   4.339   3.347
 9341TIP3   OH227902   5.197   3.662   3.544
 9341TIP3    H127903   5.194   3.760   3.540
 9341TIP3    H227904   5.110   3.638   3.513
 9342TIP3   OH227905   6.502   5.098   3.884
 9342TIP3    H127906   6.464   5.157   3.817
 9342TIP3    H227907   6.597   5.119   3.874
 9343TIP3   OH227908   5.581   3.379   4.425
 9343TIP3    H127909   5.550   3.346   4.338
 9343TIP3    H227910   5.569   3.301   4.483
 9344TIP3   OH227911   5.125   4.600   3.807
 9344TIP3    H127912   5.046   4.632   3.853
 9344TIP3    H227913   5.110   4.637   3.718
 9345TIP3   OH227914   5.735   4.684   3.042
 9345TIP3    H127915   5.679   4.615   3.084
 9345TIP3    H227916   5.814   4.631   3.023
 9346TIP3   OH227917   6.182   4.716   2.950
 9346TIP3    H127918   6.222   4.667   3.024
 9346TIP3    H227919   6.260   4.731   2.893
 9347TIP3   OH227920   5.386   4.200   3.263
 9347TIP3    H127921   5.437   4.165   3.338
 9347TIP3    H227922   5.457   4.205   3.195
 9348TIP3   OH227923   6.017   4.628   4.850
 9348TIP3    H127924   5.968   4.644   4.766
 9348TIP3    H227925   6.049   4.536   4.840
 9349TIP3   OH227926   5.881   4.395   3.062
 9349TIP3    H127927   5.893   4.413   3.159
 9349TIP3    H227928   5.886   4.297   3.063
 9350TIP3   OH227929   6.512   4.620   4.454
 9350TIP3    H127930   6.581   4.676   4.411
 9350TIP3    H227931   6.435   4.678   4.457
 9351TIP3   OH227932   5.537   4.269   5.044
 9351TIP3    H127933   5.612   4.209   5.048
 9351TIP3    H227934   5.539   4.311   5.132
 9352TIP3   OH227935   5.593   4.100   3.489
 9352TIP3    H127936   5.569   4.059   3.574
 9352TIP3    H227937   5.630   4.024   3.439
 9353TIP3   OH227938   5.862   4.164   4.718
 9353TIP3    H127939   5.784   4.224   4.722
 9353TIP3    H227940   5.908   4.197   4.638
 9354TIP3   OH227941   5.692   3.891   3.331
 9354TIP3    H127942   5.667   3.892   3.236
 9354TIP3    H227943   5.790   3.900   3.325
 9355TIP3   OH227944   6.371   4.546   4.830
 9355TIP3    H127945   6.463   4.565   4.810
 9355TIP3    H227946   6.376   4.503   4.917
 9356TIP3   OH227947   6.520   4.229   2.983
 9356TIP3    H127948   6.491   4.182   2.903
 9356TIP3    H227949   6.486   4.319   2.963
 9357TIP3   OH227950   5.986   3.951   4.846
 9357TIP3    H127951   5.985   3.871   4.791
 9357TIP3    H227952   5.942   4.017   4.787
 9358TIP3   OH227953   5.988   3.739   4.650
 9358TIP3    H127954   6.014   3.779   4.565
 9358TIP3    H227955   5.894   3.715   4.632
 9359TIP3   OH227956   6.020   4.277   4.523
 9359TIP3    H127957   6.100   4.278   4.469
 9359TIP3    H227958   5.963   4.343   4.479
 9360TIP3   OH227959   6.602   4.244   4.910
 9360TIP3    H127960   6.651   4.161   4.911
 9360TIP3    H227961   6.667   4.305   4.871
 9361TIP3   OH227962   6.649   4.490   4.643
 9361TIP3    H127963   6.587   4.539   4.583
 9361TIP3    H227964   6.734   4.515   4.601
 9362TIP3   OH227965   5.861   4.071   5.072
 9362TIP3    H127966   5.793   4.001   5.085
 9362TIP3    H227967   5.897   4.045   4.985
 9363TIP3   OH227968   6.121   3.504   4.713
 9363TIP3    H127969   6.071   3.586   4.693
 9363TIP3    H227970   6.052   3.436   4.703
 9364TIP3   OH227971   6.247   4.009   4.933
 9364TIP3    H127972   6.236   3.999   5.030
 9364TIP3    H227973   6.156   3.985   4.905
 9365TIP3   OH227974   6.487   3.957   4.787
 9365TIP3    H127975   6.410   3.960   4.848
 9365TIP3    H227976   6.559   3.926   4.846
 9366TIP3   OH227977   6.719   3.898   4.941
 9366TIP3    H127978   6.728   3.802   4.961
 9366TIP3    H227979   6.713   3.938   5.030
 9367TIP3   OH227980   5.703   3.850   5.123
 9367TIP3    H127981   5.710   3.759   5.089
 9367TIP3    H227982   5.738   3.837   5.214
 9368TIP3   OH227983   6.218   3.515   4.970
 9368TIP3    H127984   6.284   3.443   4.966
 9368TIP3    H227985   6.176   3.506   4.882
 9369TIP3   OH227986   6.282   3.728   5.132
 9369TIP3    H127987   6.259   3.658   5.068
 9369TIP3    H227988   6.204   3.788   5.125
 9370TIP3   OH227989   5.499   4.957   3.230
 9370TIP3    H127990   5.595   4.956   3.213
 9370TIP3    H227991   5.469   5.007   3.153
 9371TIP3   OH227992   4.981   4.339   3.449
 9371TIP3    H127993   5.075   4.362   3.438
 9371TIP3    H227994   4.977   4.250   3.409
 9372TIP3   OH227995   4.895   4.951   3.859
 9372TIP3    H127996   4.826   4.890   3.827
 9372TIP3    H227997   4.938   4.896   3.928
 9373TIP3   OH227998   5.029   4.808   4.047
 9373TIP3    H127999   5.019   4.730   4.105
 9373TIP3    H228000   5.084   4.865   4.104
 9374TIP3   OH228001   6.767   5.197   3.841
 9374TIP3    H128002   6.764   5.267   3.910
 9374TIP3    H228003   6.800   5.247   3.767
 9375TIP3   OH228004   6.846   4.901   4.711
 9375TIP3    H128005   6.755   4.916   4.737
 9375TIP3    H228006   6.880   4.993   4.705
 9376TIP3   OH228007   6.671   4.404   3.307
 9376TIP3    H128008   6.731   4.480   3.305
 9376TIP3    H228009   6.688   4.368   3.397
 9377TIP3   OH228010   6.774   4.281   3.527
 9377TIP3    H128011   6.713   4.238   3.591
 9377TIP3    H228012   6.844   4.317   3.586
 9378TIP3   OH228013   6.788   4.663   3.915
 9378TIP3    H128014   6.866   4.618   3.953
 9378TIP3    H228015   6.826   4.747   3.881
 9379TIP3   OH228016   6.718   4.177   3.170
 9379TIP3    H128017   6.644   4.188   3.106
 9379TIP3    H228018   6.699   4.256   3.227
 9380TIP3   OH228019   6.590   3.860   3.130
 9380TIP3    H128020   6.546   3.905   3.057
 9380TIP3    H228021   6.560   3.767   3.118
 9381TIP3   OH228022   6.598   4.136   3.681
 9381TIP3    H128023   6.602   4.040   3.675
 9381TIP3    H228024   6.584   4.151   3.777
 9382TIP3   OH228025   5.217   4.206   4.419
 9382TIP3    H128026   5.220   4.181   4.324
 9382TIP3    H228027   5.314   4.213   4.438
 9383TIP3   OH228028   6.884   4.564   4.527
 9383TIP3    H128029   6.961   4.506   4.516
 9383TIP3    H228030   6.886   4.617   4.445
 9384TIP3   OH228031   7.077   4.378   4.589
 9384TIP3    H128032   6.996   4.326   4.606
 9384TIP3    H228033   7.141   4.306   4.569
 9385TIP3   OH228034   6.532   3.594   3.115
 9385TIP3    H128035   6.609   3.568   3.169
 9385TIP3    H228036   6.460   3.537   3.147
 9386TIP3   OH228037   6.587   3.851   3.574
 9386TIP3    H128038   6.628   3.763   3.587
 9386TIP3    H228039   6.645   3.887   3.505
 9387TIP3   OH228040   6.753   4.033   4.064
 9387TIP3    H128041   6.839   4.060   4.024
 9387TIP3    H228042   6.767   4.071   4.153
 9388TIP3   OH228043   6.820   4.185   4.292
 9388TIP3    H128044   6.741   4.212   4.344
 9388TIP3    H228045   6.851   4.271   4.258
 9389TIP3   OH228046   5.436   3.898   5.090
 9389TIP3    H128047   5.534   3.891   5.095
 9389TIP3    H228048   5.411   3.816   5.137
 9390TIP3   OH228049   7.277   3.763   4.857
 9390TIP3    H128050   7.330   3.695   4.811
 9390TIP3    H228051   7.244   3.817   4.781
 9391TIP3   OH228052   6.698   3.601   3.607
 9391TIP3    H128053   6.747   3.587   3.691
 9391TIP3    H228054   6.638   3.524   3.608
 9392TIP3   OH228055   5.398   3.588   4.426
 9392TIP3    H128056   5.461   3.515   4.438
 9392TIP3    H228057   5.459   3.664   4.422
 9393TIP3   OH228058   5.204   3.864   4.502
 9393TIP3    H128059   5.252   3.857   4.418
 9393TIP3    H228060   5.228   3.952   4.531
 9394TIP3   OH228061   7.144   3.903   4.666
 9394TIP3    H128062   7.055   3.942   4.683
 9394TIP3    H228063   7.119   3.834   4.601
 9395TIP3   OH228064   6.780   3.542   3.237
 9395TIP3    H128065   6.822   3.467   3.191
 9395TIP3    H228066   6.849   3.611   3.231
 9396TIP3   OH228067   5.183   3.369   4.001
 9396TIP3    H128068   5.089   3.367   4.026
 9396TIP3    H228069   5.182   3.427   3.922
 9397TIP3   OH228070   6.339   5.066   3.509
 9397TIP3    H128071   6.390   5.045   3.428
 9397TIP3    H228072   6.393   5.134   3.552
 9398TIP3   OH228073   5.380   3.416   4.822
 9398TIP3    H128074   5.355   3.466   4.901
 9398TIP3    H228075   5.333   3.468   4.753
 9399TIP3   OH228076   7.041   3.666   4.537
 9399TIP3    H128077   6.949   3.664   4.504
 9399TIP3    H228078   7.067   3.572   4.524
 9400TIP3   OH228079   5.964   5.176   4.089
 9400TIP3    H128080   5.887   5.208   4.039
 9400TIP3    H228081   5.993   5.256   4.137
 9401TIP3   OH228082   6.503   5.328   4.060
 9401TIP3    H128083   6.445   5.403   4.038
 9401TIP3    H228084   6.454   5.251   4.026
 9402TIP3   OH228085   5.209   4.957   4.203
 9402TIP3    H128086   5.243   4.959   4.293
 9402TIP3    H228087   5.282   4.912   4.155
 9403TIP3   OH228088   5.401   4.827   4.062
 9403TIP3    H128089   5.420   4.742   4.108
 9403TIP3    H228090   5.491   4.864   4.051
 9404TIP3   OH228091   5.663   4.920   4.056
 9404TIP3    H128092   5.699   4.830   4.046
 9404TIP3    H228093   5.697   4.944   4.143
 9405TIP3   OH228094   6.243   3.580   4.151
 9405TIP3    H128095   6.201   3.513   4.207
 9405TIP3    H228096   6.316   3.530   4.110
 9406TIP3   OH228097   6.772   3.460   4.063
 9406TIP3    H128098   6.808   3.512   3.988
 9406TIP3    H228099   6.676   3.477   4.056
 9407TIP3   OH228100   6.865   3.562   3.825
 9407TIP3    H128101   6.937   3.511   3.784
 9407TIP3    H228102   6.898   3.654   3.810
 9408TIP3   OH228103   5.495   3.290   4.174
 9408TIP3    H128104   5.403   3.256   4.173
 9408TIP3    H228105   5.545   3.205   4.171
 9409TIP3   OH228106   5.277   3.157   3.817
 9409TIP3    H128107   5.310   3.216   3.747
 9409TIP3    H228108   5.249   3.220   3.886
 9410TIP3   OH228109   5.934   3.324   4.052
 9410TIP3    H128110   5.995   3.375   3.996
 9410TIP3    H228111   5.955   3.358   4.140
 9411TIP3   OH228112   6.489   3.467   4.038
 9411TIP3    H128113   6.483   3.433   3.948
 9411TIP3    H228114   6.472   3.386   4.091
 9412TIP3   OH228115   6.514   3.388   3.597
 9412TIP3    H128116   6.427   3.429   3.606
 9412TIP3    H228117   6.500   3.304   3.647
 9413TIP3   OH228118   4.999   4.724   3.602
 9413TIP3    H128119   4.914   4.692   3.566
 9413TIP3    H228120   4.985   4.820   3.593
 9414TIP3   OH228121   5.395   3.320   3.583
 9414TIP3    H128122   5.446   3.257   3.528
 9414TIP3    H228123   5.467   3.374   3.621
 9415TIP3   OH228124   5.911   3.491   3.683
 9415TIP3    H128125   5.971   3.444   3.743
 9415TIP3    H228126   5.933   3.584   3.708
 9416TIP3   OH228127   5.769   4.922   3.180
 9416TIP3    H128128   5.860   4.941   3.147
 9416TIP3    H228129   5.747   4.847   3.121
 9417TIP3   OH228130   6.488   5.024   3.271
 9417TIP3    H128131   6.465   4.930   3.261
 9417TIP3    H228132   6.443   5.064   3.194
 9418TIP3   OH228133   5.700   3.576   5.068
 9418TIP3    H128134   5.669   3.497   5.116
 9418TIP3    H228135   5.796   3.572   5.089
 9419TIP3   OH228136   5.952   3.569   5.182
 9419TIP3    H128137   6.035   3.539   5.142
 9419TIP3    H228138   5.936   3.500   5.250
 9420TIP3   OH228139   5.074   4.758   3.242
 9420TIP3    H128140   5.067   4.787   3.334
 9420TIP3    H228141   5.164   4.719   3.237
 9421TIP3   OH228142   6.774   3.626   4.971
 9421TIP3    H128143   6.794   3.595   5.062
 9421TIP3    H228144   6.862   3.621   4.928
 9422TIP3   OH228145   7.982   4.553   3.230
 9422TIP3    H128146   7.954   4.645   3.212
 9422TIP3    H228147   7.903   4.504   3.201
 9423TIP3   OH228148   7.979   4.552   3.607
 9423TIP3    H128149   8.007   4.517   3.693
 9423TIP3    H228150   7.936   4.474   3.568
 9424TIP3   OH228151   7.310   4.433   3.940
 9424TIP3    H128152   7.293   4.379   4.019
 9424TIP3    H228153   7.349   4.511   3.980
 9425TIP3   OH228154   8.220   4.853   3.289
 9425TIP3    H128155   8.209   4.782   3.354
 9425TIP3    H228156   8.249   4.927   3.344
 9426TIP3   OH228157   7.262   4.860   3.720
 9426TIP3    H128158   7.245   4.763   3.718
 9426TIP3    H228159   7.352   4.861   3.683
 9427TIP3   OH228160   6.960   4.060   3.486
 9427TIP3    H128161   6.916   4.146   3.504
 9427TIP3    H228162   6.885   4.008   3.454
 9428TIP3   OH228163   7.012   4.344   3.640
 9428TIP3    H128164   7.058   4.288   3.706
 9428TIP3    H228165   7.084   4.369   3.582
 9429TIP3   OH228166   7.867   5.315   3.305
 9429TIP3    H128167   7.919   5.245   3.259
 9429TIP3    H228168   7.865   5.281   3.395
 9430TIP3   OH228169   7.778   4.779   3.659
 9430TIP3    H128170   7.810   4.700   3.610
 9430TIP3    H228171   7.865   4.819   3.680
 9431TIP3   OH228172   8.790   4.099   3.654
 9431TIP3    H128173   8.819   4.182   3.699
 9431TIP3    H228174   8.810   4.120   3.561
 9432TIP3   OH228175   8.194   4.283   3.693
 9432TIP3    H128176   8.233   4.196   3.712
 9432TIP3    H228177   8.161   4.268   3.602
 9433TIP3   OH228178   7.526   3.939   3.657
 9433TIP3    H128179   7.504   4.011   3.595
 9433TIP3    H228180   7.478   3.865   3.613
 9434TIP3   OH228181   8.219   4.029   3.280
 9434TIP3    H128182   8.290   4.010   3.346
 9434TIP3    H228183   8.273   4.065   3.208
 9435TIP3   OH228184   7.159   4.142   3.766
 9435TIP3    H128185   7.243   4.122   3.812
 9435TIP3    H228186   7.170   4.088   3.685
 9436TIP3   OH228187   7.605   4.341   3.543
 9436TIP3    H128188   7.696   4.313   3.567
 9436TIP3    H228189   7.563   4.255   3.519
 9437TIP3   OH228190   8.864   4.306   3.824
 9437TIP3    H128191   8.781   4.353   3.805
 9437TIP3    H228192   8.873   4.325   3.919
 9438TIP3   OH228193   7.526   3.923   4.091
 9438TIP3    H128194   7.466   3.960   4.024
 9438TIP3    H228195   7.474   3.941   4.173
 9439TIP3   OH228196   7.879   4.776   3.098
 9439TIP3    H128197   7.828   4.746   3.022
 9439TIP3    H228198   7.834   4.860   3.120
 9440TIP3   OH228199   7.633   4.704   3.894
 9440TIP3    H128200   7.565   4.765   3.928
 9440TIP3    H228201   7.671   4.752   3.818
 9441TIP3   OH228202   8.434   4.032   3.445
 9441TIP3    H128203   8.433   3.969   3.518
 9441TIP3    H228204   8.490   4.103   3.479
 9442TIP3   OH228205   7.395   4.036   3.877
 9442TIP3    H128206   7.456   4.111   3.899
 9442TIP3    H228207   7.444   3.996   3.801
 9443TIP3   OH228208   7.439   4.899   3.996
 9443TIP3    H128209   7.404   4.938   3.916
 9443TIP3    H228210   7.363   4.843   4.025
 9444TIP3   OH228211   6.871   4.584   3.217
 9444TIP3    H128212   6.808   4.602   3.146
 9444TIP3    H228213   6.886   4.672   3.257
 9445TIP3   OH228214   8.295   5.095   3.462
 9445TIP3    H128215   8.204   5.087   3.500
 9445TIP3    H228216   8.288   5.180   3.415
 9446TIP3   OH228217   8.582   4.006   3.825
 9446TIP3    H128218   8.493   4.027   3.792
 9446TIP3    H228219   8.639   4.029   3.750
 9447TIP3   OH228220   7.886   3.645   3.802
 9447TIP3    H128221   7.875   3.549   3.818
 9447TIP3    H228222   7.807   3.680   3.849
 9448TIP3   OH228223   8.002   5.144   3.138
 9448TIP3    H128224   8.051   5.062   3.114
 9448TIP3    H228225   8.061   5.210   3.094
 9449TIP3   OH228226   8.142   4.928   3.036
 9449TIP3    H128227   8.095   4.852   3.001
 9449TIP3    H228228   8.175   4.893   3.122
 9450TIP3   OH228229   8.521   5.011   3.803
 9450TIP3    H128230   8.511   4.933   3.744
 9450TIP3    H228231   8.505   5.085   3.741
 9451TIP3   OH228232   7.812   4.404   3.057
 9451TIP3    H128233   7.730   4.453   3.036
 9451TIP3    H228234   7.856   4.401   2.971
 9452TIP3   OH228235   7.769   4.189   2.778
 9452TIP3    H128236   7.839   4.235   2.828
 9452TIP3    H228237   7.822   4.121   2.733
 9453TIP3   OH228238   8.716   4.646   3.647
 9453TIP3    H128239   8.633   4.699   3.653
 9453TIP3    H228240   8.744   4.669   3.556
 9454TIP3   OH228241   8.159   4.486   3.033
 9454TIP3    H128242   8.104   4.511   3.111
 9454TIP3    H228243   8.242   4.459   3.079
 9455TIP3   OH228244   8.395   4.529   3.939
 9455TIP3    H128245   8.390   4.614   3.986
 9455TIP3    H228246   8.308   4.528   3.895
 9456TIP3   OH228247   7.392   4.486   3.445
 9456TIP3    H128248   7.349   4.427   3.379
 9456TIP3    H228249   7.469   4.431   3.473
 9457TIP3   OH228250   7.520   4.892   3.600
 9457TIP3    H128251   7.497   4.846   3.517
 9457TIP3    H228252   7.611   4.862   3.615
 9458TIP3   OH228253   7.571   4.449   3.800
 9458TIP3    H128254   7.570   4.441   3.703
 9458TIP3    H228255   7.578   4.544   3.816
 9459TIP3   OH228256   8.051   5.094   3.578
 9459TIP3    H128257   8.041   5.173   3.634
 9459TIP3    H228258   8.041   5.020   3.642
 9460TIP3   OH228259   7.672   5.019   4.101
 9460TIP3    H128260   7.662   5.001   4.194
 9460TIP3    H228261   7.605   4.960   4.059
 9461TIP3   OH228262   8.005   4.342   2.858
 9461TIP3    H128263   8.060   4.403   2.912
 9461TIP3    H228264   8.030   4.370   2.767
 9462TIP3   OH228265   7.399   4.582   4.210
 9462TIP3    H128266   7.403   4.610   4.303
 9462TIP3    H228267   7.306   4.556   4.204
 9463TIP3   OH228268   7.740   5.027   3.133
 9463TIP3    H128269   7.816   5.083   3.158
 9463TIP3    H228270   7.678   5.091   3.095
 9464TIP3   OH228271   8.518   3.590   2.905
 9464TIP3    H128272   8.437   3.593   2.960
 9464TIP3    H228273   8.511   3.675   2.859
 9465TIP3   OH228274   7.259   4.327   3.252
 9465TIP3    H128275   7.192   4.371   3.194
 9465TIP3    H228276   7.215   4.244   3.272
 9466TIP3   OH228277   8.311   4.954   2.451
 9466TIP3    H128278   8.321   5.052   2.440
 9466TIP3    H228279   8.404   4.925   2.440
 9467TIP3   OH228280   6.898   4.905   3.821
 9467TIP3    H128281   6.984   4.902   3.780
 9467TIP3    H228282   6.875   5.000   3.824
 9468TIP3   OH228283   8.759   5.352   3.848
 9468TIP3    H128284   8.756   5.256   3.859
 9468TIP3    H228285   8.675   5.378   3.892
 9469TIP3   OH228286   7.879   5.144   3.978
 9469TIP3    H128287   7.874   5.234   4.015
 9469TIP3    H228288   7.804   5.100   4.024
 9470TIP3   OH228289   7.622   5.272   2.934
 9470TIP3    H128290   7.576   5.253   2.850
 9470TIP3    H228291   7.591   5.362   2.956
 9471TIP3   OH228292   7.062   5.122   3.316
 9471TIP3    H128293   7.109   5.111   3.401
 9471TIP3    H228294   7.001   5.046   3.319
 9472TIP3   OH228295   7.826   5.170   2.575
 9472TIP3    H128296   7.886   5.101   2.541
 9472TIP3    H228297   7.858   5.182   2.667
 9473TIP3   OH228298   7.873   5.217   2.846
 9473TIP3    H128299   7.785   5.228   2.889
 9473TIP3    H228300   7.924   5.177   2.918
 9474TIP3   OH228301   8.647   4.487   4.121
 9474TIP3    H128302   8.569   4.501   4.067
 9474TIP3    H228303   8.663   4.391   4.109
 9475TIP3   OH228304   7.644   3.718   3.930
 9475TIP3    H128305   7.555   3.686   3.906
 9475TIP3    H228306   7.619   3.802   3.974
 9476TIP3   OH228307   8.175   3.837   4.127
 9476TIP3    H128308   8.242   3.804   4.190
 9476TIP3    H228309   8.090   3.813   4.169
 9477TIP3   OH228310   8.422   4.264   4.048
 9477TIP3    H128311   8.369   4.259   4.130
 9477TIP3    H228312   8.392   4.348   4.009
 9478TIP3   OH228313   8.079   4.391   2.602
 9478TIP3    H128314   8.044   4.366   2.514
 9478TIP3    H228315   8.152   4.450   2.577
 9479TIP3   OH228316   7.794   3.769   2.903
 9479TIP3    H128317   7.761   3.767   2.995
 9479TIP3    H228318   7.755   3.685   2.871
 9480TIP3   OH228319   7.576   4.230   3.955
 9480TIP3    H128320   7.519   4.253   4.032
 9480TIP3    H228321   7.564   4.310   3.898
 9481TIP3   OH228322   7.459   4.119   3.465
 9481TIP3    H128323   7.366   4.093   3.482
 9481TIP3    H228324   7.472   4.078   3.377
 9482TIP3   OH228325   7.952   4.208   3.192
 9482TIP3    H128326   7.895   4.278   3.153
 9482TIP3    H228327   8.002   4.178   3.114
 9483TIP3   OH228328   8.124   4.490   4.286
 9483TIP3    H128329   8.101   4.414   4.343
 9483TIP3    H228330   8.220   4.495   4.301
 9484TIP3   OH228331   8.110   4.237   3.432
 9484TIP3    H128332   8.049   4.265   3.361
 9484TIP3    H228333   8.141   4.153   3.393
 9485TIP3   OH228334   7.404   4.260   4.168
 9485TIP3    H128335   7.401   4.322   4.241
 9485TIP3    H228336   7.381   4.176   4.211
 9486TIP3   OH228337   7.444   3.740   2.868
 9486TIP3    H128338   7.441   3.735   2.966
 9486TIP3    H228339   7.361   3.788   2.850
 9487TIP3   OH228340   6.987   3.786   3.739
 9487TIP3    H128341   7.062   3.817   3.793
 9487TIP3    H228342   7.028   3.752   3.659
 9488TIP3   OH228343   6.966   3.766   3.258
 9488TIP3    H128344   7.014   3.807   3.183
 9488TIP3    H228345   6.905   3.839   3.281
 9489TIP3   OH228346   8.123   4.483   3.857
 9489TIP3    H128347   8.152   4.409   3.799
 9489TIP3    H228348   8.090   4.432   3.934
 9490TIP3   OH228349   7.784   3.951   3.528
 9490TIP3    H128350   7.700   3.940   3.576
 9490TIP3    H228351   7.849   3.940   3.599
 9491TIP3   OH228352   7.222   3.997   3.535
 9491TIP3    H128353   7.127   4.005   3.509
 9491TIP3    H228354   7.243   3.904   3.512
 9492TIP3   OH228355   7.493   3.996   3.223
 9492TIP3    H128356   7.588   4.008   3.202
 9492TIP3    H228357   7.447   4.018   3.139
 9493TIP3   OH228358   8.278   4.018   3.729
 9493TIP3    H128359   8.237   4.028   3.818
 9493TIP3    H228360   8.219   3.952   3.689
 9494TIP3   OH228361   7.327   4.027   3.003
 9494TIP3    H128362   7.251   3.985   2.958
 9494TIP3    H228363   7.378   4.060   2.926
 9495TIP3   OH228364   8.444   5.706   3.945
 9495TIP3    H128365   8.443   5.728   3.850
 9495TIP3    H228366   8.522   5.757   3.975
 9496TIP3   OH228367   7.873   4.272   3.627
 9496TIP3    H128368   7.937   4.223   3.574
 9496TIP3    H228369   7.879   4.227   3.713
 9497TIP3   OH228370   7.396   3.758   3.497
 9497TIP3    H128371   7.365   3.678   3.544
 9497TIP3    H228372   7.456   3.721   3.431
 9498TIP3   OH228373   7.847   4.162   3.914
 9498TIP3    H128374   7.756   4.198   3.925
 9498TIP3    H228375   7.902   4.224   3.965
 9499TIP3   OH228376   7.584   4.558   3.009
 9499TIP3    H128377   7.512   4.492   2.999
 9499TIP3    H228378   7.566   4.591   3.101
 9500TIP3   OH228379   8.485   4.794   3.641
 9500TIP3    H128380   8.509   4.842   3.558
 9500TIP3    H228381   8.400   4.751   3.617
 9501TIP3   OH228382   8.037   3.881   2.845
 9501TIP3    H128383   7.946   3.854   2.872
 9501TIP3    H228384   8.050   3.966   2.891
 9502TIP3   OH228385   7.987   4.875   4.005
 9502TIP3    H128386   8.001   4.843   4.095
 9502TIP3    H228387   7.950   4.963   4.016
 9503TIP3   OH228388   8.114   4.113   2.969
 9503TIP3    H128389   8.208   4.122   2.992
 9503TIP3    H228390   8.095   4.197   2.922
 9504TIP3   OH228391   7.289   4.589   3.692
 9504TIP3    H128392   7.316   4.543   3.610
 9504TIP3    H228393   7.286   4.517   3.758
 9505TIP3   OH228394   7.727   4.707   2.826
 9505TIP3    H128395   7.681   4.793   2.835
 9505TIP3    H228396   7.674   4.651   2.887
 9506TIP3   OH228397   7.878   4.612   4.318
 9506TIP3    H128398   7.817   4.553   4.270
 9506TIP3    H228399   7.965   4.577   4.288
 9507TIP3   OH228400   8.147   5.136   3.897
 9507TIP3    H128401   8.051   5.131   3.910
 9507TIP3    H228402   8.174   5.186   3.977
 9508TIP3   OH228403   8.556   4.202   2.809
 9508TIP3    H128404   8.495   4.156   2.747
 9508TIP3    H228405   8.553   4.291   2.770
 9509TIP3   OH228406   8.772   5.061   3.892
 9509TIP3    H128407   8.674   5.057   3.884
 9509TIP3    H228408   8.797   5.031   3.801
 9510TIP3   OH228409   8.248   5.025   2.715
 9510TIP3    H128410   8.230   4.955   2.780
 9510TIP3    H228411   8.266   4.976   2.633
 9511TIP3   OH228412   8.249   4.654   3.562
 9511TIP3    H128413   8.156   4.627   3.574
 9511TIP3    H228414   8.284   4.575   3.515
 9512TIP3   OH228415   7.374   4.882   3.313
 9512TIP3    H128416   7.376   4.963   3.257
 9512TIP3    H228417   7.279   4.863   3.314
 9513TIP3   OH228418   6.937   4.188   3.007
 9513TIP3    H128419   6.984   4.270   3.031
 9513TIP3    H228420   6.861   4.190   3.069
 9514TIP3   OH228421   7.521   4.652   3.256
 9514TIP3    H128422   7.482   4.739   3.276
 9514TIP3    H228423   7.483   4.597   3.327
 9515TIP3   OH228424   7.653   5.240   3.811
 9515TIP3    H128425   7.680   5.301   3.739
 9515TIP3    H228426   7.736   5.194   3.829
 9516TIP3   OH228427   7.297   5.120   3.164
 9516TIP3    H128428   7.210   5.128   3.208
 9516TIP3    H228429   7.328   5.213   3.165
 9517TIP3   OH228430   8.038   4.861   3.736
 9517TIP3    H128431   8.031   4.857   3.834
 9517TIP3    H228432   8.115   4.804   3.720
 9518TIP3   OH228433   8.004   4.749   2.619
 9518TIP3    H128434   8.057   4.726   2.699
 9518TIP3    H228435   7.915   4.726   2.651
 9519TIP3   OH228436   8.283   5.397   3.789
 9519TIP3    H128437   8.205   5.340   3.780
 9519TIP3    H228438   8.268   5.462   3.716
 9520TIP3   OH228439   8.347   5.228   2.442
 9520TIP3    H128440   8.386   5.298   2.387
 9520TIP3    H228441   8.268   5.277   2.473
 9521TIP3   OH228442   7.368   4.003   4.310
 9521TIP3    H128443   7.272   4.009   4.324
 9521TIP3    H228444   7.393   3.938   4.378
 9522TIP3   OH228445   8.165   4.684   2.835
 9522TIP3    H128446   8.155   4.621   2.909
 9522TIP3    H228447   8.263   4.685   2.826
 9523TIP3   OH228448   7.376   4.733   2.618
 9523TIP3    H128449   7.389   4.641   2.589
 9523TIP3    H228450   7.358   4.721   2.713
 9524TIP3   OH228451   7.322   4.738   2.889
 9524TIP3    H128452   7.388   4.709   2.954
 9524TIP3    H228453   7.328   4.836   2.898
 9525TIP3   OH228454   7.061   4.433   3.091
 9525TIP3    H128455   6.995   4.476   3.151
 9525TIP3    H228456   7.073   4.505   3.026
 9526TIP3   OH228457   8.199   4.073   3.990
 9526TIP3    H128458   8.284   4.103   4.025
 9526TIP3    H228459   8.183   3.991   4.040
 9527TIP3   OH228460   8.076   3.829   3.147
 9527TIP3    H128461   8.070   3.854   3.054
 9527TIP3    H228462   8.120   3.907   3.188
 9528TIP3   OH228463   7.585   4.937   2.840
 9528TIP3    H128464   7.499   4.965   2.877
 9528TIP3    H228465   7.602   5.010   2.778
 9529TIP3   OH228466   7.775   4.000   3.253
 9529TIP3    H128467   7.842   4.070   3.238
 9529TIP3    H228468   7.778   3.992   3.351
 9530TIP3   OH228469   8.043   4.322   4.061
 9530TIP3    H128470   8.057   4.373   4.143
 9530TIP3    H228471   8.097   4.242   4.074
 9531TIP3   OH228472   7.918   3.737   3.358
 9531TIP3    H128473   7.917   3.811   3.421
 9531TIP3    H228474   7.979   3.771   3.289
 9532TIP3   OH228475   7.327   5.012   2.906
 9532TIP3    H128476   7.296   5.080   2.843
 9532TIP3    H228477   7.310   5.056   2.992
 9533TIP3   OH228478   7.429   3.724   3.144
 9533TIP3    H128479   7.428   3.813   3.183
 9533TIP3    H228480   7.524   3.702   3.155
 9534TIP3   OH228481   8.688   4.219   4.040
 9534TIP3    H128482   8.591   4.219   4.050
 9534TIP3    H228483   8.695   4.175   3.954
 9535TIP3   OH228484   8.335   4.415   3.429
 9535TIP3    H128485   8.259   4.355   3.442
 9535TIP3    H228486   8.407   4.367   3.477
 9536TIP3   OH228487   7.046   4.647   2.901
 9536TIP3    H128488   7.107   4.722   2.910
 9536TIP3    H228489   7.094   4.595   2.833
 9537TIP3   OH228490   6.995   3.919   3.029
 9537TIP3    H128491   6.990   4.017   3.026
 9537TIP3    H228492   6.905   3.894   3.004
 9538TIP3   OH228493   8.302   5.366   3.381
 9538TIP3    H128494   8.260   5.413   3.307
 9538TIP3    H228495   8.397   5.386   3.361
 9539TIP3   OH228496   7.380   3.638   3.910
 9539TIP3    H128497   7.347   3.606   3.823
 9539TIP3    H228498   7.369   3.559   3.967
 9540TIP3   OH228499   6.925   4.869   3.298
 9540TIP3    H128500   6.840   4.892   3.338
 9540TIP3    H228501   6.908   4.895   3.205
 9541TIP3   OH228502   7.539   4.938   2.534
 9541TIP3    H128503   7.478   4.870   2.572
 9541TIP3    H228504   7.613   4.881   2.509
 9542TIP3   OH228505   8.194   5.267   4.136
 9542TIP3    H128506   8.186   5.198   4.205
 9542TIP3    H228507   8.272   5.319   4.166
 9543TIP3   OH228508   7.976   4.978   2.440
 9543TIP3    H128509   8.019   4.919   2.505
 9543TIP3    H228510   8.047   4.991   2.374
 9544TIP3   OH228511   7.181   4.458   2.749
 9544TIP3    H128512   7.231   4.421   2.824
 9544TIP3    H228513   7.252   4.461   2.681
 9545TIP3   OH228514   7.811   4.881   4.325
 9545TIP3    H128515   7.791   4.879   4.231
 9545TIP3    H228516   7.847   4.789   4.336
 9546TIP3   OH228517   7.687   4.655   2.556
 9546TIP3    H128518   7.690   4.668   2.653
 9546TIP3    H228519   7.684   4.557   2.551
 9547TIP3   OH228520   8.307   4.892   3.941
 9547TIP3    H128521   8.379   4.939   3.895
 9547TIP3    H228522   8.233   4.953   3.926
 9548TIP3   OH228523   7.363   4.546   4.514
 9548TIP3    H128524   7.378   4.454   4.533
 9548TIP3    H228525   7.342   4.581   4.602
 9549TIP3   OH228526   7.395   4.357   2.979
 9549TIP3    H128527   7.362   4.317   3.061
 9549TIP3    H228528   7.426   4.279   2.928
 9550TIP3   OH228529   7.665   4.430   4.212
 9550TIP3    H128530   7.579   4.477   4.208
 9550TIP3    H228531   7.703   4.450   4.124
 9551TIP3   OH228532   7.488   4.148   2.817
 9551TIP3    H128533   7.461   4.148   2.723
 9551TIP3    H228534   7.585   4.158   2.809
 9552TIP3   OH228535   8.177   4.827   4.341
 9552TIP3    H128536   8.254   4.804   4.287
 9552TIP3    H228537   8.174   4.753   4.404
 9553TIP3   OH228538   8.316   4.484   2.472
 9553TIP3    H128539   8.289   4.438   2.390
 9553TIP3    H228540   8.285   4.575   2.451
 9554TIP3   OH228541   7.785   4.208   4.330
 9554TIP3    H128542   7.780   4.127   4.275
 9554TIP3    H228543   7.739   4.273   4.274
 9555TIP3   OH228544   7.784   3.995   4.136
 9555TIP3    H128545   7.809   4.036   4.051
 9555TIP3    H228546   7.690   3.972   4.119
 9556TIP3   OH228547   7.823   4.543   4.011
 9556TIP3    H128548   7.895   4.535   3.947
 9556TIP3    H228549   7.761   4.602   3.965
 9557TIP3   OH228550   8.401   4.502   4.398
 9557TIP3    H128551   8.444   4.415   4.396
 9557TIP3    H228552   8.468   4.558   4.356
 9558TIP3   OH228553   8.437   4.753   4.132
 9558TIP3    H128554   8.379   4.804   4.070
 9558TIP3    H228555   8.524   4.771   4.090
 9559TIP3   OH228556   7.665   4.323   4.560
 9559TIP3    H128557   7.591   4.260   4.573
 9559TIP3    H228558   7.694   4.301   4.470
 9560TIP3   OH228559   7.917   3.762   4.202
 9560TIP3    H128560   7.867   3.844   4.179
 9560TIP3    H228561   7.848   3.693   4.189
 9561TIP3   OH228562   8.042   4.268   4.419
 9561TIP3    H128563   8.028   4.256   4.515
 9561TIP3    H228564   7.952   4.242   4.387
 9562TIP3   OH228565   8.284   4.221   4.277
 9562TIP3    H128566   8.206   4.215   4.334
 9562TIP3    H228567   8.355   4.183   4.333
 9563TIP3   OH228568   8.517   4.155   4.428
 9563TIP3    H128569   8.525   4.059   4.447
 9563TIP3    H228570   8.510   4.194   4.518
 9564TIP3   OH228571   7.499   4.107   4.610
 9564TIP3    H128572   7.504   4.018   4.571
 9564TIP3    H228573   7.533   4.091   4.700
 9565TIP3   OH228574   8.014   3.771   4.459
 9565TIP3    H128575   8.080   3.699   4.452
 9565TIP3    H228576   7.972   3.764   4.370
 9566TIP3   OH228577   8.078   3.985   4.619
 9566TIP3    H128578   8.055   3.914   4.555
 9566TIP3    H228579   8.001   4.045   4.612
 9567TIP3   OH228580   7.295   5.213   2.719
 9567TIP3    H128581   7.391   5.214   2.700
 9567TIP3    H228582   7.262   5.260   2.640
 9568TIP3   OH228583   6.776   4.598   2.933
 9568TIP3    H128584   6.871   4.619   2.926
 9568TIP3    H228585   6.773   4.507   2.895
 9569TIP3   OH228586   6.687   5.206   3.345
 9569TIP3    H128587   6.620   5.142   3.313
 9569TIP3    H228588   6.732   5.153   3.414
 9570TIP3   OH228589   6.824   5.069   3.534
 9570TIP3    H128590   6.811   4.987   3.585
 9570TIP3    H228591   6.879   5.122   3.595
 9571TIP3   OH228592   8.553   5.460   3.335
 9571TIP3    H128593   8.580   5.498   3.420
 9571TIP3    H228594   8.610   5.508   3.273
 9572TIP3   OH228595   8.583   5.482   3.617
 9572TIP3    H128596   8.543   5.392   3.611
 9572TIP3    H228597   8.660   5.461   3.672
 9573TIP3   OH228598   8.632   5.157   4.190
 9573TIP3    H128599   8.556   5.165   4.251
 9573TIP3    H228600   8.671   5.247   4.194
 9574TIP3   OH228601   8.447   4.670   2.810
 9574TIP3    H128602   8.516   4.734   2.785
 9574TIP3    H228603   8.487   4.631   2.891
 9575TIP3   OH228604   8.574   4.538   3.014
 9575TIP3    H128605   8.508   4.495   3.073
 9575TIP3    H228606   8.636   4.579   3.077
 9576TIP3   OH228607   8.625   4.927   3.447
 9576TIP3    H128608   8.680   4.866   3.394
 9576TIP3    H228609   8.616   5.004   3.388
 9577TIP3   OH228610   8.462   5.229   3.644
 9577TIP3    H128611   8.390   5.272   3.694
 9577TIP3    H228612   8.412   5.181   3.574
 9578TIP3   OH228613   8.511   4.443   2.662
 9578TIP3    H128614   8.441   4.452   2.594
 9578TIP3    H228615   8.488   4.519   2.719
 9579TIP3   OH228616   8.390   4.107   2.611
 9579TIP3    H128617   8.342   4.170   2.556
 9579TIP3    H228618   8.345   4.024   2.589
 9580TIP3   OH228619   8.390   4.392   3.163
 9580TIP3    H128620   8.396   4.295   3.161
 9580TIP3    H228621   8.377   4.408   3.259
 9581TIP3   OH228622   8.677   4.818   4.019
 9581TIP3    H128623   8.751   4.753   4.010
 9581TIP3    H228624   8.704   4.888   3.956
 9582TIP3   OH228625   8.864   4.628   4.044
 9582TIP3    H128626   8.790   4.576   4.080
 9582TIP3    H228627   8.937   4.562   4.054
 9583TIP3   OH228628   8.344   3.796   2.568
 9583TIP3    H128629   8.409   3.822   2.637
 9583TIP3    H228630   8.259   3.790   2.617
 9584TIP3   OH228631   8.383   4.107   3.058
 9584TIP3    H128632   8.422   4.018   3.076
 9584TIP3    H228633   8.447   4.140   2.993
 9585TIP3   OH228634   8.549   4.289   3.552
 9585TIP3    H128635   8.635   4.315   3.513
 9585TIP3    H228636   8.561   4.322   3.643
 9586TIP3   OH228637   8.615   4.428   3.787
 9586TIP3    H128638   8.535   4.461   3.833
 9586TIP3    H228639   8.646   4.508   3.741
 9587TIP3   OH228640   7.232   4.153   4.576
 9587TIP3    H128641   7.329   4.145   4.579
 9587TIP3    H228642   7.205   4.071   4.624
 9588TIP3   OH228643   9.070   4.017   4.343
 9588TIP3    H128644   9.125   3.949   4.298
 9588TIP3    H228645   9.040   4.073   4.268
 9589TIP3   OH228646   8.494   3.856   3.095
 9589TIP3    H128647   8.540   3.841   3.180
 9589TIP3    H228648   8.434   3.779   3.094
 9590TIP3   OH228649   7.193   3.845   3.914
 9590TIP3    H128650   7.257   3.772   3.923
 9590TIP3    H228651   7.253   3.921   3.909
 9591TIP3   OH228652   6.999   4.132   3.994
 9591TIP3    H128653   7.049   4.127   3.911
 9591TIP3    H228654   7.018   4.223   4.023
 9592TIP3   OH228655   8.940   4.160   4.152
 9592TIP3    H128656   8.850   4.197   4.166
 9592TIP3    H228657   8.918   4.090   4.088
 9593TIP3   OH228658   8.579   3.812   2.713
 9593TIP3    H128659   8.624   3.730   2.686
 9593TIP3    H228660   8.654   3.874   2.720
 9594TIP3   OH228661   6.979   3.625   3.487
 9594TIP3    H128662   6.886   3.624   3.513
 9594TIP3    H228663   6.978   3.684   3.408
 9595TIP3   OH228664   8.138   5.325   2.993
 9595TIP3    H128665   8.189   5.309   2.911
 9595TIP3    H228666   8.191   5.394   3.036
 9596TIP3   OH228667   7.200   3.705   4.304
 9596TIP3    H128668   7.148   3.699   4.386
 9596TIP3    H228669   7.134   3.743   4.243
 9597TIP3   OH228670   7.860   5.409   4.070
 9597TIP3    H128671   7.906   5.409   4.157
 9597TIP3    H228672   7.929   5.453   4.014
 9598TIP3   OH228673   8.041   5.553   3.925
 9598TIP3    H128674   8.112   5.506   3.879
 9598TIP3    H228675   8.093   5.612   3.984
 9599TIP3   OH228676   8.836   3.922   4.025
 9599TIP3    H128677   8.745   3.918   3.990
 9599TIP3    H228678   8.864   3.828   4.011
 9600TIP3   OH228679   7.090   5.416   3.932
 9600TIP3    H128680   6.999   5.459   3.922
 9600TIP3    H228681   7.102   5.423   4.027
 9601TIP3   OH228682   7.343   5.423   3.816
 9601TIP3    H128683   7.265   5.390   3.855
 9601TIP3    H228684   7.309   5.448   3.723
 9602TIP3   OH228685   7.757   5.428   3.605
 9602TIP3    H128686   7.688   5.448   3.538
 9602TIP3    H228687   7.771   5.516   3.645
 9603TIP3   OH228688   8.024   5.369   3.657
 9603TIP3    H128689   7.931   5.386   3.635
 9603TIP3    H228690   8.068   5.445   3.614
 9604TIP3   OH228691   8.234   5.561   3.574
 9604TIP3    H128692   8.221   5.646   3.527
 9604TIP3    H228693   8.260   5.501   3.501
 9605TIP3   OH228694   7.009   5.213   3.692
 9605TIP3    H128695   7.049   5.233   3.778
 9605TIP3    H228696   7.083   5.168   3.644
 9606TIP3   OH228697   7.200   5.084   3.550
 9606TIP3    H128698   7.221   4.999   3.596
 9606TIP3    H228699   7.289   5.123   3.540
 9607TIP3   OH228700   7.463   5.183   3.552
 9607TIP3    H128701   7.500   5.093   3.539
 9607TIP3    H228702   7.491   5.202   3.642
 9608TIP3   OH228703   8.042   3.837   3.639
 9608TIP3    H128704   7.998   3.768   3.693
 9608TIP3    H228705   8.112   3.785   3.594
 9609TIP3   OH228706   8.569   3.731   3.557
 9609TIP3    H128707   8.601   3.770   3.473
 9609TIP3    H228708   8.473   3.725   3.540
 9610TIP3   OH228709   8.664   3.825   3.314
 9610TIP3    H128710   8.733   3.769   3.272
 9610TIP3    H228711   8.698   3.915   3.296
 9611TIP3   OH228712   7.291   3.547   3.661
 9611TIP3    H128713   7.199   3.514   3.660
 9611TIP3    H228714   7.341   3.462   3.658
 9612TIP3   OH228715   7.071   3.414   3.304
 9612TIP3    H128716   7.105   3.473   3.235
 9612TIP3    H228717   7.045   3.477   3.373
 9613TIP3   OH228718   7.724   3.587   3.537
 9613TIP3    H128719   7.793   3.625   3.480
 9613TIP3    H228720   7.755   3.614   3.625
 9614TIP3   OH228721   8.286   3.720   3.521
 9614TIP3    H128722   8.290   3.679   3.433
 9614TIP3    H228723   8.278   3.638   3.576
 9615TIP3   OH228724   8.310   3.640   3.083
 9615TIP3    H128725   8.219   3.672   3.093
 9615TIP3    H228726   8.306   3.561   3.142
 9616TIP3   OH228727   6.796   4.981   3.089
 9616TIP3    H128728   6.712   4.947   3.052
 9616TIP3    H228729   6.781   5.076   3.078
 9617TIP3   OH228730   7.192   3.577   3.069
 9617TIP3    H128731   7.242   3.513   3.016
 9617TIP3    H228732   7.264   3.631   3.108
 9618TIP3   OH228733   7.706   3.750   3.167
 9618TIP3    H128734   7.763   3.698   3.227
 9618TIP3    H228735   7.731   3.840   3.197
 9619TIP3   OH228736   7.566   5.179   2.668
 9619TIP3    H128737   7.655   5.199   2.633
 9619TIP3    H228738   7.543   5.103   2.610
 9620TIP3   OH228739   8.282   5.291   2.761
 9620TIP3    H128740   8.273   5.194   2.746
 9620TIP3    H228741   8.240   5.325   2.680
 9621TIP3   OH228742   7.498   3.829   4.552
 9621TIP3    H128743   7.465   3.756   4.608
 9621TIP3    H228744   7.593   3.829   4.577
 9622TIP3   OH228745   7.749   3.826   4.671
 9622TIP3    H128746   7.830   3.796   4.628
 9622TIP3    H228747   7.734   3.754   4.737
 9623TIP3   OH228748   6.870   5.016   2.728
 9623TIP3    H128749   6.866   5.042   2.821
 9623TIP3    H228750   6.959   4.974   2.721
 9624TIP3   OH228751   8.571   3.884   4.458
 9624TIP3    H128752   8.593   3.852   4.548
 9624TIP3    H228753   8.658   3.879   4.413
 9625TIP3   OH228754   8.513   5.438   3.951
 9625TIP3    H128755   8.434   5.405   3.903
 9625TIP3    H228756   8.494   5.534   3.950
 9626TIP3   OH228757   9.080   4.706   3.458
 9626TIP3    H128758   9.110   4.638   3.521
 9626TIP3    H228759   9.153   4.768   3.461
 9627TIP3   OH228760   9.040   5.113   3.195
 9627TIP3    H128761   9.037   5.014   3.197
 9627TIP3    H228762   9.136   5.126   3.181
 9628TIP3   OH228763   8.755   4.322   2.975
 9628TIP3    H128764   8.705   4.404   2.987
 9628TIP3    H228765   8.684   4.262   2.947
 9629TIP3   OH228766   8.815   4.607   3.140
 9629TIP3    H128767   8.862   4.530   3.180
 9629TIP3    H228768   8.872   4.627   3.065
 9630TIP3   OH228769   9.561   5.516   2.816
 9630TIP3    H128770   9.642   5.528   2.764
 9630TIP3    H228771   9.596   5.525   2.906
 9631TIP3   OH228772   9.526   5.048   3.144
 9631TIP3    H128773   9.533   4.985   3.071
 9631TIP3    H228774   9.621   5.053   3.169
 9632TIP3   OH228775   9.310   4.199   3.153
 9632TIP3    H128776   9.305   4.264   3.081
 9632TIP3    H228777   9.277   4.119   3.107
 9633TIP3   OH228778   8.958   4.401   3.248
 9633TIP3    H128779   9.039   4.378   3.298
 9633TIP3    H228780   8.969   4.342   3.171
 9634TIP3   OH228781   9.359   4.615   3.025
 9634TIP3    H128782   9.455   4.598   3.041
 9634TIP3    H228783   9.329   4.525   2.999
 9635TIP3   OH228784   9.317   4.176   3.580
 9635TIP3    H128785   9.257   4.213   3.513
 9635TIP3    H228786   9.268   4.196   3.662
 9636TIP3   OH228787   9.403   4.961   3.369
 9636TIP3    H128788   9.344   5.029   3.411
 9636TIP3    H228789   9.446   5.015   3.299
 9637TIP3   OH228790   9.184   4.295   3.369
 9637TIP3    H128791   9.249   4.366   3.389
 9637TIP3    H228792   9.230   4.252   3.292
 9638TIP3   OH228793   9.247   5.152   3.474
 9638TIP3    H128794   9.222   5.238   3.434
 9638TIP3    H228795   9.169   5.137   3.531
 9639TIP3   OH228796   8.654   4.836   2.707
 9639TIP3    H128797   8.612   4.863   2.623
 9639TIP3    H228798   8.682   4.922   2.745
 9640TIP3   OH228799   9.162   4.760   2.920
 9640TIP3    H128800   9.125   4.697   2.854
 9640TIP3    H228801   9.238   4.707   2.955
 9641TIP3   OH228802   9.290   5.166   3.075
 9641TIP3    H128803   9.274   5.118   2.992
 9641TIP3    H228804   9.376   5.130   3.104
 9642TIP3   OH228805   9.339   4.709   3.292
 9642TIP3    H128806   9.346   4.704   3.195
 9642TIP3    H228807   9.359   4.804   3.310
 9643TIP3   OH228808   9.459   5.272   3.613
 9643TIP3    H128809   9.398   5.333   3.662
 9643TIP3    H228810   9.393   5.218   3.565
 9644TIP3   OH228811   9.211   4.831   3.710
 9644TIP3    H128812   9.215   4.916   3.759
 9644TIP3    H228813   9.116   4.809   3.720
 9645TIP3   OH228814   9.512   5.305   2.642
 9645TIP3    H128815   9.526   5.375   2.709
 9645TIP3    H228816   9.447   5.347   2.584
 9646TIP3   OH228817   9.256   5.440   3.699
 9646TIP3    H128818   9.220   5.437   3.608
 9646TIP3    H228819   9.177   5.418   3.753
 9647TIP3   OH228820   9.053   4.580   2.736
 9647TIP3    H128821   8.988   4.627   2.679
 9647TIP3    H228822   9.005   4.498   2.754
 9648TIP3   OH228823   8.835   4.967   3.647
 9648TIP3    H128824   8.771   4.944   3.577
 9648TIP3    H228825   8.871   4.879   3.674
 9649TIP3   OH228826   8.689   5.159   3.284
 9649TIP3    H128827   8.785   5.155   3.271
 9649TIP3    H228828   8.678   5.241   3.333
 9650TIP3   OH228829   9.649   5.401   3.466
 9650TIP3    H128830   9.653   5.491   3.503
 9650TIP3    H228831   9.582   5.358   3.523
 9651TIP3   OH228832   9.405   5.524   2.433
 9651TIP3    H128833   9.376   5.508   2.342
 9651TIP3    H228834   9.389   5.620   2.444
 9652TIP3   OH228835   8.857   5.378   2.803
 9652TIP3    H128836   8.906   5.368   2.887
 9652TIP3    H228837   8.792   5.306   2.812
 9653TIP3   OH228838   9.037   5.151   3.642
 9653TIP3    H128839   9.089   5.133   3.723
 9653TIP3    H228840   8.965   5.085   3.647
 9654TIP3   OH228841   9.433   3.977   3.423
 9654TIP3    H128842   9.344   3.945   3.396
 9654TIP3    H228843   9.408   4.058   3.471
 9655TIP3   OH228844   9.374   4.481   3.431
 9655TIP3    H128845   9.328   4.503   3.514
 9655TIP3    H228846   9.363   4.565   3.381
 9656TIP3   OH228847   9.255   4.373   2.949
 9656TIP3    H128848   9.163   4.346   2.975
 9656TIP3    H228849   9.258   4.340   2.857
 9657TIP3   OH228850   9.189   4.516   3.645
 9657TIP3    H128851   9.218   4.577   3.714
 9657TIP3    H228852   9.177   4.433   3.696
 9658TIP3   OH228853   9.227   4.019   2.360
 9658TIP3    H128854   9.195   3.986   2.445
 9658TIP3    H228855   9.145   4.040   2.312
 9659TIP3   OH228856   8.785   4.049   3.221
 9659TIP3    H128857   8.860   4.073   3.279
 9659TIP3    H228858   8.826   4.004   3.146
 9660TIP3   OH228859   8.764   4.023   2.747
 9660TIP3    H128860   8.808   4.063   2.669
 9660TIP3    H228861   8.702   4.095   2.770
 9661TIP3   OH228862   9.017   4.255   3.021
 9661TIP3    H128863   8.921   4.261   2.997
 9661TIP3    H228864   9.039   4.161   3.004
 9662TIP3   OH228865   9.267   4.278   2.691
 9662TIP3    H128866   9.341   4.294   2.631
 9662TIP3    H228867   9.192   4.285   2.627
 9663TIP3   OH228868   9.104   4.286   2.483
 9663TIP3    H128869   9.038   4.240   2.428
 9663TIP3    H228870   9.169   4.311   2.414
 9664TIP3   OH228871   9.201   5.072   3.857
 9664TIP3    H128872   9.281   5.102   3.906
 9664TIP3    H228873   9.136   5.072   3.930
 9665TIP3   OH228874   9.191   4.016   2.982
 9665TIP3    H128875   9.156   3.939   3.032
 9665TIP3    H228876   9.239   3.975   2.910
 9666TIP3   OH228877   9.354   4.821   2.492
 9666TIP3    H128878   9.290   4.748   2.495
 9666TIP3    H228879   9.365   4.846   2.586
 9667TIP3   OH228880   9.727   5.131   3.511
 9667TIP3    H128881   9.765   5.113   3.598
 9667TIP3    H228882   9.711   5.227   3.514
 9668TIP3   OH228883   9.076   4.838   3.177
 9668TIP3    H128884   9.101   4.808   3.087
 9668TIP3    H228885   9.101   4.764   3.233
 9669TIP3   OH228886   8.950   4.757   3.785
 9669TIP3    H128887   8.973   4.742   3.879
 9669TIP3    H228888   8.882   4.689   3.770
 9670TIP3   OH228889   9.641   4.833   3.826
 9670TIP3    H128890   9.563   4.789   3.787
 9670TIP3    H228891   9.709   4.767   3.805
 9671TIP3   OH228892   9.170   5.135   2.793
 9671TIP3    H128893   9.176   5.217   2.742
 9671TIP3    H228894   9.074   5.124   2.800
 9672TIP3   OH228895   8.733   4.445   2.493
 9672TIP3    H128896   8.781   4.527   2.515
 9672TIP3    H228897   8.658   4.451   2.557
 9673TIP3   OH228898   9.340   4.918   2.768
 9673TIP3    H128899   9.288   5.000   2.763
 9673TIP3    H228900   9.279   4.862   2.820
 9674TIP3   OH228901   9.440   5.480   3.268
 9674TIP3    H128902   9.476   5.554   3.216
 9674TIP3    H228903   9.517   5.451   3.319
 9675TIP3   OH228904   9.094   5.376   2.651
 9675TIP3    H128905   9.007   5.386   2.695
 9675TIP3    H228906   9.126   5.469   2.651
 9676TIP3   OH228907   9.164   4.262   3.798
 9676TIP3    H128908   9.068   4.266   3.810
 9676TIP3    H228909   9.190   4.196   3.865
 9677TIP3   OH228910   8.880   5.348   3.427
 9677TIP3    H128911   8.929   5.269   3.455
 9677TIP3    H228912   8.910   5.413   3.491
 9678TIP3   OH228913   9.175   4.988   2.105
 9678TIP3    H128914   9.192   4.896   2.078
 9678TIP3    H228915   9.159   4.977   2.201
 9679TIP3   OH228916   9.119   4.992   2.380
 9679TIP3    H128917   9.202   4.964   2.422
 9679TIP3    H228918   9.123   5.090   2.389
 9680TIP3   OH228919   8.854   4.690   2.581
 9680TIP3    H128920   8.788   4.736   2.638
 9680TIP3    H228921   8.870   4.760   2.515
 9681TIP3   OH228922   9.373   5.218   2.337
 9681TIP3    H128923   9.283   5.238   2.368
 9681TIP3    H228924   9.388   5.290   2.275
 9682TIP3   OH228925   9.109   5.268   2.393
 9682TIP3    H128926   9.082   5.339   2.330
 9682TIP3    H228927   9.100   5.314   2.479
 9683TIP3   OH228928   9.229   3.986   2.641
 9683TIP3    H128929   9.193   4.069   2.676
 9683TIP3    H228930   9.313   4.019   2.604
 9684TIP3   OH228931   8.840   4.904   2.390
 9684TIP3    H128932   8.903   4.977   2.401
 9684TIP3    H228933   8.888   4.853   2.321
 9685TIP3   OH228934   8.793   4.178   2.528
 9685TIP3    H128935   8.793   4.275   2.514
 9685TIP3    H228936   8.709   4.153   2.489
 9686TIP3   OH228937   9.168   3.895   3.396
 9686TIP3    H128938   9.139   3.861   3.310
 9686TIP3    H228939   9.162   3.816   3.454
 9687TIP3   OH228940   8.717   5.111   2.782
 9687TIP3    H128941   8.638   5.147   2.824
 9687TIP3    H228942   8.706   5.149   2.692
 9688TIP3   OH228943   8.867   5.649   3.849
 9688TIP3    H128944   8.954   5.647   3.894
 9688TIP3    H228945   8.847   5.554   3.844
 9689TIP3   OH228946   9.355   5.625   3.887
 9689TIP3    H128947   9.447   5.601   3.903
 9689TIP3    H228948   9.331   5.564   3.814
 9690TIP3   OH228949   9.322   5.204   2.020
 9690TIP3    H128950   9.270   5.128   2.056
 9690TIP3    H228951   9.413   5.170   2.032
 9691TIP3   OH228952   9.001   5.059   4.047
 9691TIP3    H128953   9.018   4.963   4.050
 9691TIP3    H228954   8.913   5.061   4.004
 9692TIP3   OH228955   8.974   4.714   2.242
 9692TIP3    H128956   9.031   4.683   2.314
 9692TIP3    H228957   9.040   4.724   2.170
 9693TIP3   OH228958   9.599   5.139   3.821
 9693TIP3    H128959   9.566   5.158   3.731
 9693TIP3    H228960   9.610   5.043   3.821
 9694TIP3   OH228961   9.120   4.789   4.026
 9694TIP3    H128962   9.195   4.731   4.011
 9694TIP3    H228963   9.143   4.825   4.115
 9695TIP3   OH228964   9.183   4.607   2.466
 9695TIP3    H128965   9.155   4.569   2.551
 9695TIP3    H228966   9.216   4.528   2.418
 9696TIP3   OH228967   9.433   4.673   3.704
 9696TIP3    H128968   9.354   4.732   3.710
 9696TIP3    H228969   9.477   4.712   3.625
 9697TIP3   OH228970   9.284   4.400   2.311
 9697TIP3    H128971   9.242   4.394   2.223
 9697TIP3    H228972   9.377   4.415   2.288
 9698TIP3   OH228973   9.547   4.466   3.837
 9698TIP3    H128974   9.572   4.385   3.788
 9698TIP3    H228975   9.493   4.516   3.772
 9699TIP3   OH228976   9.566   4.273   3.634
 9699TIP3    H128977   9.605   4.259   3.547
 9699TIP3    H228978   9.482   4.225   3.625
 9700TIP3   OH228979   9.558   4.797   3.509
 9700TIP3    H128980   9.594   4.755   3.430
 9700TIP3    H228981   9.509   4.872   3.470
 9701TIP3   OH228982   9.429   4.599   4.042
 9701TIP3    H128983   9.371   4.522   4.060
 9701TIP3    H228984   9.478   4.566   3.964
 9702TIP3   OH228985   9.294   4.366   4.098
 9702TIP3    H128986   9.305   4.280   4.053
 9702TIP3    H228987   9.327   4.345   4.188
 9703TIP3   OH228988   9.089   5.470   2.204
 9703TIP3    H128989   9.185   5.472   2.188
 9703TIP3    H228990   9.058   5.518   2.125
 9704TIP3   OH228991   8.573   4.851   2.427
 9704TIP3    H128992   8.667   4.876   2.412
 9704TIP3    H228993   8.570   4.763   2.383
 9705TIP3   OH228994   8.486   5.464   2.834
 9705TIP3    H128995   8.418   5.402   2.801
 9705TIP3    H228996   8.530   5.409   2.902
 9706TIP3   OH228997   8.623   5.321   3.022
 9706TIP3    H128998   8.613   5.244   3.079
 9706TIP3    H228999   8.674   5.381   3.080
 9707TIP3   OH229000   8.813   4.724   3.394
 9707TIP3    H129001   8.811   4.697   3.300
 9707TIP3    H229002   8.910   4.725   3.410
 9708TIP3   OH229003   9.027   4.413   4.072
 9708TIP3    H129004   9.125   4.404   4.070
 9708TIP3    H229005   9.003   4.328   4.113
 9709TIP3   OH229006   8.987   4.103   3.399
 9709TIP3    H129007   9.049   4.027   3.411
 9709TIP3    H229008   9.051   4.177   3.398
 9710TIP3   OH229009   8.796   4.379   3.475
 9710TIP3    H129010   8.844   4.368   3.391
 9710TIP3    H229011   8.827   4.466   3.503
 9711TIP3   OH229012   8.777   3.881   2.976
 9711TIP3    H129013   8.684   3.877   3.005
 9711TIP3    H229014   8.772   3.941   2.899
 9712TIP3   OH229015   8.994   3.962   3.790
 9712TIP3    H129016   8.944   3.955   3.873
 9712TIP3    H229017   8.926   3.999   3.730
 9713TIP3   OH229018   9.037   5.386   3.868
 9713TIP3    H129019   8.946   5.355   3.850
 9713TIP3    H229020   9.045   5.369   3.962
 9714TIP3   OH229021   9.211   5.417   3.414
 9714TIP3    H129022   9.163   5.493   3.375
 9714TIP3    H229023   9.297   5.431   3.369
 9715TIP3   OH229024   9.674   5.670   3.545
 9715TIP3    H129025   9.695   5.664   3.642
 9715TIP3    H229026   9.752   5.714   3.512
 9716TIP3   OH229027   8.893   5.675   3.437
 9716TIP3    H129028   8.806   5.711   3.410
 9716TIP3    H229029   8.896   5.707   3.528
 9717TIP3   OH229030   9.130   5.655   3.294
 9717TIP3    H129031   9.043   5.668   3.340
 9717TIP3    H229032   9.109   5.689   3.204
 9718TIP3   OH229033   9.541   5.688   3.086
 9718TIP3    H129034   9.470   5.706   3.022
 9718TIP3    H229035   9.552   5.775   3.129
 9719TIP3   OH229036   9.803   5.646   3.132
 9719TIP3    H129037   9.706   5.638   3.120
 9719TIP3    H229038   9.820   5.732   3.094
 9720TIP3   OH229039   8.802   5.470   3.183
 9720TIP3    H129040   8.829   5.447   3.274
 9720TIP3    H229041   8.874   5.427   3.132
 9721TIP3   OH229042   8.993   5.341   3.036
 9721TIP3    H129043   9.012   5.258   3.085
 9721TIP3    H229044   9.083   5.381   3.030
 9722TIP3   OH229045   9.258   5.442   3.037
 9722TIP3    H129046   9.285   5.349   3.024
 9722TIP3    H229047   9.298   5.459   3.124
 9723TIP3   OH229048   9.081   3.810   3.140
 9723TIP3    H129049   8.988   3.779   3.145
 9723TIP3    H229050   9.125   3.722   3.146
 9724TIP3   OH229051   8.858   3.674   2.782
 9724TIP3    H129052   8.900   3.738   2.722
 9724TIP3    H229053   8.842   3.729   2.861
 9725TIP3   OH229054   8.589   5.239   2.578
 9725TIP3    H129055   8.505   5.207   2.540
 9725TIP3    H229056   8.578   5.334   2.564
 9726TIP3   OH229057   8.984   3.837   2.559
 9726TIP3    H129058   9.028   3.770   2.504
 9726TIP3    H229059   9.059   3.884   2.600
 9727TIP3   OH229060   9.362   5.441   2.154
 9727TIP3    H129061   9.457   5.454   2.141
 9727TIP3    H229062   9.342   5.366   2.093
 9728TIP3   OH229063   9.261   4.080   4.020
 9728TIP3    H129064   9.230   4.013   4.083
 9728TIP3    H229065   9.356   4.084   4.045
 9729TIP3   OH229066   9.498   4.084   4.145
 9729TIP3    H129067   9.596   4.092   4.135
 9729TIP3    H229068   9.495   4.014   4.213
 9730TIP3   OH229069   8.667   5.269   2.216
 9730TIP3    H129070   8.665   5.301   2.307
 9730TIP3    H229071   8.757   5.231   2.207
 9731TIP3   OH229072   0.431   5.346   4.922
 9731TIP3    H129073   0.392   5.431   4.893
 9731TIP3    H229074   0.362   5.285   4.892
 9732TIP3   OH229075   0.431   5.336   5.294
 9732TIP3    H129076   0.461   5.307   5.383
 9732TIP3    H229077   0.391   5.254   5.260
 9733TIP3   OH229078   0.623   5.649   5.023
 9733TIP3    H129079   0.671   5.566   5.045
 9733TIP3    H229080   0.694   5.714   5.044
 9734TIP3   OH229081   0.326   6.068   4.971
 9734TIP3    H129082   0.421   6.052   4.970
 9734TIP3    H229083   0.308   6.092   5.063
 9735TIP3   OH229084   0.242   5.536   5.302
 9735TIP3    H129085   0.307   5.464   5.298
 9735TIP3    H229086   0.285   5.596   5.365
 9736TIP3   OH229087   1.234   4.889   5.341
 9736TIP3    H129088   1.270   4.968   5.388
 9736TIP3    H229089   1.269   4.903   5.251
 9737TIP3   OH229090   0.642   5.071   5.383
 9737TIP3    H129091   0.686   4.986   5.404
 9737TIP3    H229092   0.614   5.054   5.291
 9738TIP3   OH229093   0.017   4.727   5.350
 9738TIP3    H129094  -0.024   4.804   5.306
 9738TIP3    H229095  -0.023   4.654   5.297
 9739TIP3   OH229096   0.672   4.819   4.970
 9739TIP3    H129097   0.744   4.801   5.036
 9739TIP3    H229098   0.725   4.852   4.896
 9740TIP3   OH229099   0.058   5.137   5.258
 9740TIP3    H129100   0.150   5.101   5.261
 9740TIP3    H229101   0.010   5.063   5.216
 9741TIP3   OH229102   1.314   5.090   5.515
 9741TIP3    H129103   1.232   5.140   5.497
 9741TIP3    H229104   1.330   5.114   5.607
 9742TIP3   OH229105   0.324   5.573   4.813
 9742TIP3    H129106   0.300   5.531   4.729
 9742TIP3    H229107   0.282   5.660   4.801
 9743TIP3   OH229108   0.885   4.819   5.138
 9743TIP3    H129109   0.889   4.761   5.215
 9743TIP3    H229110   0.947   4.890   5.163
 9744TIP3   OH229111   0.724   5.883   5.148
 9744TIP3    H129112   0.670   5.903   5.226
 9744TIP3    H229113   0.734   5.971   5.106
 9745TIP3   OH229114   1.034   4.791   5.513
 9745TIP3    H129115   0.948   4.820   5.480
 9745TIP3    H229116   1.095   4.819   5.441
 9746TIP3   OH229117   0.336   4.430   5.490
 9746TIP3    H129118   0.333   4.334   5.508
 9746TIP3    H229119   0.262   4.461   5.545
 9747TIP3   OH229120   0.579   5.716   4.724
 9747TIP3    H129121   0.566   5.639   4.666
 9747TIP3    H229122   0.622   5.678   4.801
 9748TIP3   OH229123   0.973   5.800   5.495
 9748TIP3    H129124   0.965   5.722   5.436
 9748TIP3    H229125   0.963   5.875   5.432
 9749TIP3   OH229126   0.268   5.196   4.748
 9749TIP3    H129127   0.185   5.240   4.721
 9749TIP3    H229128   0.313   5.185   4.663
 9750TIP3   OH229129   0.224   4.974   4.472
 9750TIP3    H129130   0.295   5.024   4.515
 9750TIP3    H229131   0.278   4.908   4.423
 9751TIP3   OH229132   1.167   5.431   5.337
 9751TIP3    H129133   1.087   5.488   5.343
 9751TIP3    H229134   1.197   5.453   5.247
 9752TIP3   OH229135   0.611   5.275   4.724
 9752TIP3    H129136   0.558   5.295   4.804
 9752TIP3    H229137   0.694   5.244   4.765
 9753TIP3   OH229138   0.846   5.317   5.630
 9753TIP3    H129139   0.844   5.400   5.681
 9753TIP3    H229140   0.759   5.321   5.585
 9754TIP3   OH229141  -0.017   5.232   5.501
 9754TIP3    H129142   0.023   5.200   5.417
 9754TIP3    H229143   0.026   5.317   5.514
 9755TIP3   OH229144   0.452   5.134   4.547
 9755TIP3    H129145   0.513   5.190   4.599
 9755TIP3    H229146   0.479   5.158   4.455
 9756TIP3   OH229147   0.214   5.836   4.839
 9756TIP3    H129148   0.233   5.923   4.879
 9756TIP3    H229149   0.147   5.861   4.773
 9757TIP3   OH229150   0.968   4.375   4.594
 9757TIP3    H129151   0.888   4.393   4.646
 9757TIP3    H229152   0.979   4.459   4.545
 9758TIP3   OH229153   0.766   5.743   4.144
 9758TIP3    H129154   0.775   5.840   4.129
 9758TIP3    H229155   0.858   5.712   4.131
 9759TIP3   OH229156   1.210   6.140   5.535
 9759TIP3    H129157   1.210   6.043   5.550
 9759TIP3    H229158   1.127   6.165   5.582
 9760TIP3   OH229159   0.336   5.910   5.684
 9760TIP3    H129160   0.343   6.006   5.708
 9760TIP3    H229161   0.241   5.900   5.677
 9761TIP3   OH229162   0.103   6.040   4.646
 9761TIP3    H129163   0.072   6.019   4.556
 9761TIP3    H229164   0.073   6.132   4.657
 9762TIP3   OH229165   0.281   5.960   4.265
 9762TIP3    H129166   0.339   5.891   4.226
 9762TIP3    H229167   0.321   5.969   4.354
 9763TIP3   OH229168   0.344   6.003   4.531
 9763TIP3    H129169   0.263   6.004   4.585
 9763TIP3    H229170   0.409   5.971   4.596
 9764TIP3   OH229171   1.098   5.273   5.814
 9764TIP3    H129172   1.023   5.289   5.755
 9764TIP3    H229173   1.116   5.179   5.798
 9765TIP3   OH229174   0.089   4.508   5.625
 9765TIP3    H129175   0.013   4.468   5.582
 9765TIP3    H229176   0.079   4.601   5.602
 9766TIP3   OH229177   0.630   4.624   5.816
 9766TIP3    H129178   0.699   4.592   5.878
 9766TIP3    H229179   0.546   4.599   5.861
 9767TIP3   OH229180   0.869   5.049   5.733
 9767TIP3    H129181   0.821   5.046   5.819
 9767TIP3    H229182   0.846   5.137   5.700
 9768TIP3   OH229183   0.529   5.187   4.293
 9768TIP3    H129184   0.495   5.155   4.207
 9768TIP3    H229185   0.610   5.232   4.264
 9769TIP3   OH229186   0.242   4.558   4.592
 9769TIP3    H129187   0.212   4.554   4.685
 9769TIP3    H229188   0.205   4.474   4.559
 9770TIP3   OH229189   0.025   5.010   5.651
 9770TIP3    H129190  -0.036   5.033   5.722
 9770TIP3    H229191   0.010   5.085   5.589
 9771TIP3   OH229192  -0.095   4.898   5.157
 9771TIP3    H129193  -0.191   4.905   5.146
 9771TIP3    H229194  -0.071   4.857   5.072
 9772TIP3   OH229195   0.404   4.996   4.881
 9772TIP3    H129196   0.348   5.065   4.838
 9772TIP3    H229197   0.458   4.964   4.806
 9773TIP3   OH229198   0.577   5.275   5.971
 9773TIP3    H129199   0.555   5.200   6.032
 9773TIP3    H229200   0.672   5.285   5.990
 9774TIP3   OH229201   0.560   5.025   5.121
 9774TIP3    H129202   0.501   5.049   5.047
 9774TIP3    H229203   0.595   4.941   5.084
 9775TIP3   OH229204  -0.098   4.534   4.562
 9775TIP3    H129205  -0.107   4.525   4.659
 9775TIP3    H229206  -0.191   4.541   4.534
 9776TIP3   OH229207   0.567   5.271   5.544
 9776TIP3    H129208   0.601   5.198   5.488
 9776TIP3    H229209   0.544   5.220   5.625
 9777TIP3   OH229210   0.251   4.739   5.211
 9777TIP3    H129211   0.167   4.735   5.262
 9777TIP3    H229212   0.317   4.728   5.282
 9778TIP3   OH229213  -0.052   4.786   4.909
 9778TIP3    H129214   0.045   4.797   4.894
 9778TIP3    H229215  -0.092   4.819   4.827
 9779TIP3   OH229216   0.727   4.809   5.419
 9779TIP3    H129217   0.689   4.816   5.510
 9779TIP3    H229218   0.670   4.741   5.380
 9780TIP3   OH229219  -0.233   4.841   4.687
 9780TIP3    H129220  -0.273   4.753   4.672
 9780TIP3    H229221  -0.172   4.851   4.611
 9781TIP3   OH229222   0.897   6.494   5.635
 9781TIP3    H129223   0.897   6.517   5.540
 9781TIP3    H229224   0.975   6.543   5.667
 9782TIP3   OH229225   0.326   5.058   5.313
 9782TIP3    H129226   0.394   5.014   5.260
 9782TIP3    H229227   0.338   5.015   5.400
 9783TIP3   OH229228  -0.116   4.548   5.193
 9783TIP3    H129229  -0.184   4.479   5.208
 9783TIP3    H229230  -0.075   4.515   5.112
 9784TIP3   OH229231   0.300   4.947   5.608
 9784TIP3    H129232   0.211   4.986   5.618
 9784TIP3    H229233   0.358   5.009   5.656
 9785TIP3   OH229234   0.040   5.343   4.690
 9785TIP3    H129235  -0.035   5.279   4.685
 9785TIP3    H229236   0.029   5.379   4.781
 9786TIP3   OH229237   0.938   5.585   5.329
 9786TIP3    H129238   0.964   5.629   5.245
 9786TIP3    H229239   0.854   5.540   5.305
 9787TIP3   OH229240   0.495   4.659   4.558
 9787TIP3    H129241   0.398   4.643   4.564
 9787TIP3    H229242   0.504   4.754   4.581
 9788TIP3   OH229243   0.433   5.656   5.692
 9788TIP3    H129244   0.457   5.643   5.784
 9788TIP3    H229245   0.399   5.748   5.695
 9789TIP3   OH229246   0.564   4.905   4.664
 9789TIP3    H129247   0.661   4.907   4.678
 9789TIP3    H229248   0.550   4.982   4.605
 9790TIP3   OH229249   0.188   5.491   4.517
 9790TIP3    H129250   0.145   5.579   4.529
 9790TIP3    H229251   0.132   5.436   4.576
 9791TIP3   OH229252   0.341   5.407   6.014
 9791TIP3    H129253   0.286   5.336   5.976
 9791TIP3    H229254   0.430   5.377   5.985
 9792TIP3   OH229255   0.603   5.921   5.586
 9792TIP3    H129256   0.507   5.917   5.599
 9792TIP3    H229257   0.629   5.972   5.666
 9793TIP3   OH229258   1.006   4.991   4.501
 9793TIP3    H129259   0.944   4.945   4.440
 9793TIP3    H229260   1.005   5.079   4.457
 9794TIP3   OH229261   1.224   5.850   5.583
 9794TIP3    H129262   1.126   5.846   5.576
 9794TIP3    H229263   1.249   5.820   5.493
 9795TIP3   OH229264   0.705   5.812   4.407
 9795TIP3    H129265   0.682   5.738   4.464
 9795TIP3    H229266   0.718   5.769   4.320
 9796TIP3   OH229267   0.700   5.445   5.240
 9796TIP3    H129268   0.611   5.414   5.265
 9796TIP3    H229269   0.738   5.363   5.203
 9797TIP3   OH229270   0.018   5.443   4.938
 9797TIP3    H129271  -0.026   5.527   4.953
 9797TIP3    H229272  -0.023   5.389   5.007
 9798TIP3   OH229273   0.493   5.644   5.409
 9798TIP3    H129274   0.476   5.661   5.504
 9798TIP3    H229275   0.578   5.598   5.414
 9799TIP3   OH229276   0.459   5.540   4.310
 9799TIP3    H129277   0.508   5.516   4.391
 9799TIP3    H229278   0.369   5.511   4.334
 9800TIP3   OH229279   0.736   6.181   5.477
 9800TIP3    H129280   0.657   6.124   5.472
 9800TIP3    H229281   0.718   6.247   5.406
 9801TIP3   OH229282   0.800   6.017   4.131
 9801TIP3    H129283   0.838   6.088   4.076
 9801TIP3    H229284   0.720   6.063   4.163
 9802TIP3   OH229285   0.619   5.484   4.539
 9802TIP3    H129286   0.610   5.408   4.599
 9802TIP3    H229287   0.714   5.476   4.515
 9803TIP3   OH229288  -0.122   5.497   4.339
 9803TIP3    H129289  -0.099   5.413   4.293
 9803TIP3    H229290  -0.153   5.463   4.423
 9804TIP3   OH229291   0.649   4.862   5.681
 9804TIP3    H129292   0.735   4.894   5.711
 9804TIP3    H229293   0.638   4.779   5.732
 9805TIP3   OH229294   0.529   4.615   4.839
 9805TIP3    H129295   0.521   4.635   4.744
 9805TIP3    H229296   0.573   4.695   4.874
 9806TIP3   OH229297   0.052   5.723   4.548
 9806TIP3    H129298  -0.045   5.727   4.556
 9806TIP3    H229299   0.066   5.767   4.462
 9807TIP3   OH229300   0.226   4.790   4.942
 9807TIP3    H129301   0.295   4.857   4.924
 9807TIP3    H229302   0.235   4.779   5.039
 9808TIP3   OH229303   0.492   5.112   5.753
 9808TIP3    H129304   0.513   5.160   5.836
 9808TIP3    H229305   0.547   5.032   5.761
 9809TIP3   OH229306   0.373   4.522   5.049
 9809TIP3    H129307   0.370   4.598   5.110
 9809TIP3    H229308   0.432   4.557   4.978
 9810TIP3   OH229309  -0.111   4.527   4.845
 9810TIP3    H129310  -0.090   4.613   4.885
 9810TIP3    H229311  -0.021   4.487   4.845
 9811TIP3   OH229312   1.138   5.010   5.733
 9811TIP3    H129313   1.040   5.005   5.737
 9811TIP3    H229314   1.153   4.966   5.648
 9812TIP3   OH229315   0.785   5.205   5.122
 9812TIP3    H129316   0.713   5.141   5.132
 9812TIP3    H229317   0.860   5.160   5.167
 9813TIP3   OH229318   0.755   6.145   5.066
 9813TIP3    H129319   0.715   6.199   4.994
 9813TIP3    H229320   0.849   6.169   5.051
 9814TIP3   OH229321   0.027   5.714   4.248
 9814TIP3    H129322  -0.027   5.636   4.271
 9814TIP3    H229323   0.082   5.678   4.176
 9815TIP3   OH229324   0.659   6.051   5.822
 9815TIP3    H129325   0.647   5.982   5.892
 9815TIP3    H229326   0.730   6.106   5.858
 9816TIP3   OH229327   0.429   5.770   4.132
 9816TIP3    H129328   0.476   5.706   4.189
 9816TIP3    H229329   0.484   5.771   4.051
 9817TIP3   OH229330   0.280   5.682   6.013
 9817TIP3    H129331   0.215   5.664   5.944
 9817TIP3    H229332   0.312   5.591   6.032
 9818TIP3   OH229333   0.154   5.435   4.244
 9818TIP3    H129334   0.150   5.451   4.341
 9818TIP3    H229335   0.152   5.336   4.242
 9819TIP3   OH229336   0.757   5.677   5.625
 9819TIP3    H129337   0.832   5.727   5.586
 9819TIP3    H229338   0.687   5.744   5.619
 9820TIP3   OH229339  -0.145   5.142   4.672
 9820TIP3    H129340  -0.184   5.088   4.742
 9820TIP3    H229341  -0.117   5.074   4.608
 9821TIP3   OH229342   0.183   5.217   5.891
 9821TIP3    H129343   0.100   5.268   5.893
 9821TIP3    H229344   0.212   5.235   5.799
 9822TIP3   OH229345  -0.055   4.937   4.504
 9822TIP3    H129346  -0.079   4.941   4.409
 9822TIP3    H229347   0.043   4.944   4.499
 9823TIP3   OH229348   0.625   5.607   6.029
 9823TIP3    H129349   0.708   5.595   5.981
 9823TIP3    H229350   0.630   5.538   6.097
 9824TIP3   OH229351   0.766   5.273   4.167
 9824TIP3    H129352   0.746   5.223   4.085
 9824TIP3    H229353   0.735   5.362   4.139
 9825TIP3   OH229354   0.246   4.981   6.034
 9825TIP3    H129355   0.233   4.906   5.973
 9825TIP3    H229356   0.213   5.057   5.982
 9826TIP3   OH229357   0.230   4.779   5.822
 9826TIP3    H129358   0.266   4.824   5.743
 9826TIP3    H229359   0.136   4.774   5.803
 9827TIP3   OH229360   0.262   5.337   5.652
 9827TIP3    H129361   0.354   5.320   5.628
 9827TIP3    H229362   0.256   5.433   5.643
 9828TIP3   OH229363   0.853   5.289   6.088
 9828TIP3    H129364   0.897   5.203   6.085
 9828TIP3    H229365   0.920   5.347   6.048
 9829TIP3   OH229366   0.889   5.540   5.817
 9829TIP3    H129367   0.831   5.592   5.757
 9829TIP3    H229368   0.976   5.559   5.777
 9830TIP3   OH229369   0.371   4.549   5.891
 9830TIP3    H129370   0.320   4.630   5.870
 9830TIP3    H229371   0.301   4.480   5.885
 9831TIP3   OH229372   0.496   5.057   6.111
 9831TIP3    H129373   0.485   5.047   6.207
 9831TIP3    H229374   0.406   5.028   6.083
 9832TIP3   OH229375   0.737   5.009   5.967
 9832TIP3    H129376   0.660   5.003   6.026
 9832TIP3    H229377   0.809   4.971   6.022
 9833TIP3   OH229378   0.967   4.943   6.117
 9833TIP3    H129379   0.978   4.846   6.134
 9833TIP3    H229380   0.963   4.980   6.207
 9834TIP3   OH229381   0.467   4.561   6.148
 9834TIP3    H129382   0.534   4.490   6.145
 9834TIP3    H229383   0.427   4.550   6.059
 9835TIP3   OH229384   0.528   4.774   6.309
 9835TIP3    H129385   0.508   4.702   6.245
 9835TIP3    H229386   0.453   4.835   6.296
 9836TIP3   OH229387   1.001   6.251   5.026
 9836TIP3    H129388   1.033   6.284   5.112
 9836TIP3    H229389   1.063   6.293   4.964
 9837TIP3   OH229390   1.038   6.269   5.306
 9837TIP3    H129391   0.998   6.180   5.303
 9837TIP3    H229392   1.114   6.252   5.363
 9838TIP3   OH229393   1.083   5.945   5.879
 9838TIP3    H129394   1.008   5.953   5.942
 9838TIP3    H229395   1.123   6.034   5.884
 9839TIP3   OH229396   0.896   5.462   4.503
 9839TIP3    H129397   0.967   5.522   4.473
 9839TIP3    H229398   0.939   5.420   4.580
 9840TIP3   OH229399   1.023   5.331   4.705
 9840TIP3    H129400   0.963   5.283   4.766
 9840TIP3    H229401   1.094   5.363   4.765
 9841TIP3   OH229402   1.065   5.711   5.125
 9841TIP3    H129403   1.131   5.650   5.085
 9841TIP3    H229404   1.077   5.792   5.070
 9842TIP3   OH229405   0.916   6.018   5.335
 9842TIP3    H129406   0.847   6.062   5.388
 9842TIP3    H229407   0.865   5.971   5.267
 9843TIP3   OH229408   0.965   5.235   4.353
 9843TIP3    H129409   0.894   5.236   4.285
 9843TIP3    H229410   0.937   5.311   4.407
 9844TIP3   OH229411   0.832   4.910   4.310
 9844TIP3    H129412   0.799   4.946   4.227
 9844TIP3    H229413   0.808   4.815   4.300
 9845TIP3   OH229414   0.839   5.180   4.853
 9845TIP3    H129415   0.851   5.083   4.845
 9845TIP3    H229416   0.831   5.191   4.951
 9846TIP3   OH229417   1.130   5.606   5.707
 9846TIP3    H129418   1.203   5.540   5.701
 9846TIP3    H229419   1.161   5.676   5.647
 9847TIP3   OH229420   1.315   5.415   5.737
 9847TIP3    H129421   1.242   5.361   5.774
 9847TIP3    H229422   1.390   5.352   5.747
 9848TIP3   OH229423   0.778   4.645   4.300
 9848TIP3    H129424   0.858   4.611   4.347
 9848TIP3    H229425   0.709   4.580   4.322
 9849TIP3   OH229426   0.837   4.897   4.748
 9849TIP3    H129427   0.876   4.808   4.765
 9849TIP3    H229428   0.897   4.928   4.678
 9850TIP3   OH229429   0.999   5.082   5.240
 9850TIP3    H129430   1.086   5.105   5.201
 9850TIP3    H229431   1.016   5.109   5.332
 9851TIP3   OH229432   1.066   5.216   5.479
 9851TIP3    H129433   0.987   5.252   5.523
 9851TIP3    H229434   1.100   5.294   5.430
 9852TIP3   OH229435   1.512   4.801   6.041
 9852TIP3    H129436   1.576   4.737   6.003
 9852TIP3    H229437   1.497   4.860   5.964
 9853TIP3   OH229438   0.943   4.648   4.786
 9853TIP3    H129439   0.996   4.632   4.867
 9853TIP3    H229440   0.886   4.569   4.785
 9854TIP3   OH229441   1.390   4.952   5.843
 9854TIP3    H129442   1.296   4.981   5.843
 9854TIP3    H229443   1.384   4.878   5.781
 9855TIP3   OH229444   1.029   4.586   4.414
 9855TIP3    H129445   1.070   4.511   4.366
 9855TIP3    H229446   1.098   4.655   4.407
 9856TIP3   OH229447   0.579   6.111   4.689
 9856TIP3    H129448   0.631   6.086   4.610
 9856TIP3    H229449   0.641   6.172   4.732
 9857TIP3   OH229450   0.353   6.170   5.758
 9857TIP3    H129451   0.362   6.203   5.849
 9857TIP3    H229452   0.395   6.242   5.707
 9858TIP3   OH229453   0.498   6.352   5.606
 9858TIP3    H129454   0.568   6.293   5.577
 9858TIP3    H229455   0.547   6.406   5.673
 9859TIP3   OH229456   1.287   4.707   5.716
 9859TIP3    H129457   1.197   4.697   5.680
 9859TIP3    H229458   1.321   4.615   5.704
 9860TIP3   OH229459   0.216   6.238   5.255
 9860TIP3    H129460   0.120   6.251   5.251
 9860TIP3    H229461   0.241   6.313   5.314
 9861TIP3   OH229462   0.487   6.154   5.318
 9861TIP3    H129463   0.391   6.169   5.313
 9861TIP3    H229464   0.523   6.243   5.303
 9862TIP3   OH229465   0.688   6.350   5.264
 9862TIP3    H129466   0.675   6.437   5.219
 9862TIP3    H229467   0.713   6.292   5.190
 9863TIP3   OH229468   0.492   4.624   5.329
 9863TIP3    H129469   0.451   4.554   5.383
 9863TIP3    H229470   0.565   4.577   5.286
 9864TIP3   OH229471   1.019   4.507   5.239
 9864TIP3    H129472   1.057   4.557   5.164
 9864TIP3    H229473   0.923   4.522   5.229
 9865TIP3   OH229474   1.113   4.609   5.001
 9865TIP3    H129475   1.185   4.555   4.962
 9865TIP3    H229476   1.148   4.699   4.986
 9866TIP3   OH229477   0.187   4.374   5.226
 9866TIP3    H129478   0.250   4.422   5.171
 9866TIP3    H229479   0.214   4.399   5.315
 9867TIP3   OH229480   0.734   4.512   5.213
 9867TIP3    H129481   0.733   4.474   5.125
 9867TIP3    H229482   0.721   4.431   5.269
 9868TIP3   OH229483   0.763   4.432   4.774
 9868TIP3    H129484   0.674   4.470   4.781
 9868TIP3    H229485   0.751   4.348   4.824
 9869TIP3   OH229486  -0.324   4.290   4.799
 9869TIP3    H129487  -0.322   4.275   4.703
 9869TIP3    H229488  -0.299   4.383   4.805
 9870TIP3   OH229489   0.164   4.537   4.859
 9870TIP3    H129490   0.222   4.488   4.920
 9870TIP3    H229491   0.188   4.628   4.885
 9871TIP3   OH229492   0.032   5.971   4.388
 9871TIP3    H129493   0.119   5.973   4.342
 9871TIP3    H229494  -0.022   5.932   4.316
 9872TIP3   OH229495   0.733   6.079   4.454
 9872TIP3    H129496   0.726   5.982   4.439
 9872TIP3    H229497   0.691   6.113   4.372
 9873TIP3   OH229498   0.199   4.598   6.352
 9873TIP3    H129499   0.283   4.577   6.307
 9873TIP3    H229500   0.202   4.536   6.427
 9874TIP3   OH229501   1.023   4.673   6.148
 9874TIP3    H129502   1.043   4.636   6.236
 9874TIP3    H229503   1.110   4.666   6.102
 9875TIP3   OH229504   0.966   6.226   5.639
 9875TIP3    H129505   0.886   6.193   5.595
 9875TIP3    H229506   0.946   6.322   5.641
 9876TIP3   OH229507   2.231   5.595   4.404
 9876TIP3    H129508   2.205   5.689   4.392
 9876TIP3    H229509   2.149   5.550   4.380
 9877TIP3   OH229510   2.180   5.598   4.789
 9877TIP3    H129511   2.238   5.586   4.867
 9877TIP3    H229512   2.182   5.510   4.750
 9878TIP3   OH229513   1.526   5.498   5.157
 9878TIP3    H129514   1.559   5.428   5.217
 9878TIP3    H229515   1.609   5.544   5.136
 9879TIP3   OH229516   2.467   5.903   4.462
 9879TIP3    H129517   2.459   5.826   4.520
 9879TIP3    H229518   2.499   5.972   4.523
 9880TIP3   OH229519   1.496   5.899   4.880
 9880TIP3    H129520   1.491   5.801   4.883
 9880TIP3    H229521   1.593   5.910   4.874
 9881TIP3   OH229522   1.204   5.108   4.666
 9881TIP3    H129523   1.155   5.191   4.673
 9881TIP3    H229524   1.134   5.049   4.631
 9882TIP3   OH229525   1.265   5.391   4.829
 9882TIP3    H129526   1.313   5.316   4.870
 9882TIP3    H229527   1.327   5.419   4.761
 9883TIP3   OH229528   2.082   6.325   4.487
 9883TIP3    H129529   2.153   6.286   4.432
 9883TIP3    H229530   2.123   6.328   4.573
 9884TIP3   OH229531   2.028   5.824   4.835
 9884TIP3    H129532   2.064   5.739   4.800
 9884TIP3    H229533   2.113   5.867   4.855
 9885TIP3   OH229534   3.039   5.144   4.828
 9885TIP3    H129535   3.064   5.224   4.878
 9885TIP3    H229536   3.057   5.173   4.737
 9886TIP3   OH229537   2.448   5.328   4.869
 9886TIP3    H129538   2.487   5.241   4.889
 9886TIP3    H229539   2.412   5.311   4.780
 9887TIP3   OH229540   1.769   4.984   4.835
 9887TIP3    H129541   1.754   5.056   4.770
 9887TIP3    H229542   1.725   4.910   4.788
 9888TIP3   OH229543   2.469   5.072   4.458
 9888TIP3    H129544   2.540   5.055   4.524
 9888TIP3    H229545   2.521   5.113   4.387
 9889TIP3   OH229546   1.410   5.187   4.939
 9889TIP3    H129547   1.494   5.167   4.986
 9889TIP3    H229548   1.423   5.131   4.859
 9890TIP3   OH229549   1.851   5.384   4.732
 9890TIP3    H129550   1.946   5.361   4.745
 9890TIP3    H229551   1.815   5.299   4.700
 9891TIP3   OH229552   3.108   5.350   5.000
 9891TIP3    H129553   3.025   5.400   4.985
 9891TIP3    H229554   3.122   5.368   5.094
 9892TIP3   OH229555   1.774   4.964   5.264
 9892TIP3    H129556   1.712   5.003   5.199
 9892TIP3    H229557   1.726   4.981   5.348
 9893TIP3   OH229558   2.128   5.822   4.275
 9893TIP3    H129559   2.077   5.793   4.198
 9893TIP3    H229560   2.085   5.907   4.296
 9894TIP3   OH229561   1.879   5.740   5.065
 9894TIP3    H129562   1.817   5.806   5.103
 9894TIP3    H229563   1.926   5.792   4.997
 9895TIP3   OH229564   2.686   5.072   4.624
 9895TIP3    H129565   2.672   5.027   4.708
 9895TIP3    H229566   2.734   5.152   4.651
 9896TIP3   OH229567   1.641   5.083   5.053
 9896TIP3    H129568   1.706   5.153   5.076
 9896TIP3    H229569   1.690   5.040   4.979
 9897TIP3   OH229570   1.704   5.934   5.162
 9897TIP3    H129571   1.680   6.019   5.120
 9897TIP3    H229572   1.626   5.920   5.218
 9898TIP3   OH229573   1.103   5.624   4.397
 9898TIP3    H129574   1.064   5.650   4.312
 9898TIP3    H229575   1.134   5.708   4.434
 9899TIP3   OH229576   2.542   6.142   4.635
 9899TIP3    H129577   2.454   6.128   4.677
 9899TIP3    H229578   2.529   6.229   4.593
 9900TIP3   OH229579   2.840   5.058   5.014
 9900TIP3    H129580   2.750   5.064   4.980
 9900TIP3    H229581   2.894   5.071   4.934
 9901TIP3   OH229582   2.125   4.688   4.972
 9901TIP3    H129583   2.123   4.595   5.000
 9901TIP3    H229584   2.051   4.725   5.025
 9902TIP3   OH229585   2.253   6.191   4.315
 9902TIP3    H129586   2.302   6.109   4.291
 9902TIP3    H229587   2.308   6.258   4.269
 9903TIP3   OH229588   2.392   5.974   4.209
 9903TIP3    H129589   2.343   5.896   4.179
 9903TIP3    H229590   2.424   5.942   4.297
 9904TIP3   OH229591   2.784   6.054   4.974
 9904TIP3    H129592   2.730   5.974   4.961
 9904TIP3    H229593   2.753   6.114   4.904
 9905TIP3   OH229594   2.056   5.446   4.232
 9905TIP3    H129595   1.978   5.499   4.208
 9905TIP3    H229596   2.108   5.446   4.150
 9906TIP3   OH229597   2.018   5.232   3.954
 9906TIP3    H129598   2.086   5.280   4.006
 9906TIP3    H229599   2.075   5.167   3.909
 9907TIP3   OH229600   2.958   5.692   4.818
 9907TIP3    H129601   2.874   5.739   4.831
 9907TIP3    H229602   2.984   5.720   4.728
 9908TIP3   OH229603   2.408   5.530   4.208
 9908TIP3    H129604   2.354   5.555   4.287
 9908TIP3    H229605   2.492   5.503   4.252
 9909TIP3   OH229606   1.641   5.531   4.625
 9909TIP3    H129607   1.600   5.472   4.559
 9909TIP3    H229608   1.718   5.478   4.655
 9910TIP3   OH229609   1.770   5.938   4.776
 9910TIP3    H129610   1.752   5.889   4.694
 9910TIP3    H229611   1.861   5.909   4.796
 9911TIP3   OH229612   1.770   5.503   4.978
 9911TIP3    H129613   1.810   5.478   4.892
 9911TIP3    H229614   1.820   5.585   5.001
 9912TIP3   OH229615   2.302   6.137   4.758
 9912TIP3    H129616   2.295   6.211   4.821
 9912TIP3    H229617   2.294   6.058   4.816
 9913TIP3   OH229618   1.912   6.060   5.304
 9913TIP3    H129619   1.850   6.121   5.350
 9913TIP3    H229620   1.849   6.003   5.256
 9914TIP3   OH229621   2.251   5.389   4.035
 9914TIP3    H129622   2.309   5.447   4.089
 9914TIP3    H229623   2.278   5.416   3.944
 9915TIP3   OH229624   1.668   5.619   5.403
 9915TIP3    H129625   1.668   5.704   5.451
 9915TIP3    H229626   1.572   5.598   5.402
 9916TIP3   OH229627   1.989   6.074   4.304
 9916TIP3    H129628   2.061   6.125   4.346
 9916TIP3    H229629   1.928   6.145   4.279
 9917TIP3   OH229630   1.707   6.230   5.389
 9917TIP3    H129631   1.673   6.225   5.297
 9917TIP3    H229632   1.628   6.206   5.442
 9918TIP3   OH229633   2.763   4.631   4.079
 9918TIP3    H129634   2.683   4.649   4.134
 9918TIP3    H229635   2.775   4.717   4.035
 9919TIP3   OH229636   1.505   5.372   4.431
 9919TIP3    H129637   1.440   5.414   4.370
 9919TIP3    H229638   1.467   5.285   4.444
 9920TIP3   OH229639   2.561   5.998   3.628
 9920TIP3    H129640   2.571   6.095   3.616
 9920TIP3    H229641   2.654   5.968   3.616
 9921TIP3   OH229642   1.286   5.755   5.337
 9921TIP3    H129643   1.232   5.726   5.262
 9921TIP3    H229644   1.325   5.672   5.370
 9922TIP3   OH229645   1.141   5.945   4.979
 9922TIP3    H129646   1.235   5.936   4.959
 9922TIP3    H229647   1.139   6.029   5.027
 9923TIP3   OH229648   3.001   6.398   5.017
 9923TIP3    H129649   3.006   6.301   5.029
 9923TIP3    H229650   2.920   6.417   5.069
 9924TIP3   OH229651   2.111   6.187   5.160
 9924TIP3    H129652   2.112   6.279   5.191
 9924TIP3    H229653   2.040   6.148   5.216
 9925TIP3   OH229654   1.862   6.314   4.109
 9925TIP3    H129655   1.822   6.298   4.021
 9925TIP3    H229656   1.836   6.405   4.129
 9926TIP3   OH229657   1.309   6.167   4.495
 9926TIP3    H129658   1.359   6.156   4.578
 9926TIP3    H229659   1.250   6.090   4.500
 9927TIP3   OH229660   2.073   6.215   3.753
 9927TIP3    H129661   2.133   6.147   3.717
 9927TIP3    H229662   2.105   6.224   3.845
 9928TIP3   OH229663   2.120   6.262   4.024
 9928TIP3    H129664   2.035   6.271   4.074
 9928TIP3    H229665   2.177   6.227   4.094
 9929TIP3   OH229666   2.897   5.533   5.305
 9929TIP3    H129667   2.831   5.557   5.239
 9929TIP3    H229668   2.910   5.438   5.286
 9930TIP3   OH229669   1.490   5.941   5.330
 9930TIP3    H129670   1.543   5.921   5.410
 9930TIP3    H229671   1.419   5.874   5.337
 9931TIP3   OH229672   1.885   4.770   5.093
 9931TIP3    H129673   1.793   4.739   5.079
 9931TIP3    H229674   1.868   4.849   5.148
 9932TIP3   OH229675   2.428   4.884   5.323
 9932TIP3    H129676   2.463   4.811   5.378
 9932TIP3    H229677   2.332   4.866   5.333
 9933TIP3   OH229678   2.669   5.314   5.226
 9933TIP3    H129679   2.622   5.304   5.311
 9933TIP3    H229680   2.618   5.382   5.181
 9934TIP3   OH229681   2.323   5.440   3.778
 9934TIP3    H129682   2.293   5.411   3.689
 9934TIP3    H229683   2.403   5.491   3.754
 9935TIP3   OH229684   2.039   4.814   4.079
 9935TIP3    H129685   2.009   4.813   4.172
 9935TIP3    H229686   2.000   4.730   4.049
 9936TIP3   OH229687   1.819   5.278   5.126
 9936TIP3    H129688   1.777   5.304   5.209
 9936TIP3    H229689   1.806   5.359   5.071
 9937TIP3   OH229690   1.706   5.164   4.640
 9937TIP3    H129691   1.614   5.136   4.657
 9937TIP3    H229692   1.722   5.122   4.553
 9938TIP3   OH229693   2.197   5.248   4.364
 9938TIP3    H129694   2.142   5.321   4.327
 9938TIP3    H229695   2.252   5.224   4.288
 9939TIP3   OH229696   2.374   5.537   5.465
 9939TIP3    H129697   2.351   5.460   5.521
 9939TIP3    H229698   2.470   5.540   5.476
 9940TIP3   OH229699   2.346   5.276   4.616
 9940TIP3    H129700   2.297   5.311   4.540
 9940TIP3    H229701   2.384   5.196   4.573
 9941TIP3   OH229702   1.635   5.309   5.340
 9941TIP3    H129703   1.681   5.366   5.404
 9941TIP3    H229704   1.633   5.224   5.388
 9942TIP3   OH229705   1.692   4.782   4.045
 9942TIP3    H129706   1.689   4.781   4.143
 9942TIP3    H229707   1.611   4.832   4.025
 9943TIP3   OH229708   1.236   4.833   4.916
 9943TIP3    H129709   1.313   4.862   4.970
 9943TIP3    H229710   1.276   4.795   4.837
 9944TIP3   OH229711   1.214   4.810   4.437
 9944TIP3    H129712   1.261   4.849   4.360
 9944TIP3    H229713   1.154   4.884   4.458
 9945TIP3   OH229714   2.312   5.523   5.021
 9945TIP3    H129715   2.380   5.474   4.969
 9945TIP3    H229716   2.330   5.487   5.109
 9946TIP3   OH229717   2.027   4.987   4.703
 9946TIP3    H129718   1.949   4.984   4.762
 9946TIP3    H229719   2.100   4.989   4.768
 9947TIP3   OH229720   1.469   5.039   4.713
 9947TIP3    H129721   1.374   5.043   4.686
 9947TIP3    H229722   1.496   4.948   4.690
 9948TIP3   OH229723   1.741   5.038   4.399
 9948TIP3    H129724   1.837   5.052   4.383
 9948TIP3    H229725   1.699   5.064   4.314
 9949TIP3   OH229726   2.525   5.059   4.904
 9949TIP3    H129727   2.490   5.071   4.995
 9949TIP3    H229728   2.461   4.995   4.868
 9950TIP3   OH229729   1.573   5.073   4.179
 9950TIP3    H129730   1.501   5.028   4.131
 9950TIP3    H229731   1.626   5.107   4.103
 9951TIP3   OH229732   2.692   6.754   5.122
 9951TIP3    H129733   2.696   6.771   5.027
 9951TIP3    H229734   2.774   6.797   5.154
 9952TIP3   OH229735   1.651   5.863   5.546
 9952TIP3    H129736   1.734   5.891   5.592
 9952TIP3    H229737   1.589   5.862   5.622
 9953TIP3   OH229738   2.114   5.303   4.795
 9953TIP3    H129739   2.194   5.272   4.748
 9953TIP3    H229740   2.132   5.278   4.887
 9954TIP3   OH229741   1.641   4.804   4.672
 9954TIP3    H129742   1.613   4.724   4.721
 9954TIP3    H229743   1.706   4.770   4.610
 9955TIP3   OH229744   2.097   5.207   5.088
 9955TIP3    H129745   2.009   5.243   5.104
 9955TIP3    H229746   2.156   5.263   5.142
 9956TIP3   OH229747   1.830   5.604   4.183
 9956TIP3    H129748   1.759   5.537   4.175
 9956TIP3    H229749   1.814   5.636   4.275
 9957TIP3   OH229750   2.289   4.920   4.033
 9957TIP3    H129751   2.194   4.902   4.051
 9957TIP3    H229752   2.303   5.011   4.067
 9958TIP3   OH229753   2.220   5.917   5.184
 9958TIP3    H129754   2.252   5.894   5.272
 9958TIP3    H229755   2.191   6.009   5.193
 9959TIP3   OH229756   2.362   5.158   4.144
 9959TIP3    H129757   2.457   5.164   4.167
 9959TIP3    H229758   2.346   5.241   4.096
 9960TIP3   OH229759   1.519   5.619   4.862
 9960TIP3    H129760   1.559   5.595   4.776
 9960TIP3    H229761   1.568   5.560   4.922
 9961TIP3   OH229762   1.975   5.750   4.000
 9961TIP3    H129763   1.930   5.837   4.011
 9961TIP3    H229764   1.923   5.695   4.063
 9962TIP3   OH229765   1.396   5.551   5.479
 9962TIP3    H129766   1.428   5.533   5.569
 9962TIP3    H229767   1.338   5.475   5.461
 9963TIP3   OH229768   2.126   5.654   5.497
 9963TIP3    H129769   2.072   5.599   5.438
 9963TIP3    H229770   2.216   5.624   5.471
 9964TIP3   OH229771   2.386   6.225   5.057
 9964TIP3    H129772   2.302   6.180   5.075
 9964TIP3    H229773   2.418   6.243   5.148
 9965TIP3   OH229774   2.804   5.246   3.986
 9965TIP3    H129775   2.740   5.202   3.925
 9965TIP3    H229776   2.801   5.335   3.946
 9966TIP3   OH229777   3.028   6.116   5.065
 9966TIP3    H129778   2.931   6.103   5.058
 9966TIP3    H229779   3.055   6.079   4.978
 9967TIP3   OH229780   2.499   6.071   3.893
 9967TIP3    H129781   2.478   6.003   3.959
 9967TIP3    H229782   2.513   6.018   3.812
 9968TIP3   OH229783   1.622   5.924   4.486
 9968TIP3    H129784   1.630   6.006   4.434
 9968TIP3    H229785   1.527   5.913   4.491
 9969TIP3   OH229786   1.184   5.232   4.185
 9969TIP3    H129787   1.234   5.313   4.207
 9969TIP3    H229788   1.109   5.237   4.248
 9970TIP3   OH229789   1.766   5.694   4.429
 9970TIP3    H129790   1.731   5.782   4.451
 9970TIP3    H229791   1.735   5.642   4.505
 9971TIP3   OH229792   1.891   6.273   4.958
 9971TIP3    H129793   1.934   6.342   4.904
 9971TIP3    H229794   1.968   6.235   5.004
 9972TIP3   OH229795   1.542   6.166   4.337
 9972TIP3    H129796   1.457   6.173   4.385
 9972TIP3    H229797   1.576   6.257   4.345
 9973TIP3   OH229798   2.297   5.905   4.917
 9973TIP3    H129799   2.282   5.897   5.013
 9973TIP3    H229800   2.378   5.852   4.907
 9974TIP3   OH229801   2.252   5.795   3.796
 9974TIP3    H129802   2.308   5.771   3.874
 9974TIP3    H229803   2.165   5.770   3.830
 9975TIP3   OH229804   2.530   6.450   4.976
 9975TIP3    H129805   2.462   6.378   4.978
 9975TIP3    H229806   2.507   6.498   4.894
 9976TIP3   OH229807   2.597   6.273   3.617
 9976TIP3    H129808   2.636   6.346   3.565
 9976TIP3    H229809   2.517   6.319   3.649
 9977TIP3   OH229810   1.619   5.054   5.486
 9977TIP3    H129811   1.523   5.047   5.498
 9977TIP3    H229812   1.652   4.989   5.551
 9978TIP3   OH229813   2.414   5.728   4.011
 9978TIP3    H129814   2.403   5.665   4.085
 9978TIP3    H229815   2.511   5.729   4.003
 9979TIP3   OH229816   1.330   6.136   5.118
 9979TIP3    H129817   1.383   6.058   5.140
 9979TIP3    H229818   1.365   6.200   5.181
 9980TIP3   OH229819   1.621   5.779   3.795
 9980TIP3    H129820   1.640   5.689   3.765
 9980TIP3    H229821   1.606   5.765   3.891
 9981TIP3   OH229822   1.568   5.783   4.070
 9981TIP3    H129823   1.640   5.753   4.127
 9981TIP3    H229824   1.577   5.880   4.076
 9982TIP3   OH229825   1.305   5.477   4.270
 9982TIP3    H129826   1.241   5.522   4.329
 9982TIP3    H229827   1.324   5.547   4.205
 9983TIP3   OH229828   2.450   5.114   5.167
 9983TIP3    H129829   2.534   5.142   5.205
 9983TIP3    H229830   2.430   5.033   5.220
 9984TIP3   OH229831   2.335   4.868   4.322
 9984TIP3    H129832   2.320   4.898   4.231
 9984TIP3    H229833   2.372   4.948   4.365
 9985TIP3   OH229834   1.830   5.978   4.015
 9985TIP3    H129835   1.748   6.012   4.054
 9985TIP3    H229836   1.855   6.051   3.957
 9986TIP3   OH229837   2.022   5.043   4.429
 9986TIP3    H129838   2.088   5.114   4.413
 9986TIP3    H229839   2.027   5.034   4.527
 9987TIP3   OH229840   2.282   5.356   5.253
 9987TIP3    H129841   2.309   5.411   5.328
 9987TIP3    H229842   2.344   5.281   5.257
 9988TIP3   OH229843   2.169   4.776   4.533
 9988TIP3    H129844   2.172   4.844   4.602
 9988TIP3    H229845   2.228   4.815   4.466
 9989TIP3   OH229846   1.573   6.058   4.082
 9989TIP3    H129847   1.543   6.128   4.021
 9989TIP3    H229848   1.559   6.099   4.169
 9990TIP3   OH229849   1.679   4.768   4.321
 9990TIP3    H129850   1.676   4.858   4.360
 9990TIP3    H229851   1.774   4.748   4.332
 9991TIP3   OH229852   2.936   5.266   5.217
 9991TIP3    H129853   2.838   5.268   5.224
 9991TIP3    H229854   2.944   5.219   5.133
 9992TIP3   OH229855   2.589   5.442   4.587
 9992TIP3    H129856   2.508   5.412   4.631
 9992TIP3    H229857   2.658   5.413   4.651
 9993TIP3   OH229858   1.294   5.693   4.076
 9993TIP3    H129859   1.360   5.764   4.088
 9993TIP3    H229860   1.341   5.638   4.011
 9994TIP3   OH229861   1.241   4.964   4.213
 9994TIP3    H129862   1.237   5.061   4.203
 9994TIP3    H229863   1.161   4.935   4.168
 9995TIP3   OH229864   2.546   6.420   4.560
 9995TIP3    H129865   2.502   6.461   4.483
 9995TIP3    H229866   2.640   6.437   4.537
 9996TIP3   OH229867   1.619   4.684   5.089
 9996TIP3    H129868   1.595   4.647   5.002
 9996TIP3    H229869   1.618   4.606   5.147
 9997TIP3   OH229870   1.171   5.907   4.473
 9997TIP3    H129871   1.087   5.937   4.510
 9997TIP3    H229872   1.161   5.937   4.381
 9998TIP3   OH229873   1.320   6.437   5.537
 9998TIP3    H129874   1.407   6.436   5.582
 9998TIP3    H229875   1.300   6.341   5.534
 9999TIP3   OH229876   1.809   6.411   5.580
 9999TIP3    H129877   1.902   6.387   5.587
 9999TIP3    H229878   1.782   6.354   5.505
10000TIP3   OH229879   1.787   5.984   3.711
10000TIP3    H129880   1.730   5.913   3.750
10000TIP3    H229881   1.862   5.930   3.681
10001TIP3   OH229882   2.439   6.316   5.320
10001TIP3    H129883   2.433   6.242   5.385
10001TIP3    H229884   2.522   6.360   5.345
10002TIP3   OH229885   2.224   6.027   3.619
10002TIP3    H129886   2.268   5.964   3.678
10002TIP3    H229887   2.282   6.026   3.540
10003TIP3   OH229888   1.453   5.846   5.739
10003TIP3    H129889   1.472   5.750   5.739
10003TIP3    H229890   1.365   5.848   5.694
10004TIP3   OH229891   1.429   5.502   3.928
10004TIP3    H129892   1.482   5.465   4.001
10004TIP3    H229893   1.498   5.506   3.858
10005TIP3   OH229894   2.060   5.929   5.511
10005TIP3    H129895   2.024   5.943   5.421
10005TIP3    H229896   2.093   5.836   5.505
10006TIP3   OH229897   1.931   5.697   3.733
10006TIP3    H129898   1.939   5.710   3.830
10006TIP3    H229899   1.933   5.599   3.729
10007TIP3   OH229900   1.570   5.578   5.716
10007TIP3    H129901   1.646   5.523   5.694
10007TIP3    H229902   1.596   5.611   5.805
10008TIP3   OH229903   1.639   5.401   4.153
10008TIP3    H129904   1.616   5.359   4.237
10008TIP3    H229905   1.674   5.326   4.102
10009TIP3   OH229906   1.902   5.465   5.377
10009TIP3    H129907   1.830   5.530   5.379
10009TIP3    H229908   1.957   5.497   5.301
10010TIP3   OH229909   1.737   5.193   3.994
10010TIP3    H129910   1.711   5.193   3.900
10010TIP3    H229911   1.834   5.202   3.987
10011TIP3   OH229912   2.430   5.872   5.516
10011TIP3    H129913   2.503   5.851   5.456
10011TIP3    H229914   2.427   5.794   5.573
10012TIP3   OH229915   2.563   5.529   3.651
10012TIP3    H129916   2.540   5.481   3.569
10012TIP3    H229917   2.531   5.619   3.626
10013TIP3   OH229918   2.028   5.254   5.515
10013TIP3    H129919   2.031   5.172   5.461
10013TIP3    H229920   1.989   5.317   5.451
10014TIP3   OH229921   2.023   5.057   5.324
10014TIP3    H129922   2.062   5.079   5.237
10014TIP3    H229923   1.937   5.019   5.298
10015TIP3   OH229924   2.068   5.578   5.189
10015TIP3    H129925   2.147   5.566   5.132
10015TIP3    H229926   2.019   5.646   5.139
10016TIP3   OH229927   2.651   5.549   5.577
10016TIP3    H129928   2.692   5.461   5.573
10016TIP3    H229929   2.717   5.603   5.532
10017TIP3   OH229930   2.676   5.813   5.308
10017TIP3    H129931   2.629   5.797   5.224
10017TIP3    H229932   2.765   5.825   5.268
10018TIP3   OH229933   1.900   5.376   5.736
10018TIP3    H129934   1.837   5.301   5.746
10018TIP3    H229935   1.942   5.352   5.650
10019TIP3   OH229936   2.169   4.813   5.334
10019TIP3    H129937   2.108   4.885   5.360
10019TIP3    H229938   2.128   4.735   5.376
10020TIP3   OH229939   2.290   5.316   5.596
10020TIP3    H129940   2.281   5.297   5.692
10020TIP3    H229941   2.201   5.286   5.566
10021TIP3   OH229942   2.539   5.268   5.458
10021TIP3    H129943   2.457   5.255   5.510
10021TIP3    H229944   2.605   5.221   5.512
10022TIP3   OH229945   2.764   5.175   5.624
10022TIP3    H129946   2.762   5.089   5.670
10022TIP3    H229947   2.761   5.235   5.701
10023TIP3   OH229948   1.747   5.152   5.790
10023TIP3    H129949   1.752   5.064   5.749
10023TIP3    H229950   1.787   5.133   5.878
10024TIP3   OH229951   2.320   5.023   5.780
10024TIP3    H129952   2.288   4.944   5.733
10024TIP3    H229953   2.243   5.082   5.778
10025TIP3   OH229954   1.544   6.265   3.897
10025TIP3    H129955   1.640   6.257   3.878
10025TIP3    H229956   1.515   6.304   3.813
10026TIP3   OH229957   1.026   5.639   4.115
10026TIP3    H129958   1.121   5.662   4.100
10026TIP3    H229959   1.021   5.551   4.074
10027TIP3   OH229960   0.938   6.253   4.523
10027TIP3    H129961   0.869   6.191   4.491
10027TIP3    H229962   0.982   6.199   4.592
10028TIP3   OH229963   1.072   6.113   4.714
10028TIP3    H129964   1.069   6.032   4.766
10028TIP3    H229965   1.127   6.170   4.771
10029TIP3   OH229966   2.796   6.535   4.508
10029TIP3    H129967   2.833   6.532   4.598
10029TIP3    H229968   2.876   6.539   4.453
10030TIP3   OH229969   2.838   6.526   4.790
10030TIP3    H129970   2.788   6.441   4.790
10030TIP3    H229971   2.910   6.499   4.850
10031TIP3   OH229972   2.880   6.205   5.366
10031TIP3    H129973   2.805   6.210   5.428
10031TIP3    H229974   2.920   6.294   5.373
10032TIP3   OH229975   2.695   5.717   3.988
10032TIP3    H129976   2.768   5.777   3.964
10032TIP3    H229977   2.733   5.675   4.068
10033TIP3   OH229978   2.821   5.585   4.189
10033TIP3    H129979   2.758   5.540   4.249
10033TIP3    H229980   2.887   5.621   4.252
10034TIP3   OH229981   2.894   5.984   4.631
10034TIP3    H129982   2.930   5.908   4.580
10034TIP3    H229983   2.851   6.037   4.562
10035TIP3   OH229984   2.707   6.283   4.813
10035TIP3    H129985   2.636   6.301   4.877
10035TIP3    H229986   2.661   6.224   4.749
10036TIP3   OH229987   2.762   5.490   3.838
10036TIP3    H129988   2.689   5.495   3.772
10036TIP3    H229989   2.736   5.565   3.896
10037TIP3   OH229990   2.633   5.162   3.792
10037TIP3    H129991   2.590   5.204   3.717
10037TIP3    H229992   2.605   5.069   3.782
10038TIP3   OH229993   2.640   5.434   4.328
10038TIP3    H129994   2.648   5.338   4.330
10038TIP3    H229995   2.626   5.452   4.425
10039TIP3   OH229996   1.263   5.520   5.083
10039TIP3    H129997   1.265   5.488   4.990
10039TIP3    H229998   1.360   5.519   5.103
10040TIP3   OH229999   2.932   5.866   5.204
10040TIP3    H130000   3.001   5.799   5.188
10040TIP3    H230001   2.940   5.924   5.127
10041TIP3   OH230002   3.114   5.671   5.224
10041TIP3    H130003   3.039   5.620   5.261
10041TIP3    H230004   3.185   5.603   5.231
10042TIP3   OH230005   2.577   4.896   3.778
10042TIP3    H130006   2.654   4.870   3.833
10042TIP3    H230007   2.505   4.840   3.812
10043TIP3   OH230008   2.630   5.151   4.234
10043TIP3    H130009   2.671   5.063   4.250
10043TIP3    H230010   2.693   5.186   4.168
10044TIP3   OH230011   2.798   5.330   4.732
10044TIP3    H130012   2.884   5.359   4.694
10044TIP3    H230013   2.806   5.368   4.822
10045TIP3   OH230014   2.852   5.485   4.966
10045TIP3    H130015   2.768   5.532   4.987
10045TIP3    H230016   2.896   5.557   4.917
10046TIP3   OH230017   1.481   5.203   5.764
10046TIP3    H130018   1.578   5.192   5.758
10046TIP3    H230019   1.457   5.117   5.803
10047TIP3   OH230020   3.347   5.075   5.517
10047TIP3    H130021   3.330   4.984   5.492
10047TIP3    H230022   3.295   5.123   5.449
10048TIP3   OH230023   2.744   4.902   4.269
10048TIP3    H130024   2.791   4.890   4.354
10048TIP3    H230025   2.682   4.826   4.272
10049TIP3   OH230026   1.440   4.893   5.095
10049TIP3    H130027   1.500   4.816   5.103
10049TIP3    H230028   1.505   4.965   5.086
10050TIP3   OH230029   1.244   5.170   5.162
10050TIP3    H130030   1.295   5.153   5.080
10050TIP3    H230031   1.287   5.250   5.194
10051TIP3   OH230032   3.187   5.200   5.332
10051TIP3    H130033   3.098   5.237   5.347
10051TIP3    H230034   3.163   5.125   5.274
10052TIP3   OH230035   2.825   4.844   3.899
10052TIP3    H130036   2.869   4.769   3.855
10052TIP3    H230037   2.894   4.913   3.896
10053TIP3   OH230038   1.227   4.671   4.667
10053TIP3    H130039   1.132   4.669   4.688
10053TIP3    H230040   1.229   4.728   4.586
10054TIP3   OH230041   2.387   6.365   4.163
10054TIP3    H130042   2.448   6.352   4.088
10054TIP3    H230043   2.431   6.435   4.214
10055TIP3   OH230044   1.447   4.761   5.486
10055TIP3    H130045   1.395   4.742   5.566
10055TIP3    H230046   1.378   4.785   5.422
10056TIP3   OH230047   1.487   6.177   5.559
10056TIP3    H130048   1.399   6.143   5.539
10056TIP3    H230049   1.496   6.155   5.652
10057TIP3   OH230050   1.663   6.205   5.104
10057TIP3    H130051   1.619   6.283   5.063
10057TIP3    H230052   1.751   6.216   5.063
10058TIP3   OH230053   2.114   6.456   5.245
10058TIP3    H130054   2.159   6.455   5.331
10058TIP3    H230055   2.181   6.501   5.189
10059TIP3   OH230056   2.292   6.604   5.096
10059TIP3    H130057   2.359   6.546   5.057
10059TIP3    H230058   2.346   6.657   5.158
10060TIP3   OH230059   3.088   4.981   5.188
10060TIP3    H130060   2.995   4.989   5.163
10060TIP3    H230061   3.096   4.887   5.213
10061TIP3   OH230062   1.343   6.466   5.124
10061TIP3    H130063   1.254   6.502   5.103
10061TIP3    H230064   1.350   6.490   5.217
10062TIP3   OH230065   1.581   6.444   4.985
10062TIP3    H130066   1.494   6.457   5.029
10062TIP3    H230067   1.561   6.475   4.894
10063TIP3   OH230068   2.002   6.474   4.782
10063TIP3    H130069   1.948   6.496   4.704
10063TIP3    H230070   2.016   6.563   4.821
10064TIP3   OH230071   2.271   6.420   4.830
10064TIP3    H130072   2.175   6.425   4.813
10064TIP3    H230073   2.304   6.497   4.782
10065TIP3   OH230074   2.494   6.616   4.748
10065TIP3    H130075   2.462   6.682   4.686
10065TIP3    H230076   2.515   6.541   4.687
10066TIP3   OH230077   1.254   6.257   4.874
10066TIP3    H130078   1.283   6.236   4.965
10066TIP3    H230079   1.327   6.214   4.823
10067TIP3   OH230080   1.446   6.128   4.727
10067TIP3    H130081   1.464   6.044   4.774
10067TIP3    H230082   1.536   6.167   4.722
10068TIP3   OH230083   1.709   6.224   4.731
10068TIP3    H130084   1.746   6.136   4.714
10068TIP3    H230085   1.755   6.246   4.814
10069TIP3   OH230086   2.283   4.877   4.805
10069TIP3    H130087   2.245   4.817   4.872
10069TIP3    H230088   2.363   4.828   4.778
10070TIP3   OH230089   2.819   4.752   4.721
10070TIP3    H130090   2.852   4.811   4.650
10070TIP3    H230091   2.725   4.776   4.725
10071TIP3   OH230092   2.911   4.865   4.485
10071TIP3    H130093   2.985   4.816   4.445
10071TIP3    H230094   2.942   4.958   4.474
10072TIP3   OH230095   1.541   4.590   4.836
10072TIP3    H130096   1.449   4.556   4.837
10072TIP3    H230097   1.592   4.506   4.833
10073TIP3   OH230098   1.320   4.458   4.479
10073TIP3    H130099   1.355   4.518   4.410
10073TIP3    H230100   1.295   4.521   4.549
10074TIP3   OH230101   1.978   4.627   4.718
10074TIP3    H130102   2.040   4.679   4.664
10074TIP3    H230103   2.002   4.656   4.807
10075TIP3   OH230104   2.535   4.768   4.703
10075TIP3    H130105   2.526   4.732   4.614
10075TIP3    H230106   2.516   4.688   4.758
10076TIP3   OH230107   2.558   4.688   4.259
10076TIP3    H130108   2.473   4.733   4.273
10076TIP3    H230109   2.545   4.606   4.311
10077TIP3   OH230110   1.042   6.026   4.267
10077TIP3    H130111   0.958   5.993   4.230
10077TIP3    H230112   1.029   6.121   4.253
10078TIP3   OH230113   1.440   4.619   4.249
10078TIP3    H130114   1.490   4.558   4.192
10078TIP3    H230115   1.512   4.674   4.286
10079TIP3   OH230116   1.957   4.792   4.347
10079TIP3    H130117   2.016   4.747   4.409
10079TIP3    H230118   1.977   4.885   4.372
10080TIP3   OH230119   1.812   6.226   3.840
10080TIP3    H130120   1.904   6.242   3.810
10080TIP3    H230121   1.792   6.147   3.786
10081TIP3   OH230122   2.537   6.336   3.934
10081TIP3    H130123   2.527   6.238   3.924
10081TIP3    H230124   2.489   6.367   3.854
10082TIP3   OH230125   1.729   4.883   5.712
10082TIP3    H130126   1.708   4.820   5.783
10082TIP3    H230127   1.826   4.873   5.721
10083TIP3   OH230128   1.121   6.064   3.905
10083TIP3    H130129   1.117   6.082   4.000
10083TIP3    H230130   1.208   6.018   3.896
10084TIP3   OH230131   2.760   6.485   5.131
10084TIP3    H130132   2.683   6.448   5.082
10084TIP3    H230133   2.737   6.579   5.129
10085TIP3   OH230134   4.027   5.853   3.894
10085TIP3    H130135   4.000   5.946   3.877
10085TIP3    H230136   3.947   5.806   3.865
10086TIP3   OH230137   4.025   5.851   4.269
10086TIP3    H130138   4.051   5.819   4.356
10086TIP3    H230139   3.980   5.774   4.231
10087TIP3   OH230140   3.328   5.751   4.633
10087TIP3    H130141   3.352   5.683   4.700
10087TIP3    H230142   3.400   5.814   4.645
10088TIP3   OH230143   4.265   6.155   3.953
10088TIP3    H130144   4.254   6.083   4.017
10088TIP3    H230145   4.294   6.229   4.009
10089TIP3   OH230146   3.288   6.157   4.357
10089TIP3    H130147   3.281   6.059   4.364
10089TIP3    H230148   3.380   6.169   4.389
10090TIP3   OH230149   3.004   5.365   4.150
10090TIP3    H130150   2.957   5.449   4.166
10090TIP3    H230151   2.931   5.308   4.123
10091TIP3   OH230152   3.062   5.648   4.313
10091TIP3    H130153   3.109   5.574   4.357
10091TIP3    H230154   3.128   5.676   4.248
10092TIP3   OH230155   3.912   6.617   3.969
10092TIP3    H130156   3.963   6.546   3.923
10092TIP3    H230157   3.910   6.584   4.059
10093TIP3   OH230158   3.826   6.081   4.314
10093TIP3    H130159   3.861   6.002   4.270
10093TIP3    H230160   3.910   6.122   4.341
10094TIP3   OH230161   4.840   5.402   4.312
10094TIP3    H130162   4.862   5.484   4.360
10094TIP3    H230163   4.860   5.428   4.220
10095TIP3   OH230164   4.238   5.585   4.356
10095TIP3    H130165   4.279   5.498   4.376
10095TIP3    H230166   4.206   5.569   4.265
10096TIP3   OH230167   3.572   5.240   4.319
10096TIP3    H130168   3.549   5.314   4.259
10096TIP3    H230169   3.521   5.167   4.277
10097TIP3   OH230170   4.265   5.328   3.944
10097TIP3    H130171   4.337   5.312   4.009
10097TIP3    H230172   4.316   5.367   3.871
10098TIP3   OH230173   3.206   5.445   4.424
10098TIP3    H130174   3.288   5.426   4.475
10098TIP3    H230175   3.220   5.386   4.347
10099TIP3   OH230176   3.651   5.642   4.209
10099TIP3    H130177   3.742   5.614   4.231
10099TIP3    H230178   3.609   5.557   4.184
10100TIP3   OH230179   4.911   5.609   4.486
10100TIP3    H130180   4.825   5.653   4.468
10100TIP3    H230181   4.915   5.623   4.582
10101TIP3   OH230182   3.568   5.221   4.749
10101TIP3    H130183   3.505   5.261   4.687
10101TIP3    H230184   3.525   5.240   4.834
10102TIP3   OH230185   3.924   6.077   3.762
10102TIP3    H130186   3.874   6.047   3.685
10102TIP3    H230187   3.879   6.161   3.783
10103TIP3   OH230188   3.677   5.994   4.557
10103TIP3    H130189   3.608   6.050   4.598
10103TIP3    H230190   3.717   6.057   4.495
10104TIP3   OH230191   4.481   5.329   4.110
10104TIP3    H130192   4.469   5.281   4.193
10104TIP3    H230193   4.534   5.406   4.139
10105TIP3   OH230194   3.436   5.340   4.538
10105TIP3    H130195   3.497   5.413   4.565
10105TIP3    H230196   3.490   5.298   4.466
10106TIP3   OH230197   3.479   6.176   4.617
10106TIP3    H130198   3.476   6.273   4.606
10106TIP3    H230199   3.427   6.167   4.699
10107TIP3   OH230200   2.903   5.880   3.883
10107TIP3    H130201   2.858   5.908   3.802
10107TIP3    H230202   2.932   5.964   3.923
10108TIP3   OH230203   4.340   6.396   4.124
10108TIP3    H130204   4.251   6.387   4.164
10108TIP3    H230205   4.331   6.482   4.079
10109TIP3   OH230206   4.635   5.330   4.496
10109TIP3    H130207   4.544   5.320   4.465
10109TIP3    H230208   4.687   5.331   4.414
10110TIP3   OH230209   3.927   4.952   4.460
10110TIP3    H130210   3.921   4.857   4.478
10110TIP3    H230211   3.848   4.986   4.509
10111TIP3   OH230212   4.047   6.446   3.801
10111TIP3    H130213   4.095   6.363   3.778
10111TIP3    H230214   4.106   6.511   3.757
10112TIP3   OH230215   4.186   6.231   3.700
10112TIP3    H130216   4.142   6.153   3.663
10112TIP3    H230217   4.219   6.195   3.785
10113TIP3   OH230218   4.568   6.313   4.467
10113TIP3    H130219   4.553   6.234   4.411
10113TIP3    H230220   4.549   6.386   4.405
10114TIP3   OH230221   3.855   5.704   3.721
10114TIP3    H130222   3.775   5.755   3.699
10114TIP3    H230223   3.903   5.703   3.636
10115TIP3   OH230224   3.815   5.488   3.442
10115TIP3    H130225   3.883   5.537   3.492
10115TIP3    H230226   3.872   5.423   3.395
10116TIP3   OH230227   4.761   5.947   4.310
10116TIP3    H130228   4.678   6.000   4.316
10116TIP3    H230229   4.789   5.970   4.219
10117TIP3   OH230230   4.204   5.786   3.696
10117TIP3    H130231   4.149   5.812   3.774
10117TIP3    H230232   4.287   5.760   3.741
10118TIP3   OH230233   4.438   5.848   4.607
10118TIP3    H130234   4.443   5.945   4.604
10118TIP3    H230235   4.348   5.834   4.572
10119TIP3   OH230236   3.438   5.787   4.108
10119TIP3    H130237   3.396   5.728   4.043
10119TIP3    H230238   3.515   5.734   4.138
10120TIP3   OH230239   3.575   6.212   4.249
10120TIP3    H130240   3.543   6.145   4.186
10120TIP3    H230241   3.660   6.172   4.278
10121TIP3   OH230242   3.576   5.755   4.461
10121TIP3    H130243   3.611   5.744   4.371
10121TIP3    H230244   3.615   5.841   4.490
10122TIP3   OH230245   4.098   6.394   4.243
10122TIP3    H130246   4.085   6.473   4.298
10122TIP3    H230247   4.084   6.320   4.306
10123TIP3   OH230248   4.047   5.644   3.521
10123TIP3    H130249   4.104   5.704   3.575
10123TIP3    H230250   4.074   5.671   3.429
10124TIP3   OH230251   3.450   5.881   4.879
10124TIP3    H130252   3.458   5.964   4.929
10124TIP3    H230253   3.357   5.858   4.898
10125TIP3   OH230254   3.786   6.327   3.792
10125TIP3    H130255   3.860   6.381   3.823
10125TIP3    H230256   3.723   6.393   3.761
10126TIP3   OH230257   3.485   6.521   4.877
10126TIP3    H130258   3.489   6.467   4.796
10126TIP3    H230259   3.420   6.472   4.931
10127TIP3   OH230260   4.560   4.888   3.567
10127TIP3    H130261   4.480   4.905   3.620
10127TIP3    H230262   4.571   4.973   3.521
10128TIP3   OH230263   3.304   5.627   3.913
10128TIP3    H130264   3.237   5.671   3.857
10128TIP3    H230265   3.259   5.544   3.936
10129TIP3   OH230266   4.357   6.256   3.115
10129TIP3    H130267   4.366   6.353   3.103
10129TIP3    H230268   4.450   6.226   3.104
10130TIP3   OH230269   3.090   6.016   4.822
10130TIP3    H130270   3.017   5.995   4.758
10130TIP3    H230271   3.119   5.927   4.851
10131TIP3   OH230272   2.940   6.223   4.439
10131TIP3    H130273   3.029   6.186   4.445
10131TIP3    H230274   2.936   6.275   4.521
10132TIP3   OH230275   4.803   6.654   4.510
10132TIP3    H130276   4.802   6.557   4.523
10132TIP3    H230277   4.720   6.678   4.556
10133TIP3   OH230278   3.901   6.444   4.643
10133TIP3    H130279   3.906   6.536   4.677
10133TIP3    H230280   3.848   6.400   4.712
10134TIP3   OH230281   3.662   6.573   3.598
10134TIP3    H130282   3.621   6.552   3.512
10134TIP3    H230283   3.634   6.665   3.614
10135TIP3   OH230284   3.105   6.425   3.982
10135TIP3    H130285   3.155   6.413   4.066
10135TIP3    H230286   3.048   6.345   3.986
10136TIP3   OH230287   3.869   6.471   3.240
10136TIP3    H130288   3.930   6.403   3.203
10136TIP3    H230289   3.904   6.480   3.332
10137TIP3   OH230290   3.917   6.520   3.512
10137TIP3    H130291   3.830   6.527   3.557
10137TIP3    H230292   3.970   6.477   3.581
10138TIP3   OH230293   4.693   5.791   4.780
10138TIP3    H130294   4.617   5.800   4.721
10138TIP3    H230295   4.707   5.695   4.781
10139TIP3   OH230296   3.287   6.205   4.819
10139TIP3    H130297   3.341   6.177   4.896
10139TIP3    H230298   3.218   6.135   4.818
10140TIP3   OH230299   3.696   5.022   4.594
10140TIP3    H130300   3.607   4.985   4.577
10140TIP3    H230301   3.669   5.100   4.645
10141TIP3   OH230302   4.224   5.136   4.793
10141TIP3    H130303   4.274   5.094   4.864
10141TIP3    H230304   4.131   5.122   4.822
10142TIP3   OH230305   4.466   5.563   4.713
10142TIP3    H130306   4.418   5.557   4.798
10142TIP3    H230307   4.432   5.646   4.675
10143TIP3   OH230308   4.120   5.696   3.265
10143TIP3    H130309   4.088   5.667   3.177
10143TIP3    H230310   4.199   5.748   3.240
10144TIP3   OH230311   3.835   5.071   3.566
10144TIP3    H130312   3.804   5.069   3.659
10144TIP3    H230313   3.797   4.986   3.535
10145TIP3   OH230314   3.618   5.531   4.611
10145TIP3    H130315   3.592   5.563   4.699
10145TIP3    H230316   3.601   5.613   4.558
10146TIP3   OH230317   3.503   5.420   4.127
10146TIP3    H130318   3.410   5.394   4.146
10146TIP3    H230319   3.516   5.378   4.040
10147TIP3   OH230320   3.995   5.506   3.854
10147TIP3    H130321   3.939   5.578   3.816
10147TIP3    H230322   4.048   5.480   3.777
10148TIP3   OH230323   4.155   5.537   4.096
10148TIP3    H130324   4.095   5.568   4.025
10148TIP3    H230325   4.184   5.453   4.055
10149TIP3   OH230326   3.423   5.565   4.825
10149TIP3    H130327   3.487   5.623   4.871
10149TIP3    H230328   3.425   5.484   4.880
10150TIP3   OH230329   3.488   5.038   3.532
10150TIP3    H130330   3.485   5.037   3.630
10150TIP3    H230331   3.408   5.091   3.512
10151TIP3   OH230332   3.033   5.089   4.398
10151TIP3    H130333   3.106   5.119   4.456
10151TIP3    H230334   3.080   5.051   4.322
10152TIP3   OH230335   3.011   5.067   3.921
10152TIP3    H130336   3.058   5.108   3.846
10152TIP3    H230337   2.950   5.140   3.945
10153TIP3   OH230338   4.171   5.786   4.520
10153TIP3    H130339   4.200   5.712   4.462
10153TIP3    H230340   4.142   5.736   4.600
10154TIP3   OH230341   3.827   5.245   4.191
10154TIP3    H130342   3.743   5.242   4.242
10154TIP3    H230343   3.893   5.244   4.262
10155TIP3   OH230344   3.266   5.297   4.197
10155TIP3    H130345   3.171   5.305   4.173
10155TIP3    H230346   3.288   5.205   4.177
10156TIP3   OH230347   3.538   5.294   3.885
10156TIP3    H130348   3.633   5.311   3.867
10156TIP3    H230349   3.493   5.320   3.802
10157TIP3   OH230350   4.319   5.319   4.390
10157TIP3    H130351   4.285   5.330   4.481
10157TIP3    H230352   4.256   5.254   4.354
10158TIP3   OH230353   3.371   5.327   3.666
10158TIP3    H130354   3.297   5.286   3.619
10158TIP3    H230355   3.423   5.362   3.590
10159TIP3   OH230356   4.489   7.007   4.609
10159TIP3    H130357   4.488   7.029   4.514
10159TIP3    H230358   4.566   7.058   4.640
10160TIP3   OH230359   3.439   6.116   5.027
10160TIP3    H130360   3.528   6.146   5.053
10160TIP3    H230361   3.393   6.118   5.113
10161TIP3   OH230362   3.915   5.571   4.289
10161TIP3    H130363   3.986   5.525   4.242
10161TIP3    H230364   3.920   5.532   4.378
10162TIP3   OH230365   3.438   5.060   4.161
10162TIP3    H130366   3.407   4.980   4.208
10162TIP3    H230367   3.498   5.024   4.094
10163TIP3   OH230368   3.888   5.478   4.561
10163TIP3    H130369   3.796   5.505   4.581
10163TIP3    H230370   3.939   5.525   4.628
10164TIP3   OH230371   3.628   5.859   3.672
10164TIP3    H130372   3.556   5.793   3.662
10164TIP3    H230373   3.611   5.893   3.763
10165TIP3   OH230374   4.530   6.094   4.304
10165TIP3    H130375   4.553   6.143   4.222
10165TIP3    H230376   4.444   6.054   4.281
10166TIP3   OH230377   4.086   5.175   3.524
10166TIP3    H130378   3.990   5.158   3.537
10166TIP3    H230379   4.098   5.267   3.555
10167TIP3   OH230380   4.035   6.179   4.683
10167TIP3    H130381   3.980   6.139   4.753
10167TIP3    H230382   3.988   6.263   4.674
10168TIP3   OH230383   4.158   5.416   3.633
10168TIP3    H130384   4.254   5.422   3.653
10168TIP3    H230385   4.140   5.497   3.582
10169TIP3   OH230386   3.315   5.876   4.350
10169TIP3    H130387   3.359   5.846   4.268
10169TIP3    H230388   3.354   5.818   4.417
10170TIP3   OH230389   3.772   6.007   3.489
10170TIP3    H130390   3.726   6.094   3.499
10170TIP3    H230391   3.719   5.952   3.551
10171TIP3   OH230392   3.192   5.805   4.965
10171TIP3    H130393   3.220   5.789   5.057
10171TIP3    H230394   3.130   5.733   4.949
10172TIP3   OH230395   4.189   6.445   4.559
10172TIP3    H130396   4.095   6.431   4.575
10172TIP3    H230397   4.216   6.489   4.642
10173TIP3   OH230398   4.601   5.503   3.473
10173TIP3    H130399   4.537   5.459   3.412
10173TIP3    H230400   4.597   5.593   3.432
10174TIP3   OH230401   4.817   6.366   4.555
10174TIP3    H130402   4.719   6.359   4.549
10174TIP3    H230403   4.841   6.332   4.465
10175TIP3   OH230404   4.295   6.326   3.380
10175TIP3    H130405   4.274   6.256   3.443
10175TIP3    H230406   4.309   6.278   3.296
10176TIP3   OH230407   4.294   5.955   4.224
10176TIP3    H130408   4.201   5.928   4.238
10176TIP3    H230409   4.329   5.876   4.179
10177TIP3   OH230410   3.417   6.178   3.965
10177TIP3    H130411   3.420   6.263   3.918
10177TIP3    H230412   3.323   6.168   3.984
10178TIP3   OH230413   2.981   5.488   3.672
10178TIP3    H130414   3.030   5.570   3.694
10178TIP3    H230415   2.906   5.493   3.735
10179TIP3   OH230416   3.566   5.951   3.917
10179TIP3    H130417   3.527   6.039   3.936
10179TIP3    H230418   3.530   5.898   3.992
10180TIP3   OH230419   3.688   6.530   4.443
10180TIP3    H130420   3.734   6.600   4.392
10180TIP3    H230421   3.761   6.492   4.495
10181TIP3   OH230422   3.338   6.423   3.824
10181TIP3    H130423   3.253   6.428   3.872
10181TIP3    H230424   3.369   6.515   3.830
10182TIP3   OH230425   4.082   6.162   4.406
10182TIP3    H130426   4.080   6.160   4.504
10182TIP3    H230427   4.161   6.109   4.387
10183TIP3   OH230428   4.049   6.051   3.283
10183TIP3    H130429   4.103   6.027   3.362
10183TIP3    H230430   3.960   6.027   3.315
10184TIP3   OH230431   4.328   6.698   4.454
10184TIP3    H130432   4.252   6.638   4.448
10184TIP3    H230433   4.310   6.761   4.380
10185TIP3   OH230434   4.393   6.530   3.104
10185TIP3    H130435   4.432   6.602   3.051
10185TIP3    H230436   4.313   6.577   3.136
10186TIP3   OH230437   3.410   5.314   4.964
10186TIP3    H130438   3.314   5.320   4.981
10186TIP3    H230439   3.438   5.246   5.026
10187TIP3   OH230440   4.210   5.987   3.500
10187TIP3    H130441   4.200   5.922   3.572
10187TIP3    H230442   4.307   5.986   3.489
10188TIP3   OH230443   3.128   6.395   4.608
10188TIP3    H130444   3.177   6.313   4.624
10188TIP3    H230445   3.168   6.450   4.677
10189TIP3   OH230446   3.418   6.036   3.282
10189TIP3    H130447   3.435   5.944   3.251
10189TIP3    H230448   3.402   6.021   3.377
10190TIP3   OH230449   3.365   6.039   3.556
10190TIP3    H130450   3.433   6.010   3.618
10190TIP3    H230451   3.372   6.137   3.562
10191TIP3   OH230452   3.102   5.734   3.757
10191TIP3    H130453   3.037   5.778   3.816
10191TIP3    H230454   3.119   5.805   3.693
10192TIP3   OH230455   4.242   5.372   4.653
10192TIP3    H130456   4.328   5.404   4.685
10192TIP3    H230457   4.231   5.289   4.703
10193TIP3   OH230458   4.129   5.124   3.810
10193TIP3    H130459   4.115   5.152   3.718
10193TIP3    H230460   4.166   5.206   3.850
10194TIP3   OH230461   3.629   6.237   3.504
10194TIP3    H130462   3.544   6.267   3.540
10194TIP3    H230463   3.647   6.306   3.439
10195TIP3   OH230464   3.821   5.299   3.916
10195TIP3    H130465   3.886   5.371   3.900
10195TIP3    H230466   3.824   5.292   4.014
10196TIP3   OH230467   4.112   5.639   4.744
10196TIP3    H130468   4.046   5.644   4.814
10196TIP3    H230469   4.140   5.546   4.745
10197TIP3   OH230470   3.965   5.033   4.021
10197TIP3    H130471   3.962   5.107   4.085
10197TIP3    H230472   4.024   5.071   3.952
10198TIP3   OH230473   3.371   6.313   3.568
10198TIP3    H130474   3.340   6.384   3.507
10198TIP3    H230475   3.355   6.355   3.656
10199TIP3   OH230476   3.475   5.025   3.808
10199TIP3    H130477   3.472   5.114   3.846
10199TIP3    H230478   3.570   5.006   3.819
10200TIP3   OH230479   4.735   5.514   4.696
10200TIP3    H130480   4.639   5.520   4.715
10200TIP3    H230481   4.728   5.463   4.613
10201TIP3   OH230482   4.380   5.716   4.092
10201TIP3    H130483   4.304   5.657   4.107
10201TIP3    H230484   4.452   5.669   4.140
10202TIP3   OH230485   3.089   5.949   3.563
10202TIP3    H130486   3.154   6.021   3.575
10202TIP3    H230487   3.138   5.895   3.497
10203TIP3   OH230488   3.039   5.220   3.693
10203TIP3    H130489   3.036   5.317   3.689
10203TIP3    H230490   2.950   5.196   3.666
10204TIP3   OH230491   4.347   6.668   4.045
10204TIP3    H130492   4.305   6.715   3.970
10204TIP3    H230493   4.441   6.687   4.024
10205TIP3   OH230494   3.427   4.940   4.571
10205TIP3    H130495   3.393   4.909   4.485
10205TIP3    H230496   3.413   4.862   4.629
10206TIP3   OH230497   2.969   6.166   3.957
10206TIP3    H130498   2.888   6.191   4.003
10206TIP3    H230499   2.949   6.197   3.867
10207TIP3   OH230500   3.114   6.693   5.024
10207TIP3    H130501   3.203   6.688   5.065
10207TIP3    H230502   3.094   6.597   5.019
10208TIP3   OH230503   3.607   6.672   5.067
10208TIP3    H130504   3.697   6.638   5.070
10208TIP3    H230505   3.570   6.620   4.992
10209TIP3   OH230506   3.583   6.240   3.199
10209TIP3    H130507   3.526   6.169   3.236
10209TIP3    H230508   3.658   6.187   3.166
10210TIP3   OH230509   4.238   6.570   4.803
10210TIP3    H130510   4.234   6.497   4.869
10210TIP3    H230511   4.318   6.619   4.832
10211TIP3   OH230512   4.019   6.283   3.106
10211TIP3    H130513   4.067   6.221   3.164
10211TIP3    H230514   4.076   6.285   3.026
10212TIP3   OH230515   3.248   6.104   5.232
10212TIP3    H130516   3.268   6.009   5.226
10212TIP3    H230517   3.163   6.107   5.183
10213TIP3   OH230518   3.225   5.759   3.414
10213TIP3    H130519   3.278   5.722   3.487
10213TIP3    H230520   3.294   5.763   3.344
10214TIP3   OH230521   3.729   5.953   3.221
10214TIP3    H130522   3.735   5.967   3.318
10214TIP3    H230523   3.729   5.855   3.217
10215TIP3   OH230524   4.353   6.170   4.596
10215TIP3    H130525   4.428   6.227   4.570
10215TIP3    H230526   4.282   6.235   4.603
10216TIP3   OH230527   3.365   5.839   5.202
10216TIP3    H130528   3.433   5.775   5.181
10216TIP3    H230529   3.391   5.868   5.292
10217TIP3   OH230530   3.437   5.658   3.640
10217TIP3    H130531   3.409   5.618   3.725
10217TIP3    H230532   3.470   5.581   3.591
10218TIP3   OH230533   3.677   5.711   4.836
10218TIP3    H130534   3.630   5.789   4.872
10218TIP3    H230535   3.752   5.754   4.790
10219TIP3   OH230536   3.533   5.449   3.481
10219TIP3    H130537   3.507   5.450   3.386
10219TIP3    H230538   3.630   5.458   3.474
10220TIP3   OH230539   4.360   5.785   3.138
10220TIP3    H130540   4.336   5.737   3.056
10220TIP3    H230541   4.328   5.875   3.113
10221TIP3   OH230542   3.822   5.315   4.781
10221TIP3    H130543   3.834   5.351   4.691
10221TIP3    H230544   3.727   5.290   4.780
10222TIP3   OH230545   3.872   5.833   4.665
10222TIP3    H130546   3.935   5.846   4.594
10222TIP3    H230547   3.804   5.900   4.643
10223TIP3   OH230548   3.959   5.101   4.843
10223TIP3    H130549   3.922   5.192   4.838
10223TIP3    H230550   3.882   5.052   4.814
10224TIP3   OH230551   4.336   5.526   4.949
10224TIP3    H130552   4.254   5.515   5.000
10224TIP3    H230553   4.402   5.493   5.012
10225TIP3   OH230554   3.530   5.390   5.281
10225TIP3    H130555   3.597   5.356   5.221
10225TIP3    H230556   3.575   5.386   5.367
10226TIP3   OH230557   4.092   5.278   5.281
10226TIP3    H130558   4.099   5.230   5.197
10226TIP3    H230559   4.041   5.357   5.257
10227TIP3   OH230560   3.340   6.521   3.385
10227TIP3    H130561   3.436   6.514   3.365
10227TIP3    H230562   3.310   6.561   3.301
10228TIP3   OH230563   2.821   5.898   3.599
10228TIP3    H130564   2.916   5.920   3.587
10228TIP3    H230565   2.818   5.808   3.559
10229TIP3   OH230566   2.735   6.512   4.012
10229TIP3    H130567   2.668   6.447   3.978
10229TIP3    H230568   2.779   6.456   4.081
10230TIP3   OH230569   2.869   6.369   4.201
10230TIP3    H130570   2.865   6.288   4.255
10230TIP3    H230571   2.923   6.424   4.260
10231TIP3   OH230572   4.596   6.764   3.997
10231TIP3    H130573   4.625   6.796   4.085
10231TIP3    H230574   4.658   6.810   3.938
10232TIP3   OH230575   4.630   6.782   4.279
10232TIP3    H130576   4.587   6.694   4.275
10232TIP3    H230577   4.704   6.761   4.337
10233TIP3   OH230578   4.676   6.459   4.853
10233TIP3    H130579   4.601   6.466   4.916
10233TIP3    H230580   4.715   6.548   4.859
10234TIP3   OH230581   4.491   5.973   3.475
10234TIP3    H130582   4.562   6.035   3.449
10234TIP3    H230583   4.531   5.932   3.555
10235TIP3   OH230584   4.618   5.840   3.677
10235TIP3    H130585   4.553   5.797   3.737
10235TIP3    H230586   4.682   5.879   3.740
10236TIP3   OH230587   4.670   6.229   4.111
10236TIP3    H130588   4.724   6.167   4.058
10236TIP3    H230589   4.659   6.304   4.050
10237TIP3   OH230590   4.506   6.532   4.306
10237TIP3    H130591   4.435   6.571   4.360
10237TIP3    H230592   4.456   6.481   4.239
10238TIP3   OH230593   4.558   5.746   3.326
10238TIP3    H130594   4.486   5.750   3.258
10238TIP3    H230595   4.531   5.822   3.382
10239TIP3   OH230596   4.430   5.419   3.280
10239TIP3    H130597   4.387   5.461   3.205
10239TIP3    H230598   4.401   5.326   3.269
10240TIP3   OH230599   4.434   5.693   3.826
10240TIP3    H130600   4.442   5.597   3.823
10240TIP3    H230601   4.421   5.710   3.922
10241TIP3   OH230602   3.062   5.768   4.567
10241TIP3    H130603   3.064   5.742   4.473
10241TIP3    H230604   3.158   5.770   4.588
10242TIP3   OH230605   4.717   6.119   4.690
10242TIP3    H130606   4.787   6.052   4.678
10242TIP3    H230607   4.737   6.185   4.623
10243TIP3   OH230608   4.910   5.930   4.703
10243TIP3    H130609   4.834   5.881   4.742
10243TIP3    H230610   4.981   5.863   4.716
10244TIP3   OH230611   4.373   5.153   3.267
10244TIP3    H130612   4.449   5.125   3.322
10244TIP3    H230613   4.301   5.096   3.297
10245TIP3   OH230614   4.428   5.409   3.722
10245TIP3    H130615   4.468   5.320   3.738
10245TIP3    H230616   4.489   5.443   3.654
10246TIP3   OH230617   4.593   5.589   4.214
10246TIP3    H130618   4.680   5.616   4.176
10246TIP3    H230619   4.605   5.620   4.306
10247TIP3   OH230620   4.656   5.730   4.450
10247TIP3    H130621   4.579   5.765   4.497
10247TIP3    H230622   4.691   5.810   4.405
10248TIP3   OH230623   3.271   5.454   5.247
10248TIP3    H130624   3.369   5.442   5.247
10248TIP3    H230625   3.246   5.370   5.290
10249TIP3   OH230626   5.156   5.326   4.998
10249TIP3    H130627   5.124   5.235   4.989
10249TIP3    H230628   5.092   5.376   4.942
10250TIP3   OH230629   4.539   5.159   3.757
10250TIP3    H130630   4.587   5.146   3.841
10250TIP3    H230631   4.478   5.083   3.758
10251TIP3   OH230632   3.239   5.145   4.571
10251TIP3    H130633   3.303   5.074   4.589
10251TIP3    H230634   3.298   5.223   4.572
10252TIP3   OH230635   3.044   5.422   4.651
10252TIP3    H130636   3.093   5.418   4.567
10252TIP3    H230637   3.073   5.508   4.685
10253TIP3   OH230638   4.988   5.466   4.828
10253TIP3    H130639   4.901   5.497   4.860
10253TIP3    H230640   4.961   5.411   4.754
10254TIP3   OH230641   4.622   5.100   3.388
10254TIP3    H130642   4.663   5.025   3.340
10254TIP3    H230643   4.690   5.169   3.381
10255TIP3   OH230644   3.024   4.920   4.147
10255TIP3    H130645   2.932   4.924   4.179
10255TIP3    H230646   3.022   4.983   4.072
10256TIP3   OH230647   4.181   6.629   3.656
10256TIP3    H130648   4.233   6.610   3.574
10256TIP3    H230649   4.238   6.693   3.701
10257TIP3   OH230650   3.238   4.996   4.957
10257TIP3    H130651   3.197   5.000   5.045
10257TIP3    H230652   3.172   5.045   4.904
10258TIP3   OH230653   3.279   6.440   5.054
10258TIP3    H130654   3.199   6.395   5.024
10258TIP3    H230655   3.291   6.402   5.142
10259TIP3   OH230656   3.462   6.454   4.585
10259TIP3    H130657   3.417   6.535   4.557
10259TIP3    H230658   3.549   6.469   4.544
10260TIP3   OH230659   3.911   6.711   4.730
10260TIP3    H130660   3.953   6.712   4.819
10260TIP3    H230661   3.978   6.760   4.678
10261TIP3   OH230662   4.089   6.859   4.584
10261TIP3    H130663   4.160   6.806   4.545
10261TIP3    H230664   4.140   6.916   4.645
10262TIP3   OH230665   3.142   6.730   4.606
10262TIP3    H130666   3.052   6.768   4.594
10262TIP3    H230667   3.151   6.734   4.702
10263TIP3   OH230668   3.380   6.705   4.470
10263TIP3    H130669   3.294   6.715   4.517
10263TIP3    H230670   3.356   6.731   4.379
10264TIP3   OH230671   3.805   6.733   4.265
10264TIP3    H130672   3.733   6.754   4.203
10264TIP3    H230673   3.816   6.819   4.312
10265TIP3   OH230674   4.070   6.671   4.317
10265TIP3    H130675   3.976   6.686   4.298
10265TIP3    H230676   4.112   6.749   4.279
10266TIP3   OH230677   4.281   6.863   4.238
10266TIP3    H130678   4.267   6.947   4.189
10266TIP3    H230679   4.305   6.801   4.166
10267TIP3   OH230680   3.052   6.517   4.365
10267TIP3    H130681   3.081   6.488   4.454
10267TIP3    H230682   3.120   6.470   4.312
10268TIP3   OH230683   3.242   6.387   4.214
10268TIP3    H130684   3.256   6.301   4.260
10268TIP3    H230685   3.334   6.421   4.211
10269TIP3   OH230686   3.511   6.483   4.214
10269TIP3    H130687   3.540   6.390   4.204
10269TIP3    H230688   3.550   6.502   4.301
10270TIP3   OH230689   4.085   5.138   4.300
10270TIP3    H130690   4.040   5.073   4.357
10270TIP3    H230691   4.157   5.086   4.262
10271TIP3   OH230692   4.616   5.013   4.210
10271TIP3    H130693   4.648   5.068   4.136
10271TIP3    H230694   4.521   5.032   4.210
10272TIP3   OH230695   4.707   5.122   3.973
10272TIP3    H130696   4.780   5.071   3.932
10272TIP3    H230697   4.739   5.214   3.960
10273TIP3   OH230698   3.336   4.847   4.321
10273TIP3    H130699   3.244   4.813   4.324
10273TIP3    H230700   3.386   4.763   4.319
10274TIP3   OH230701   3.114   4.715   3.965
10274TIP3    H130702   3.149   4.776   3.898
10274TIP3    H230703   3.089   4.777   4.037
10275TIP3   OH230704   3.776   4.880   4.202
10275TIP3    H130705   3.837   4.933   4.148
10275TIP3    H230706   3.792   4.918   4.290
10276TIP3   OH230707   4.332   5.025   4.188
10276TIP3    H130708   4.323   4.990   4.099
10276TIP3    H230709   4.313   4.944   4.242
10277TIP3   OH230710   4.355   4.945   3.747
10277TIP3    H130711   4.268   4.988   3.758
10277TIP3    H230712   4.341   4.862   3.797
10278TIP3   OH230713   2.840   6.282   3.750
10278TIP3    H130714   2.755   6.247   3.716
10278TIP3    H230715   2.824   6.377   3.741
10279TIP3   OH230716   3.236   4.878   3.733
10279TIP3    H130717   3.288   4.816   3.678
10279TIP3    H230718   3.307   4.933   3.772
10280TIP3   OH230719   3.753   5.049   3.833
10280TIP3    H130720   3.812   5.003   3.895
10280TIP3    H230721   3.773   5.142   3.858
10281TIP3   OH230722   3.609   6.481   3.330
10281TIP3    H130723   3.699   6.500   3.297
10281TIP3    H230724   3.588   6.404   3.273
10282TIP3   OH230725   4.327   6.592   3.424
10282TIP3    H130726   4.319   6.495   3.411
10282TIP3    H230727   4.285   6.625   3.343
10283TIP3   OH230728   3.791   5.152   5.341
10283TIP3    H130729   3.881   5.124   5.321
10283TIP3    H230730   3.765   5.085   5.408
10284TIP3   OH230731   2.917   6.320   3.392
10284TIP3    H130732   2.913   6.337   3.487
10284TIP3    H230733   3.004   6.275   3.382
10285TIP3   OH230734   4.559   6.740   4.614
10285TIP3    H130735   4.479   6.705   4.567
10285TIP3    H230736   4.537   6.835   4.614
10286TIP3   OH230737   5.822   6.109   3.381
10286TIP3    H130738   5.796   6.202   3.363
10286TIP3    H230739   5.743   6.062   3.351
10287TIP3   OH230740   5.820   6.108   3.757
10287TIP3    H130741   5.848   6.076   3.844
10287TIP3    H230742   5.777   6.029   3.720
10288TIP3   OH230743   5.122   6.008   4.125
10288TIP3    H130744   5.153   5.941   4.188
10288TIP3    H230745   5.200   6.065   4.118
10289TIP3   OH230746   6.061   6.410   3.440
10289TIP3    H130747   6.051   6.340   3.505
10289TIP3    H230748   6.090   6.485   3.494
10290TIP3   OH230749   5.090   6.414   3.853
10290TIP3    H130750   5.081   6.316   3.857
10290TIP3    H230751   5.186   6.422   3.848
10291TIP3   OH230752   4.799   5.621   3.638
10291TIP3    H130753   4.750   5.705   3.651
10291TIP3    H230754   4.728   5.564   3.607
10292TIP3   OH230755   4.859   5.906   3.803
10292TIP3    H130756   4.907   5.830   3.844
10292TIP3    H230757   4.919   5.930   3.731
10293TIP3   OH230758   5.709   6.873   3.455
10293TIP3    H130759   5.759   6.803   3.409
10293TIP3    H230760   5.706   6.840   3.546
10294TIP3   OH230761   5.620   6.335   3.807
10294TIP3    H130762   5.656   6.258   3.759
10294TIP3    H230763   5.706   6.378   3.830
10295TIP3   OH230764   6.638   5.659   3.803
10295TIP3    H130765   6.661   5.742   3.849
10295TIP3    H230766   6.652   5.684   3.711
10296TIP3   OH230767   6.034   5.842   3.842
10296TIP3    H130768   6.073   5.755   3.864
10296TIP3    H230769   6.002   5.825   3.752
10297TIP3   OH230770   5.366   5.497   3.806
10297TIP3    H130771   5.345   5.570   3.745
10297TIP3    H230772   5.318   5.423   3.763
10298TIP3   OH230773   6.061   5.585   3.431
10298TIP3    H130774   6.134   5.568   3.496
10298TIP3    H230775   6.113   5.623   3.358
10299TIP3   OH230776   5.003   5.701   3.912
10299TIP3    H130777   5.086   5.680   3.960
10299TIP3    H230778   5.015   5.643   3.834
10300TIP3   OH230779   5.445   5.898   3.702
10300TIP3    H130780   5.538   5.871   3.719
10300TIP3    H230781   5.406   5.813   3.673
10301TIP3   OH230782   6.710   5.870   3.969
10301TIP3    H130783   6.624   5.912   3.949
10301TIP3    H230784   6.701   5.865   4.066
10302TIP3   OH230785   5.362   5.471   4.241
10302TIP3    H130786   5.308   5.515   4.174
10302TIP3    H230787   5.317   5.498   4.323
10303TIP3   OH230788   5.718   6.332   3.250
10303TIP3    H130789   5.671   6.306   3.170
10303TIP3    H230790   5.675   6.417   3.271
10304TIP3   OH230791   5.474   6.254   4.040
10304TIP3    H130792   5.408   6.316   4.079
10304TIP3    H230793   5.513   6.309   3.970
10305TIP3   OH230794   6.278   5.586   3.598
10305TIP3    H130795   6.266   5.537   3.681
10305TIP3    H230796   6.329   5.663   3.626
10306TIP3   OH230797   5.236   5.596   4.026
10306TIP3    H130798   5.301   5.666   4.050
10306TIP3    H230799   5.286   5.552   3.954
10307TIP3   OH230800   5.298   6.445   4.134
10307TIP3    H130801   5.272   6.531   4.094
10307TIP3    H230802   5.220   6.431   4.191
10308TIP3   OH230803   4.699   6.137   3.370
10308TIP3    H130804   4.655   6.164   3.287
10308TIP3    H230805   4.727   6.222   3.408
10309TIP3   OH230806   6.137   6.653   3.612
10309TIP3    H130807   6.046   6.644   3.651
10309TIP3    H230808   6.128   6.738   3.565
10310TIP3   OH230809   6.415   5.577   3.968
10310TIP3    H130810   6.327   5.599   3.934
10310TIP3    H230811   6.475   5.595   3.893
10311TIP3   OH230812   5.723   5.208   3.947
10311TIP3    H130813   5.711   5.113   3.965
10311TIP3    H230814   5.644   5.244   3.995
10312TIP3   OH230815   5.843   6.702   3.288
10312TIP3    H130816   5.891   6.620   3.264
10312TIP3    H230817   5.902   6.768   3.245
10313TIP3   OH230818   5.981   6.487   3.187
10313TIP3    H130819   5.940   6.409   3.148
10313TIP3    H230820   6.015   6.450   3.272
10314TIP3   OH230821   6.362   6.570   3.953
10314TIP3    H130822   6.352   6.491   3.895
10314TIP3    H230823   6.346   6.643   3.890
10315TIP3   OH230824   5.652   5.960   3.208
10315TIP3    H130825   5.571   6.012   3.186
10315TIP3    H230826   5.699   5.960   3.123
10316TIP3   OH230827   5.612   5.744   2.928
10316TIP3    H130828   5.679   5.794   2.979
10316TIP3    H230829   5.669   5.680   2.882
10317TIP3   OH230830   6.558   6.205   3.796
10317TIP3    H130831   6.474   6.257   3.803
10317TIP3    H230832   6.586   6.228   3.705
10318TIP3   OH230833   5.999   6.042   3.183
10318TIP3    H130834   5.945   6.069   3.261
10318TIP3    H230835   6.083   6.017   3.228
10319TIP3   OH230836   6.238   6.086   4.090
10319TIP3    H130837   6.232   6.170   4.140
10319TIP3    H230838   6.151   6.086   4.045
10320TIP3   OH230839   5.233   6.044   3.597
10320TIP3    H130840   5.191   5.985   3.531
10320TIP3    H230841   5.310   5.990   3.626
10321TIP3   OH230842   5.363   6.454   3.747
10321TIP3    H130843   5.340   6.405   3.667
10321TIP3    H230844   5.453   6.422   3.766
10322TIP3   OH230845   5.370   6.013   3.953
10322TIP3    H130846   5.403   5.994   3.863
10322TIP3    H230847   5.413   6.099   3.974
10323TIP3   OH230848   5.894   6.652   3.729
10323TIP3    H130849   5.880   6.730   3.785
10323TIP3    H230850   5.881   6.577   3.791
10324TIP3   OH230851   5.505   6.572   4.276
10324TIP3    H130852   5.445   6.633   4.323
10324TIP3    H230853   5.439   6.517   4.228
10325TIP3   OH230854   5.844   5.900   3.008
10325TIP3    H130855   5.901   5.960   3.062
10325TIP3    H230856   5.870   5.927   2.916
10326TIP3   OH230857   5.259   6.130   4.373
10326TIP3    H130858   5.262   6.214   4.423
10326TIP3    H230859   5.164   6.109   4.381
10327TIP3   OH230860   5.581   6.585   3.283
10327TIP3    H130861   5.657   6.640   3.309
10327TIP3    H230862   5.519   6.649   3.245
10328TIP3   OH230863   5.301   6.742   4.363
10328TIP3    H130864   5.266   6.737   4.272
10328TIP3    H230865   5.222   6.719   4.417
10329TIP3   OH230866   6.356   5.145   3.056
10329TIP3    H130867   6.276   5.163   3.109
10329TIP3    H230868   6.367   5.230   3.009
10330TIP3   OH230869   5.099   5.884   3.403
10330TIP3    H130870   5.034   5.929   3.345
10330TIP3    H230871   5.055   5.800   3.419
10331TIP3   OH230872   6.153   6.512   2.603
10331TIP3    H130873   6.162   6.609   2.590
10331TIP3    H230874   6.246   6.483   2.591
10332TIP3   OH230875   4.881   6.268   4.310
10332TIP3    H130876   4.816   6.244   4.241
10332TIP3    H230877   4.917   6.181   4.338
10333TIP3   OH230878   4.733   6.462   3.943
10333TIP3    H130879   4.829   6.455   3.935
10333TIP3    H230880   4.724   6.541   3.998
10334TIP3   OH230881   6.599   6.910   3.997
10334TIP3    H130882   6.598   6.814   4.009
10334TIP3    H230883   6.515   6.935   4.043
10335TIP3   OH230884   5.705   6.700   4.133
10335TIP3    H130885   5.705   6.792   4.166
10335TIP3    H230886   5.633   6.661   4.187
10336TIP3   OH230887   5.461   6.829   3.085
10336TIP3    H130888   5.418   6.810   2.999
10336TIP3    H230889   5.432   6.919   3.105
10337TIP3   OH230890   4.902   6.679   3.467
10337TIP3    H130891   4.951   6.669   3.551
10337TIP3    H230892   4.839   6.605   3.474
10338TIP3   OH230893   5.666   6.728   2.726
10338TIP3    H130894   5.726   6.660   2.690
10338TIP3    H230895   5.700   6.738   2.818
10339TIP3   OH230896   5.714   6.776   2.998
10339TIP3    H130897   5.626   6.786   3.041
10339TIP3    H230898   5.765   6.734   3.069
10340TIP3   OH230899   6.491   6.044   4.276
10340TIP3    H130900   6.412   6.059   4.221
10340TIP3    H230901   6.511   5.950   4.254
10341TIP3   OH230902   5.085   6.452   4.303
10341TIP3    H130903   5.135   6.434   4.385
10341TIP3    H230904   5.011   6.387   4.309
10342TIP3   OH230905   5.491   5.280   4.073
10342TIP3    H130906   5.399   5.249   4.063
10342TIP3    H230907   5.475   5.353   4.137
10343TIP3   OH230908   6.008   5.388   4.282
10343TIP3    H130909   6.077   5.356   4.342
10343TIP3    H230910   5.927   5.377   4.334
10344TIP3   OH230911   6.252   5.816   4.193
10344TIP3    H130912   6.210   5.815   4.282
10344TIP3    H230913   6.236   5.906   4.161
10345TIP3   OH230914   5.916   5.951   2.751
10345TIP3    H130915   5.885   5.924   2.663
10345TIP3    H230916   5.994   6.005   2.728
10346TIP3   OH230917   5.632   5.327   3.053
10346TIP3    H130918   5.601   5.327   3.145
10346TIP3    H230919   5.593   5.243   3.022
10347TIP3   OH230920   5.415   5.790   4.103
10347TIP3    H130921   5.362   5.812   4.182
10347TIP3    H230922   5.402   5.869   4.047
10348TIP3   OH230923   5.299   5.677   3.614
10348TIP3    H130924   5.206   5.651   3.632
10348TIP3    H230925   5.313   5.635   3.526
10349TIP3   OH230926   5.791   5.763   3.340
10349TIP3    H130927   5.735   5.834   3.302
10349TIP3    H230928   5.844   5.736   3.263
10350TIP3   OH230929   5.966   6.045   4.433
10350TIP3    H130930   5.945   5.970   4.493
10350TIP3    H230931   6.061   6.057   4.452
10351TIP3   OH230932   5.951   5.794   3.582
10351TIP3    H130933   5.891   5.825   3.512
10351TIP3    H230934   5.980   5.710   3.541
10352TIP3   OH230935   5.235   5.821   4.311
10352TIP3    H130936   5.255   5.884   4.382
10352TIP3    H230937   5.222   5.738   4.361
10353TIP3   OH230938   5.284   5.295   3.019
10353TIP3    H130939   5.279   5.294   3.117
10353TIP3    H230940   5.204   5.348   2.998
10354TIP3   OH230941   4.829   5.346   3.887
10354TIP3    H130942   4.905   5.375   3.943
10354TIP3    H230943   4.871   5.309   3.809
10355TIP3   OH230944   4.807   5.324   3.409
10355TIP3    H130945   4.854   5.364   3.333
10355TIP3    H230946   4.746   5.397   3.432
10356TIP3   OH230947   5.961   6.040   4.009
10356TIP3    H130948   5.992   5.967   3.950
10356TIP3    H230949   5.929   5.988   4.086
10357TIP3   OH230950   5.623   5.500   3.678
10357TIP3    H130951   5.540   5.497   3.730
10357TIP3    H230952   5.689   5.503   3.749
10358TIP3   OH230953   5.062   5.554   3.685
10358TIP3    H130954   4.967   5.561   3.659
10358TIP3    H230955   5.085   5.462   3.663
10359TIP3   OH230956   5.335   5.551   3.372
10359TIP3    H130957   5.429   5.567   3.353
10359TIP3    H230958   5.289   5.576   3.289
10360TIP3   OH230959   6.115   5.577   3.875
10360TIP3    H130960   6.082   5.587   3.967
10360TIP3    H230961   6.051   5.512   3.840
10361TIP3   OH230962   5.168   5.583   3.153
10361TIP3    H130963   5.094   5.542   3.106
10361TIP3    H230964   5.220   5.618   3.078
10362TIP3   OH230965   6.284   7.266   4.095
10362TIP3    H130966   6.285   7.283   3.999
10362TIP3    H230967   6.367   7.310   4.124
10363TIP3   OH230968   5.247   6.375   4.520
10363TIP3    H130969   5.326   6.404   4.569
10363TIP3    H230970   5.181   6.372   4.592
10364TIP3   OH230971   5.710   5.828   3.774
10364TIP3    H130972   5.783   5.782   3.730
10364TIP3    H230973   5.714   5.791   3.865
10365TIP3   OH230974   5.235   5.317   3.647
10365TIP3    H130975   5.204   5.236   3.694
10365TIP3    H230976   5.294   5.280   3.580
10366TIP3   OH230977   5.694   5.740   4.038
10366TIP3    H130978   5.603   5.741   4.074
10366TIP3    H230979   5.747   5.775   4.112
10367TIP3   OH230980   5.425   6.116   3.159
10367TIP3    H130981   5.352   6.050   3.149
10367TIP3    H230982   5.407   6.149   3.251
10368TIP3   OH230983   6.326   6.352   3.791
10368TIP3    H130984   6.350   6.399   3.708
10368TIP3    H230985   6.241   6.310   3.768
10369TIP3   OH230986   5.883   5.432   3.010
10369TIP3    H130987   5.787   5.415   3.024
10369TIP3    H230988   5.895   5.524   3.041
10370TIP3   OH230989   5.829   6.436   4.155
10370TIP3    H130990   5.840   6.405   4.246
10370TIP3    H230991   5.784   6.521   4.165
10371TIP3   OH230992   5.954   5.672   3.120
10371TIP3    H130993   6.050   5.679   3.139
10371TIP3    H230994   5.936   5.754   3.069
10372TIP3   OH230995   5.116   6.136   3.837
10372TIP3    H130996   5.153   6.107   3.751
10372TIP3    H230997   5.152   6.070   3.898
10373TIP3   OH230998   5.569   6.264   2.977
10373TIP3    H130999   5.523   6.351   2.985
10373TIP3    H231000   5.515   6.210   3.038
10374TIP3   OH231001   4.995   6.057   4.448
10374TIP3    H131002   5.015   6.045   4.543
10374TIP3    H231003   4.926   5.990   4.434
10375TIP3   OH231004   5.720   6.168   4.469
10375TIP3    H131005   5.662   6.113   4.414
10375TIP3    H231006   5.808   6.137   4.440
10376TIP3   OH231007   5.986   6.696   4.048
10376TIP3    H131008   5.890   6.689   4.061
10376TIP3    H231009   6.012   6.745   4.130
10377TIP3   OH231010   6.397   5.760   2.960
10377TIP3    H131011   6.333   5.716   2.899
10377TIP3    H231012   6.394   5.850   2.919
10378TIP3   OH231013   6.613   6.620   4.042
10378TIP3    H131014   6.515   6.615   4.034
10378TIP3    H231015   6.638   6.589   3.952
10379TIP3   OH231016   6.092   6.582   2.867
10379TIP3    H131017   6.071   6.512   2.929
10379TIP3    H231018   6.106   6.535   2.783
10380TIP3   OH231019   6.090   6.212   3.712
10380TIP3    H131020   5.997   6.185   3.724
10380TIP3    H231021   6.125   6.133   3.666
10381TIP3   OH231022   5.215   6.438   3.458
10381TIP3    H131023   5.218   6.520   3.407
10381TIP3    H231024   5.120   6.425   3.467
10382TIP3   OH231025   4.778   5.744   3.159
10382TIP3    H131026   4.826   5.827   3.180
10382TIP3    H231027   4.702   5.750   3.221
10383TIP3   OH231028   5.361   6.208   3.406
10383TIP3    H131029   5.323   6.296   3.424
10383TIP3    H231030   5.324   6.156   3.480
10384TIP3   OH231031   5.484   6.785   3.932
10384TIP3    H131032   5.525   6.856   3.879
10384TIP3    H231033   5.561   6.750   3.979
10385TIP3   OH231034   5.138   6.678   3.314
10385TIP3    H131035   5.051   6.686   3.358
10385TIP3    H231036   5.169   6.771   3.315
10386TIP3   OH231037   5.878   6.419   3.887
10386TIP3    H131038   5.870   6.415   3.985
10386TIP3    H231039   5.957   6.363   3.873
10387TIP3   OH231040   5.845   6.306   2.770
10387TIP3    H131041   5.898   6.283   2.850
10387TIP3    H231042   5.756   6.285   2.801
10388TIP3   OH231043   6.123   6.957   3.941
10388TIP3    H131044   6.047   6.896   3.932
10388TIP3    H231045   6.107   7.019   3.866
10389TIP3   OH231046   6.189   6.787   2.591
10389TIP3    H131047   6.227   6.858   2.537
10389TIP3    H231048   6.109   6.834   2.623
10390TIP3   OH231049   5.210   5.567   4.460
10390TIP3    H131050   5.113   5.572   4.473
10390TIP3    H231051   5.235   5.500   4.525
10391TIP3   OH231052   6.006   6.244   2.988
10391TIP3    H131053   5.997   6.178   3.059
10391TIP3    H231054   6.103   6.243   2.976
10392TIP3   OH231055   4.925   6.649   4.090
10392TIP3    H131056   4.974   6.570   4.118
10392TIP3    H231057   4.954   6.713   4.156
10393TIP3   OH231058   5.216   6.292   2.768
10393TIP3    H131059   5.231   6.200   2.738
10393TIP3    H231060   5.198   6.278   2.864
10394TIP3   OH231061   5.162   6.295   3.042
10394TIP3    H131062   5.231   6.269   3.105
10394TIP3    H231063   5.167   6.394   3.047
10395TIP3   OH231064   4.899   5.991   3.244
10395TIP3    H131065   4.833   6.035   3.302
10395TIP3    H231066   4.914   6.062   3.178
10396TIP3   OH231067   6.042   5.626   4.137
10396TIP3    H131068   6.125   5.664   4.170
10396TIP3    H231069   6.030   5.546   4.191
10397TIP3   OH231070   5.924   5.382   3.297
10397TIP3    H131071   5.911   5.409   3.204
10397TIP3    H231072   5.962   5.463   3.337
10398TIP3   OH231073   5.426   6.494   2.991
10398TIP3    H131074   5.340   6.524   3.027
10398TIP3    H231075   5.444   6.564   2.927
10399TIP3   OH231076   5.617   5.556   3.403
10399TIP3    H131077   5.682   5.627   3.386
10399TIP3    H231078   5.620   5.549   3.501
10400TIP3   OH231079   5.884   5.879   4.216
10400TIP3    H131080   5.904   5.932   4.295
10400TIP3    H231081   5.944   5.803   4.225
10401TIP3   OH231082   5.762   5.290   3.508
10401TIP3    H131083   5.756   5.365   3.571
10401TIP3    H231084   5.821   5.328   3.439
10402TIP3   OH231085   5.167   6.569   3.056
10402TIP3    H131086   5.137   6.638   2.993
10402TIP3    H231087   5.151   6.613   3.142
10403TIP3   OH231088   5.271   5.281   3.295
10403TIP3    H131089   5.268   5.371   3.333
10403TIP3    H231090   5.367   5.263   3.306
10404TIP3   OH231091   6.528   5.792   4.167
10404TIP3    H131092   6.439   5.777   4.205
10404TIP3    H231093   6.527   5.720   4.102
10405TIP3   OH231094   6.177   5.972   3.580
10405TIP3    H131095   6.100   5.913   3.594
10405TIP3    H231096   6.248   5.925   3.628
10406TIP3   OH231097   4.886   6.204   3.052
10406TIP3    H131098   4.946   6.280   3.061
10406TIP3    H231099   4.934   6.153   2.984
10407TIP3   OH231100   4.835   5.476   3.181
10407TIP3    H131101   4.832   5.574   3.177
10407TIP3    H231102   4.747   5.452   3.150
10408TIP3   OH231103   6.143   6.925   3.533
10408TIP3    H131104   6.100   6.972   3.457
10408TIP3    H231105   6.237   6.944   3.511
10409TIP3   OH231106   5.219   5.197   4.059
10409TIP3    H131107   5.189   5.165   3.972
10409TIP3    H231108   5.208   5.118   4.115
10410TIP3   OH231109   4.763   6.416   3.445
10410TIP3    H131110   4.683   6.447   3.489
10410TIP3    H231111   4.749   6.451   3.355
10411TIP3   OH231112   4.912   6.950   4.511
10411TIP3    H131113   4.998   6.947   4.556
10411TIP3    H231114   4.890   6.855   4.508
10412TIP3   OH231115   5.403   6.925   4.552
10412TIP3    H131116   5.495   6.898   4.561
10412TIP3    H231117   5.374   6.867   4.478
10413TIP3   OH231118   5.380   6.497   2.685
10413TIP3    H131119   5.322   6.426   2.722
10413TIP3    H231120   5.454   6.444   2.651
10414TIP3   OH231121   6.036   6.826   4.288
10414TIP3    H131122   6.026   6.756   4.356
10414TIP3    H231123   6.115   6.874   4.319
10415TIP3   OH231124   5.816   6.539   2.593
10415TIP3    H131125   5.865   6.478   2.650
10415TIP3    H231126   5.871   6.542   2.512
10416TIP3   OH231127   5.046   6.361   4.710
10416TIP3    H131128   5.062   6.265   4.715
10416TIP3    H231129   4.957   6.362   4.668
10417TIP3   OH231130   5.021   6.015   2.900
10417TIP3    H131131   5.075   5.980   2.974
10417TIP3    H231132   5.090   6.020   2.830
10418TIP3   OH231133   5.655   6.444   4.483
10418TIP3    H131134   5.611   6.456   4.396
10418TIP3    H231135   5.685   6.351   4.479
10419TIP3   OH231136   5.527   6.210   2.708
10419TIP3    H131137   5.531   6.224   2.805
10419TIP3    H231138   5.525   6.112   2.704
10420TIP3   OH231139   6.148   6.449   4.090
10420TIP3    H131140   6.219   6.498   4.044
10420TIP3    H231141   6.073   6.511   4.078
10421TIP3   OH231142   5.165   6.095   4.689
10421TIP3    H131143   5.233   6.028   4.676
10421TIP3    H231144   5.186   6.127   4.779
10422TIP3   OH231145   5.234   5.914   3.128
10422TIP3    H131146   5.205   5.873   3.211
10422TIP3    H231147   5.267   5.837   3.077
10423TIP3   OH231148   5.501   5.980   4.358
10423TIP3    H131149   5.422   6.039   4.360
10423TIP3    H231150   5.545   6.010   4.276
10424TIP3   OH231151   5.329   5.705   2.967
10424TIP3    H131152   5.302   5.708   2.873
10424TIP3    H231153   5.426   5.715   2.960
10425TIP3   OH231154   6.017   6.383   4.490
10425TIP3    H131155   6.097   6.362   4.440
10425TIP3    H231156   6.016   6.312   4.557
10426TIP3   OH231157   6.157   6.041   2.625
10426TIP3    H131158   6.133   5.994   2.543
10426TIP3    H231159   6.125   6.132   2.601
10427TIP3   OH231160   5.624   5.767   4.479
10427TIP3    H131161   5.601   5.690   4.427
10427TIP3    H231162   5.582   5.839   4.427
10428TIP3   OH231163   5.659   6.097   4.165
10428TIP3    H131164   5.735   6.091   4.105
10428TIP3    H231165   5.601   6.160   4.118
10429TIP3   OH231166   6.237   6.059   4.544
10429TIP3    H131167   6.286   5.977   4.565
10429TIP3    H231168   6.306   6.115   4.507
10430TIP3   OH231169   6.278   6.311   4.280
10430TIP3    H131170   6.219   6.361   4.219
10430TIP3    H231171   6.365   6.329   4.238
10431TIP3   OH231172   5.503   5.885   4.709
10431TIP3    H131173   5.432   5.819   4.725
10431TIP3    H231174   5.533   5.860   4.620
10432TIP3   OH231175   5.886   5.821   4.569
10432TIP3    H131176   5.877   5.819   4.666
10432TIP3    H231177   5.793   5.803   4.543
10433TIP3   OH231178   6.125   5.772   4.431
10433TIP3    H131179   6.045   5.781   4.486
10433TIP3    H231180   6.188   5.730   4.490
10434TIP3   OH231181   5.341   5.669   4.758
10434TIP3    H131182   5.337   5.577   4.725
10434TIP3    H231183   5.372   5.654   4.850
10435TIP3   OH231184   5.891   5.520   4.768
10435TIP3    H131185   5.900   5.499   4.675
10435TIP3    H231186   5.835   5.600   4.768
10436TIP3   OH231187   5.136   6.771   2.869
10436TIP3    H131188   5.232   6.771   2.850
10436TIP3    H231189   5.105   6.818   2.790
10437TIP3   OH231190   4.618   6.153   3.088
10437TIP3    H131191   4.713   6.176   3.075
10437TIP3    H231192   4.614   6.064   3.046
10438TIP3   OH231193   4.530   6.766   3.498
10438TIP3    H131194   4.463   6.703   3.465
10438TIP3    H231195   4.575   6.711   3.566
10439TIP3   OH231196   4.667   6.623   3.686
10439TIP3    H131197   4.658   6.545   3.743
10439TIP3    H231198   4.718   6.682   3.745
10440TIP3   OH231199   6.392   7.021   3.485
10440TIP3    H131200   6.424   7.055   3.570
10440TIP3    H231201   6.453   7.062   3.422
10441TIP3   OH231202   6.425   7.041   3.768
10441TIP3    H131203   6.383   6.953   3.761
10441TIP3    H231204   6.502   7.017   3.822
10442TIP3   OH231205   6.471   6.715   4.340
10442TIP3    H131206   6.397   6.722   4.403
10442TIP3    H231207   6.512   6.804   4.345
10443TIP3   OH231208   6.287   6.229   2.962
10443TIP3    H131209   6.357   6.292   2.935
10443TIP3    H231210   6.329   6.189   3.041
10444TIP3   OH231211   6.415   6.096   3.164
10444TIP3    H131212   6.349   6.053   3.224
10444TIP3    H231213   6.478   6.136   3.227
10445TIP3   OH231214   6.467   6.485   3.598
10445TIP3    H131215   6.520   6.424   3.544
10445TIP3    H231216   6.457   6.561   3.537
10446TIP3   OH231217   6.303   6.788   3.793
10446TIP3    H131218   6.230   6.828   3.845
10446TIP3    H231219   6.253   6.739   3.724
10447TIP3   OH231220   6.354   6.003   2.813
10447TIP3    H131221   6.282   6.007   2.745
10447TIP3    H231222   6.327   6.079   2.868
10448TIP3   OH231223   6.226   5.675   2.768
10448TIP3    H131224   6.184   5.720   2.693
10448TIP3    H231225   6.196   5.582   2.755
10449TIP3   OH231226   6.231   5.950   3.313
10449TIP3    H131227   6.239   5.853   3.310
10449TIP3    H231228   6.217   5.966   3.410
10450TIP3   OH231229   4.857   6.027   4.056
10450TIP3    H131230   4.857   5.998   3.963
10450TIP3    H231231   4.954   6.027   4.075
10451TIP3   OH231232   6.519   6.376   4.168
10451TIP3    H131233   6.592   6.310   4.161
10451TIP3    H231234   6.546   6.445   4.106
10452TIP3   OH231235   6.706   6.185   4.193
10452TIP3    H131236   6.631   6.133   4.230
10452TIP3    H231237   6.777   6.118   4.201
10453TIP3   OH231238   6.169   5.409   2.754
10453TIP3    H131239   6.246   5.382   2.808
10453TIP3    H231240   6.098   5.352   2.786
10454TIP3   OH231241   6.225   5.666   3.209
10454TIP3    H131242   6.265   5.577   3.225
10454TIP3    H231243   6.284   5.700   3.140
10455TIP3   OH231244   6.390   5.843   3.701
10455TIP3    H131245   6.476   5.871   3.663
10455TIP3    H231246   6.400   5.879   3.791
10456TIP3   OH231247   6.453   5.985   3.929
10456TIP3    H131248   6.377   6.017   3.982
10456TIP3    H231249   6.486   6.068   3.889
10457TIP3   OH231250   5.074   5.715   4.734
10457TIP3    H131251   5.171   5.706   4.733
10457TIP3    H231252   5.048   5.634   4.782
10458TIP3   OH231253   6.336   5.416   3.244
10458TIP3    H131254   6.383   5.402   3.329
10458TIP3    H231255   6.274   5.340   3.245
10459TIP3   OH231256   5.036   5.405   4.061
10459TIP3    H131257   5.098   5.330   4.075
10459TIP3    H231258   5.098   5.479   4.060
10460TIP3   OH231259   4.840   5.679   4.138
10460TIP3    H131260   4.889   5.670   4.054
10460TIP3    H231261   4.871   5.766   4.168
10461TIP3   OH231262   6.418   5.356   2.875
10461TIP3    H131263   6.459   5.281   2.827
10461TIP3    H231264   6.486   5.426   2.868
10462TIP3   OH231265   4.820   5.181   3.637
10462TIP3    H131266   4.726   5.181   3.664
10462TIP3    H231267   4.819   5.241   3.559
10463TIP3   OH231268   5.980   6.883   3.144
10463TIP3    H131269   6.029   6.866   3.061
10463TIP3    H231270   6.035   6.951   3.185
10464TIP3   OH231271   5.014   5.240   4.455
10464TIP3    H131272   4.969   5.254   4.538
10464TIP3    H231273   4.963   5.298   4.395
10465TIP3   OH231274   5.081   6.689   4.533
10465TIP3    H131275   4.991   6.656   4.512
10465TIP3    H231276   5.088   6.667   4.627
10466TIP3   OH231277   5.257   6.717   4.078
10466TIP3    H131278   5.208   6.792   4.039
10466TIP3    H231279   5.343   6.732   4.034
10467TIP3   OH231280   5.707   6.966   4.217
10467TIP3    H131281   5.749   6.968   4.305
10467TIP3    H231282   5.774   7.015   4.164
10468TIP3   OH231283   5.885   7.116   4.072
10468TIP3    H131284   5.955   7.063   4.030
10468TIP3    H231285   5.938   7.172   4.133
10469TIP3   OH231286   4.937   6.979   4.099
10469TIP3    H131287   4.849   7.014   4.075
10469TIP3    H231288   4.941   7.005   4.192
10470TIP3   OH231289   5.174   6.956   3.957
10470TIP3    H131290   5.088   6.969   4.003
10470TIP3    H231291   5.152   6.990   3.868
10471TIP3   OH231292   5.600   6.988   3.754
10471TIP3    H131293   5.530   7.008   3.689
10471TIP3    H231294   5.611   7.076   3.797
10472TIP3   OH231295   5.866   6.928   3.807
10472TIP3    H131296   5.771   6.942   3.786
10472TIP3    H231297   5.907   7.004   3.763
10473TIP3   OH231298   6.078   7.121   3.724
10473TIP3    H131299   6.062   7.204   3.675
10473TIP3    H231300   6.101   7.059   3.652
10474TIP3   OH231301   4.848   6.773   3.847
10474TIP3    H131302   4.874   6.748   3.938
10474TIP3    H231303   4.919   6.727   3.796
10475TIP3   OH231304   5.039   6.642   3.700
10475TIP3    H131305   5.056   6.558   3.748
10475TIP3    H231306   5.129   6.680   3.695
10476TIP3   OH231307   5.305   6.740   3.701
10476TIP3    H131308   5.337   6.649   3.688
10476TIP3    H231309   5.345   6.760   3.788
10477TIP3   OH231310   5.883   5.396   3.788
10477TIP3    H131311   5.835   5.330   3.843
10477TIP3    H231312   5.953   5.342   3.747
10478TIP3   OH231313   6.412   5.273   3.696
10478TIP3    H131314   6.444   5.328   3.621
10478TIP3    H231315   6.316   5.291   3.694
10479TIP3   OH231316   6.503   5.378   3.461
10479TIP3    H131317   6.575   5.327   3.419
10479TIP3    H231318   6.535   5.470   3.447
10480TIP3   OH231319   5.132   5.104   3.809
10480TIP3    H131320   5.040   5.070   3.810
10480TIP3    H231321   5.182   5.019   3.806
10481TIP3   OH231322   4.914   4.972   3.453
10481TIP3    H131323   4.946   5.032   3.384
10481TIP3    H231324   4.886   5.034   3.523
10482TIP3   OH231325   5.572   5.137   3.689
10482TIP3    H131326   5.633   5.189   3.635
10482TIP3    H231327   5.586   5.175   3.777
10483TIP3   OH231328   6.128   5.281   3.673
10483TIP3    H131329   6.120   5.248   3.583
10483TIP3    H231330   6.108   5.200   3.725
10484TIP3   OH231331   6.151   5.203   3.234
10484TIP3    H131332   6.064   5.245   3.245
10484TIP3    H231333   6.137   5.119   3.284
10485TIP3   OH231334   4.635   6.540   3.241
10485TIP3    H131335   4.551   6.507   3.203
10485TIP3    H231336   4.622   6.635   3.227
10486TIP3   OH231337   5.032   5.134   3.220
10486TIP3    H131338   5.083   5.072   3.166
10486TIP3    H231339   5.103   5.189   3.259
10487TIP3   OH231340   5.549   5.305   3.320
10487TIP3    H131341   5.608   5.259   3.381
10487TIP3    H231342   5.569   5.398   3.345
10488TIP3   OH231343   5.406   6.737   2.819
10488TIP3    H131344   5.496   6.757   2.783
10488TIP3    H231345   5.384   6.661   2.760
10489TIP3   OH231346   6.123   6.849   2.911
10489TIP3    H131347   6.115   6.752   2.897
10489TIP3    H231348   6.080   6.883   2.830
10490TIP3   OH231349   5.337   5.404   4.704
10490TIP3    H131350   5.292   5.330   4.748
10490TIP3    H231351   5.430   5.390   4.734
10491TIP3   OH231352   5.594   5.371   4.811
10491TIP3    H131353   5.691   5.379   4.819
10491TIP3    H231354   5.573   5.325   4.896
10492TIP3   OH231355   4.711   6.571   2.878
10492TIP3    H131356   4.709   6.600   2.971
10492TIP3    H231357   4.800   6.531   2.870
10493TIP3   OH231358   6.354   6.997   4.101
10493TIP3    H131359   6.275   6.962   4.054
10493TIP3    H231360   6.332   7.092   4.101
10494TIP3   OH231361   7.617   6.364   2.869
10494TIP3    H131362   7.593   6.458   2.852
10494TIP3    H231363   7.538   6.320   2.835
10495TIP3   OH231364   7.617   6.365   3.242
10495TIP3    H131365   7.644   6.334   3.330
10495TIP3    H231366   7.573   6.287   3.205
10496TIP3   OH231367   6.919   6.265   3.611
10496TIP3    H131368   6.951   6.198   3.674
10496TIP3    H231369   6.995   6.323   3.604
10497TIP3   OH231370   7.856   6.666   2.927
10497TIP3    H131371   7.848   6.598   2.995
10497TIP3    H231372   7.887   6.743   2.978
10498TIP3   OH231373   6.886   6.670   3.342
10498TIP3    H131374   6.879   6.572   3.345
10498TIP3    H231375   6.982   6.680   3.333
10499TIP3   OH231376   6.595   5.877   3.126
10499TIP3    H131377   6.547   5.961   3.138
10499TIP3    H231378   6.524   5.820   3.092
10500TIP3   OH231379   6.655   6.163   3.290
10500TIP3    H131380   6.704   6.087   3.330
10500TIP3    H231381   6.714   6.188   3.218
10501TIP3   OH231382   7.500   7.126   2.939
10501TIP3    H131383   7.554   7.057   2.896
10501TIP3    H231384   7.504   7.100   3.032
10502TIP3   OH231385   7.417   6.590   3.295
10502TIP3    H131386   7.453   6.516   3.244
10502TIP3    H231387   7.501   6.635   3.318
10503TIP3   OH231388   8.426   5.912   3.291
10503TIP3    H131389   8.454   5.994   3.337
10503TIP3    H231390   8.447   5.934   3.199
10504TIP3   OH231391   7.826   6.094   3.332
10504TIP3    H131392   7.871   6.009   3.349
10504TIP3    H231393   7.798   6.082   3.239
10505TIP3   OH231394   7.163   5.753   3.295
10505TIP3    H131395   7.142   5.826   3.233
10505TIP3    H231396   7.115   5.680   3.250
10506TIP3   OH231397   7.857   5.842   2.919
10506TIP3    H131398   7.931   5.827   2.982
10506TIP3    H231399   7.907   5.880   2.844
10507TIP3   OH231400   6.799   5.957   3.399
10507TIP3    H131401   6.882   5.936   3.447
10507TIP3    H231402   6.811   5.900   3.320
10508TIP3   OH231403   7.241   6.154   3.189
10508TIP3    H131404   7.334   6.127   3.204
10508TIP3    H231405   7.201   6.070   3.159
10509TIP3   OH231406   8.498   6.115   3.466
10509TIP3    H131407   8.419   6.168   3.443
10509TIP3    H231408   8.519   6.151   3.554
10510TIP3   OH231409   7.164   5.738   3.727
10510TIP3    H131410   7.102   5.775   3.660
10510TIP3    H231411   7.112   5.754   3.809
10511TIP3   OH231412   7.513   6.587   2.737
10511TIP3    H131413   7.468   6.565   2.655
10511TIP3    H231414   7.473   6.673   2.759
10512TIP3   OH231415   7.269   6.510   3.528
10512TIP3    H131416   7.204   6.574   3.566
10512TIP3    H231417   7.310   6.563   3.457
10513TIP3   OH231418   8.073   5.843   3.085
10513TIP3    H131419   8.067   5.794   3.167
10513TIP3    H231420   8.128   5.919   3.110
10514TIP3   OH231421   7.032   5.852   3.513
10514TIP3    H131422   7.094   5.924   3.536
10514TIP3    H231423   7.080   5.811   3.438
10515TIP3   OH231424   7.094   6.702   3.621
10515TIP3    H131425   7.069   6.787   3.579
10515TIP3    H231426   7.015   6.690   3.678
10516TIP3   OH231427   6.495   6.394   2.857
10516TIP3    H131428   6.452   6.420   2.774
10516TIP3    H231429   6.523   6.479   2.895
10517TIP3   OH231430   7.931   6.908   3.097
10517TIP3    H131431   7.841   6.902   3.136
10517TIP3    H231432   7.926   6.994   3.051
10518TIP3   OH231433   8.220   5.813   3.459
10518TIP3    H131434   8.133   5.844   3.429
10518TIP3    H231435   8.279   5.844   3.387
10519TIP3   OH231436   7.524   5.459   3.441
10519TIP3    H131437   7.508   5.363   3.456
10519TIP3    H231438   7.444   5.496   3.485
10520TIP3   OH231439   7.639   6.957   2.775
10520TIP3    H131440   7.689   6.876   2.749
10520TIP3    H231441   7.697   7.024   2.733
10521TIP3   OH231442   7.778   6.742   2.673
10521TIP3    H131443   7.736   6.664   2.635
10521TIP3    H231444   7.811   6.706   2.759
10522TIP3   OH231445   8.156   6.826   3.442
10522TIP3    H131446   8.152   6.749   3.381
10522TIP3    H231447   8.143   6.901   3.380
10523TIP3   OH231448   7.448   6.216   2.695
10523TIP3    H131449   7.368   6.269   2.673
10523TIP3    H231450   7.495   6.217   2.610
10524TIP3   OH231451   7.409   6.000   2.417
10524TIP3    H131452   7.476   6.051   2.465
10524TIP3    H231453   7.466   5.937   2.369
10525TIP3   OH231454   8.350   6.453   3.281
10525TIP3    H131455   8.272   6.512   3.289
10525TIP3    H231456   8.384   6.483   3.193
10526TIP3   OH231457   7.795   6.298   2.671
10526TIP3    H131458   7.741   6.326   2.749
10526TIP3    H231459   7.879   6.274   2.714
10527TIP3   OH231460   8.031   6.342   3.577
10527TIP3    H131461   8.030   6.428   3.623
10527TIP3    H231462   7.945   6.346   3.531
10528TIP3   OH231463   7.028   6.300   3.085
10528TIP3    H131464   6.986   6.243   3.017
10528TIP3    H231465   7.106   6.247   3.112
10529TIP3   OH231466   7.156   6.706   3.237
10529TIP3    H131467   7.137   6.663   3.152
10529TIP3    H231468   7.248   6.677   3.254
10530TIP3   OH231469   7.169   6.269   3.440
10530TIP3    H131470   7.199   6.253   3.348
10530TIP3    H231471   7.209   6.356   3.461
10531TIP3   OH231472   7.689   6.908   3.216
10531TIP3    H131473   7.675   6.988   3.268
10531TIP3    H231474   7.676   6.836   3.280
10532TIP3   OH231475   7.301   6.826   3.765
10532TIP3    H131476   7.241   6.890   3.810
10532TIP3    H231477   7.236   6.773   3.716
10533TIP3   OH231478   7.640   6.156   2.494
10533TIP3    H131479   7.696   6.217   2.548
10533TIP3    H231480   7.666   6.183   2.403
10534TIP3   OH231481   7.055   6.385   3.861
10534TIP3    H131482   7.059   6.470   3.909
10534TIP3    H231483   6.959   6.366   3.868
10535TIP3   OH231484   7.377   6.842   2.771
10535TIP3    H131485   7.453   6.897   2.796
10535TIP3    H231486   7.316   6.907   2.732
10536TIP3   OH231487   7.097   6.998   3.848
10536TIP3    H131488   7.062   6.994   3.757
10536TIP3    H231489   7.018   6.975   3.902
10537TIP3   OH231490   8.152   5.401   2.541
10537TIP3    H131491   8.072   5.421   2.594
10537TIP3    H231492   8.165   5.485   2.493
10538TIP3   OH231493   6.895   6.140   2.891
10538TIP3    H131494   6.832   6.188   2.832
10538TIP3    H231495   6.849   6.057   2.904
10539TIP3   OH231496   7.949   6.769   2.088
10539TIP3    H131497   7.958   6.866   2.077
10539TIP3    H231498   8.043   6.741   2.078
10540TIP3   OH231499   6.676   6.525   3.798
10540TIP3    H131500   6.613   6.502   3.727
10540TIP3    H231501   6.712   6.437   3.824
10541TIP3   OH231502   6.530   6.717   3.433
10541TIP3    H131503   6.625   6.711   3.420
10541TIP3    H231504   6.522   6.799   3.485
10542TIP3   OH231505   8.391   7.167   3.482
10542TIP3    H131506   8.391   7.070   3.492
10542TIP3    H231507   8.308   7.190   3.529
10543TIP3   OH231508   7.502   6.956   3.620
10543TIP3    H131509   7.503   7.049   3.651
10543TIP3    H231510   7.430   6.918   3.675
10544TIP3   OH231511   7.258   7.085   2.572
10544TIP3    H131512   7.215   7.070   2.486
10544TIP3    H231513   7.231   7.176   2.594
10545TIP3   OH231514   6.697   6.936   2.953
10545TIP3    H131515   6.747   6.925   3.037
10545TIP3    H231516   6.634   6.863   2.962
10546TIP3   OH231517   7.462   6.984   2.213
10546TIP3    H131518   7.523   6.916   2.177
10546TIP3    H231519   7.496   6.996   2.304
10547TIP3   OH231520   7.510   7.032   2.484
10547TIP3    H131521   7.422   7.043   2.527
10547TIP3    H231522   7.563   6.995   2.556
10548TIP3   OH231523   8.280   6.296   3.765
10548TIP3    H131524   8.208   6.318   3.703
10548TIP3    H231525   8.296   6.202   3.745
10549TIP3   OH231526   6.880   6.709   3.790
10549TIP3    H131527   6.932   6.690   3.871
10549TIP3    H231528   6.807   6.644   3.796
10550TIP3   OH231529   7.281   5.534   3.562
10550TIP3    H131530   7.190   5.503   3.541
10550TIP3    H231531   7.258   5.616   3.609
10551TIP3   OH231532   7.814   5.648   3.761
10551TIP3    H131533   7.881   5.620   3.827
10551TIP3    H231534   7.729   5.628   3.804
10552TIP3   OH231535   8.055   6.075   3.681
10552TIP3    H131536   8.006   6.073   3.766
10552TIP3    H231537   8.032   6.164   3.645
10553TIP3   OH231538   7.712   6.206   2.238
10553TIP3    H131539   7.681   6.180   2.149
10553TIP3    H231540   7.788   6.263   2.215
10554TIP3   OH231541   7.428   5.582   2.540
10554TIP3    H131542   7.396   5.582   2.632
10554TIP3    H231543   7.388   5.499   2.507
10555TIP3   OH231544   7.212   6.047   3.588
10555TIP3    H131545   7.161   6.069   3.669
10555TIP3    H231546   7.197   6.127   3.534
10556TIP3   OH231547   7.097   5.932   3.102
10556TIP3    H131548   7.003   5.908   3.118
10556TIP3    H231549   7.110   5.892   3.013
10557TIP3   OH231550   7.586   6.019   2.827
10557TIP3    H131551   7.531   6.091   2.789
10557TIP3    H231552   7.641   5.993   2.750
10558TIP3   OH231553   7.760   6.301   3.919
10558TIP3    H131554   7.738   6.227   3.980
10558TIP3    H231555   7.855   6.312   3.935
10559TIP3   OH231556   7.745   6.050   3.071
10559TIP3    H131557   7.688   6.084   2.999
10559TIP3    H231558   7.775   5.967   3.028
10560TIP3   OH231559   7.032   6.077   3.797
10560TIP3    H131560   7.053   6.141   3.866
10560TIP3    H231561   7.017   5.995   3.848
10561TIP3   OH231562   7.081   5.552   2.507
10561TIP3    H131563   7.075   5.550   2.604
10561TIP3    H231564   7.001   5.604   2.484
10562TIP3   OH231565   6.624   5.602   3.375
10562TIP3    H131566   6.700   5.632   3.429
10562TIP3    H231567   6.665   5.567   3.295
10563TIP3   OH231568   6.604   5.581   2.897
10563TIP3    H131569   6.649   5.621   2.819
10563TIP3    H231570   6.542   5.654   2.919
10564TIP3   OH231571   7.755   6.296   3.494
10564TIP3    H131572   7.787   6.223   3.436
10564TIP3    H231573   7.725   6.245   3.572
10565TIP3   OH231574   7.420   5.754   3.165
10565TIP3    H131575   7.336   5.754   3.215
10565TIP3    H231576   7.485   5.762   3.236
10566TIP3   OH231577   6.858   5.810   3.173
10566TIP3    H131578   6.763   5.818   3.147
10566TIP3    H231579   6.880   5.718   3.149
10567TIP3   OH231580   7.131   5.809   2.859
10567TIP3    H131581   7.225   5.825   2.838
10567TIP3    H231582   7.084   5.833   2.776
10568TIP3   OH231583   7.915   5.830   3.364
10568TIP3    H131584   7.878   5.843   3.454
10568TIP3    H231585   7.850   5.768   3.327
10569TIP3   OH231586   6.965   5.839   2.640
10569TIP3    H131587   6.891   5.798   2.592
10569TIP3    H231588   7.016   5.875   2.565
10570TIP3   OH231589   8.082   7.520   3.582
10570TIP3    H131590   8.081   7.542   3.487
10570TIP3    H231591   8.159   7.571   3.613
10571TIP3   OH231592   7.042   6.630   4.007
10571TIP3    H131593   7.122   6.661   4.054
10571TIP3    H231594   6.978   6.629   4.080
10572TIP3   OH231595   7.507   6.080   3.260
10572TIP3    H131596   7.581   6.044   3.209
10572TIP3    H231597   7.523   6.042   3.348
10573TIP3   OH231598   7.034   5.573   3.136
10573TIP3    H131599   7.001   5.492   3.179
10573TIP3    H231600   7.087   5.538   3.062
10574TIP3   OH231601   7.484   5.975   3.556
10574TIP3    H131602   7.395   6.014   3.564
10574TIP3    H231603   7.541   6.038   3.604
10575TIP3   OH231604   7.221   6.372   2.647
10575TIP3    H131605   7.148   6.307   2.636
10575TIP3    H231606   7.203   6.406   2.738
10576TIP3   OH231607   8.124   6.608   3.278
10576TIP3    H131608   8.149   6.656   3.196
10576TIP3    H231609   8.038   6.568   3.253
10577TIP3   OH231610   7.680   5.686   2.500
10577TIP3    H131611   7.583   5.671   2.510
10577TIP3    H231612   7.692   5.780   2.527
10578TIP3   OH231613   7.618   6.687   3.644
10578TIP3    H131614   7.637   6.668   3.737
10578TIP3    H231615   7.583   6.778   3.647
10579TIP3   OH231616   7.751   5.929   2.607
10579TIP3    H131617   7.846   5.937   2.625
10579TIP3    H231618   7.732   6.010   2.556
10580TIP3   OH231619   6.912   6.391   3.324
10580TIP3    H131620   6.948   6.364   3.238
10580TIP3    H231621   6.949   6.325   3.385
10581TIP3   OH231622   7.365   6.521   2.464
10581TIP3    H131623   7.319   6.608   2.471
10581TIP3    H231624   7.311   6.467   2.526
10582TIP3   OH231625   6.791   6.314   3.935
10582TIP3    H131626   6.812   6.300   4.030
10582TIP3    H231627   6.722   6.247   3.920
10583TIP3   OH231628   7.515   6.424   3.956
10583TIP3    H131629   7.456   6.368   3.903
10583TIP3    H231630   7.603   6.393   3.926
10584TIP3   OH231631   7.781   6.943   3.540
10584TIP3    H131632   7.685   6.947   3.549
10584TIP3    H231633   7.810   6.999   3.616
10585TIP3   OH231634   8.192   6.017   2.447
10585TIP3    H131635   8.129   5.973   2.386
10585TIP3    H231636   8.189   6.107   2.407
10586TIP3   OH231637   8.407   6.877   3.530
10586TIP3    H131638   8.310   6.872   3.518
10586TIP3    H231639   8.436   6.848   3.440
10587TIP3   OH231640   7.887   6.839   2.352
10587TIP3    H131641   7.867   6.770   2.416
10587TIP3    H231642   7.902   6.791   2.269
10588TIP3   OH231643   7.886   6.468   3.201
10588TIP3    H131644   7.792   6.442   3.210
10588TIP3    H231645   7.921   6.391   3.152
10589TIP3   OH231646   7.011   6.694   2.946
10589TIP3    H131647   7.017   6.777   2.894
10589TIP3    H231648   6.916   6.683   2.952
10590TIP3   OH231649   6.575   6.001   2.647
10590TIP3    H131650   6.622   6.084   2.666
10590TIP3    H231651   6.498   6.007   2.708
10591TIP3   OH231652   7.156   6.463   2.893
10591TIP3    H131653   7.121   6.553   2.909
10591TIP3    H231654   7.118   6.414   2.968
10592TIP3   OH231655   7.280   7.041   3.418
10592TIP3    H131656   7.319   7.114   3.365
10592TIP3    H231657   7.359   7.009   3.465
10593TIP3   OH231658   6.935   6.934   2.801
10593TIP3    H131659   6.849   6.945   2.845
10593TIP3    H231660   6.968   7.027   2.803
10594TIP3   OH231661   7.673   6.673   3.374
10594TIP3    H131662   7.666   6.671   3.472
10594TIP3    H231663   7.755   6.624   3.359
10595TIP3   OH231664   7.642   6.560   2.256
10595TIP3    H131665   7.694   6.539   2.337
10595TIP3    H231666   7.552   6.542   2.288
10596TIP3   OH231667   7.919   7.212   3.425
10596TIP3    H131668   7.840   7.156   3.413
10596TIP3    H231669   7.907   7.277   3.353
10597TIP3   OH231670   7.985   7.043   2.078
10597TIP3    H131671   8.023   7.116   2.025
10597TIP3    H231672   7.904   7.090   2.110
10598TIP3   OH231673   7.005   5.817   3.944
10598TIP3    H131674   6.909   5.830   3.961
10598TIP3    H231675   7.031   5.759   4.017
10599TIP3   OH231676   7.802   6.499   2.475
10599TIP3    H131677   7.794   6.434   2.546
10599TIP3    H231678   7.899   6.500   2.462
10600TIP3   OH231679   6.719   6.906   3.579
10600TIP3    H131680   6.770   6.827   3.602
10600TIP3    H231681   6.755   6.970   3.641
10601TIP3   OH231682   7.013   6.548   2.255
10601TIP3    H131683   7.027   6.456   2.226
10601TIP3    H231684   6.994   6.535   2.350
10602TIP3   OH231685   6.959   6.552   2.529
10602TIP3    H131686   7.028   6.528   2.592
10602TIP3    H231687   6.962   6.650   2.533
10603TIP3   OH231688   6.696   6.248   2.731
10603TIP3    H131689   6.630   6.293   2.789
10603TIP3    H231690   6.710   6.318   2.664
10604TIP3   OH231691   7.838   5.885   3.623
10604TIP3    H131692   7.920   5.922   3.660
10604TIP3    H231693   7.824   5.805   3.677
10605TIP3   OH231694   7.720   5.638   2.784
10605TIP3    H131695   7.706   5.663   2.691
10605TIP3    H231696   7.758   5.720   2.822
10606TIP3   OH231697   7.221   6.750   2.477
10606TIP3    H131698   7.136   6.781   2.513
10606TIP3    H231699   7.242   6.823   2.416
10607TIP3   OH231700   7.415   5.811   2.889
10607TIP3    H131701   7.478   5.884   2.871
10607TIP3    H231702   7.417   5.807   2.987
10608TIP3   OH231703   7.679   6.135   3.700
10608TIP3    H131704   7.694   6.190   3.779
10608TIP3    H231705   7.736   6.058   3.716
10609TIP3   OH231706   7.559   5.547   2.996
10609TIP3    H131707   7.549   5.625   3.055
10609TIP3    H231708   7.617   5.585   2.926
10610TIP3   OH231709   6.962   6.825   2.543
10610TIP3    H131710   6.933   6.894   2.479
10610TIP3    H231711   6.948   6.871   2.629
10611TIP3   OH231712   7.067   5.538   2.783
10611TIP3    H131713   7.064   5.629   2.818
10611TIP3    H231714   7.162   5.519   2.793
10612TIP3   OH231715   8.323   6.032   3.682
10612TIP3    H131716   8.224   6.029   3.685
10612TIP3    H231717   8.338   6.003   3.591
10613TIP3   OH231718   7.972   6.228   3.067
10613TIP3    H131719   7.897   6.168   3.080
10613TIP3    H231720   8.045   6.182   3.115
10614TIP3   OH231721   6.682   6.461   2.539
10614TIP3    H131722   6.741   6.537   2.548
10614TIP3    H231723   6.731   6.410   2.471
10615TIP3   OH231724   6.630   5.733   2.670
10615TIP3    H131725   6.628   5.830   2.664
10615TIP3    H231726   6.544   5.709   2.635
10616TIP3   OH231727   7.939   7.180   3.019
10616TIP3    H131728   7.897   7.227   2.944
10616TIP3    H231729   8.033   7.200   2.998
10617TIP3   OH231730   7.017   5.453   3.546
10617TIP3    H131731   6.983   5.422   3.458
10617TIP3    H231732   7.004   5.373   3.601
10618TIP3   OH231733   6.558   6.670   2.933
10618TIP3    H131734   6.477   6.704   2.974
10618TIP3    H231735   6.548   6.706   2.842
10619TIP3   OH231736   6.707   7.208   4.001
10619TIP3    H131737   6.795   7.205   4.044
10619TIP3    H231738   6.687   7.113   3.995
10620TIP3   OH231739   7.193   7.179   4.042
10620TIP3    H131740   7.289   7.165   4.049
10620TIP3    H231741   7.171   7.122   3.966
10621TIP3   OH231742   7.175   6.754   2.171
10621TIP3    H131743   7.118   6.683   2.208
10621TIP3    H231744   7.250   6.701   2.138
10622TIP3   OH231745   7.832   7.083   3.773
10622TIP3    H131746   7.824   7.013   3.842
10622TIP3    H231747   7.910   7.134   3.803
10623TIP3   OH231748   7.611   6.794   2.079
10623TIP3    H131749   7.663   6.736   2.137
10623TIP3    H231750   7.668   6.800   1.999
10624TIP3   OH231751   6.842   6.617   4.198
10624TIP3    H131752   6.859   6.521   4.200
10624TIP3    H231753   6.754   6.619   4.154
10625TIP3   OH231754   6.817   6.271   2.387
10625TIP3    H131755   6.872   6.237   2.460
10625TIP3    H231756   6.886   6.276   2.317
10626TIP3   OH231757   7.451   6.700   3.970
10626TIP3    H131758   7.408   6.716   3.884
10626TIP3    H231759   7.480   6.607   3.963
10627TIP3   OH231760   7.323   6.466   2.195
10627TIP3    H131761   7.327   6.481   2.291
10627TIP3    H231762   7.320   6.368   2.191
10628TIP3   OH231763   7.943   6.706   3.577
10628TIP3    H131764   8.017   6.750   3.531
10628TIP3    H231765   7.872   6.772   3.565
10629TIP3   OH231766   6.960   6.350   4.177
10629TIP3    H131767   7.031   6.287   4.162
10629TIP3    H231768   6.982   6.383   4.267
10630TIP3   OH231769   7.030   6.171   2.615
10630TIP3    H131770   7.001   6.129   2.697
10630TIP3    H231771   7.063   6.095   2.563
10631TIP3   OH231772   7.297   6.237   3.843
10631TIP3    H131773   7.218   6.296   3.847
10631TIP3    H231774   7.341   6.269   3.761
10632TIP3   OH231775   7.125   5.961   2.455
10632TIP3    H131776   7.098   5.964   2.361
10632TIP3    H231777   7.222   5.972   2.447
10633TIP3   OH231778   7.812   6.639   3.977
10633TIP3    H131779   7.890   6.622   3.923
10633TIP3    H231780   7.814   6.566   4.041
10634TIP3   OH231781   7.954   6.298   2.111
10634TIP3    H131782   7.928   6.251   2.029
10634TIP3    H231783   7.922   6.388   2.089
10635TIP3   OH231784   7.422   6.023   3.967
10635TIP3    H131785   7.416   5.943   3.912
10635TIP3    H231786   7.377   6.090   3.910
10636TIP3   OH231787   7.422   5.807   3.773
10636TIP3    H131788   7.447   5.852   3.689
10636TIP3    H231789   7.329   5.785   3.756
10637TIP3   OH231790   7.455   6.348   3.645
10637TIP3    H131791   7.534   6.356   3.591
10637TIP3    H231792   7.397   6.416   3.605
10638TIP3   OH231793   8.044   6.315   4.041
10638TIP3    H131794   8.087   6.230   4.026
10638TIP3    H231795   8.103   6.375   3.993
10639TIP3   OH231796   8.074   6.566   3.768
10639TIP3    H131797   8.016   6.618   3.707
10639TIP3    H231798   8.161   6.587   3.727
10640TIP3   OH231799   7.299   6.140   4.196
10640TIP3    H131800   7.227   6.074   4.210
10640TIP3    H231801   7.330   6.115   4.107
10641TIP3   OH231802   7.559   5.580   3.845
10641TIP3    H131803   7.511   5.664   3.818
10641TIP3    H231804   7.488   5.515   3.827
10642TIP3   OH231805   7.680   6.081   4.057
10642TIP3    H131806   7.667   6.071   4.153
10642TIP3    H231807   7.590   6.057   4.026
10643TIP3   OH231808   7.921   6.032   3.913
10643TIP3    H131809   7.843   6.032   3.973
10643TIP3    H231810   7.992   5.998   3.972
10644TIP3   OH231811   8.149   5.969   4.069
10644TIP3    H131812   8.161   5.874   4.086
10644TIP3    H231813   8.147   6.007   4.160
10645TIP3   OH231814   7.136   5.922   4.245
10645TIP3    H131815   7.142   5.832   4.211
10645TIP3    H231816   7.172   5.909   4.336
10646TIP3   OH231817   7.647   5.580   4.099
10646TIP3    H131818   7.735   5.538   4.084
10646TIP3    H231819   7.615   5.591   4.007
10647TIP3   OH231820   7.716   5.804   4.245
10647TIP3    H131821   7.683   5.732   4.190
10647TIP3    H231822   7.638   5.867   4.247
10648TIP3   OH231823   6.932   7.025   2.355
10648TIP3    H131824   7.028   7.027   2.338
10648TIP3    H231825   6.901   7.074   2.276
10649TIP3   OH231826   6.414   6.409   2.576
10649TIP3    H131827   6.509   6.433   2.562
10649TIP3    H231828   6.410   6.321   2.533
10650TIP3   OH231829   6.326   7.022   2.985
10650TIP3    H131830   6.259   6.959   2.951
10650TIP3    H231831   6.371   6.967   3.053
10651TIP3   OH231832   6.463   6.880   3.172
10651TIP3    H131833   6.455   6.802   3.229
10651TIP3    H231834   6.515   6.938   3.230
10652TIP3   OH231835   8.188   7.278   2.972
10652TIP3    H131836   8.220   7.311   3.058
10652TIP3    H231837   8.249   7.320   2.910
10653TIP3   OH231838   8.220   7.297   3.256
10653TIP3    H131839   8.181   7.207   3.249
10653TIP3    H231840   8.301   7.276   3.304
10654TIP3   OH231841   8.270   6.971   3.830
10654TIP3    H131842   8.193   6.981   3.889
10654TIP3    H231843   8.308   7.061   3.830
10655TIP3   OH231844   8.083   6.486   2.448
10655TIP3    H131845   8.153   6.550   2.422
10655TIP3    H231846   8.125   6.445   2.527
10656TIP3   OH231847   8.210   6.352   2.650
10656TIP3    H131848   8.146   6.311   2.711
10656TIP3    H231849   8.276   6.392   2.711
10657TIP3   OH231850   8.255   6.737   3.078
10657TIP3    H131851   8.315   6.681   3.026
10657TIP3    H231852   8.250   6.819   3.024
10658TIP3   OH231853   8.098   7.043   3.281
10658TIP3    H131854   8.027   7.087   3.331
10658TIP3    H231855   8.049   6.995   3.212
10659TIP3   OH231856   8.150   6.258   2.300
10659TIP3    H131857   8.079   6.264   2.232
10659TIP3    H231858   8.124   6.335   2.355
10660TIP3   OH231859   8.022   5.932   2.255
10660TIP3    H131860   7.981   5.977   2.181
10660TIP3    H231861   7.993   5.839   2.241
10661TIP3   OH231862   8.026   6.207   2.800
10661TIP3    H131863   8.035   6.111   2.797
10661TIP3    H231864   8.014   6.224   2.896
10662TIP3   OH231865   6.654   6.282   3.544
10662TIP3    H131866   6.652   6.255   3.449
10662TIP3    H231867   6.751   6.283   3.561
10663TIP3   OH231868   8.313   6.634   3.655
10663TIP3    H131869   8.388   6.570   3.648
10663TIP3    H231870   8.340   6.704   3.594
10664TIP3   OH231871   8.493   6.439   3.683
10664TIP3    H131872   8.424   6.383   3.723
10664TIP3    H231873   8.572   6.381   3.693
10665TIP3   OH231874   7.965   5.666   2.241
10665TIP3    H131875   8.042   5.639   2.294
10665TIP3    H231876   7.893   5.608   2.272
10666TIP3   OH231877   8.021   5.922   2.697
10666TIP3    H131878   8.062   5.834   2.711
10666TIP3    H231879   8.080   5.958   2.628
10667TIP3   OH231880   8.186   6.101   3.190
10667TIP3    H131881   8.272   6.128   3.149
10667TIP3    H231882   8.199   6.138   3.279
10668TIP3   OH231883   8.251   6.241   3.425
10668TIP3    H131884   8.171   6.278   3.469
10668TIP3    H231885   8.284   6.320   3.376
10669TIP3   OH231886   6.868   5.970   4.224
10669TIP3    H131887   6.965   5.956   4.222
10669TIP3    H231888   6.837   5.895   4.277
10670TIP3   OH231889   8.705   5.830   3.980
10670TIP3    H131890   8.763   5.765   3.935
10670TIP3    H231891   8.676   5.887   3.906
10671TIP3   OH231892   8.132   5.672   2.731
10671TIP3    H131893   8.180   5.658   2.815
10671TIP3    H231894   8.071   5.596   2.732
10672TIP3   OH231895   6.832   5.660   3.549
10672TIP3    H131896   6.895   5.586   3.560
10672TIP3    H231897   6.892   5.736   3.546
10673TIP3   OH231898   6.636   5.935   3.624
10673TIP3    H131899   6.685   5.929   3.540
10673TIP3    H231900   6.664   6.022   3.656
10674TIP3   OH231901   8.576   5.974   3.790
10674TIP3    H131902   8.487   6.013   3.802
10674TIP3    H231903   8.554   5.905   3.725
10675TIP3   OH231904   8.214   5.612   2.362
10675TIP3    H131905   8.255   5.538   2.313
10675TIP3    H231906   8.281   5.682   2.355
10676TIP3   OH231907   6.617   5.440   3.125
10676TIP3    H131908   6.523   5.438   3.151
10676TIP3    H231909   6.616   5.498   3.047
10677TIP3   OH231910   7.778   7.136   2.631
10677TIP3    H131911   7.828   7.123   2.548
10677TIP3    H231912   7.826   7.209   2.673
10678TIP3   OH231913   6.822   5.504   3.944
10678TIP3    H131914   6.773   5.517   4.026
10678TIP3    H231915   6.766   5.551   3.881
10679TIP3   OH231916   6.876   6.946   4.019
10679TIP3    H131917   6.787   6.913   3.999
10679TIP3    H231918   6.885   6.925   4.113
10680TIP3   OH231919   7.053   6.974   3.565
10680TIP3    H131920   7.006   7.050   3.524
10680TIP3    H231921   7.140   6.988   3.521
10681TIP3   OH231922   7.502   7.222   3.703
10681TIP3    H131923   7.545   7.225   3.791
10681TIP3    H231924   7.568   7.272   3.649
10682TIP3   OH231925   7.681   7.370   3.559
10682TIP3    H131926   7.753   7.322   3.516
10682TIP3    H231927   7.732   7.428   3.620
10683TIP3   OH231928   8.473   5.737   3.662
10683TIP3    H131929   8.383   5.737   3.626
10683TIP3    H231930   8.500   5.643   3.648
10684TIP3   OH231931   6.732   7.234   3.587
10684TIP3    H131932   6.645   7.272   3.560
10684TIP3    H231933   6.735   7.260   3.679
10685TIP3   OH231934   6.969   7.210   3.444
10685TIP3    H131935   6.883   7.226   3.488
10685TIP3    H231936   6.951   7.245   3.354
10686TIP3   OH231937   7.394   7.243   3.243
10686TIP3    H131938   7.329   7.264   3.173
10686TIP3    H231939   7.408   7.332   3.282
10687TIP3   OH231940   7.662   7.182   3.293
10687TIP3    H131941   7.567   7.200   3.273
10687TIP3    H231942   7.704   7.259   3.251
10688TIP3   OH231943   7.872   7.376   3.211
10688TIP3    H131944   7.857   7.461   3.164
10688TIP3    H231945   7.897   7.316   3.137
10689TIP3   OH231946   6.643   7.028   3.334
10689TIP3    H131947   6.671   7.004   3.425
10689TIP3    H231948   6.714   6.985   3.283
10690TIP3   OH231949   6.834   6.899   3.187
10690TIP3    H131950   6.853   6.815   3.235
10690TIP3    H231951   6.923   6.939   3.181
10691TIP3   OH231952   7.098   6.995   3.190
10691TIP3    H131953   7.134   6.906   3.175
10691TIP3    H231954   7.141   7.018   3.274
10692TIP3   OH231955   7.681   5.653   3.281
10692TIP3    H131956   7.634   5.585   3.332
10692TIP3    H231957   7.748   5.601   3.232
10693TIP3   OH231958   8.206   5.530   3.187
10693TIP3    H131959   8.242   5.583   3.112
10693TIP3    H231960   8.110   5.548   3.180
10694TIP3   OH231961   8.298   5.632   2.949
10694TIP3    H131962   8.371   5.582   2.908
10694TIP3    H231963   8.330   5.724   2.935
10695TIP3   OH231964   6.928   5.360   3.299
10695TIP3    H131965   6.835   5.328   3.295
10695TIP3    H231966   6.977   5.275   3.294
10696TIP3   OH231967   6.711   5.229   2.941
10696TIP3    H131968   6.743   5.288   2.871
10696TIP3    H231969   6.682   5.292   3.009
10697TIP3   OH231970   7.370   5.392   3.176
10697TIP3    H131971   7.429   5.445   3.120
10697TIP3    H231972   7.383   5.433   3.262
10698TIP3   OH231973   7.924   5.537   3.161
10698TIP3    H131974   7.913   5.506   3.071
10698TIP3    H231975   7.906   5.456   3.214
10699TIP3   OH231976   7.947   5.459   2.721
10699TIP3    H131977   7.860   5.502   2.731
10699TIP3    H231978   7.932   5.375   2.771
10700TIP3   OH231979   6.430   6.797   2.729
10700TIP3    H131980   6.346   6.764   2.691
10700TIP3    H231981   6.419   6.892   2.713
10701TIP3   OH231982   6.828   5.390   2.708
10701TIP3    H131983   6.879   5.328   2.652
10701TIP3    H231984   6.900   5.445   2.745
10702TIP3   OH231985   7.344   5.562   2.807
10702TIP3    H131986   7.404   5.515   2.867
10702TIP3    H231987   7.366   5.655   2.831
10703TIP3   OH231988   7.202   6.993   2.306
10703TIP3    H131989   7.291   7.015   2.271
10703TIP3    H231990   7.181   6.917   2.247
10704TIP3   OH231991   7.921   7.106   2.397
10704TIP3    H131992   7.911   7.009   2.383
10704TIP3    H231993   7.876   7.141   2.317
10705TIP3   OH231994   7.136   5.655   4.186
10705TIP3    H131995   7.093   5.591   4.249
10705TIP3    H231996   7.226   5.633   4.203
10706TIP3   OH231997   7.384   5.627   4.294
10706TIP3    H131998   7.479   5.632   4.290
10706TIP3    H231999   7.371   5.571   4.377
10707TIP3   OH232000   6.506   6.825   2.365
10707TIP3    H132001   6.506   6.859   2.456
10707TIP3    H232002   6.597   6.787   2.356
10708TIP3   OH232003   8.207   5.698   4.094
10708TIP3    H132004   8.228   5.666   4.184
10708TIP3    H232005   8.295   5.694   4.050
10709TIP3   OH232006   8.146   7.251   3.592
10709TIP3    H132007   8.070   7.220   3.540
10709TIP3    H232008   8.131   7.348   3.587
10710TIP3   OH232009   9.421   6.613   2.342
10710TIP3    H132010   9.404   6.708   2.333
10710TIP3    H232011   9.334   6.576   2.322
10711TIP3   OH232012   9.372   6.623   2.740
10711TIP3    H132013   9.437   6.604   2.810
10711TIP3    H232014   9.369   6.540   2.691
10712TIP3   OH232015   8.716   6.522   3.097
10712TIP3    H132016   8.750   6.458   3.162
10712TIP3    H232017   8.787   6.587   3.095
10713TIP3   OH232018   8.675   6.925   2.821
10713TIP3    H132019   8.675   6.827   2.827
10713TIP3    H232020   8.770   6.943   2.831
10714TIP3   OH232021   8.391   6.131   2.613
10714TIP3    H132022   8.346   6.217   2.626
10714TIP3    H232023   8.318   6.078   2.577
10715TIP3   OH232024   8.450   6.418   2.775
10715TIP3    H132025   8.500   6.344   2.816
10715TIP3    H232026   8.513   6.451   2.710
10716TIP3   OH232027   9.294   7.374   2.442
10716TIP3    H132028   9.342   7.296   2.409
10716TIP3    H232029   9.288   7.354   2.536
10717TIP3   OH232030   9.211   6.849   2.777
10717TIP3    H132031   9.253   6.766   2.746
10717TIP3    H232032   9.292   6.898   2.800
10718TIP3   OH232033   9.632   6.373   2.816
10718TIP3    H132034   9.621   6.278   2.838
10718TIP3    H232035   9.612   6.369   2.720
10719TIP3   OH232036   8.958   6.009   2.783
10719TIP3    H132037   8.939   6.083   2.721
10719TIP3    H232038   8.910   5.937   2.736
10720TIP3   OH232039   9.645   6.096   2.421
10720TIP3    H132040   9.723   6.070   2.472
10720TIP3    H232041   9.685   6.153   2.354
10721TIP3   OH232042   8.594   6.212   2.887
10721TIP3    H132043   8.678   6.194   2.934
10721TIP3    H232044   8.608   6.157   2.807
10722TIP3   OH232045   9.038   6.410   2.673
10722TIP3    H132046   9.131   6.385   2.690
10722TIP3    H232047   9.000   6.324   2.645
10723TIP3   OH232048   8.958   5.993   3.215
10723TIP3    H132049   8.899   6.032   3.147
10723TIP3    H232050   8.907   6.014   3.296
10724TIP3   OH232051   9.315   6.852   2.221
10724TIP3    H132052   9.260   6.821   2.148
10724TIP3    H232053   9.271   6.936   2.243
10725TIP3   OH232054   9.050   6.771   3.020
10725TIP3    H132055   9.023   6.833   3.093
10725TIP3    H232056   9.094   6.832   2.959
10726TIP3   OH232057   8.828   6.108   3.001
10726TIP3    H132058   8.888   6.182   3.023
10726TIP3    H232059   8.876   6.068   2.925
10727TIP3   OH232060   8.291   6.650   2.344
10727TIP3    H132061   8.248   6.679   2.261
10727TIP3    H232062   8.320   6.736   2.383
10728TIP3   OH232063   9.315   5.716   2.927
10728TIP3    H132064   9.304   5.619   2.937
10728TIP3    H232065   9.235   5.749   2.974
10729TIP3   OH232066   9.432   7.215   2.251
10729TIP3    H132067   9.508   7.157   2.261
10729TIP3    H232068   9.472   7.303   2.240
10730TIP3   OH232069   9.237   6.466   2.175
10730TIP3    H132070   9.157   6.523   2.167
10730TIP3    H232071   9.279   6.481   2.089
10731TIP3   OH232072   9.203   6.261   1.898
10731TIP3    H132073   9.264   6.298   1.964
10731TIP3    H232074   9.259   6.192   1.858
10732TIP3   OH232075   8.825   6.556   2.571
10732TIP3    H132076   8.785   6.498   2.503
10732TIP3    H232077   8.903   6.504   2.600
10733TIP3   OH232078   8.956   6.970   2.716
10733TIP3    H132079   8.938   6.912   2.641
10733TIP3    H232080   9.046   6.940   2.742
10734TIP3   OH232081   8.966   6.526   2.925
10734TIP3    H132082   9.001   6.514   2.834
10734TIP3    H232083   9.000   6.615   2.949
10735TIP3   OH232084   9.456   7.167   2.693
10735TIP3    H132085   9.480   7.247   2.743
10735TIP3    H232086   9.470   7.096   2.758
10736TIP3   OH232087   9.450   6.418   1.988
10736TIP3    H132088   9.488   6.481   2.051
10736TIP3    H232089   9.465   6.462   1.903
10737TIP3   OH232090   8.852   6.629   3.348
10737TIP3    H132091   8.869   6.717   3.387
10737TIP3    H232092   8.754   6.629   3.354
10738TIP3   OH232093   9.171   7.096   2.251
10738TIP3    H132094   9.240   7.152   2.290
10738TIP3    H232095   9.106   7.162   2.221
10739TIP3   OH232096   8.693   6.396   2.373
10739TIP3    H132097   8.628   6.444   2.318
10739TIP3    H232098   8.645   6.314   2.392
10740TIP3   OH232099   8.455   6.777   3.289
10740TIP3    H132100   8.409   6.753   3.207
10740TIP3    H232101   8.510   6.699   3.309
10741TIP3   OH232102   8.326   6.973   2.921
10741TIP3    H132103   8.422   6.966   2.908
10741TIP3    H232104   8.320   7.053   2.975
10742TIP3   OH232105   9.296   7.209   3.112
10742TIP3    H132106   9.299   7.303   3.139
10742TIP3    H232107   9.217   7.178   3.158
10743TIP3   OH232108   9.055   7.349   2.054
10743TIP3    H132109   9.005   7.328   1.973
10743TIP3    H232110   9.020   7.436   2.080
10744TIP3   OH232111   8.494   7.192   2.440
10744TIP3    H132112   8.545   7.182   2.524
10744TIP3    H232113   8.428   7.122   2.453
10745TIP3   OH232114   9.267   7.241   1.712
10745TIP3    H132115   9.333   7.175   1.691
10745TIP3    H232116   9.291   7.263   1.805
10746TIP3   OH232117   9.303   7.283   1.979
10746TIP3    H132118   9.214   7.304   2.014
10746TIP3    H232119   9.341   7.238   2.057
10747TIP3   OH232120   9.078   5.788   3.054
10747TIP3    H132121   8.988   5.758   3.031
10747TIP3    H232122   9.055   5.873   3.095
10748TIP3   OH232123   9.604   5.904   3.255
10748TIP3    H132124   9.648   5.891   3.339
10748TIP3    H232125   9.510   5.886   3.280
10749TIP3   OH232126   9.230   5.840   2.028
10749TIP3    H132127   9.198   5.840   2.120
10749TIP3    H232128   9.186   5.759   1.996
10750TIP3   OH232129   9.007   6.303   3.074
10750TIP3    H132130   8.957   6.328   3.154
10750TIP3    H232131   8.994   6.384   3.019
10751TIP3   OH232132   8.893   6.187   2.589
10751TIP3    H132133   8.799   6.164   2.605
10751TIP3    H232134   8.906   6.147   2.500
10752TIP3   OH232135   9.376   6.269   2.308
10752TIP3    H132136   9.324   6.346   2.276
10752TIP3    H232137   9.438   6.255   2.235
10753TIP3   OH232138   9.562   6.556   3.403
10753TIP3    H132139   9.532   6.486   3.465
10753TIP3    H232140   9.655   6.566   3.427
10754TIP3   OH232141   9.520   6.301   2.573
10754TIP3    H132142   9.495   6.356   2.497
10754TIP3    H232143   9.558   6.224   2.526
10755TIP3   OH232144   8.829   6.333   3.284
10755TIP3    H132145   8.847   6.406   3.346
10755TIP3    H232146   8.818   6.256   3.342
10756TIP3   OH232147   8.878   5.809   1.993
10756TIP3    H132148   8.873   5.807   2.091
10756TIP3    H232149   8.798   5.860   1.971
10757TIP3   OH232150   8.420   5.856   2.864
10757TIP3    H132151   8.496   5.889   2.917
10757TIP3    H232152   8.461   5.825   2.782
10758TIP3   OH232153   8.399   5.838   2.384
10758TIP3    H132154   8.446   5.877   2.307
10758TIP3    H232155   8.338   5.911   2.406
10759TIP3   OH232156   9.533   6.560   2.979
10759TIP3    H132157   9.585   6.499   2.922
10759TIP3    H232158   9.516   6.503   3.056
10760TIP3   OH232159   9.214   6.005   2.651
10760TIP3    H132160   9.131   6.011   2.703
10760TIP3    H232161   9.279   6.030   2.718
10761TIP3   OH232162   8.653   6.066   2.661
10761TIP3    H132163   8.559   6.075   2.634
10761TIP3    H232164   8.676   5.975   2.635
10762TIP3   OH232165   8.925   6.063   2.346
10762TIP3    H132166   9.020   6.080   2.330
10762TIP3    H232167   8.881   6.090   2.263
10763TIP3   OH232168   9.612   6.107   2.855
10763TIP3    H132169   9.611   6.107   2.953
10763TIP3    H232170   9.572   6.020   2.832
10764TIP3   OH232171   8.760   6.095   2.126
10764TIP3    H132172   8.686   6.055   2.079
10764TIP3    H232173   8.812   6.131   2.051
10765TIP3   OH232174   8.844   6.847   3.522
10765TIP3    H132175   8.901   6.906   3.468
10765TIP3    H232176   8.781   6.909   3.559
10766TIP3   OH232177   9.298   6.321   2.742
10766TIP3    H132178   9.379   6.305   2.689
10766TIP3    H232179   9.326   6.297   2.832
10767TIP3   OH232180   8.829   5.830   2.621
10767TIP3    H132181   8.799   5.748   2.665
10767TIP3    H232182   8.886   5.797   2.551
10768TIP3   OH232183   9.280   6.228   3.052
10768TIP3    H132184   9.192   6.270   3.048
10768TIP3    H232185   9.335   6.298   3.093
10769TIP3   OH232186   9.017   6.626   2.136
10769TIP3    H132187   8.943   6.563   2.124
10769TIP3    H232188   8.998   6.662   2.226
10770TIP3   OH232189   9.473   5.957   1.976
10770TIP3    H132190   9.383   5.930   2.006
10770TIP3    H232191   9.488   6.042   2.023
10771TIP3   OH232192   9.424   6.945   3.137
10771TIP3    H132193   9.407   6.925   3.230
10771TIP3    H232194   9.381   7.032   3.128
10772TIP3   OH232195   9.568   6.191   2.083
10772TIP3    H132196   9.655   6.226   2.106
10772TIP3    H232197   9.529   6.267   2.035
10773TIP3   OH232198   8.703   6.641   2.811
10773TIP3    H132199   8.745   6.619   2.726
10773TIP3    H232200   8.750   6.583   2.873
10774TIP3   OH232201   9.156   6.774   1.953
10774TIP3    H132202   9.114   6.863   1.959
10774TIP3    H232203   9.101   6.723   2.015
10775TIP3   OH232204   8.586   6.571   3.423
10775TIP3    H132205   8.614   6.559   3.516
10775TIP3    H232206   8.517   6.503   3.413
10776TIP3   OH232207   9.312   6.676   3.449
10776TIP3    H132208   9.248   6.633   3.390
10776TIP3    H232209   9.397   6.650   3.408
10777TIP3   OH232210   9.584   7.205   3.029
10777TIP3    H132211   9.488   7.200   3.023
10777TIP3    H232212   9.596   7.262   3.107
10778TIP3   OH232213   8.805   6.947   2.423
10778TIP3    H132214   8.810   7.034   2.380
10778TIP3    H232215   8.712   6.942   2.446
10779TIP3   OH232216   8.370   6.258   2.133
10779TIP3    H132217   8.418   6.341   2.153
10779TIP3    H232218   8.294   6.264   2.194
10780TIP3   OH232219   8.952   6.720   2.378
10780TIP3    H132220   8.915   6.809   2.394
10780TIP3    H232221   8.918   6.671   2.454
10781TIP3   OH232222   9.077   7.302   2.900
10781TIP3    H132223   9.121   7.372   2.848
10781TIP3    H232224   9.152   7.263   2.946
10782TIP3   OH232225   8.730   7.192   2.286
10782TIP3    H132226   8.644   7.199   2.331
10782TIP3    H232227   8.762   7.285   2.290
10783TIP3   OH232228   9.467   6.934   2.863
10783TIP3    H132229   9.465   6.935   2.962
10783TIP3    H232230   9.542   6.876   2.846
10784TIP3   OH232231   8.803   6.074   3.435
10784TIP3    H132232   8.707   6.082   3.447
10784TIP3    H232233   8.828   6.011   3.504
10785TIP3   OH232234   8.514   7.163   3.071
10785TIP3    H132235   8.578   7.091   3.071
10785TIP3    H232236   8.565   7.230   3.118
10786TIP3   OH232237   8.810   6.803   1.741
10786TIP3    H132238   8.822   6.711   1.713
10786TIP3    H232239   8.793   6.792   1.837
10787TIP3   OH232240   8.757   6.808   2.014
10787TIP3    H132241   8.820   6.784   2.083
10787TIP3    H232242   8.759   6.907   2.019
10788TIP3   OH232243   8.491   6.505   2.218
10788TIP3    H132244   8.426   6.549   2.276
10788TIP3    H232245   8.505   6.575   2.152
10789TIP3   OH232246   9.665   6.142   3.134
10789TIP3    H132247   9.703   6.188   3.212
10789TIP3    H232248   9.624   6.065   3.177
10790TIP3   OH232249   9.484   5.913   2.274
10790TIP3    H132250   9.509   5.917   2.181
10790TIP3    H232251   9.549   5.973   2.316
10791TIP3   OH232252   9.018   7.008   1.962
10791TIP3    H132253   8.933   7.035   2.002
10791TIP3    H232254   9.034   7.081   1.901
10792TIP3   OH232255   9.203   6.069   2.377
10792TIP3    H132256   9.272   6.137   2.358
10792TIP3    H232257   9.210   6.062   2.475
10793TIP3   OH232258   9.474   6.387   3.188
10793TIP3    H132259   9.485   6.449   3.262
10793TIP3    H232260   9.541   6.319   3.207
10794TIP3   OH232261   9.352   5.802   2.486
10794TIP3    H132262   9.341   5.881   2.541
10794TIP3    H232263   9.406   5.839   2.411
10795TIP3   OH232264   8.759   7.081   2.030
10795TIP3    H132265   8.730   7.151   1.967
10795TIP3    H232266   8.743   7.125   2.116
10796TIP3   OH232267   8.864   5.795   2.269
10796TIP3    H132268   8.861   5.886   2.305
10796TIP3    H232269   8.959   5.776   2.280
10797TIP3   OH232270   8.478   6.717   2.026
10797TIP3    H132271   8.535   6.795   2.036
10797TIP3    H232272   8.528   6.668   1.958
10798TIP3   OH232273   8.427   5.989   2.156
10798TIP3    H132274   8.425   6.087   2.151
10798TIP3    H232275   8.340   5.966   2.121
10799TIP3   OH232276   8.813   5.709   3.034
10799TIP3    H132277   8.780   5.678   2.947
10799TIP3    H232278   8.801   5.630   3.090
10800TIP3   OH232279   8.352   6.923   2.418
10800TIP3    H132280   8.276   6.960   2.463
10800TIP3    H232281   8.341   6.963   2.329
10801TIP3   OH232282   8.504   7.462   3.486
10801TIP3    H132283   8.592   7.457   3.527
10801TIP3    H232284   8.485   7.367   3.477
10802TIP3   OH232285   8.997   7.435   3.530
10802TIP3    H132286   9.090   7.411   3.538
10802TIP3    H232287   8.972   7.387   3.450
10803TIP3   OH232288   8.971   7.010   1.660
10803TIP3    H132289   8.912   6.941   1.698
10803TIP3    H232290   9.042   6.953   1.625
10804TIP3   OH232291   9.627   7.343   3.267
10804TIP3    H132292   9.607   7.267   3.326
10804TIP3    H232293   9.712   7.372   3.300
10805TIP3   OH232294   8.622   6.878   3.700
10805TIP3    H132295   8.665   6.794   3.674
10805TIP3    H232296   8.541   6.876   3.645
10806TIP3   OH232297   8.614   6.527   1.873
10806TIP3    H132298   8.667   6.495   1.948
10806TIP3    H232299   8.684   6.533   1.804
10807TIP3   OH232300   9.260   6.957   3.452
10807TIP3    H132301   9.186   6.962   3.387
10807TIP3    H232302   9.278   6.861   3.450
10808TIP3   OH232303   9.121   6.724   1.680
10808TIP3    H132304   9.131   6.741   1.776
10808TIP3    H232305   9.111   6.627   1.681
10809TIP3   OH232306   8.753   6.579   3.674
10809TIP3    H132307   8.840   6.561   3.637
10809TIP3    H232308   8.776   6.635   3.751
10810TIP3   OH232309   8.826   6.427   2.101
10810TIP3    H132310   8.796   6.389   2.185
10810TIP3    H232311   8.858   6.348   2.052
10811TIP3   OH232312   9.094   6.493   3.329
10811TIP3    H132313   9.015   6.552   3.334
10811TIP3    H232314   9.137   6.527   3.248
10812TIP3   OH232315   8.921   6.216   1.940
10812TIP3    H132316   8.892   6.220   1.847
10812TIP3    H232317   9.017   6.233   1.931
10813TIP3   OH232318   9.610   6.898   3.476
10813TIP3    H132319   9.671   6.874   3.407
10813TIP3    H232320   9.605   6.819   3.532
10814TIP3   OH232321   9.219   6.281   3.453
10814TIP3    H132322   9.212   6.201   3.398
10814TIP3    H232323   9.174   6.348   3.397
10815TIP3   OH232324   9.217   6.061   3.261
10815TIP3    H132325   9.242   6.111   3.181
10815TIP3    H232326   9.122   6.042   3.243
10816TIP3   OH232327   9.251   6.606   3.129
10816TIP3    H132328   9.327   6.615   3.070
10816TIP3    H232329   9.192   6.677   3.094
10817TIP3   OH232330   9.837   6.575   3.513
10817TIP3    H132331   9.872   6.488   3.535
10817TIP3    H232332   9.919   6.625   3.498
10818TIP3   OH232333   9.096   6.394   3.686
10818TIP3    H132334   9.022   6.331   3.695
10818TIP3    H232335   9.127   6.377   3.596
10819TIP3   OH232336   9.351   5.831   3.320
10819TIP3    H132337   9.300   5.914   3.302
10819TIP3    H232338   9.280   5.764   3.311
10820TIP3   OH232339   9.479   6.337   3.541
10820TIP3    H132340   9.465   6.328   3.637
10820TIP3    H232341   9.388   6.315   3.510
10821TIP3   OH232342   9.711   6.256   3.390
10821TIP3    H132343   9.633   6.283   3.443
10821TIP3    H232344   9.779   6.247   3.460
10822TIP3   OH232345   9.923   6.207   3.570
10822TIP3    H132346   9.973   6.137   3.613
10822TIP3    H232347   9.922   6.275   3.642
10823TIP3   OH232348   8.929   6.178   3.734
10823TIP3    H132349   8.940   6.089   3.695
10823TIP3    H232350   8.965   6.164   3.824
10824TIP3   OH232351   9.448   5.843   3.577
10824TIP3    H132352   9.511   5.768   3.574
10824TIP3    H232353   9.404   5.834   3.491
10825TIP3   OH232354   9.512   6.057   3.741
10825TIP3    H132355   9.486   5.988   3.677
10825TIP3    H232356   9.436   6.119   3.738
10826TIP3   OH232357   8.728   7.281   1.842
10826TIP3    H132358   8.824   7.284   1.824
10826TIP3    H232359   8.696   7.329   1.764
10827TIP3   OH232360   8.210   6.666   2.062
10827TIP3    H132361   8.305   6.689   2.049
10827TIP3    H232362   8.207   6.577   2.020
10828TIP3   OH232363   8.125   7.278   2.470
10828TIP3    H132364   8.056   7.217   2.438
10828TIP3    H232365   8.167   7.223   2.540
10829TIP3   OH232366   8.262   7.135   2.658
10829TIP3    H132367   8.251   7.059   2.717
10829TIP3    H232368   8.313   7.195   2.716
10830TIP3   OH232369   8.451   6.536   3.032
10830TIP3    H132370   8.449   6.513   2.937
10830TIP3    H232371   8.548   6.539   3.048
10831TIP3   OH232372   8.661   6.223   3.703
10831TIP3    H132373   8.759   6.221   3.704
10831TIP3    H232374   8.641   6.140   3.750
10832TIP3   OH232375   8.627   5.916   3.039
10832TIP3    H132376   8.691   5.843   3.048
10832TIP3    H232377   8.687   5.993   3.033
10833TIP3   OH232378   8.433   6.191   3.113
10833TIP3    H132379   8.482   6.185   3.029
10833TIP3    H232380   8.457   6.281   3.141
10834TIP3   OH232381   8.412   5.695   2.611
10834TIP3    H132382   8.318   5.696   2.636
10834TIP3    H232383   8.413   5.754   2.533
10835TIP3   OH232384   8.633   5.773   3.427
10835TIP3    H132385   8.582   5.771   3.510
10835TIP3    H232386   8.568   5.814   3.367
10836TIP3   OH232387   8.662   7.210   3.526
10836TIP3    H132388   8.581   7.170   3.491
10836TIP3    H232389   8.667   7.175   3.615
10837TIP3   OH232390   8.818   7.232   3.023
10837TIP3    H132391   8.808   7.325   2.994
10837TIP3    H232392   8.914   7.222   3.014
10838TIP3   OH232393   9.298   7.476   3.196
10838TIP3    H132394   9.345   7.490   3.280
10838TIP3    H232395   9.357   7.524   3.133
10839TIP3   OH232396   9.463   7.619   3.037
10839TIP3    H132397   9.538   7.585   2.986
10839TIP3    H232398   9.508   7.673   3.105
10840TIP3   OH232399   8.527   7.493   3.068
10840TIP3    H132400   8.439   7.531   3.049
10840TIP3    H232401   8.535   7.510   3.162
10841TIP3   OH232402   8.766   7.483   2.930
10841TIP3    H132403   8.679   7.488   2.975
10841TIP3    H232404   8.743   7.509   2.839
10842TIP3   OH232405   9.195   7.499   2.719
10842TIP3    H132406   9.118   7.521   2.663
10842TIP3    H232407   9.206   7.583   2.770
10843TIP3   OH232408   9.460   7.437   2.779
10843TIP3    H132409   9.365   7.454   2.760
10843TIP3    H232410   9.502   7.517   2.743
10844TIP3   OH232411   8.440   7.284   2.821
10844TIP3    H132412   8.467   7.263   2.913
10844TIP3    H232413   8.513   7.240   2.772
10845TIP3   OH232414   8.632   7.155   2.673
10845TIP3    H132415   8.648   7.072   2.722
10845TIP3    H232416   8.722   7.194   2.671
10846TIP3   OH232417   8.896   7.251   2.678
10846TIP3    H132418   8.930   7.160   2.668
10846TIP3    H232419   8.935   7.273   2.765
10847TIP3   OH232420   9.480   5.876   2.762
10847TIP3    H132421   9.417   5.819   2.811
10847TIP3    H232422   9.502   5.819   2.687
10848TIP3   OH232423   8.725   5.617   2.786
10848TIP3    H132424   8.632   5.585   2.784
10848TIP3    H232425   8.774   5.532   2.781
10849TIP3   OH232426   8.507   5.484   2.428
10849TIP3    H132427   8.540   5.543   2.357
10849TIP3    H232428   8.479   5.548   2.496
10850TIP3   OH232429   9.162   5.649   2.662
10850TIP3    H132430   9.221   5.699   2.603
10850TIP3    H232431   9.181   5.691   2.747
10851TIP3   OH232432   8.228   7.053   2.213
10851TIP3    H132433   8.143   7.021   2.177
10851TIP3    H232434   8.216   7.148   2.202
10852TIP3   OH232435   8.625   5.645   2.197
10852TIP3    H132436   8.674   5.585   2.139
10852TIP3    H232437   8.696   5.701   2.233
10853TIP3   OH232438   9.142   5.818   2.293
10853TIP3    H132439   9.203   5.773   2.353
10853TIP3    H232440   9.161   5.911   2.318
10854TIP3   OH232441   8.999   7.251   1.791
10854TIP3    H132442   9.085   7.275   1.752
10854TIP3    H232443   8.976   7.175   1.732
10855TIP3   OH232444   8.931   5.895   3.673
10855TIP3    H132445   8.899   5.826   3.733
10855TIP3    H232446   9.026   5.899   3.700
10856TIP3   OH232447   9.179   5.894   3.794
10856TIP3    H132448   9.265   5.870   3.756
10856TIP3    H232449   9.168   5.824   3.861
10857TIP3   OH232450   8.302   7.082   1.852
10857TIP3    H132451   8.300   7.115   1.943
10857TIP3    H232452   8.393   7.045   1.845
10858TIP3   OH232453   0.377   7.450   4.605
10858TIP3    H132454   0.419   7.398   4.676
10858TIP3    H232455   0.387   7.541   4.635
10859TIP3   OH232456   0.878   6.703   4.982
10859TIP3    H132457   0.908   6.785   5.026
10859TIP3    H232458   0.898   6.724   4.889
10860TIP3   OH232459   0.359   6.881   5.008
10860TIP3    H132460   0.387   6.790   5.028
10860TIP3    H232461   0.327   6.868   4.917
10861TIP3   OH232462   0.307   6.630   4.613
10861TIP3    H132463   0.385   6.615   4.671
10861TIP3    H232464   0.351   6.663   4.533
10862TIP3   OH232465   0.957   6.908   5.150
10862TIP3    H132466   0.874   6.956   5.130
10862TIP3    H232467   0.964   6.926   5.245
10863TIP3   OH232468   0.529   6.629   4.774
10863TIP3    H132469   0.510   6.590   4.861
10863TIP3    H232470   0.582   6.707   4.798
10864TIP3   OH232471   0.678   6.598   5.149
10864TIP3    H132472   0.592   6.641   5.136
10864TIP3    H232473   0.731   6.633   5.074
10865TIP3   OH232474   0.243   7.530   4.345
10865TIP3    H132475   0.181   7.462   4.316
10865TIP3    H232476   0.286   7.489   4.422
10866TIP3   OH232477   0.626   7.619   5.135
10866TIP3    H132478   0.588   7.539   5.095
10866TIP3    H232479   0.604   7.686   5.067
10867TIP3   OH232480   0.825   7.238   4.972
10867TIP3    H132481   0.739   7.286   4.983
10867TIP3    H232482   0.846   7.266   4.880
10868TIP3   OH232483   0.262   7.093   4.348
10868TIP3    H132484   0.196   7.115   4.418
10868TIP3    H232485   0.337   7.058   4.401
10869TIP3   OH232486   0.504   7.154   5.243
10869TIP3    H132487   0.490   7.218   5.315
10869TIP3    H232488   0.413   7.139   5.213
10870TIP3   OH232489   0.155   6.910   4.169
10870TIP3    H132490   0.160   6.980   4.237
10870TIP3    H232491   0.119   6.960   4.095
10871TIP3   OH232492   0.606   6.190   4.231
10871TIP3    H132493   0.526   6.208   4.284
10871TIP3    H232494   0.616   6.274   4.183
10872TIP3   OH232495   0.402   7.558   3.775
10872TIP3    H132496   0.414   7.655   3.769
10872TIP3    H232497   0.495   7.527   3.768
10873TIP3   OH232498   0.862   7.948   5.172
10873TIP3    H132499   0.858   7.852   5.191
10873TIP3    H232500   0.769   7.974   5.191
10874TIP3   OH232501   0.743   7.093   5.441
10874TIP3    H132502   0.657   7.103   5.396
10874TIP3    H232503   0.750   6.996   5.445
10875TIP3   OH232504   0.277   6.425   5.448
10875TIP3    H132505   0.346   6.394   5.511
10875TIP3    H232506   0.197   6.418   5.501
10876TIP3   OH232507   0.543   6.886   5.353
10876TIP3    H132508   0.506   6.869   5.443
10876TIP3    H232509   0.475   6.948   5.320
10877TIP3   OH232510   0.155   7.022   3.907
10877TIP3    H132511   0.144   6.965   3.829
10877TIP3    H232512   0.250   7.043   3.903
10878TIP3   OH232513   0.211   6.842   4.766
10878TIP3    H132514   0.132   6.868   4.714
10878TIP3    H232515   0.232   6.757   4.722
10879TIP3   OH232516   0.375   6.608   5.029
10879TIP3    H132517   0.379   6.611   5.128
10879TIP3    H232518   0.302   6.544   5.017
10880TIP3   OH232519   0.599   7.380   4.967
10880TIP3    H132520   0.617   7.435   4.888
10880TIP3    H232521   0.501   7.381   4.971
10881TIP3   OH232522   0.092   6.478   4.188
10881TIP3    H132523   0.012   6.530   4.208
10881TIP3    H232524   0.160   6.548   4.209
10882TIP3   OH232525   0.237   6.680   4.280
10882TIP3    H132526   0.318   6.720   4.317
10882TIP3    H232527   0.190   6.762   4.249
10883TIP3   OH232528   0.649   6.803   4.133
10883TIP3    H132529   0.584   6.760   4.073
10883TIP3    H232530   0.640   6.894   4.097
10884TIP3   OH232531   0.871   7.665   5.221
10884TIP3    H132532   0.773   7.660   5.214
10884TIP3    H232533   0.894   7.633   5.130
10885TIP3   OH232534   0.345   7.630   4.045
10885TIP3    H132535   0.316   7.567   4.113
10885TIP3    H232536   0.357   7.574   3.966
10886TIP3   OH232537   0.339   7.261   4.865
10886TIP3    H132538   0.262   7.222   4.908
10886TIP3    H232539   0.383   7.181   4.829
10887TIP3   OH232540   0.434   7.835   3.768
10887TIP3    H132541   0.486   7.901   3.718
10887TIP3    H232542   0.347   7.876   3.762
10888TIP3   OH232543   0.252   7.290   4.150
10888TIP3    H132544   0.239   7.221   4.219
10888TIP3    H232545   0.350   7.288   4.145
10889TIP3   OH232546   0.390   6.636   5.294
10889TIP3    H132547   0.412   6.719   5.338
10889TIP3    H232548   0.356   6.581   5.367
10890TIP3   OH232549   0.186   6.417   4.462
10890TIP3    H132550   0.155   6.460   4.381
10890TIP3    H232551   0.204   6.494   4.519
10891TIP3   OH232552   0.795   6.809   5.365
10891TIP3    H132553   0.699   6.825   5.371
10891TIP3    H232554   0.800   6.776   5.274
10892TIP3   OH232555   0.428   7.021   4.754
10892TIP3    H132556   0.353   6.958   4.756
10892TIP3    H232557   0.498   6.973   4.803
10893TIP3   OH232558   0.439   7.892   4.684
10893TIP3    H132559   0.356   7.939   4.662
10893TIP3    H232560   0.497   7.966   4.702
10894TIP3   OH232561   0.408   7.088   3.799
10894TIP3    H132562   0.382   7.039   3.719
10894TIP3    H232563   0.380   7.178   3.773
10895TIP3   OH232564   0.507   7.098   5.689
10895TIP3    H132565   0.544   7.026   5.741
10895TIP3    H232566   0.566   7.171   5.711
10896TIP3   OH232567   0.529   7.351   5.438
10896TIP3    H132568   0.473   7.411   5.388
10896TIP3    H232569   0.618   7.371   5.400
10897TIP3   OH232570   0.419   6.830   5.578
10897TIP3    H132571   0.338   6.822   5.629
10897TIP3    H232572   0.488   6.807   5.645
10898TIP3   OH232573   0.595   6.749   5.762
10898TIP3    H132574   0.616   6.655   5.784
10898TIP3    H232575   0.592   6.794   5.849
10899TIP3   OH232576   0.702   8.185   4.668
10899TIP3    H132577   0.693   8.128   4.747
10899TIP3    H232578   0.705   8.125   4.593
10900TIP3   OH232579   0.671   8.070   4.921
10900TIP3    H132580   0.640   7.981   4.945
10900TIP3    H232581   0.739   8.083   4.988
10901TIP3   OH232582   0.715   7.767   5.504
10901TIP3    H132583   0.663   7.760   5.584
10901TIP3    H232584   0.762   7.852   5.515
10902TIP3   OH232585   0.538   7.272   4.134
10902TIP3    H132586   0.610   7.334   4.112
10902TIP3    H232587   0.574   7.230   4.215
10903TIP3   OH232588   0.664   7.141   4.340
10903TIP3    H132589   0.597   7.097   4.397
10903TIP3    H232590   0.724   7.181   4.406
10904TIP3   OH232591   0.704   7.532   4.765
10904TIP3    H132592   0.765   7.467   4.724
10904TIP3    H232593   0.714   7.610   4.707
10905TIP3   OH232594   0.536   7.820   4.965
10905TIP3    H132595   0.474   7.877   5.013
10905TIP3    H232596   0.496   7.816   4.876
10906TIP3   OH232597   0.606   7.037   3.990
10906TIP3    H132598   0.540   7.047   3.920
10906TIP3    H232599   0.587   7.117   4.042
10907TIP3   OH232600   0.484   6.718   3.936
10907TIP3    H132601   0.428   6.761   3.871
10907TIP3    H232602   0.450   6.626   3.932
10908TIP3   OH232603   0.487   6.992   4.490
10908TIP3    H132604   0.490   6.894   4.483
10908TIP3    H232605   0.473   7.005   4.586
10909TIP3   OH232606   0.771   7.423   5.344
10909TIP3    H132607   0.841   7.355   5.336
10909TIP3    H232608   0.800   7.490   5.279
10910TIP3   OH232609   0.958   7.232   5.367
10910TIP3    H132610   0.882   7.180   5.403
10910TIP3    H232611   1.029   7.166   5.380
10911TIP3   OH232612   0.416   6.456   3.936
10911TIP3    H132613   0.496   6.428   3.984
10911TIP3    H232614   0.349   6.392   3.964
10912TIP3   OH232615   0.487   6.718   4.399
10912TIP3    H132616   0.522   6.626   4.409
10912TIP3    H232617   0.536   6.745   4.319
10913TIP3   OH232618   0.639   6.888   4.874
10913TIP3    H132619   0.726   6.916   4.839
10913TIP3    H232620   0.646   6.923   4.965
10914TIP3   OH232621   0.709   7.025   5.108
10914TIP3    H132622   0.633   7.061   5.158
10914TIP3    H232623   0.744   7.105   5.064
10915TIP3   OH232624   1.157   6.617   5.671
10915TIP3    H132625   1.215   6.552   5.626
10915TIP3    H232626   1.130   6.675   5.596
10916TIP3   OH232627   0.587   6.461   4.420
10916TIP3    H132628   0.632   6.446   4.505
10916TIP3    H232629   0.524   6.386   4.419
10917TIP3   OH232630   1.037   6.763   5.479
10917TIP3    H132631   0.948   6.801   5.494
10917TIP3    H232632   1.012   6.693   5.416
10918TIP3   OH232633   0.666   6.400   4.051
10918TIP3    H132634   0.705   6.324   4.003
10918TIP3    H232635   0.735   6.468   4.042
10919TIP3   OH232636   0.929   6.524   5.351
10919TIP3    H132637   0.837   6.524   5.319
10919TIP3    H232638   0.954   6.430   5.338
10920TIP3   OH232639   0.173   6.416   4.993
10920TIP3    H132640   0.142   6.337   5.040
10920TIP3    H232641   0.244   6.379   4.936
10921TIP3   OH232642   0.659   6.318   4.879
10921TIP3    H132643   0.699   6.370   4.806
10921TIP3    H232644   0.565   6.341   4.869
10922TIP3   OH232645   0.751   6.422   4.641
10922TIP3    H132646   0.824   6.371   4.598
10922TIP3    H232647   0.783   6.514   4.625
10923TIP3   OH232648   0.374   6.310   4.843
10923TIP3    H132649   0.385   6.294   4.749
10923TIP3    H232650   0.361   6.220   4.877
10924TIP3   OH232651   0.402   6.249   4.408
10924TIP3    H132652   0.317   6.296   4.423
10924TIP3    H232653   0.386   6.165   4.455
10925TIP3   OH232654   0.373   7.899   4.073
10925TIP3    H132655   0.368   7.801   4.084
10925TIP3    H232656   0.330   7.907   3.987
10926TIP3   OH232657   0.661   6.484   5.786
10926TIP3    H132658   0.681   6.452   5.877
10926TIP3    H232659   0.749   6.479   5.743
10927TIP3   OH232660   0.606   8.033   5.212
10927TIP3    H132661   0.526   7.992   5.249
10927TIP3    H232662   0.610   8.111   5.270
10928TIP3   OH232663   1.860   7.407   4.041
10928TIP3    H132664   1.850   7.503   4.022
10928TIP3    H232665   1.767   7.383   4.043
10929TIP3   OH232666   1.867   7.409   4.422
10929TIP3    H132667   1.896   7.378   4.510
10929TIP3    H232668   1.822   7.329   4.389
10930TIP3   OH232669   1.166   7.308   4.786
10930TIP3    H132670   1.196   7.241   4.851
10930TIP3    H232671   1.241   7.369   4.787
10931TIP3   OH232672   2.105   7.707   4.104
10931TIP3    H132673   2.098   7.643   4.176
10931TIP3    H232674   2.135   7.787   4.151
10932TIP3   OH232675   1.135   7.714   4.518
10932TIP3    H132676   1.127   7.617   4.522
10932TIP3    H232677   1.232   7.724   4.512
10933TIP3   OH232678   0.846   6.925   4.301
10933TIP3    H132679   0.794   7.007   4.313
10933TIP3    H232680   0.774   6.864   4.274
10934TIP3   OH232681   0.905   7.210   4.471
10934TIP3    H132682   0.952   7.132   4.508
10934TIP3    H232683   0.960   7.231   4.394
10935TIP3   OH232684   1.751   8.174   4.117
10935TIP3    H132685   1.803   8.103   4.072
10935TIP3    H232686   1.748   8.143   4.208
10936TIP3   OH232687   1.666   7.636   4.471
10936TIP3    H132688   1.697   7.559   4.421
10936TIP3    H232689   1.750   7.681   4.487
10937TIP3   OH232690   2.090   7.141   4.509
10937TIP3    H132691   2.098   7.053   4.551
10937TIP3    H232692   2.052   7.117   4.422
10938TIP3   OH232693   1.409   6.797   4.471
10938TIP3    H132694   1.387   6.869   4.408
10938TIP3    H232695   1.364   6.722   4.427
10939TIP3   OH232696   2.089   6.908   4.077
10939TIP3    H132697   2.124   6.855   4.153
10939TIP3    H232698   2.171   6.923   4.026
10940TIP3   OH232699   1.049   7.002   4.575
10940TIP3    H132700   1.130   6.980   4.624
10940TIP3    H232701   1.058   6.943   4.498
10941TIP3   OH232702   1.492   7.199   4.363
10941TIP3    H132703   1.583   7.170   4.384
10941TIP3    H232704   1.450   7.114   4.336
10942TIP3   OH232705   1.411   6.783   4.904
10942TIP3    H132706   1.348   6.818   4.839
10942TIP3    H232707   1.362   6.798   4.987
10943TIP3   OH232708   1.759   7.630   3.914
10943TIP3    H132709   1.717   7.612   3.828
10943TIP3    H232710   1.719   7.717   3.936
10944TIP3   OH232711   1.518   7.556   4.703
10944TIP3    H132712   1.452   7.616   4.744
10944TIP3    H232713   1.552   7.611   4.630
10945TIP3   OH232714   1.280   6.897   4.690
10945TIP3    H132715   1.343   6.968   4.714
10945TIP3    H232716   1.329   6.854   4.616
10946TIP3   OH232717   1.343   7.746   4.796
10946TIP3    H132718   1.317   7.832   4.757
10946TIP3    H232719   1.265   7.731   4.855
10947TIP3   OH232720   0.745   7.437   4.034
10947TIP3    H132721   0.701   7.463   3.951
10947TIP3    H232722   0.773   7.523   4.071
10948TIP3   OH232723   2.182   7.953   4.273
10948TIP3    H132724   2.092   7.949   4.312
10948TIP3    H232725   2.177   8.038   4.225
10949TIP3   OH232726   2.479   6.891   4.616
10949TIP3    H132727   2.384   6.896   4.631
10949TIP3    H232728   2.482   6.844   4.531
10950TIP3   OH232729   1.754   6.499   4.609
10950TIP3    H132730   1.762   6.406   4.635
10950TIP3    H232731   1.681   6.530   4.667
10951TIP3   OH232732   1.890   8.002   3.955
10951TIP3    H132733   1.936   7.921   3.926
10951TIP3    H232734   1.947   8.069   3.910
10952TIP3   OH232735   2.025   7.787   3.851
10952TIP3    H132736   1.991   7.709   3.804
10952TIP3    H232737   2.056   7.748   3.935
10953TIP3   OH232738   2.398   7.869   4.616
10953TIP3    H132739   2.402   7.793   4.555
10953TIP3    H232740   2.391   7.945   4.554
10954TIP3   OH232741   2.601   7.450   4.432
10954TIP3    H132742   2.531   7.511   4.467
10954TIP3    H232743   2.636   7.508   4.360
10955TIP3   OH232744   2.028   7.314   3.837
10955TIP3    H132745   1.979   7.354   3.913
10955TIP3    H232746   2.117   7.303   3.879
10956TIP3   OH232747   2.281   7.383   4.760
10956TIP3    H132748   2.279   7.465   4.813
10956TIP3    H232749   2.196   7.388   4.712
10957TIP3   OH232750   1.276   7.341   4.261
10957TIP3    H132751   1.237   7.284   4.191
10957TIP3    H232752   1.355   7.290   4.289
10958TIP3   OH232753   1.405   7.753   4.413
10958TIP3    H132754   1.382   7.711   4.328
10958TIP3    H232755   1.496   7.720   4.427
10959TIP3   OH232756   1.420   7.313   4.616
10959TIP3    H132757   1.448   7.299   4.523
10959TIP3    H232758   1.456   7.401   4.637
10960TIP3   OH232759   1.942   7.954   4.396
10960TIP3    H132760   1.911   8.034   4.441
10960TIP3    H232761   1.924   7.881   4.458
10961TIP3   OH232762   1.549   7.872   4.936
10961TIP3    H132763   1.490   7.934   4.984
10961TIP3    H232764   1.481   7.819   4.889
10962TIP3   OH232765   1.302   7.434   5.034
10962TIP3    H132766   1.307   7.516   5.086
10962TIP3    H232767   1.208   7.411   5.046
10963TIP3   OH232768   1.627   7.886   3.952
10963TIP3    H132769   1.700   7.946   3.972
10963TIP3    H232770   1.564   7.944   3.906
10964TIP3   OH232771   1.348   8.042   5.026
10964TIP3    H132772   1.310   8.039   4.936
10964TIP3    H232773   1.269   8.020   5.082
10965TIP3   OH232774   2.402   6.446   3.716
10965TIP3    H132775   2.321   6.461   3.770
10965TIP3    H232776   2.410   6.532   3.670
10966TIP3   OH232777   1.151   7.177   4.058
10966TIP3    H132778   1.088   7.229   4.003
10966TIP3    H232779   1.090   7.114   4.098
10967TIP3   OH232780   2.198   7.814   3.267
10967TIP3    H132781   2.206   7.911   3.253
10967TIP3    H232782   2.291   7.786   3.255
10968TIP3   OH232783   0.927   7.569   4.974
10968TIP3    H132784   0.863   7.544   4.905
10968TIP3    H232785   0.962   7.483   5.003
10969TIP3   OH232786   0.784   7.763   4.617
10969TIP3    H132787   0.874   7.746   4.588
10969TIP3    H232788   0.797   7.842   4.672
10970TIP3   OH232789   2.645   8.210   4.662
10970TIP3    H132790   2.643   8.114   4.676
10970TIP3    H232791   2.562   8.237   4.706
10971TIP3   OH232792   1.760   7.997   4.817
10971TIP3    H132793   1.750   8.093   4.835
10971TIP3    H232794   1.680   7.961   4.861
10972TIP3   OH232795   1.508   8.129   3.748
10972TIP3    H132796   1.463   8.110   3.664
10972TIP3    H232797   1.477   8.219   3.769
10973TIP3   OH232798   0.945   7.981   4.129
10973TIP3    H132799   0.999   7.968   4.210
10973TIP3    H232800   0.883   7.907   4.136
10974TIP3   OH232801   1.711   8.031   3.389
10974TIP3    H132802   1.771   7.962   3.353
10974TIP3    H232803   1.744   8.039   3.481
10975TIP3   OH232804   1.760   8.078   3.661
10975TIP3    H132805   1.671   8.088   3.702
10975TIP3    H232806   1.809   8.036   3.733
10976TIP3   OH232807   2.531   7.349   4.932
10976TIP3    H132808   2.449   7.355   4.880
10976TIP3    H232809   2.552   7.254   4.922
10977TIP3   OH232810   1.131   7.752   4.965
10977TIP3    H132811   1.180   7.736   5.048
10977TIP3    H232812   1.057   7.688   4.973
10978TIP3   OH232813   1.525   6.577   4.747
10978TIP3    H132814   1.436   6.546   4.722
10978TIP3    H232815   1.501   6.660   4.793
10979TIP3   OH232816   2.062   6.698   4.937
10979TIP3    H132817   2.131   6.666   4.999
10979TIP3    H232818   1.979   6.673   4.982
10980TIP3   OH232819   2.310   7.122   4.860
10980TIP3    H132820   2.257   7.115   4.943
10980TIP3    H232821   2.282   7.209   4.825
10981TIP3   OH232822   1.957   7.231   3.434
10981TIP3    H132823   1.925   7.216   3.341
10981TIP3    H232824   2.027   7.297   3.411
10982TIP3   OH232825   1.683   6.630   3.715
10982TIP3    H132826   1.651   6.625   3.808
10982TIP3    H232827   1.643   6.548   3.680
10983TIP3   OH232828   1.461   7.091   4.766
10983TIP3    H132829   1.409   7.113   4.847
10983TIP3    H232830   1.444   7.171   4.712
10984TIP3   OH232831   1.344   6.977   4.277
10984TIP3    H132832   1.251   6.952   4.297
10984TIP3    H232833   1.354   6.936   4.189
10985TIP3   OH232834   2.009   7.347   5.096
10985TIP3    H132835   1.987   7.272   5.155
10985TIP3    H232836   2.103   7.359   5.116
10986TIP3   OH232837   1.996   7.103   4.252
10986TIP3    H132838   1.949   7.141   4.177
10986TIP3    H232839   2.031   7.020   4.212
10987TIP3   OH232840   1.279   7.122   4.974
10987TIP3    H132841   1.304   7.183   5.045
10987TIP3    H232842   1.267   7.038   5.024
10988TIP3   OH232843   1.335   6.606   3.683
10988TIP3    H132844   1.331   6.594   3.781
10988TIP3    H232845   1.242   6.624   3.663
10989TIP3   OH232846   0.873   6.647   4.551
10989TIP3    H132847   0.950   6.674   4.606
10989TIP3    H232848   0.912   6.606   4.473
10990TIP3   OH232849   0.852   6.626   4.067
10990TIP3    H132850   0.908   6.671   4.002
10990TIP3    H232851   0.789   6.697   4.093
10991TIP3   OH232852   2.002   7.343   4.667
10991TIP3    H132853   2.039   7.269   4.614
10991TIP3    H232854   1.975   7.293   4.747
10992TIP3   OH232855   1.665   6.816   4.345
10992TIP3    H132856   1.580   6.798   4.390
10992TIP3    H232857   1.726   6.803   4.419
10993TIP3   OH232858   1.108   6.854   4.346
10993TIP3    H132859   1.012   6.861   4.323
10993TIP3    H232860   1.128   6.761   4.329
10994TIP3   OH232861   1.382   6.857   4.028
10994TIP3    H132862   1.479   6.863   4.036
10994TIP3    H232863   1.366   6.897   3.942
10995TIP3   OH232864   2.331   8.564   4.758
10995TIP3    H132865   2.330   8.590   4.664
10995TIP3    H232866   2.408   8.614   4.791
10996TIP3   OH232867   1.292   7.676   5.184
10996TIP3    H132868   1.371   7.705   5.233
10996TIP3    H232869   1.227   7.673   5.257
10997TIP3   OH232870   1.759   7.131   4.443
10997TIP3    H132871   1.824   7.079   4.394
10997TIP3    H232872   1.760   7.089   4.531
10998TIP3   OH232873   1.282   6.616   4.309
10998TIP3    H132874   1.248   6.539   4.360
10998TIP3    H232875   1.348   6.574   4.252
10999TIP3   OH232876   1.733   7.031   4.716
10999TIP3    H132877   1.643   7.059   4.742
10999TIP3    H232878   1.791   7.078   4.778
11000TIP3   OH232879   1.471   7.414   3.825
11000TIP3    H132880   1.392   7.359   3.812
11000TIP3    H232881   1.458   7.447   3.916
11001TIP3   OH232882   2.379   7.646   4.455
11001TIP3    H132883   2.405   7.697   4.375
11001TIP3    H232884   2.292   7.610   4.429
11002TIP3   OH232885   1.930   6.751   3.695
11002TIP3    H132886   1.838   6.715   3.692
11002TIP3    H232887   1.930   6.814   3.622
11003TIP3   OH232888   1.898   7.752   4.826
11003TIP3    H132889   1.882   7.702   4.907
11003TIP3    H232890   1.828   7.821   4.829
11004TIP3   OH232891   1.163   7.439   4.502
11004TIP3    H132892   1.197   7.407   4.416
11004TIP3    H232893   1.193   7.370   4.563
11005TIP3   OH232894   1.620   7.568   3.653
11005TIP3    H132895   1.570   7.653   3.656
11005TIP3    H232896   1.563   7.511   3.709
11006TIP3   OH232897   1.041   7.361   5.113
11006TIP3    H132898   1.061   7.344   5.207
11006TIP3    H232899   0.974   7.293   5.094
11007TIP3   OH232900   1.765   7.473   5.129
11007TIP3    H132901   1.707   7.411   5.082
11007TIP3    H232902   1.853   7.438   5.105
11008TIP3   OH232903   2.443   7.062   3.621
11008TIP3    H132904   2.378   7.017   3.563
11008TIP3    H232905   2.438   7.151   3.580
11009TIP3   OH232906   2.653   7.917   4.708
11009TIP3    H132907   2.555   7.915   4.698
11009TIP3    H232908   2.680   7.891   4.616
11010TIP3   OH232909   2.139   7.883   3.531
11010TIP3    H132910   2.114   7.811   3.590
11010TIP3    H232911   2.151   7.839   3.445
11011TIP3   OH232912   2.132   7.513   4.378
11011TIP3    H132913   2.039   7.483   4.387
11011TIP3    H232914   2.170   7.438   4.330
11012TIP3   OH232915   1.262   7.738   4.124
11012TIP3    H132916   1.265   7.820   4.070
11012TIP3    H232917   1.166   7.726   4.130
11013TIP3   OH232918   1.410   7.508   4.074
11013TIP3    H132919   1.371   7.597   4.084
11013TIP3    H232920   1.365   7.460   4.145
11014TIP3   OH232921   1.528   8.086   4.593
11014TIP3    H132922   1.562   8.160   4.540
11014TIP3    H232923   1.608   8.059   4.641
11015TIP3   OH232924   1.185   7.978   3.980
11015TIP3    H132925   1.097   7.988   4.021
11015TIP3    H232926   1.216   8.071   3.979
11016TIP3   OH232927   1.938   7.726   4.557
11016TIP3    H132928   1.920   7.713   4.653
11016TIP3    H232929   1.994   7.651   4.534
11017TIP3   OH232930   1.893   7.604   3.432
11017TIP3    H132931   1.937   7.587   3.518
11017TIP3    H232932   1.799   7.587   3.454
11018TIP3   OH232933   2.158   8.247   4.597
11018TIP3    H132934   2.071   8.216   4.565
11018TIP3    H232935   2.169   8.324   4.537
11019TIP3   OH232936   2.233   8.088   3.255
11019TIP3    H132937   2.272   8.158   3.200
11019TIP3    H232938   2.153   8.135   3.286
11020TIP3   OH232939   1.255   6.864   5.121
11020TIP3    H132940   1.159   6.870   5.138
11020TIP3    H232941   1.283   6.803   5.191
11021TIP3   OH232942   2.050   7.545   3.657
11021TIP3    H132943   2.041   7.471   3.720
11021TIP3    H232944   2.146   7.546   3.641
11022TIP3   OH232945   0.964   7.944   4.757
11022TIP3    H132946   1.022   7.872   4.787
11022TIP3    H232947   0.993   8.017   4.813
11023TIP3   OH232948   1.196   7.597   3.728
11023TIP3    H132949   1.282   7.579   3.766
11023TIP3    H232950   1.203   7.692   3.707
11024TIP3   OH232951   0.959   7.301   3.912
11024TIP3    H132952   0.880   7.333   3.961
11024TIP3    H232953   0.962   7.366   3.840
11025TIP3   OH232954   2.080   6.946   4.806
11025TIP3    H132955   2.168   6.965   4.839
11025TIP3    H232956   2.065   6.855   4.840
11026TIP3   OH232957   1.949   6.699   3.967
11026TIP3    H132958   1.952   6.715   3.870
11026TIP3    H232959   2.009   6.770   3.999
11027TIP3   OH232960   1.473   7.795   3.662
11027TIP3    H132961   1.385   7.826   3.691
11027TIP3    H232962   1.485   7.849   3.582
11028TIP3   OH232963   1.657   6.865   4.072
11028TIP3    H132964   1.752   6.874   4.055
11028TIP3    H232965   1.657   6.851   4.170
11029TIP3   OH232966   1.930   7.183   4.874
11029TIP3    H132967   1.948   7.230   4.958
11029TIP3    H232968   1.983   7.102   4.884
11030TIP3   OH232969   1.802   6.591   4.172
11030TIP3    H132970   1.832   6.641   4.250
11030TIP3    H232971   1.864   6.626   4.104
11031TIP3   OH232972   1.214   7.871   3.717
11031TIP3    H132973   1.183   7.940   3.654
11031TIP3    H232974   1.197   7.915   3.803
11032TIP3   OH232975   1.315   6.582   3.958
11032TIP3    H132976   1.319   6.668   4.004
11032TIP3    H232977   1.409   6.554   3.968
11033TIP3   OH232978   2.574   7.083   4.828
11033TIP3    H132979   2.479   7.087   4.852
11033TIP3    H232980   2.571   7.008   4.766
11034TIP3   OH232981   2.224   7.266   4.251
11034TIP3    H132982   2.139   7.218   4.253
11034TIP3    H232983   2.272   7.217   4.319
11035TIP3   OH232984   0.927   7.508   3.714
11035TIP3    H132985   0.991   7.579   3.731
11035TIP3    H232986   0.976   7.459   3.645
11036TIP3   OH232987   0.876   6.811   3.829
11036TIP3    H132988   0.817   6.875   3.871
11036TIP3    H232989   0.815   6.739   3.807
11037TIP3   OH232990   2.189   8.224   4.196
11037TIP3    H132991   2.145   8.271   4.122
11037TIP3    H232992   2.283   8.246   4.175
11038TIP3   OH232993   1.261   6.497   4.725
11038TIP3    H132994   1.232   6.462   4.638
11038TIP3    H232995   1.254   6.418   4.782
11039TIP3   OH232996   0.807   7.719   4.112
11039TIP3    H132997   0.723   7.749   4.149
11039TIP3    H232998   0.799   7.751   4.020
11040TIP3   OH232999   0.955   8.247   5.178
11040TIP3    H133000   1.043   8.250   5.221
11040TIP3    H233001   0.941   8.152   5.170
11041TIP3   OH233002   1.444   8.227   5.216
11041TIP3    H133003   1.537   8.203   5.228
11041TIP3    H233004   1.419   8.168   5.142
11042TIP3   OH233005   1.427   7.786   3.364
11042TIP3    H133006   1.361   7.715   3.365
11042TIP3    H233007   1.493   7.745   3.306
11043TIP3   OH233008   1.861   7.841   3.257
11043TIP3    H133009   1.912   7.779   3.312
11043TIP3    H233010   1.914   7.845   3.175
11044TIP3   OH233011   1.094   7.661   5.377
11044TIP3    H133012   1.111   7.565   5.380
11044TIP3    H233013   1.007   7.663   5.330
11045TIP3   OH233014   1.065   7.295   3.581
11045TIP3    H133015   1.134   7.304   3.650
11045TIP3    H233016   1.123   7.303   3.502
11046TIP3   OH233017   1.701   7.748   5.143
11046TIP3    H133018   1.651   7.753   5.060
11046TIP3    H233019   1.733   7.655   5.143
11047TIP3   OH233020   1.595   7.515   3.375
11047TIP3    H133021   1.574   7.532   3.469
11047TIP3    H233022   1.563   7.424   3.365
11048TIP3   OH233023   2.184   7.798   4.778
11048TIP3    H133024   2.259   7.803   4.714
11048TIP3    H233025   2.112   7.767   4.721
11049TIP3   OH233026   1.211   7.395   5.353
11049TIP3    H133027   1.281   7.330   5.340
11049TIP3    H233028   1.232   7.428   5.443
11050TIP3   OH233029   1.264   7.210   3.787
11050TIP3    H133030   1.251   7.183   3.879
11050TIP3    H233031   1.310   7.134   3.746
11051TIP3   OH233032   1.544   7.282   5.018
11051TIP3    H133033   1.466   7.341   5.024
11051TIP3    H233034   1.589   7.315   4.938
11052TIP3   OH233035   1.365   7.004   3.631
11052TIP3    H133036   1.335   6.991   3.538
11052TIP3    H233037   1.455   7.034   3.612
11053TIP3   OH233038   2.068   7.684   5.134
11053TIP3    H133039   2.159   7.661   5.115
11053TIP3    H233040   2.050   7.627   5.210
11054TIP3   OH233041   2.199   7.341   3.292
11054TIP3    H133042   2.179   7.295   3.208
11054TIP3    H233043   2.170   7.431   3.267
11055TIP3   OH233044   1.667   7.067   5.147
11055TIP3    H133045   1.667   6.986   5.092
11055TIP3    H233046   1.623   7.131   5.087
11056TIP3   OH233047   1.669   6.859   4.949
11056TIP3    H133048   1.697   6.889   4.861
11056TIP3    H233049   1.575   6.833   4.933
11057TIP3   OH233050   1.704   7.400   4.826
11057TIP3    H133051   1.778   7.389   4.765
11057TIP3    H233052   1.644   7.460   4.778
11058TIP3   OH233053   2.283   7.360   5.207
11058TIP3    H133054   2.326   7.274   5.219
11058TIP3    H233055   2.356   7.414   5.175
11059TIP3   OH233056   2.324   7.608   4.939
11059TIP3    H133057   2.268   7.670   4.889
11059TIP3    H233058   2.413   7.626   4.899
11060TIP3   OH233059   1.541   7.188   5.369
11060TIP3    H133060   1.474   7.119   5.386
11060TIP3    H233061   1.579   7.158   5.285
11061TIP3   OH233062   1.803   6.623   5.015
11061TIP3    H133063   1.752   6.704   4.994
11061TIP3    H233064   1.736   6.553   5.003
11062TIP3   OH233065   1.927   7.129   5.233
11062TIP3    H133066   1.921   7.115   5.329
11062TIP3    H233067   1.837   7.100   5.207
11063TIP3   OH233068   2.171   7.078   5.088
11063TIP3    H133069   2.094   7.072   5.148
11063TIP3    H233070   2.243   7.042   5.145
11064TIP3   OH233071   2.399   7.013   5.239
11064TIP3    H133072   2.411   6.917   5.258
11064TIP3    H233073   2.394   7.053   5.328
11065TIP3   OH233074   1.386   6.966   5.423
11065TIP3    H133075   1.393   6.875   5.387
11065TIP3    H233076   1.420   6.952   5.514
11066TIP3   OH233077   1.897   6.630   5.273
11066TIP3    H133078   1.967   6.561   5.269
11066TIP3    H233079   1.859   6.621   5.183
11067TIP3   OH233080   1.963   6.844   5.433
11067TIP3    H133081   1.941   6.773   5.369
11067TIP3    H233082   1.885   6.903   5.425
11068TIP3   OH233083   1.181   8.073   3.533
11068TIP3    H133084   1.276   8.073   3.513
11068TIP3    H233085   1.148   8.118   3.453
11069TIP3   OH233086   0.661   7.457   3.754
11069TIP3    H133087   0.756   7.481   3.739
11069TIP3    H233088   0.659   7.368   3.712
11070TIP3   OH233089   0.583   8.063   4.153
11070TIP3    H133090   0.511   8.004   4.122
11070TIP3    H233091   0.620   8.011   4.228
11071TIP3   OH233092   0.704   7.922   4.350
11071TIP3    H133093   0.702   7.843   4.406
11071TIP3    H233094   0.771   7.976   4.397
11072TIP3   OH233095   2.439   8.319   4.151
11072TIP3    H133096   2.468   8.364   4.232
11072TIP3    H233097   2.492   8.363   4.084
11073TIP3   OH233098   2.465   8.341   4.436
11073TIP3    H133099   2.436   8.249   4.423
11073TIP3    H233100   2.549   8.327   4.482
11074TIP3   OH233101   2.504   8.020   5.000
11074TIP3    H133102   2.444   8.026   5.076
11074TIP3    H233103   2.553   8.105   5.005
11075TIP3   OH233104   2.330   7.530   3.626
11075TIP3    H133105   2.398   7.595   3.597
11075TIP3    H233106   2.375   7.491   3.704
11076TIP3   OH233107   2.459   7.398   3.827
11076TIP3    H133108   2.395   7.355   3.887
11076TIP3    H233109   2.525   7.436   3.888
11077TIP3   OH233110   2.508   7.784   4.259
11077TIP3    H133111   2.565   7.726   4.206
11077TIP3    H233112   2.503   7.864   4.203
11078TIP3   OH233113   2.347   8.086   4.457
11078TIP3    H133114   2.275   8.138   4.497
11078TIP3    H233115   2.301   8.041   4.383
11079TIP3   OH233116   2.399   7.305   3.476
11079TIP3    H133117   2.328   7.308   3.407
11079TIP3    H233118   2.371   7.382   3.530
11080TIP3   OH233119   2.262   6.982   3.435
11080TIP3    H133120   2.234   7.018   3.351
11080TIP3    H233121   2.239   6.887   3.424
11081TIP3   OH233122   2.271   7.252   3.975
11081TIP3    H133123   2.279   7.155   3.964
11081TIP3    H233124   2.263   7.260   4.072
11082TIP3   OH233125   0.901   7.335   4.720
11082TIP3    H133126   0.899   7.302   4.627
11082TIP3    H233127   0.998   7.331   4.737
11083TIP3   OH233128   2.563   7.678   4.828
11083TIP3    H133129   2.636   7.611   4.825
11083TIP3    H233130   2.599   7.750   4.774
11084TIP3   OH233131   2.748   7.485   4.851
11084TIP3    H133132   2.676   7.432   4.892
11084TIP3    H233133   2.823   7.424   4.865
11085TIP3   OH233134   2.210   6.716   3.427
11085TIP3    H133135   2.291   6.683   3.471
11085TIP3    H233136   2.145   6.647   3.446
11086TIP3   OH233137   2.283   6.971   3.885
11086TIP3    H133138   2.316   6.878   3.892
11086TIP3    H233139   2.321   6.996   3.800
11087TIP3   OH233140   1.119   7.016   5.397
11087TIP3    H133141   1.217   7.007   5.398
11087TIP3    H233142   1.093   6.933   5.440
11088TIP3   OH233143   2.950   6.874   5.156
11088TIP3    H133144   3.010   6.807   5.116
11088TIP3    H233145   2.931   6.932   5.079
11089TIP3   OH233146   2.378   6.714   3.909
11089TIP3    H133147   2.425   6.700   3.994
11089TIP3    H233148   2.318   6.636   3.910
11090TIP3   OH233149   1.079   6.705   4.725
11090TIP3    H133150   1.140   6.630   4.738
11090TIP3    H233151   1.142   6.779   4.724
11091TIP3   OH233152   0.886   6.980   4.802
11091TIP3    H133153   0.934   6.972   4.717
11091TIP3    H233154   0.917   7.065   4.834
11092TIP3   OH233155   2.830   7.024   4.960
11092TIP3    H133156   2.743   7.058   4.987
11092TIP3    H233157   2.803   6.950   4.902
11093TIP3   OH233158   2.463   6.658   3.536
11093TIP3    H133159   2.501   6.580   3.490
11093TIP3    H233160   2.534   6.724   3.527
11094TIP3   OH233161   0.865   6.489   4.303
11094TIP3    H133162   0.771   6.483   4.328
11094TIP3    H233163   0.861   6.544   4.222
11095TIP3   OH233164   2.027   8.181   3.809
11095TIP3    H133165   2.074   8.167   3.725
11095TIP3    H233166   2.076   8.255   3.848
11096TIP3   OH233167   1.085   6.565   5.117
11096TIP3    H133168   1.036   6.558   5.201
11096TIP3    H233169   1.016   6.601   5.058
11097TIP3   OH233170   1.132   7.988   5.197
11097TIP3    H133171   1.041   7.959   5.176
11097TIP3    H233172   1.137   7.969   5.291
11098TIP3   OH233173   1.301   8.017   4.741
11098TIP3    H133174   1.252   8.093   4.703
11098TIP3    H233175   1.386   8.033   4.696
11099TIP3   OH233176   1.749   8.266   4.877
11099TIP3    H133177   1.788   8.272   4.968
11099TIP3    H233178   1.814   8.320   4.826
11100TIP3   OH233179   1.933   8.412   4.740
11100TIP3    H133180   2.004   8.379   4.683
11100TIP3    H233181   1.983   8.473   4.799
11101TIP3   OH233182   2.721   6.775   4.838
11101TIP3    H133183   2.629   6.754   4.813
11101TIP3    H233184   2.760   6.685   4.829
11102TIP3   OH233185   0.983   8.274   4.765
11102TIP3    H133186   0.897   8.299   4.727
11102TIP3    H233187   0.976   8.317   4.851
11103TIP3   OH233188   1.218   8.255   4.619
11103TIP3    H133189   1.134   8.271   4.667
11103TIP3    H233190   1.198   8.292   4.531
11104TIP3   OH233191   1.646   8.286   4.418
11104TIP3    H133192   1.576   8.306   4.352
11104TIP3    H233193   1.657   8.375   4.459
11105TIP3   OH233194   1.912   8.228   4.472
11105TIP3    H133195   1.817   8.246   4.454
11105TIP3    H233196   1.954   8.303   4.426
11106TIP3   OH233197   2.121   8.419   4.390
11106TIP3    H133198   2.106   8.505   4.344
11106TIP3    H233199   2.146   8.362   4.315
11107TIP3   OH233200   0.895   8.056   4.495
11107TIP3    H133201   0.922   8.050   4.588
11107TIP3    H233202   0.973   8.016   4.450
11108TIP3   OH233203   1.094   7.935   4.353
11108TIP3    H133204   1.112   7.854   4.406
11108TIP3    H233205   1.182   7.977   4.349
11109TIP3   OH233206   1.352   8.042   4.364
11109TIP3    H133207   1.386   7.951   4.351
11109TIP3    H233208   1.389   8.062   4.452
11110TIP3   OH233209   2.443   6.582   4.361
11110TIP3    H133210   2.482   6.629   4.284
11110TIP3    H233211   2.353   6.622   4.360
11111TIP3   OH233212   2.549   6.684   4.124
11111TIP3    H133213   2.619   6.626   4.088
11111TIP3    H233214   2.585   6.773   4.107
11112TIP3   OH233215   1.177   6.407   4.473
11112TIP3    H133216   1.086   6.372   4.474
11112TIP3    H233217   1.228   6.322   4.471
11113TIP3   OH233218   0.959   6.272   4.120
11113TIP3    H133219   0.990   6.332   4.049
11113TIP3    H233220   0.931   6.335   4.188
11114TIP3   OH233221   1.610   6.451   4.356
11114TIP3    H133222   1.678   6.487   4.298
11114TIP3    H233223   1.647   6.471   4.444
11115TIP3   OH233224   2.196   6.500   3.896
11115TIP3    H133225   2.106   6.532   3.911
11115TIP3    H233226   2.194   6.419   3.952
11116TIP3   OH233227   0.680   7.840   3.905
11116TIP3    H133228   0.595   7.809   3.869
11116TIP3    H233229   0.670   7.936   3.892
11117TIP3   OH233230   1.078   6.440   3.880
11117TIP3    H133231   1.124   6.369   3.831
11117TIP3    H233232   1.154   6.485   3.923
11118TIP3   OH233233   1.593   6.612   3.982
11118TIP3    H133234   1.652   6.560   4.040
11118TIP3    H233235   1.616   6.702   4.012
11119TIP3   OH233236   1.450   8.039   3.480
11119TIP3    H133237   1.539   8.059   3.445
11119TIP3    H233238   1.429   7.961   3.425
11120TIP3   OH233239   2.167   8.151   3.575
11120TIP3    H133240   2.160   8.053   3.560
11120TIP3    H233241   2.125   8.185   3.494
11121TIP3   OH233242   1.385   6.687   5.364
11121TIP3    H133243   1.351   6.616   5.421
11121TIP3    H233244   1.479   6.687   5.390
11122TIP3   OH233245   1.633   6.683   5.483
11122TIP3    H133246   1.717   6.657   5.442
11122TIP3    H233247   1.622   6.612   5.550
11123TIP3   OH233248   0.754   7.866   3.543
11123TIP3    H133249   0.761   7.902   3.632
11123TIP3    H233250   0.844   7.828   3.528
11124TIP3   OH233251   2.456   6.743   5.272
11124TIP3    H133252   2.476   6.709   5.362
11124TIP3    H233253   2.544   6.737   5.229
11125TIP3   OH233254   2.396   8.296   4.760
11125TIP3    H133255   2.318   8.271   4.707
11125TIP3    H233256   2.386   8.393   4.763
11126TIP3   OH233257   3.661   7.664   3.534
11126TIP3    H133258   3.638   7.758   3.517
11126TIP3    H233259   3.581   7.621   3.501
11127TIP3   OH233260   3.654   7.667   3.909
11127TIP3    H133261   3.690   7.639   3.995
11127TIP3    H233262   3.621   7.583   3.873
11128TIP3   OH233263   2.962   7.568   4.279
11128TIP3    H133264   2.996   7.501   4.341
11128TIP3    H233265   3.040   7.625   4.268
11129TIP3   OH233266   3.900   7.967   3.591
11129TIP3    H133267   3.896   7.899   3.660
11129TIP3    H233268   3.931   8.044   3.642
11130TIP3   OH233269   2.930   7.969   4.004
11130TIP3    H133270   2.924   7.872   4.009
11130TIP3    H233271   3.026   7.982   3.998
11131TIP3   OH233272   2.641   7.180   3.788
11131TIP3    H133273   2.590   7.261   3.800
11131TIP3    H233274   2.571   7.120   3.757
11132TIP3   OH233275   2.696   7.464   3.956
11132TIP3    H133276   2.745   7.390   3.998
11132TIP3    H233277   2.760   7.495   3.891
11133TIP3   OH233278   3.547   8.429   3.605
11133TIP3    H133279   3.598   8.359   3.560
11133TIP3    H233280   3.551   8.400   3.697
11134TIP3   OH233281   3.462   7.891   3.956
11134TIP3    H133282   3.504   7.814   3.912
11134TIP3    H233283   3.544   7.938   3.981
11135TIP3   OH233284   4.469   7.215   3.954
11135TIP3    H133285   4.499   7.296   4.001
11135TIP3    H233286   4.493   7.237   3.863
11136TIP3   OH233287   3.869   7.397   3.994
11136TIP3    H133288   3.915   7.313   4.015
11136TIP3    H233289   3.844   7.380   3.902
11137TIP3   OH233290   3.202   7.055   3.959
11137TIP3    H133291   3.183   7.128   3.899
11137TIP3    H233292   3.161   6.979   3.912
11138TIP3   OH233293   3.902   7.145   3.581
11138TIP3    H133294   3.974   7.128   3.646
11138TIP3    H233295   3.954   7.181   3.507
11139TIP3   OH233296   2.840   7.265   4.067
11139TIP3    H133297   2.919   7.240   4.118
11139TIP3    H233298   2.844   7.200   3.995
11140TIP3   OH233299   3.287   7.457   3.851
11140TIP3    H133300   3.381   7.433   3.867
11140TIP3    H233301   3.250   7.370   3.825
11141TIP3   OH233302   4.544   7.418   4.127
11141TIP3    H133303   4.463   7.469   4.108
11141TIP3    H233304   4.562   7.448   4.218
11142TIP3   OH233305   3.208   7.038   4.388
11142TIP3    H133306   3.145   7.075   4.323
11142TIP3    H233307   3.157   7.049   4.471
11143TIP3   OH233308   3.547   7.882   3.403
11143TIP3    H133309   3.522   7.874   3.310
11143TIP3    H233310   3.516   7.973   3.424
11144TIP3   OH233311   3.311   7.811   4.189
11144TIP3    H133312   3.248   7.877   4.228
11144TIP3    H233313   3.356   7.865   4.122
11145TIP3   OH233314   4.116   7.145   3.749
11145TIP3    H133315   4.114   7.093   3.830
11145TIP3    H233316   4.173   7.220   3.774
11146TIP3   OH233317   3.073   7.154   4.177
11146TIP3    H133318   3.136   7.225   4.201
11146TIP3    H233319   3.124   7.111   4.104
11147TIP3   OH233320   3.137   8.004   4.283
11147TIP3    H133321   3.115   8.090   4.243
11147TIP3    H233322   3.059   7.992   4.341
11148TIP3   OH233323   2.540   7.693   3.520
11148TIP3    H133324   2.497   7.720   3.437
11148TIP3    H233325   2.567   7.780   3.558
11149TIP3   OH233326   3.974   8.208   3.759
11149TIP3    H133327   3.884   8.202   3.798
11149TIP3    H233328   3.969   8.295   3.715
11150TIP3   OH233329   4.264   7.115   4.121
11150TIP3    H133330   4.178   7.149   4.093
11150TIP3    H233331   4.324   7.146   4.050
11151TIP3   OH233332   3.565   6.758   4.101
11151TIP3    H133333   3.558   6.663   4.123
11151TIP3    H233334   3.487   6.793   4.149
11152TIP3   OH233335   3.680   8.259   3.436
11152TIP3    H133336   3.731   8.177   3.413
11152TIP3    H233337   3.740   8.326   3.395
11153TIP3   OH233338   3.817   8.042   3.339
11153TIP3    H133339   3.794   7.962   3.291
11153TIP3    H233340   3.853   8.007   3.424
11154TIP3   OH233341   4.193   8.129   4.102
11154TIP3    H133342   4.191   8.051   4.043
11154TIP3    H233343   4.187   8.203   4.039
11155TIP3   OH233344   3.489   7.513   3.357
11155TIP3    H133345   3.418   7.574   3.329
11155TIP3    H233346   3.543   7.508   3.276
11156TIP3   OH233347   3.458   7.298   3.101
11156TIP3    H133348   3.533   7.351   3.132
11156TIP3    H233349   3.504   7.234   3.044
11157TIP3   OH233350   4.396   7.755   3.944
11157TIP3    H133351   4.316   7.812   3.953
11157TIP3    H233352   4.428   7.785   3.856
11158TIP3   OH233353   3.840   7.600   3.335
11158TIP3    H133354   3.788   7.626   3.414
11158TIP3    H233355   3.925   7.574   3.377
11159TIP3   OH233356   4.076   7.643   4.241
11159TIP3    H133357   4.078   7.726   4.292
11159TIP3    H233358   3.991   7.652   4.194
11160TIP3   OH233359   3.072   7.597   3.750
11160TIP3    H133360   3.040   7.538   3.681
11160TIP3    H233361   3.153   7.551   3.782
11161TIP3   OH233362   3.200   8.006   3.901
11161TIP3    H133363   3.186   7.964   3.816
11161TIP3    H233364   3.293   7.980   3.920
11162TIP3   OH233365   3.208   7.573   4.100
11162TIP3    H133366   3.248   7.556   4.013
11162TIP3    H233367   3.252   7.657   4.127
11163TIP3   OH233368   3.732   8.208   3.879
11163TIP3    H133369   3.721   8.289   3.932
11163TIP3    H233370   3.721   8.137   3.944
11164TIP3   OH233371   3.346   8.128   4.427
11164TIP3    H133372   3.288   8.191   4.474
11164TIP3    H233373   3.279   8.075   4.379
11165TIP3   OH233374   3.682   7.461   3.159
11165TIP3    H133375   3.742   7.519   3.211
11165TIP3    H233376   3.709   7.486   3.066
11166TIP3   OH233377   3.099   7.688   4.525
11166TIP3    H133378   3.105   7.773   4.573
11166TIP3    H233379   3.003   7.671   4.530
11167TIP3   OH233380   3.419   8.144   3.436
11167TIP3    H133381   3.499   8.196   3.458
11167TIP3    H233382   3.362   8.211   3.396
11168TIP3   OH233383   3.142   8.298   4.511
11168TIP3    H133384   3.106   8.296   4.420
11168TIP3    H233385   3.063   8.276   4.566
11169TIP3   OH233386   4.198   6.703   3.204
11169TIP3    H133387   4.117   6.721   3.257
11169TIP3    H233388   4.209   6.787   3.156
11170TIP3   OH233389   2.958   7.411   3.515
11170TIP3    H133390   2.896   7.479   3.481
11170TIP3    H233391   2.899   7.366   3.577
11171TIP3   OH233392   3.995   8.070   2.754
11171TIP3    H133393   4.003   8.167   2.740
11171TIP3    H233394   4.087   8.041   2.742
11172TIP3   OH233395   2.718   7.827   4.463
11172TIP3    H133396   2.662   7.804   4.386
11172TIP3    H233397   2.759   7.741   4.488
11173TIP3   OH233398   2.575   8.015   4.103
11173TIP3    H133399   2.670   8.013   4.084
11173TIP3    H233400   2.567   8.101   4.148
11174TIP3   OH233401   4.428   8.479   4.131
11174TIP3    H133402   4.462   8.393   4.162
11174TIP3    H233403   4.350   8.489   4.189
11175TIP3   OH233404   3.546   8.259   4.282
11175TIP3    H133405   3.548   8.351   4.315
11175TIP3    H233406   3.476   8.220   4.339
11176TIP3   OH233407   3.301   8.384   3.237
11176TIP3    H133408   3.261   8.369   3.149
11176TIP3    H233409   3.274   8.476   3.256
11177TIP3   OH233410   2.742   8.236   3.616
11177TIP3    H133411   2.792   8.227   3.700
11177TIP3    H233412   2.675   8.167   3.629
11178TIP3   OH233413   3.507   8.285   2.877
11178TIP3    H133414   3.567   8.218   2.839
11178TIP3    H233415   3.542   8.296   2.967
11179TIP3   OH233416   3.554   8.334   3.148
11179TIP3    H133417   3.467   8.343   3.193
11179TIP3    H233418   3.609   8.297   3.220
11180TIP3   OH233419   4.328   7.599   4.427
11180TIP3    H133420   4.253   7.619   4.369
11180TIP3    H233421   4.343   7.504   4.411
11181TIP3   OH233422   2.926   8.008   4.453
11181TIP3    H133423   2.977   7.994   4.535
11181TIP3    H233424   2.852   7.945   4.463
11182TIP3   OH233425   3.323   6.835   4.226
11182TIP3    H133426   3.233   6.803   4.206
11182TIP3    H233427   3.301   6.915   4.277
11183TIP3   OH233428   3.858   6.950   4.427
11183TIP3    H133429   3.926   6.921   4.491
11183TIP3    H233430   3.774   6.928   4.472
11184TIP3   OH233431   4.098   7.376   4.343
11184TIP3    H133432   4.052   7.373   4.430
11184TIP3    H233433   4.078   7.466   4.311
11185TIP3   OH233434   3.758   7.510   2.903
11185TIP3    H133435   3.725   7.482   2.815
11185TIP3    H233436   3.836   7.562   2.878
11186TIP3   OH233437   3.470   6.886   3.204
11186TIP3    H133438   3.440   6.882   3.297
11186TIP3    H233439   3.435   6.801   3.171
11187TIP3   OH233440   3.251   7.348   4.249
11187TIP3    H133441   3.213   7.377   4.334
11187TIP3    H233442   3.240   7.430   4.195
11188TIP3   OH233443   3.136   7.238   3.757
11188TIP3    H133444   3.046   7.205   3.781
11188TIP3    H233445   3.167   7.171   3.696
11189TIP3   OH233446   3.630   7.316   3.489
11189TIP3    H133447   3.579   7.389   3.448
11189TIP3    H233448   3.688   7.289   3.415
11190TIP3   OH233449   3.805   7.603   4.581
11190TIP3    H133450   3.785   7.528   4.642
11190TIP3    H233451   3.899   7.617   4.600
11191TIP3   OH233452   3.788   7.350   3.734
11191TIP3    H133453   3.733   7.383   3.660
11191TIP3    H233454   3.821   7.268   3.693
11192TIP3   OH233455   3.064   7.378   4.469
11192TIP3    H133456   3.111   7.441   4.525
11192TIP3    H233457   3.075   7.294   4.519
11193TIP3   OH233458   3.132   6.865   3.169
11193TIP3    H133459   3.121   6.844   3.264
11193TIP3    H233460   3.042   6.892   3.144
11194TIP3   OH233461   2.670   6.913   4.040
11194TIP3    H133462   2.751   6.929   4.093
11194TIP3    H233463   2.703   6.866   3.961
11195TIP3   OH233464   2.650   6.883   3.561
11195TIP3    H133465   2.692   6.923   3.482
11195TIP3    H233466   2.586   6.954   3.584
11196TIP3   OH233467   3.793   7.598   4.155
11196TIP3    H133468   3.829   7.525   4.100
11196TIP3    H233469   3.771   7.548   4.236
11197TIP3   OH233470   3.459   7.066   3.831
11197TIP3    H133471   3.384   7.052   3.892
11197TIP3    H233472   3.535   7.057   3.890
11198TIP3   OH233473   2.905   7.110   3.827
11198TIP3    H133474   2.808   7.118   3.811
11198TIP3    H233475   2.920   7.015   3.818
11199TIP3   OH233476   3.959   7.135   4.028
11199TIP3    H133477   3.924   7.144   4.119
11199TIP3    H233478   3.899   7.069   3.990
11200TIP3   OH233479   3.029   7.175   3.280
11200TIP3    H133480   2.943   7.131   3.295
11200TIP3    H233481   3.047   7.138   3.191
11201TIP3   OH233482   4.125   8.824   4.245
11201TIP3    H133483   4.127   8.844   4.150
11201TIP3    H233484   4.205   8.870   4.276
11202TIP3   OH233485   3.086   7.930   4.671
11202TIP3    H133486   3.168   7.960   4.715
11202TIP3    H233487   3.024   7.935   4.746
11203TIP3   OH233488   3.550   7.381   3.922
11203TIP3    H133489   3.625   7.346   3.872
11203TIP3    H233490   3.566   7.344   4.011
11204TIP3   OH233491   3.082   6.872   3.791
11204TIP3    H133492   3.043   6.799   3.844
11204TIP3    H233493   3.149   6.824   3.740
11205TIP3   OH233494   3.529   7.277   4.216
11205TIP3    H133495   3.441   7.318   4.230
11205TIP3    H233496   3.589   7.336   4.266
11206TIP3   OH233497   3.264   7.669   3.312
11206TIP3    H133498   3.169   7.660   3.295
11206TIP3    H233499   3.261   7.709   3.403
11207TIP3   OH233500   4.169   7.908   3.940
11207TIP3    H133501   4.193   7.957   3.858
11207TIP3    H233502   4.082   7.869   3.916
11208TIP3   OH233503   3.724   6.987   3.169
11208TIP3    H133504   3.627   6.974   3.174
11208TIP3    H233505   3.736   7.082   3.190
11209TIP3   OH233506   3.656   7.986   4.309
11209TIP3    H133507   3.689   7.969   4.398
11209TIP3    H233508   3.629   8.079   4.313
11210TIP3   OH233509   3.795   7.232   3.272
11210TIP3    H133510   3.891   7.236   3.289
11210TIP3    H233511   3.780   7.311   3.217
11211TIP3   OH233512   2.951   7.686   3.988
11211TIP3    H133513   2.993   7.665   3.903
11211TIP3    H233514   2.999   7.629   4.050
11212TIP3   OH233515   3.412   7.823   3.129
11212TIP3    H133516   3.365   7.910   3.134
11212TIP3    H233517   3.358   7.768   3.190
11213TIP3   OH233518   2.828   7.617   4.601
11213TIP3    H133519   2.869   7.614   4.691
11213TIP3    H233520   2.771   7.540   4.606
11214TIP3   OH233521   3.561   7.725   4.618
11214TIP3    H133522   3.509   7.668   4.560
11214TIP3    H233523   3.652   7.697   4.595
11215TIP3   OH233524   3.824   8.244   4.204
11215TIP3    H133525   3.728   8.251   4.215
11215TIP3    H233526   3.855   8.300   4.279
11216TIP3   OH233527   4.237   7.319   3.111
11216TIP3    H133528   4.173   7.274   3.050
11216TIP3    H233529   4.234   7.407   3.069
11217TIP3   OH233530   4.446   8.167   4.194
11217TIP3    H133531   4.349   8.172   4.180
11217TIP3    H233532   4.478   8.147   4.104
11218TIP3   OH233533   3.929   8.140   3.016
11218TIP3    H133534   3.915   8.067   3.077
11218TIP3    H233535   3.948   8.095   2.931
11219TIP3   OH233536   3.930   7.770   3.862
11219TIP3    H133537   3.837   7.744   3.873
11219TIP3    H233538   3.967   7.692   3.815
11220TIP3   OH233539   3.056   7.994   3.606
11220TIP3    H133540   3.064   8.078   3.558
11220TIP3    H233541   2.960   7.989   3.618
11221TIP3   OH233542   2.622   7.304   3.313
11221TIP3    H133543   2.663   7.391   3.330
11221TIP3    H233544   2.542   7.308   3.370
11222TIP3   OH233545   3.194   7.762   3.552
11222TIP3    H133546   3.164   7.854   3.568
11222TIP3    H233547   3.164   7.719   3.633
11223TIP3   OH233548   3.325   8.341   4.081
11223TIP3    H133549   3.365   8.415   4.030
11223TIP3    H233550   3.403   8.310   4.130
11224TIP3   OH233551   2.981   8.235   3.465
11224TIP3    H133552   2.893   8.246   3.508
11224TIP3    H233553   3.013   8.327   3.466
11225TIP3   OH233554   3.717   7.974   4.038
11225TIP3    H133555   3.710   7.972   4.136
11225TIP3    H233556   3.801   7.929   4.023
11226TIP3   OH233557   3.687   7.862   2.921
11226TIP3    H133558   3.740   7.840   3.001
11226TIP3    H233559   3.598   7.842   2.953
11227TIP3   OH233560   3.963   8.514   4.090
11227TIP3    H133561   3.885   8.456   4.078
11227TIP3    H233562   3.951   8.578   4.017
11228TIP3   OH233563   4.030   8.344   2.743
11228TIP3    H133564   4.067   8.414   2.686
11228TIP3    H233565   3.950   8.392   2.773
11229TIP3   OH233566   3.055   7.120   4.616
11229TIP3    H133567   2.976   7.136   4.670
11229TIP3    H233568   3.098   7.052   4.670
11230TIP3   OH233569   3.847   7.805   3.143
11230TIP3    H133570   3.840   7.734   3.211
11230TIP3    H233571   3.943   7.802   3.126
11231TIP3   OH233572   2.762   8.206   4.244
11231TIP3    H133573   2.819   8.131   4.270
11231TIP3    H233574   2.799   8.276   4.299
11232TIP3   OH233575   3.055   7.851   2.920
11232TIP3    H133576   3.074   7.762   2.885
11232TIP3    H233577   3.041   7.833   3.015
11233TIP3   OH233578   3.014   7.851   3.201
11233TIP3    H133579   3.078   7.854   3.273
11233TIP3    H233580   3.002   7.948   3.187
11234TIP3   OH233581   2.748   7.556   3.397
11234TIP3    H133582   2.678   7.595   3.454
11234TIP3    H233583   2.752   7.625   3.328
11235TIP3   OH233584   3.882   7.185   4.287
11235TIP3    H133585   3.962   7.224   4.325
11235TIP3    H233586   3.869   7.105   4.342
11236TIP3   OH233587   3.758   6.944   3.450
11236TIP3    H133588   3.751   6.965   3.354
11236TIP3    H233589   3.802   7.024   3.485
11237TIP3   OH233590   3.265   8.049   3.142
11237TIP3    H133591   3.180   8.084   3.176
11237TIP3    H233592   3.288   8.119   3.078
11238TIP3   OH233593   3.441   7.122   3.559
11238TIP3    H133594   3.514   7.183   3.535
11238TIP3    H233595   3.458   7.109   3.654
11239TIP3   OH233596   3.724   7.436   4.365
11239TIP3    H133597   3.743   7.489   4.445
11239TIP3    H233598   3.781   7.359   4.379
11240TIP3   OH233599   3.600   6.850   3.656
11240TIP3    H133600   3.611   6.918   3.726
11240TIP3    H233601   3.660   6.885   3.587
11241TIP3   OH233602   3.002   8.123   3.206
11241TIP3    H133603   2.977   8.193   3.141
11241TIP3    H233604   2.991   8.171   3.291
11242TIP3   OH233605   3.110   6.830   3.441
11242TIP3    H133606   3.107   6.914   3.487
11242TIP3    H233607   3.205   6.808   3.452
11243TIP3   OH233608   4.367   7.334   4.343
11243TIP3    H133609   4.269   7.330   4.349
11243TIP3    H233610   4.380   7.300   4.254
11244TIP3   OH233611   4.016   7.530   3.731
11244TIP3    H133612   3.943   7.468   3.745
11244TIP3    H233613   4.090   7.485   3.778
11245TIP3   OH233614   2.727   7.760   3.206
11245TIP3    H133615   2.778   7.843   3.211
11245TIP3    H233616   2.775   7.715   3.133
11246TIP3   OH233617   2.682   7.039   3.338
11246TIP3    H133618   2.665   7.135   3.329
11246TIP3    H233619   2.606   7.002   3.292
11247TIP3   OH233620   3.983   8.480   3.681
11247TIP3    H133621   3.942   8.529   3.606
11247TIP3    H233622   4.078   8.500   3.662
11248TIP3   OH233623   3.056   6.755   4.211
11248TIP3    H133624   3.028   6.717   4.125
11248TIP3    H233625   3.051   6.677   4.270
11249TIP3   OH233626   2.601   7.966   3.596
11249TIP3    H133627   2.522   8.005   3.637
11249TIP3    H233628   2.594   8.006   3.507
11250TIP3   OH233629   2.754   8.508   4.664
11250TIP3    H133630   2.841   8.509   4.709
11250TIP3    H233631   2.737   8.412   4.659
11251TIP3   OH233632   3.239   8.481   4.706
11251TIP3    H133633   3.334   8.464   4.715
11251TIP3    H233634   3.218   8.425   4.629
11252TIP3   OH233635   3.221   8.055   2.836
11252TIP3    H133636   3.165   7.982   2.870
11252TIP3    H233637   3.295   8.004   2.798
11253TIP3   OH233638   3.876   8.384   4.438
11253TIP3    H133639   3.870   8.314   4.507
11253TIP3    H233640   3.956   8.433   4.466
11254TIP3   OH233641   3.656   8.096   2.742
11254TIP3    H133642   3.710   8.038   2.799
11254TIP3    H233643   3.710   8.102   2.661
11255TIP3   OH233644   2.885   7.918   4.861
11255TIP3    H133645   2.906   7.823   4.865
11255TIP3    H233646   2.798   7.918   4.816
11256TIP3   OH233647   2.855   7.578   3.044
11256TIP3    H133648   2.902   7.519   3.103
11256TIP3    H233649   2.922   7.586   2.972
11257TIP3   OH233650   3.494   8.001   4.635
11257TIP3    H133651   3.457   8.016   4.546
11257TIP3    H233652   3.528   7.909   4.629
11258TIP3   OH233653   3.364   7.768   2.860
11258TIP3    H133654   3.374   7.782   2.956
11258TIP3    H233655   3.369   7.670   2.855
11259TIP3   OH233656   3.984   8.007   4.238
11259TIP3    H133657   4.061   8.049   4.195
11259TIP3    H233658   3.918   8.078   4.227
11260TIP3   OH233659   3.003   7.648   4.838
11260TIP3    H133660   3.080   7.591   4.823
11260TIP3    H233661   3.026   7.683   4.927
11261TIP3   OH233662   3.332   7.529   4.494
11261TIP3    H133663   3.265   7.599   4.508
11261TIP3    H233664   3.387   7.567   4.423
11262TIP3   OH233665   3.855   7.938   4.638
11262TIP3    H133666   3.939   7.925   4.591
11262TIP3    H233667   3.860   7.870   4.708
11263TIP3   OH233668   3.996   7.599   2.777
11263TIP3    H133669   3.975   7.552   2.694
11263TIP3    H233670   3.966   7.689   2.752
11264TIP3   OH233671   3.460   7.323   4.634
11264TIP3    H133672   3.466   7.242   4.580
11264TIP3    H233673   3.420   7.387   4.572
11265TIP3   OH233674   3.465   7.113   4.439
11265TIP3    H133675   3.495   7.151   4.354
11265TIP3    H233676   3.373   7.087   4.418
11266TIP3   OH233677   3.495   7.646   4.309
11266TIP3    H133678   3.579   7.651   4.262
11266TIP3    H233679   3.444   7.718   4.267
11267TIP3   OH233680   4.079   7.617   4.695
11267TIP3    H133681   4.128   7.533   4.701
11267TIP3    H233682   4.147   7.677   4.660
11268TIP3   OH233683   4.119   7.866   4.425
11268TIP3    H133684   4.061   7.920   4.366
11268TIP3    H233685   4.207   7.888   4.387
11269TIP3   OH233686   3.333   7.446   4.855
11269TIP3    H133687   3.269   7.373   4.872
11269TIP3    H233688   3.375   7.415   4.772
11270TIP3   OH233689   3.599   6.877   4.499
11270TIP3    H133690   3.548   6.959   4.481
11270TIP3    H233691   3.530   6.808   4.491
11271TIP3   OH233692   3.724   7.384   4.720
11271TIP3    H133693   3.719   7.372   4.817
11271TIP3    H233694   3.633   7.356   4.696
11272TIP3   OH233695   3.965   7.331   4.575
11272TIP3    H133696   3.889   7.330   4.637
11272TIP3    H233697   4.038   7.299   4.632
11273TIP3   OH233698   4.192   7.269   4.727
11273TIP3    H133699   4.205   7.174   4.747
11273TIP3    H233700   4.190   7.310   4.817
11274TIP3   OH233701   3.182   7.221   4.911
11274TIP3    H133702   3.191   7.129   4.878
11274TIP3    H233703   3.218   7.210   5.002
11275TIP3   OH233704   3.696   6.889   4.756
11275TIP3    H133705   3.762   6.817   4.756
11275TIP3    H233706   3.655   6.876   4.668
11276TIP3   OH233707   3.760   7.101   4.919
11276TIP3    H133708   3.738   7.030   4.855
11276TIP3    H233709   3.682   7.160   4.912
11277TIP3   OH233710   2.977   8.324   3.021
11277TIP3    H133711   3.073   8.328   3.003
11277TIP3    H233712   2.945   8.373   2.942
11278TIP3   OH233713   2.460   7.708   3.242
11278TIP3    H133714   2.553   7.733   3.225
11278TIP3    H233715   2.454   7.622   3.196
11279TIP3   OH233716   2.371   8.323   3.648
11279TIP3    H133717   2.303   8.261   3.614
11279TIP3    H233718   2.415   8.267   3.716
11280TIP3   OH233719   2.509   8.180   3.834
11280TIP3    H133720   2.499   8.104   3.893
11280TIP3    H233721   2.561   8.240   3.891
11281TIP3   OH233722   4.233   8.578   3.636
11281TIP3    H133723   4.264   8.611   3.722
11281TIP3    H233724   4.293   8.622   3.574
11282TIP3   OH233725   4.268   8.596   3.919
11282TIP3    H133726   4.227   8.508   3.911
11282TIP3    H233727   4.340   8.573   3.981
11283TIP3   OH233728   4.304   8.275   4.489
11283TIP3    H133729   4.237   8.286   4.559
11283TIP3    H233730   4.356   8.358   4.494
11284TIP3   OH233731   4.126   7.788   3.112
11284TIP3    H133732   4.196   7.851   3.084
11284TIP3    H233733   4.170   7.747   3.191
11285TIP3   OH233734   4.255   7.654   3.314
11285TIP3    H133735   4.191   7.612   3.375
11285TIP3    H233736   4.321   7.693   3.375
11286TIP3   OH233737   4.304   8.041   3.745
11286TIP3    H133738   4.362   7.982   3.693
11286TIP3    H233739   4.298   8.120   3.688
11287TIP3   OH233740   4.143   8.346   3.940
11287TIP3    H133741   4.074   8.386   3.996
11287TIP3    H233742   4.091   8.296   3.874
11288TIP3   OH233743   4.194   7.561   2.964
11288TIP3    H133744   4.123   7.564   2.896
11288TIP3    H233745   4.168   7.637   3.018
11289TIP3   OH233746   4.064   7.235   2.920
11289TIP3    H133747   4.027   7.277   2.841
11289TIP3    H233748   4.036   7.141   2.907
11290TIP3   OH233749   4.070   7.508   3.464
11290TIP3    H133750   4.081   7.412   3.460
11290TIP3    H233751   4.059   7.524   3.560
11291TIP3   OH233752   2.699   7.583   4.211
11291TIP3    H133753   2.697   7.559   4.116
11291TIP3    H233754   2.796   7.586   4.226
11292TIP3   OH233755   4.358   7.934   4.315
11292TIP3    H133756   4.435   7.872   4.310
11292TIP3    H233757   4.392   8.013   4.268
11293TIP3   OH233758   4.542   7.742   4.343
11293TIP3    H133759   4.471   7.688   4.384
11293TIP3    H233760   4.619   7.682   4.353
11294TIP3   OH233761   4.009   6.969   2.907
11294TIP3    H133762   4.087   6.939   2.958
11294TIP3    H233763   3.939   6.908   2.934
11295TIP3   OH233764   4.065   7.223   3.359
11295TIP3    H133765   4.106   7.135   3.374
11295TIP3    H233766   4.125   7.257   3.290
11296TIP3   OH233767   4.229   7.405   3.852
11296TIP3    H133768   4.316   7.430   3.813
11296TIP3    H233769   4.243   7.439   3.942
11297TIP3   OH233770   4.294   7.542   4.087
11297TIP3    H133771   4.217   7.579   4.134
11297TIP3    H233772   4.328   7.622   4.041
11298TIP3   OH233773   2.919   7.276   4.877
11298TIP3    H133774   3.016   7.264   4.888
11298TIP3    H233775   2.887   7.192   4.915
11299TIP3   OH233776   4.752   7.133   4.644
11299TIP3    H133777   4.807   7.066   4.598
11299TIP3    H233778   4.722   7.189   4.568
11300TIP3   OH233779   4.175   6.974   3.396
11300TIP3    H133780   4.225   6.959   3.479
11300TIP3    H233781   4.116   6.896   3.396
11301TIP3   OH233782   2.876   6.966   4.220
11301TIP3    H133783   2.933   6.887   4.231
11301TIP3    H233784   2.944   7.035   4.209
11302TIP3   OH233785   4.622   7.275   4.452
11302TIP3    H133786   4.535   7.314   4.472
11302TIP3    H233787   4.596   7.205   4.389
11303TIP3   OH233788   4.259   6.913   3.025
11303TIP3    H133789   4.300   6.839   2.977
11303TIP3    H233790   4.327   6.983   3.018
11304TIP3   OH233791   2.661   6.753   3.797
11304TIP3    H133792   2.567   6.738   3.815
11304TIP3    H233793   2.659   6.802   3.713
11305TIP3   OH233794   3.820   8.440   3.295
11305TIP3    H133795   3.870   8.425   3.212
11305TIP3    H233796   3.873   8.509   3.337
11306TIP3   OH233797   2.882   6.841   4.612
11306TIP3    H133798   2.837   6.814   4.694
11306TIP3    H233799   2.815   6.824   4.545
11307TIP3   OH233800   2.922   8.243   4.680
11307TIP3    H133801   2.830   8.214   4.666
11307TIP3    H233802   2.932   8.231   4.776
11308TIP3   OH233803   3.097   8.274   4.226
11308TIP3    H133804   3.051   8.352   4.187
11308TIP3    H233805   3.184   8.288   4.185
11309TIP3   OH233806   3.548   8.524   4.366
11309TIP3    H133807   3.590   8.526   4.455
11309TIP3    H233808   3.614   8.573   4.313
11310TIP3   OH233809   3.727   8.672   4.222
11310TIP3    H133810   3.800   8.622   4.181
11310TIP3    H233811   3.777   8.730   4.284
11311TIP3   OH233812   4.519   7.038   4.324
11311TIP3    H133813   4.427   7.034   4.292
11311TIP3    H233814   4.546   6.944   4.312
11312TIP3   OH233815   2.776   8.530   4.253
11312TIP3    H133816   2.690   8.569   4.226
11312TIP3    H233817   2.786   8.572   4.340
11313TIP3   OH233818   3.012   8.510   4.107
11313TIP3    H133819   2.926   8.526   4.152
11313TIP3    H233820   2.995   8.548   4.018
11314TIP3   OH233821   3.438   8.545   3.906
11314TIP3    H133822   3.372   8.568   3.838
11314TIP3    H233823   3.453   8.631   3.949
11315TIP3   OH233824   3.706   8.483   3.955
11315TIP3    H133825   3.612   8.501   3.935
11315TIP3    H233826   3.750   8.560   3.917
11316TIP3   OH233827   3.915   8.677   3.874
11316TIP3    H133828   3.902   8.762   3.827
11316TIP3    H233829   3.942   8.617   3.801
11317TIP3   OH233830   2.686   8.327   3.996
11317TIP3    H133831   2.714   8.308   4.088
11317TIP3    H233832   2.760   8.286   3.947
11318TIP3   OH233833   2.879   8.200   3.850
11318TIP3    H133834   2.899   8.117   3.899
11318TIP3    H233835   2.968   8.241   3.844
11319TIP3   OH233836   3.142   8.296   3.854
11319TIP3    H133837   3.180   8.208   3.840
11319TIP3    H233838   3.185   8.321   3.938
11320TIP3   OH233839   3.714   6.948   3.929
11320TIP3    H133840   3.678   6.884   3.992
11320TIP3    H233841   3.794   6.904   3.897
11321TIP3   OH233842   4.249   6.832   3.849
11321TIP3    H133843   4.286   6.884   3.775
11321TIP3    H233844   4.154   6.851   3.842
11322TIP3   OH233845   4.343   6.935   3.613
11322TIP3    H133846   4.415   6.883   3.572
11322TIP3    H233847   4.376   7.026   3.598
11323TIP3   OH233848   2.973   6.664   3.958
11323TIP3    H133849   2.882   6.628   3.962
11323TIP3    H233850   3.024   6.580   3.958
11324TIP3   OH233851   2.753   6.529   3.603
11324TIP3    H133852   2.788   6.588   3.534
11324TIP3    H233853   2.728   6.592   3.673
11325TIP3   OH233854   3.406   6.707   3.839
11325TIP3    H133855   3.474   6.748   3.784
11325TIP3    H233856   3.438   6.728   3.928
11326TIP3   OH233857   3.963   6.840   3.825
11326TIP3    H133858   3.964   6.803   3.736
11326TIP3    H233859   3.950   6.758   3.880
11327TIP3   OH233860   3.993   6.759   3.385
11327TIP3    H133861   3.904   6.798   3.391
11327TIP3    H233862   3.980   6.676   3.435
11328TIP3   OH233863   2.475   8.098   3.393
11328TIP3    H133864   2.391   8.066   3.354
11328TIP3    H233865   2.465   8.193   3.377
11329TIP3   OH233866   2.873   6.693   3.368
11329TIP3    H133867   2.918   6.624   3.315
11329TIP3    H233868   2.950   6.738   3.409
11330TIP3   OH233869   3.382   6.870   3.474
11330TIP3    H133870   3.445   6.820   3.529
11330TIP3    H233871   3.409   6.961   3.498
11331TIP3   OH233872   3.248   8.293   2.972
11331TIP3    H133873   3.337   8.316   2.935
11331TIP3    H233874   3.226   8.219   2.912
11332TIP3   OH233875   3.963   8.407   3.062
11332TIP3    H133876   3.954   8.310   3.047
11332TIP3    H233877   3.922   8.442   2.980
11333TIP3   OH233878   3.181   6.946   4.851
11333TIP3    H133879   3.148   6.873   4.905
11333TIP3    H233880   3.276   6.943   4.876
11334TIP3   OH233881   3.429   6.940   4.969
11334TIP3    H133882   3.513   6.910   4.929
11334TIP3    H233883   3.416   6.871   5.037
11335TIP3   OH233884   2.550   8.122   3.031
11335TIP3    H133885   2.553   8.163   3.118
11335TIP3    H233886   2.642   8.087   3.020
11336TIP3   OH233887   4.252   6.999   4.759
11336TIP3    H133888   4.272   6.966   4.849
11336TIP3    H233889   4.340   6.993   4.715
11337TIP3   OH233890   4.189   8.555   4.257
11337TIP3    H133891   4.113   8.522   4.206
11337TIP3    H233892   4.172   8.651   4.253
11338TIP3   OH233893   5.458   7.923   3.020
11338TIP3    H133894   5.432   8.016   3.001
11338TIP3    H233895   5.381   7.876   2.985
11339TIP3   OH233896   5.459   7.923   3.392
11339TIP3    H133897   5.484   7.890   3.480
11339TIP3    H233898   5.415   7.847   3.353
11340TIP3   OH233899   4.760   7.821   3.759
11340TIP3    H133900   4.791   7.757   3.825
11340TIP3    H233901   4.832   7.885   3.760
11341TIP3   OH233902   5.699   8.224   3.077
11341TIP3    H133903   5.687   8.155   3.143
11341TIP3    H233904   5.726   8.300   3.130
11342TIP3   OH233905   4.726   8.228   3.490
11342TIP3    H133906   4.719   8.130   3.494
11342TIP3    H233907   4.823   8.237   3.485
11343TIP3   OH233908   4.435   7.434   3.277
11343TIP3    H133909   4.388   7.518   3.288
11343TIP3    H233910   4.364   7.378   3.241
11344TIP3   OH233911   4.495   7.720   3.439
11344TIP3    H133912   4.544   7.645   3.480
11344TIP3    H233913   4.556   7.747   3.369
11345TIP3   OH233914   5.345   8.687   3.092
11345TIP3    H133915   5.396   8.617   3.047
11345TIP3    H233916   5.342   8.655   3.182
11346TIP3   OH233917   5.257   8.149   3.445
11346TIP3    H133918   5.293   8.074   3.394
11346TIP3    H233919   5.342   8.193   3.467
11347TIP3   OH233920   6.267   7.470   3.441
11347TIP3    H133921   6.296   7.554   3.483
11347TIP3    H233922   6.290   7.487   3.348
11348TIP3   OH233923   5.669   7.652   3.482
11348TIP3    H133924   5.711   7.566   3.499
11348TIP3    H233925   5.639   7.641   3.390
11349TIP3   OH233926   5.004   7.311   3.445
11349TIP3    H133927   4.983   7.384   3.383
11349TIP3    H233928   4.956   7.237   3.400
11350TIP3   OH233929   5.698   7.401   3.069
11350TIP3    H133930   5.771   7.385   3.132
11350TIP3    H233931   5.748   7.437   2.993
11351TIP3   OH233932   4.640   7.515   3.550
11351TIP3    H133933   4.722   7.494   3.598
11351TIP3    H233934   4.652   7.458   3.471
11352TIP3   OH233935   5.083   7.712   3.339
11352TIP3    H133936   5.175   7.685   3.354
11352TIP3    H233937   5.042   7.628   3.309
11353TIP3   OH233938   6.342   7.676   3.614
11353TIP3    H133939   6.261   7.726   3.590
11353TIP3    H233940   6.351   7.701   3.707
11354TIP3   OH233941   5.004   7.295   3.878
11354TIP3    H133942   4.943   7.332   3.811
11354TIP3    H233943   4.953   7.312   3.960
11355TIP3   OH233944   5.354   8.145   2.889
11355TIP3    H133945   5.310   8.121   2.806
11355TIP3    H233946   5.312   8.231   2.909
11356TIP3   OH233947   5.111   8.068   3.678
11356TIP3    H133948   5.045   8.130   3.717
11356TIP3    H233949   5.150   8.122   3.607
11357TIP3   OH233950   5.913   7.401   3.235
11357TIP3    H133951   5.910   7.348   3.315
11357TIP3    H233952   5.969   7.476   3.261
11358TIP3   OH233953   4.872   7.410   3.664
11358TIP3    H133954   4.935   7.482   3.686
11358TIP3    H233955   4.921   7.369   3.588
11359TIP3   OH233956   4.935   8.259   3.771
11359TIP3    H133957   4.908   8.344   3.731
11359TIP3    H233958   4.858   8.245   3.831
11360TIP3   OH233959   4.334   7.952   3.008
11360TIP3    H133960   4.294   7.979   2.923
11360TIP3    H233961   4.363   8.037   3.045
11361TIP3   OH233962   5.774   8.467   3.250
11361TIP3    H133963   5.684   8.460   3.288
11361TIP3    H233964   5.767   8.552   3.202
11362TIP3   OH233965   6.060   7.376   3.612
11362TIP3    H133966   5.972   7.400   3.578
11362TIP3    H233967   6.119   7.403   3.538
11363TIP3   OH233968   5.364   7.016   3.591
11363TIP3    H133969   5.351   6.921   3.607
11363TIP3    H233970   5.285   7.053   3.637
11364TIP3   OH233971   5.480   8.516   2.926
11364TIP3    H133972   5.528   8.434   2.901
11364TIP3    H233973   5.539   8.582   2.882
11365TIP3   OH233974   5.618   8.301   2.825
11365TIP3    H133975   5.580   8.223   2.782
11365TIP3    H233976   5.651   8.263   2.909
11366TIP3   OH233977   6.001   8.383   3.591
11366TIP3    H133978   5.989   8.306   3.531
11366TIP3    H233979   5.982   8.458   3.531
11367TIP3   OH233980   5.290   7.775   2.846
11367TIP3    H133981   5.209   7.827   2.823
11367TIP3    H233982   5.336   7.773   2.760
11368TIP3   OH233983   5.249   7.558   2.568
11368TIP3    H133984   5.318   7.609   2.615
11368TIP3    H233985   5.306   7.494   2.520
11369TIP3   OH233986   6.195   8.018   3.435
11369TIP3    H133987   6.112   8.071   3.439
11369TIP3    H233988   6.224   8.040   3.344
11370TIP3   OH233989   5.636   7.857   2.821
11370TIP3    H133990   5.582   7.883   2.899
11370TIP3    H233991   5.720   7.832   2.864
11371TIP3   OH233992   5.872   7.901   3.727
11371TIP3    H133993   5.867   7.988   3.771
11371TIP3    H233994   5.785   7.900   3.682
11372TIP3   OH233995   4.869   7.858   3.236
11372TIP3    H133996   4.827   7.801   3.168
11372TIP3    H233997   4.947   7.805   3.262
11373TIP3   OH233998   4.998   8.266   3.386
11373TIP3    H133999   4.977   8.221   3.303
11373TIP3    H234000   5.090   8.236   3.403
11374TIP3   OH234001   5.012   7.826   3.589
11374TIP3    H134002   5.041   7.811   3.497
11374TIP3    H234003   5.050   7.914   3.611
11375TIP3   OH234004   5.532   8.465   3.366
11375TIP3    H134005   5.516   8.545   3.419
11375TIP3    H234006   5.517   8.393   3.430
11376TIP3   OH234007   5.143   8.383   3.914
11376TIP3    H134008   5.085   8.447   3.961
11376TIP3    H234009   5.076   8.331   3.866
11377TIP3   OH234010   5.480   7.715   2.645
11377TIP3    H134011   5.537   7.775   2.698
11377TIP3    H234012   5.506   7.741   2.553
11378TIP3   OH234013   4.895   7.948   4.011
11378TIP3    H134014   4.897   8.029   4.065
11378TIP3    H234015   4.800   7.924   4.022
11379TIP3   OH234016   5.218   8.399   2.921
11379TIP3    H134017   5.293   8.455   2.946
11379TIP3    H234018   5.156   8.463   2.882
11380TIP3   OH234019   4.941   8.559   3.995
11380TIP3    H134020   4.909   8.553   3.903
11380TIP3    H234021   4.865   8.530   4.047
11381TIP3   OH234022   5.994   6.959   2.692
11381TIP3    H134023   5.913   6.978   2.744
11381TIP3    H234024   6.006   7.043   2.643
11382TIP3   OH234025   4.735   7.699   3.042
11382TIP3    H134026   4.672   7.745   2.982
11382TIP3    H234027   4.690   7.614   3.054
11383TIP3   OH234028   5.791   8.327   2.240
11383TIP3    H134029   5.800   8.424   2.226
11383TIP3    H234030   5.884   8.298   2.229
11384TIP3   OH234031   4.521   8.084   3.945
11384TIP3    H134032   4.456   8.056   3.878
11384TIP3    H234033   4.557   7.998   3.977
11385TIP3   OH234034   4.371   8.274   3.584
11385TIP3    H134035   4.466   8.270   3.572
11385TIP3    H234036   4.361   8.355   3.636
11386TIP3   OH234037   6.240   8.728   3.638
11386TIP3    H134038   6.235   8.631   3.644
11386TIP3    H234039   6.155   8.753   3.680
11387TIP3   OH234040   5.343   8.513   3.770
11387TIP3    H134041   5.344   8.606   3.802
11387TIP3    H234042   5.271   8.475   3.825
11388TIP3   OH234043   5.099   8.643   2.722
11388TIP3    H134044   5.055   8.625   2.637
11388TIP3    H234045   5.069   8.733   2.743
11389TIP3   OH234046   4.539   8.493   3.103
11389TIP3    H134047   4.588   8.483   3.188
11389TIP3    H234048   4.473   8.423   3.113
11390TIP3   OH234049   5.303   8.543   2.363
11390TIP3    H134050   5.364   8.474   2.327
11390TIP3    H234051   5.337   8.552   2.455
11391TIP3   OH234052   5.352   8.591   2.634
11391TIP3    H134053   5.264   8.601   2.677
11391TIP3    H234054   5.402   8.549   2.706
11392TIP3   OH234055   6.126   7.856   3.913
11392TIP3    H134056   6.051   7.879   3.856
11392TIP3    H234057   6.139   7.762   3.888
11393TIP3   OH234058   4.727   8.267   3.946
11393TIP3    H134059   4.771   8.246   4.031
11393TIP3    H234060   4.650   8.207   3.950
11394TIP3   OH234061   5.122   7.091   3.716
11394TIP3    H134062   5.032   7.059   3.693
11394TIP3    H234063   5.098   7.174   3.761
11395TIP3   OH234064   5.654   7.208   3.914
11395TIP3    H134065   5.720   7.176   3.978
11395TIP3    H234066   5.569   7.186   3.957
11396TIP3   OH234067   5.900   7.637   3.836
11396TIP3    H134068   5.845   7.632   3.917
11396TIP3    H234069   5.870   7.720   3.794
11397TIP3   OH234070   5.554   7.766   2.389
11397TIP3    H134071   5.522   7.738   2.301
11397TIP3    H234072   5.632   7.819   2.364
11398TIP3   OH234073   5.268   7.141   2.690
11398TIP3    H134074   5.236   7.139   2.782
11398TIP3    H234075   5.230   7.057   2.657
11399TIP3   OH234076   5.053   7.604   3.739
11399TIP3    H134077   5.001   7.627   3.819
11399TIP3    H234078   5.038   7.685   3.684
11400TIP3   OH234079   4.938   7.490   3.253
11400TIP3    H134080   4.844   7.466   3.268
11400TIP3    H234081   4.951   7.451   3.163
11401TIP3   OH234082   5.428   7.577   2.978
11401TIP3    H134083   5.373   7.649   2.939
11401TIP3    H234084   5.482   7.550   2.901
11402TIP3   OH234085   5.599   7.858   4.068
11402TIP3    H134086   5.575   7.785   4.130
11402TIP3    H234087   5.693   7.868   4.086
11403TIP3   OH234088   5.587   7.608   3.221
11403TIP3    H134089   5.529   7.640   3.149
11403TIP3    H234090   5.617   7.525   3.178
11404TIP3   OH234091   4.874   7.635   3.948
11404TIP3    H134092   4.889   7.702   4.017
11404TIP3    H234093   4.861   7.554   4.000
11405TIP3   OH234094   4.921   7.110   2.657
11405TIP3    H134095   4.916   7.108   2.754
11405TIP3    H234096   4.842   7.162   2.635
11406TIP3   OH234097   4.465   7.159   3.527
11406TIP3    H134098   4.541   7.189   3.580
11406TIP3    H234099   4.505   7.124   3.446
11407TIP3   OH234100   4.444   7.139   3.048
11407TIP3    H134101   4.490   7.178   2.970
11407TIP3    H234102   4.383   7.212   3.069
11408TIP3   OH234103   5.602   7.855   3.646
11408TIP3    H134104   5.630   7.781   3.587
11408TIP3    H234105   5.567   7.803   3.722
11409TIP3   OH234106   5.261   7.315   3.315
11409TIP3    H134107   5.177   7.311   3.365
11409TIP3    H234108   5.327   7.317   3.387
11410TIP3   OH234109   4.699   7.368   3.324
11410TIP3    H134110   4.604   7.375   3.297
11410TIP3    H234111   4.722   7.276   3.299
11411TIP3   OH234112   4.972   7.368   3.009
11411TIP3    H134113   5.066   7.382   2.988
11411TIP3    H234114   4.926   7.391   2.925
11412TIP3   OH234115   5.757   7.389   3.517
11412TIP3    H134116   5.716   7.400   3.606
11412TIP3    H234117   5.694   7.326   3.476
11413TIP3   OH234118   4.806   7.397   2.790
11413TIP3    H134119   4.732   7.355   2.742
11413TIP3    H234120   4.857   7.433   2.716
11414TIP3   OH234121   5.923   9.077   3.733
11414TIP3    H134122   5.921   9.098   3.637
11414TIP3    H234123   6.000   9.129   3.763
11415TIP3   OH234124   4.868   8.192   4.175
11415TIP3    H134125   4.953   8.216   4.217
11415TIP3    H234126   4.808   8.212   4.249
11416TIP3   OH234127   5.348   7.640   3.412
11416TIP3    H134128   5.420   7.601   3.359
11416TIP3    H234129   5.362   7.599   3.499
11417TIP3   OH234130   4.874   7.131   3.285
11417TIP3    H134131   4.843   7.050   3.330
11417TIP3    H234132   4.928   7.096   3.213
11418TIP3   OH234133   5.325   7.533   3.704
11418TIP3    H134134   5.235   7.571   3.714
11418TIP3    H234135   5.381   7.596   3.754
11419TIP3   OH234136   5.062   7.930   2.797
11419TIP3    H134137   4.989   7.865   2.786
11419TIP3    H234138   5.044   7.963   2.888
11420TIP3   OH234139   5.964   8.165   3.428
11420TIP3    H134140   5.988   8.214   3.346
11420TIP3    H234141   5.878   8.124   3.404
11421TIP3   OH234142   5.521   7.243   2.654
11421TIP3    H134143   5.424   7.229   2.661
11421TIP3    H234144   5.532   7.338   2.678
11422TIP3   OH234145   5.467   8.249   3.795
11422TIP3    H134146   5.471   8.223   3.887
11422TIP3    H234147   5.422   8.335   3.799
11423TIP3   OH234148   5.591   7.488   2.759
11423TIP3    H134149   5.687   7.494   2.775
11423TIP3    H234150   5.573   7.568   2.706
11424TIP3   OH234151   4.752   7.948   3.475
11424TIP3    H134152   4.790   7.920   3.389
11424TIP3    H234153   4.789   7.883   3.536
11425TIP3   OH234154   5.206   8.079   2.615
11425TIP3    H134155   5.160   8.166   2.622
11425TIP3    H234156   5.152   8.024   2.676
11426TIP3   OH234157   4.635   7.871   4.082
11426TIP3    H134158   4.663   7.868   4.176
11426TIP3    H234159   4.564   7.805   4.080
11427TIP3   OH234160   5.355   7.982   4.107
11427TIP3    H134161   5.294   7.926   4.056
11427TIP3    H234162   5.442   7.951   4.075
11428TIP3   OH234163   5.624   8.505   3.688
11428TIP3    H134164   5.527   8.503   3.699
11428TIP3    H234165   5.650   8.558   3.766
11429TIP3   OH234166   6.033   7.576   2.598
11429TIP3    H134167   5.970   7.531   2.537
11429TIP3    H234168   6.030   7.664   2.556
11430TIP3   OH234169   6.251   8.433   3.680
11430TIP3    H134170   6.153   8.431   3.671
11430TIP3    H234171   6.275   8.403   3.589
11431TIP3   OH234172   5.728   8.397   2.503
11431TIP3    H134173   5.708   8.325   2.565
11431TIP3    H234174   5.744   8.350   2.419
11432TIP3   OH234175   5.728   8.025   3.352
11432TIP3    H134176   5.634   8.000   3.361
11432TIP3    H234177   5.762   7.948   3.302
11433TIP3   OH234178   4.852   8.252   3.096
11433TIP3    H134179   4.857   8.335   3.044
11433TIP3    H234180   4.757   8.241   3.104
11434TIP3   OH234181   4.416   7.559   2.797
11434TIP3    H134182   4.463   7.642   2.816
11434TIP3    H234183   4.339   7.566   2.858
11435TIP3   OH234184   4.998   8.022   3.044
11435TIP3    H134185   4.961   8.111   3.060
11435TIP3    H234186   4.959   7.972   3.118
11436TIP3   OH234187   5.121   8.599   3.568
11436TIP3    H134188   5.160   8.671   3.516
11436TIP3    H234189   5.199   8.567   3.617
11437TIP3   OH234190   4.776   8.492   2.951
11437TIP3    H134191   4.689   8.501   2.995
11437TIP3    H234192   4.807   8.585   2.953
11438TIP3   OH234193   5.514   8.232   3.525
11438TIP3    H134194   5.508   8.230   3.623
11438TIP3    H234195   5.594   8.179   3.510
11439TIP3   OH234196   5.483   8.120   2.407
11439TIP3    H134197   5.535   8.098   2.487
11439TIP3    H234198   5.393   8.099   2.438
11440TIP3   OH234199   5.761   8.769   3.576
11440TIP3    H134200   5.683   8.712   3.567
11440TIP3    H234201   5.746   8.834   3.503
11441TIP3   OH234202   5.826   8.601   2.228
11441TIP3    H134203   5.866   8.673   2.176
11441TIP3    H234204   5.746   8.648   2.259
11442TIP3   OH234205   4.848   7.376   4.096
11442TIP3    H134206   4.752   7.384   4.112
11442TIP3    H234207   4.874   7.313   4.166
11443TIP3   OH234208   5.643   8.060   2.627
11443TIP3    H134209   5.634   7.992   2.696
11443TIP3    H234210   5.740   8.058   2.612
11444TIP3   OH234211   4.562   8.463   3.726
11444TIP3    H134212   4.611   8.385   3.756
11444TIP3    H234213   4.585   8.527   3.795
11445TIP3   OH234214   4.854   8.106   2.406
11445TIP3    H134215   4.868   8.015   2.375
11445TIP3    H234216   4.835   8.092   2.501
11446TIP3   OH234217   4.800   8.110   2.679
11446TIP3    H134218   4.869   8.085   2.742
11446TIP3    H234219   4.803   8.208   2.684
11447TIP3   OH234220   4.536   7.806   2.882
11447TIP3    H134221   4.470   7.851   2.939
11447TIP3    H234222   4.551   7.875   2.815
11448TIP3   OH234223   5.678   7.445   3.777
11448TIP3    H134224   5.763   7.474   3.811
11448TIP3    H234225   5.662   7.362   3.827
11449TIP3   OH234226   5.559   7.196   2.935
11449TIP3    H134227   5.546   7.220   2.842
11449TIP3    H234228   5.598   7.279   2.972
11450TIP3   OH234229   5.063   8.308   2.628
11450TIP3    H134230   4.977   8.338   2.664
11450TIP3    H234231   5.081   8.378   2.564
11451TIP3   OH234232   5.255   7.370   3.040
11451TIP3    H134233   5.319   7.441   3.021
11451TIP3    H234234   5.258   7.365   3.138
11452TIP3   OH234235   5.520   7.693   3.848
11452TIP3    H134236   5.533   7.746   3.929
11452TIP3    H234237   5.574   7.614   3.864
11453TIP3   OH234238   5.400   7.105   3.147
11453TIP3    H134239   5.391   7.183   3.205
11453TIP3    H234240   5.458   7.142   3.076
11454TIP3   OH234241   4.804   8.383   2.693
11454TIP3    H134242   4.774   8.452   2.629
11454TIP3    H234243   4.788   8.428   2.779
11455TIP3   OH234244   4.907   7.096   2.934
11455TIP3    H134245   4.906   7.187   2.968
11455TIP3    H234246   5.003   7.076   2.943
11456TIP3   OH234247   6.166   7.592   3.831
11456TIP3    H134248   6.067   7.590   3.836
11456TIP3    H234249   6.177   7.552   3.743
11457TIP3   OH234250   5.813   7.787   3.218
11457TIP3    H134251   5.737   7.726   3.229
11457TIP3    H234252   5.885   7.739   3.265
11458TIP3   OH234253   4.522   8.018   2.690
11458TIP3    H134254   4.581   8.095   2.698
11458TIP3    H234255   4.572   7.968   2.621
11459TIP3   OH234256   4.471   7.290   2.822
11459TIP3    H134257   4.469   7.388   2.815
11459TIP3    H234258   4.386   7.267   2.782
11460TIP3   OH234259   5.781   8.739   3.170
11460TIP3    H134260   5.737   8.785   3.095
11460TIP3    H234261   5.875   8.758   3.147
11461TIP3   OH234262   4.857   7.011   3.697
11461TIP3    H134263   4.825   6.978   3.611
11461TIP3    H234264   4.847   6.932   3.755
11462TIP3   OH234265   4.398   8.225   3.082
11462TIP3    H134266   4.320   8.262   3.125
11462TIP3    H234267   4.388   8.264   2.993
11463TIP3   OH234268   4.549   8.758   4.149
11463TIP3    H134269   4.632   8.756   4.201
11463TIP3    H234270   4.524   8.664   4.148
11464TIP3   OH234271   5.041   8.746   4.180
11464TIP3    H134272   5.129   8.713   4.203
11464TIP3    H234273   5.017   8.684   4.108
11465TIP3   OH234274   5.017   8.312   2.323
11465TIP3    H134275   4.960   8.240   2.359
11465TIP3    H234276   5.091   8.259   2.288
11466TIP3   OH234277   5.675   8.640   3.923
11466TIP3    H134278   5.665   8.571   3.993
11466TIP3    H234279   5.750   8.692   3.956
11467TIP3   OH234280   5.453   8.353   2.230
11467TIP3    H134281   5.503   8.293   2.287
11467TIP3    H234282   5.508   8.357   2.149
11468TIP3   OH234283   4.658   7.829   2.538
11468TIP3    H134284   4.713   7.795   2.610
11468TIP3    H234285   4.726   7.834   2.467
11469TIP3   OH234286   5.306   8.261   4.111
11469TIP3    H134287   5.248   8.273   4.033
11469TIP3    H234288   5.324   8.165   4.112
11470TIP3   OH234289   5.164   8.024   2.345
11470TIP3    H134290   5.168   8.038   2.442
11470TIP3    H234291   5.162   7.926   2.341
11471TIP3   OH234292   5.786   8.263   3.729
11471TIP3    H134293   5.856   8.312   3.682
11471TIP3    H234294   5.711   8.323   3.718
11472TIP3   OH234295   4.807   7.877   4.320
11472TIP3    H134296   4.896   7.840   4.328
11472TIP3    H234297   4.808   7.942   4.393
11473TIP3   OH234298   4.871   7.729   2.765
11473TIP3    H134299   4.843   7.686   2.847
11473TIP3    H234300   4.905   7.653   2.713
11474TIP3   OH234301   5.138   7.796   3.994
11474TIP3    H134302   5.059   7.854   3.999
11474TIP3    H234303   5.180   7.827   3.912
11475TIP3   OH234304   4.966   7.520   2.605
11475TIP3    H134305   4.940   7.522   2.511
11475TIP3    H234306   5.063   7.529   2.598
11476TIP3   OH234307   5.652   8.196   4.127
11476TIP3    H134308   5.732   8.179   4.076
11476TIP3    H234309   5.653   8.127   4.195
11477TIP3   OH234310   5.793   7.856   2.263
11477TIP3    H134311   5.770   7.808   2.180
11477TIP3    H234312   5.762   7.946   2.238
11478TIP3   OH234313   5.264   7.582   4.117
11478TIP3    H134314   5.258   7.500   4.063
11478TIP3    H234315   5.217   7.647   4.061
11479TIP3   OH234316   5.262   7.366   3.924
11479TIP3    H134317   5.288   7.409   3.840
11479TIP3    H234318   5.168   7.344   3.906
11480TIP3   OH234319   5.297   7.908   3.796
11480TIP3    H134320   5.374   7.914   3.738
11480TIP3    H234321   5.237   7.974   3.756
11481TIP3   OH234322   5.902   7.866   4.205
11481TIP3    H134323   5.922   7.783   4.159
11481TIP3    H234324   5.940   7.933   4.146
11482TIP3   OH234325   5.915   8.123   3.919
11482TIP3    H134326   5.855   8.175   3.860
11482TIP3    H234327   6.001   8.144   3.876
11483TIP3   OH234328   5.140   7.697   4.347
11483TIP3    H134329   5.068   7.631   4.359
11483TIP3    H234330   5.171   7.674   4.258
11484TIP3   OH234331   5.396   7.133   3.988
11484TIP3    H134332   5.346   7.215   3.967
11484TIP3    H234333   5.326   7.065   3.977
11485TIP3   OH234334   5.521   7.639   4.208
11485TIP3    H134335   5.503   7.628   4.303
11485TIP3    H234336   5.432   7.615   4.174
11486TIP3   OH234337   5.766   7.598   4.069
11486TIP3    H134338   5.682   7.590   4.120
11486TIP3    H234339   5.829   7.550   4.125
11487TIP3   OH234340   6.000   7.531   4.228
11487TIP3    H134341   6.007   7.433   4.234
11487TIP3    H234342   5.986   7.556   4.321
11488TIP3   OH234343   4.976   7.479   4.397
11488TIP3    H134344   4.983   7.388   4.361
11488TIP3    H234345   5.010   7.465   4.487
11489TIP3   OH234346   5.492   7.144   4.245
11489TIP3    H134347   5.558   7.072   4.241
11489TIP3    H234348   5.450   7.136   4.157
11490TIP3   OH234349   5.559   7.361   4.403
11490TIP3    H134350   5.534   7.288   4.342
11490TIP3    H234351   5.480   7.418   4.400
11491TIP3   OH234352   4.773   8.584   2.505
11491TIP3    H134353   4.869   8.586   2.486
11491TIP3    H234354   4.740   8.632   2.427
11492TIP3   OH234355   4.255   7.966   2.727
11492TIP3    H134356   4.350   7.990   2.712
11492TIP3    H234357   4.251   7.878   2.684
11493TIP3   OH234358   4.167   8.580   3.136
11493TIP3    H134359   4.100   8.517   3.101
11493TIP3    H234360   4.212   8.524   3.203
11494TIP3   OH234361   4.305   8.436   3.322
11494TIP3    H134362   4.296   8.360   3.381
11494TIP3    H234363   4.356   8.497   3.380
11495TIP3   OH234364   6.031   8.833   3.122
11495TIP3    H134365   6.061   8.872   3.206
11495TIP3    H234366   6.087   8.877   3.057
11496TIP3   OH234367   6.061   8.856   3.406
11496TIP3    H134368   6.020   8.767   3.397
11496TIP3    H234369   6.140   8.832   3.456
11497TIP3   OH234370   6.111   8.527   3.980
11497TIP3    H134371   6.034   8.537   4.039
11497TIP3    H234372   6.148   8.618   3.981
11498TIP3   OH234373   5.923   8.044   2.599
11498TIP3    H134374   5.993   8.107   2.571
11498TIP3    H234375   5.966   8.004   2.677
11499TIP3   OH234376   6.052   7.911   2.801
11499TIP3    H134377   5.987   7.868   2.861
11499TIP3    H234378   6.116   7.950   2.863
11500TIP3   OH234379   6.105   8.299   3.236
11500TIP3    H134380   6.157   8.238   3.180
11500TIP3    H234381   6.095   8.377   3.178
11501TIP3   OH234382   5.940   8.601   3.433
11501TIP3    H134383   5.867   8.646   3.481
11501TIP3    H234384   5.891   8.554   3.362
11502TIP3   OH234385   5.990   7.817   2.451
11502TIP3    H134386   5.919   7.821   2.382
11502TIP3    H234387   5.964   7.894   2.505
11503TIP3   OH234388   5.862   7.491   2.406
11503TIP3    H134389   5.823   7.534   2.330
11503TIP3    H234390   5.833   7.397   2.393
11504TIP3   OH234391   5.867   7.765   2.951
11504TIP3    H134392   5.876   7.668   2.945
11504TIP3    H234393   5.855   7.780   3.047
11505TIP3   OH234394   4.495   7.840   3.694
11505TIP3    H134395   4.494   7.813   3.600
11505TIP3    H234396   4.592   7.841   3.712
11506TIP3   OH234397   6.155   8.189   3.805
11506TIP3    H134398   6.231   8.127   3.796
11506TIP3    H234399   6.177   8.259   3.741
11507TIP3   OH234400   6.343   8.000   3.837
11507TIP3    H134401   6.267   7.949   3.871
11507TIP3    H234402   6.415   7.932   3.844
11508TIP3   OH234403   5.806   7.225   2.393
11508TIP3    H134404   5.883   7.195   2.446
11508TIP3    H234405   5.734   7.166   2.420
11509TIP3   OH234406   5.863   7.481   2.847
11509TIP3    H134407   5.903   7.392   2.862
11509TIP3    H234408   5.921   7.515   2.777
11510TIP3   OH234409   6.027   7.660   3.340
11510TIP3    H134410   6.113   7.686   3.300
11510TIP3    H234411   6.041   7.695   3.430
11511TIP3   OH234412   6.094   7.801   3.577
11511TIP3    H134413   6.012   7.836   3.619
11511TIP3    H234414   6.125   7.880   3.527
11512TIP3   OH234415   4.707   7.525   4.366
11512TIP3    H134416   4.805   7.521   4.368
11512TIP3    H234417   4.685   7.442   4.413
11513TIP3   OH234418   6.542   7.389   4.130
11513TIP3    H134419   6.603   7.323   4.090
11513TIP3    H234420   6.520   7.445   4.053
11514TIP3   OH234421   5.972   7.231   2.883
11514TIP3    H134422   6.021   7.215   2.966
11514TIP3    H234423   5.912   7.154   2.882
11515TIP3   OH234424   4.671   7.218   3.702
11515TIP3    H134425   4.734   7.144   3.712
11515TIP3    H234426   4.733   7.293   3.697
11516TIP3   OH234427   4.477   7.492   3.775
11516TIP3    H134428   4.526   7.486   3.691
11516TIP3    H234429   4.503   7.580   3.806
11517TIP3   OH234430   6.413   7.536   3.938
11517TIP3    H134431   6.320   7.566   3.936
11517TIP3    H234432   6.405   7.460   3.877
11518TIP3   OH234433   6.056   7.169   2.513
11518TIP3    H134434   6.096   7.096   2.463
11518TIP3    H234435   6.123   7.240   2.505
11519TIP3   OH234436   4.457   6.998   3.276
11519TIP3    H134437   4.363   6.996   3.300
11519TIP3    H234438   4.458   7.056   3.197
11520TIP3   OH234439   5.618   8.697   2.782
11520TIP3    H134440   5.666   8.680   2.698
11520TIP3    H234441   5.671   8.767   2.821
11521TIP3   OH234442   4.678   7.077   4.091
11521TIP3    H134443   4.628   7.070   4.174
11521TIP3    H234444   4.610   7.114   4.031
11522TIP3   OH234445   4.895   8.531   3.716
11522TIP3    H134446   4.844   8.605   3.676
11522TIP3    H234447   4.980   8.546   3.670
11523TIP3   OH234448   5.345   8.779   3.853
11523TIP3    H134449   5.385   8.783   3.943
11523TIP3    H234450   5.410   8.830   3.801
11524TIP3   OH234451   5.522   8.929   3.710
11524TIP3    H134452   5.593   8.879   3.667
11524TIP3    H234453   5.573   8.986   3.771
11525TIP3   OH234454   6.314   7.294   3.813
11525TIP3    H134455   6.223   7.289   3.777
11525TIP3    H234456   6.343   7.201   3.800
11526TIP3   OH234457   4.574   8.792   3.737
11526TIP3    H134458   4.487   8.829   3.711
11526TIP3    H234459   4.576   8.817   3.830
11527TIP3   OH234460   4.810   8.769   3.593
11527TIP3    H134461   4.725   8.784   3.640
11527TIP3    H234462   4.790   8.804   3.505
11528TIP3   OH234463   5.237   8.802   3.392
11528TIP3    H134464   5.167   8.822   3.326
11528TIP3    H234465   5.248   8.890   3.434
11529TIP3   OH234466   5.503   8.741   3.443
11529TIP3    H134467   5.409   8.757   3.424
11529TIP3    H234468   5.544   8.818   3.401
11530TIP3   OH234469   5.715   8.935   3.361
11530TIP3    H134470   5.699   9.019   3.313
11530TIP3    H234471   5.738   8.874   3.288
11531TIP3   OH234472   4.483   8.585   3.484
11531TIP3    H134473   4.512   8.562   3.575
11531TIP3    H234474   4.555   8.542   3.433
11532TIP3   OH234475   4.675   8.457   3.337
11532TIP3    H134476   4.693   8.373   3.386
11532TIP3    H234477   4.765   8.496   3.331
11533TIP3   OH234478   4.941   8.554   3.339
11533TIP3    H134479   4.974   8.463   3.326
11533TIP3    H234480   4.981   8.575   3.425
11534TIP3   OH234481   5.521   7.211   3.431
11534TIP3    H134482   5.475   7.142   3.483
11534TIP3    H234483   5.588   7.159   3.383
11535TIP3   OH234484   6.047   7.092   3.340
11535TIP3    H134485   6.083   7.141   3.262
11535TIP3    H234486   5.951   7.105   3.329
11536TIP3   OH234487   6.139   7.190   3.101
11536TIP3    H134488   6.211   7.139   3.058
11536TIP3    H234489   6.172   7.282   3.085
11537TIP3   OH234490   4.769   6.918   3.448
11537TIP3    H134491   4.677   6.885   3.448
11537TIP3    H234492   4.819   6.833   3.445
11538TIP3   OH234493   4.552   6.786   3.091
11538TIP3    H134494   4.584   6.845   3.021
11538TIP3    H234495   4.524   6.850   3.159
11539TIP3   OH234496   5.209   6.952   3.326
11539TIP3    H134497   5.270   7.003   3.270
11539TIP3    H234498   5.228   6.988   3.413
11540TIP3   OH234499   5.766   7.095   3.311
11540TIP3    H134500   5.755   7.063   3.221
11540TIP3    H234501   5.747   7.014   3.364
11541TIP3   OH234502   5.789   7.017   2.872
11541TIP3    H134503   5.701   7.058   2.879
11541TIP3    H234504   5.773   6.933   2.921
11542TIP3   OH234505   4.271   8.355   2.880
11542TIP3    H134506   4.187   8.324   2.841
11542TIP3    H234507   4.261   8.450   2.862
11543TIP3   OH234508   4.669   6.947   2.859
11543TIP3    H134509   4.720   6.886   2.802
11543TIP3    H234510   4.741   7.002   2.896
11544TIP3   OH234511   5.184   7.120   2.958
11544TIP3    H134512   5.245   7.073   3.017
11544TIP3    H234513   5.207   7.212   2.982
11545TIP3   OH234514   5.044   8.551   2.456
11545TIP3    H134515   5.133   8.571   2.420
11545TIP3    H234516   5.022   8.475   2.398
11546TIP3   OH234517   5.759   8.663   2.548
11546TIP3    H134518   5.751   8.566   2.534
11546TIP3    H234519   5.718   8.697   2.467
11547TIP3   OH234520   4.977   7.199   4.338
11547TIP3    H134521   4.943   7.128   4.395
11547TIP3    H234522   5.071   7.200   4.364
11548TIP3   OH234523   5.226   7.197   4.458
11548TIP3    H134524   5.309   7.168   4.417
11548TIP3    H234525   5.212   7.127   4.525
11549TIP3   OH234526   4.347   8.381   2.515
11549TIP3    H134527   4.346   8.420   2.604
11549TIP3    H234528   4.438   8.345   2.508
11550TIP3   OH234529   6.049   7.260   4.245
11550TIP3    H134530   6.067   7.224   4.335
11550TIP3    H234531   6.136   7.251   4.201
11551TIP3   OH234532   5.992   8.809   3.738
11551TIP3    H134533   5.913   8.776   3.690
11551TIP3    H234534   5.972   8.905   3.737
11552TIP3   OH234535   7.261   8.192   2.507
11552TIP3    H134536   7.224   8.279   2.478
11552TIP3    H234537   7.186   8.134   2.485
11553TIP3   OH234538   7.258   8.180   2.880
11553TIP3    H134539   7.274   8.118   2.953
11553TIP3    H234540   7.235   8.111   2.813
11554TIP3   OH234541   6.555   8.083   3.256
11554TIP3    H134542   6.593   8.013   3.313
11554TIP3    H234543   6.633   8.132   3.229
11555TIP3   OH234544   7.497   8.482   2.559
11555TIP3    H134545   7.480   8.410   2.621
11555TIP3    H234546   7.522   8.555   2.617
11556TIP3   OH234547   6.522   8.481   2.986
11556TIP3    H134548   6.513   8.384   2.986
11556TIP3    H234549   6.618   8.487   2.967
11557TIP3   OH234550   6.230   7.690   2.765
11557TIP3    H134551   6.183   7.775   2.774
11557TIP3    H234552   6.160   7.635   2.727
11558TIP3   OH234553   6.292   7.977   2.927
11558TIP3    H134554   6.341   7.901   2.965
11558TIP3    H234555   6.351   8.005   2.856
11559TIP3   OH234556   7.156   8.952   2.586
11559TIP3    H134557   7.203   8.879   2.540
11559TIP3    H234558   7.095   8.904   2.644
11560TIP3   OH234559   7.070   8.398   2.954
11560TIP3    H134560   7.077   8.322   2.893
11560TIP3    H234561   7.140   8.454   2.920
11561TIP3   OH234562   8.063   7.728   2.929
11561TIP3    H134563   8.094   7.810   2.972
11561TIP3    H234564   8.084   7.746   2.836
11562TIP3   OH234565   7.484   7.922   2.976
11562TIP3    H134566   7.519   7.832   2.988
11562TIP3    H234567   7.405   7.903   2.920
11563TIP3   OH234568   6.793   7.568   2.935
11563TIP3    H134569   6.781   7.641   2.870
11563TIP3    H234570   6.751   7.495   2.886
11564TIP3   OH234571   7.503   7.623   2.547
11564TIP3    H134572   7.569   7.630   2.619
11564TIP3    H234573   7.523   7.703   2.497
11565TIP3   OH234574   6.436   7.770   3.038
11565TIP3    H134575   6.520   7.749   3.083
11565TIP3    H234576   6.447   7.715   2.957
11566TIP3   OH234577   6.881   7.964   2.833
11566TIP3    H134578   6.975   7.943   2.817
11566TIP3    H234579   6.838   7.883   2.798
11567TIP3   OH234580   8.141   7.934   3.099
11567TIP3    H134581   8.057   7.981   3.079
11567TIP3    H234582   8.149   7.952   3.194
11568TIP3   OH234583   6.797   7.551   3.366
11568TIP3    H134584   6.739   7.588   3.297
11568TIP3    H234585   6.746   7.572   3.446
11569TIP3   OH234586   7.152   8.408   2.373
11569TIP3    H134587   7.104   8.375   2.296
11569TIP3    H234588   7.113   8.497   2.383
11570TIP3   OH234589   6.907   8.324   3.166
11570TIP3    H134590   6.843   8.390   3.201
11570TIP3    H234591   6.939   8.368   3.084
11571TIP3   OH234592   7.713   7.659   2.723
11571TIP3    H134593   7.699   7.610   2.805
11571TIP3    H234594   7.765   7.736   2.753
11572TIP3   OH234595   6.668   7.667   3.153
11572TIP3    H134596   6.734   7.738   3.172
11572TIP3    H234597   6.713   7.625   3.075
11573TIP3   OH234598   6.733   8.512   3.262
11573TIP3    H134599   6.718   8.597   3.218
11573TIP3    H234600   6.652   8.508   3.317
11574TIP3   OH234601   6.130   8.208   2.495
11574TIP3    H134602   6.090   8.235   2.410
11574TIP3    H234603   6.160   8.294   2.532
11575TIP3   OH234604   7.575   8.722   2.736
11575TIP3    H134605   7.486   8.715   2.776
11575TIP3    H234606   7.564   8.805   2.686
11576TIP3   OH234607   7.856   7.631   3.099
11576TIP3    H134608   7.767   7.653   3.066
11576TIP3    H234609   7.913   7.659   3.025
11577TIP3   OH234610   7.159   7.270   3.077
11577TIP3    H134611   7.144   7.175   3.093
11577TIP3    H234612   7.082   7.309   3.122
11578TIP3   OH234613   7.294   8.775   2.427
11578TIP3    H134614   7.331   8.692   2.391
11578TIP3    H234615   7.343   8.841   2.372
11579TIP3   OH234616   7.416   8.557   2.307
11579TIP3    H134617   7.369   8.481   2.272
11579TIP3    H234618   7.450   8.522   2.392
11580TIP3   OH234619   7.791   8.638   3.086
11580TIP3    H134620   7.778   8.561   3.027
11580TIP3    H234621   7.777   8.713   3.024
11581TIP3   OH234622   7.090   8.047   2.332
11581TIP3    H134623   7.006   8.091   2.307
11581TIP3    H234624   7.133   8.033   2.246
11582TIP3   OH234625   7.044   7.816   2.052
11582TIP3    H134626   7.110   7.861   2.107
11582TIP3    H234627   7.101   7.751   2.006
11583TIP3   OH234628   7.989   8.277   2.922
11583TIP3    H134629   7.906   8.329   2.925
11583TIP3    H234630   8.018   8.296   2.830
11584TIP3   OH234631   7.432   8.114   2.308
11584TIP3    H134632   7.378   8.142   2.386
11584TIP3    H234633   7.515   8.087   2.354
11585TIP3   OH234634   7.678   8.154   3.214
11585TIP3    H134635   7.667   8.238   3.260
11585TIP3    H234636   7.590   8.146   3.171
11586TIP3   OH234637   6.664   8.112   2.726
11586TIP3    H134638   6.623   8.057   2.656
11586TIP3    H234639   6.743   8.060   2.750
11587TIP3   OH234640   6.777   8.479   2.886
11587TIP3    H134641   6.755   8.491   2.792
11587TIP3    H234642   6.863   8.522   2.889
11588TIP3   OH234643   6.801   8.086   3.079
11588TIP3    H134644   6.833   8.061   2.989
11588TIP3    H234645   6.842   8.174   3.091
11589TIP3   OH234646   7.337   8.725   2.856
11589TIP3    H134647   7.298   8.806   2.893
11589TIP3    H234648   7.318   8.656   2.920
11590TIP3   OH234649   7.278   7.971   2.133
11590TIP3    H134650   7.333   8.032   2.187
11590TIP3    H234651   7.303   7.998   2.041
11591TIP3   OH234652   6.695   8.196   3.503
11591TIP3    H134653   6.691   8.283   3.546
11591TIP3    H234654   6.600   8.176   3.493
11592TIP3   OH234655   7.024   8.658   2.385
11592TIP3    H134656   7.068   8.699   2.460
11592TIP3    H234657   6.939   8.704   2.384
11593TIP3   OH234658   6.743   8.808   3.493
11593TIP3    H134659   6.721   8.800   3.398
11593TIP3    H234660   6.659   8.784   3.536
11594TIP3   OH234661   7.789   7.215   2.178
11594TIP3    H134662   7.709   7.234   2.231
11594TIP3    H234663   7.802   7.301   2.132
11595TIP3   OH234664   6.531   7.955   2.529
11595TIP3    H134665   6.469   8.002   2.469
11595TIP3    H234666   6.487   7.870   2.538
11596TIP3   OH234667   7.587   8.582   1.727
11596TIP3    H134668   7.589   8.679   1.707
11596TIP3    H234669   7.680   8.557   1.708
11597TIP3   OH234670   6.313   8.340   3.434
11597TIP3    H134671   6.250   8.321   3.362
11597TIP3    H234672   6.348   8.251   3.457
11598TIP3   OH234673   6.167   8.529   3.075
11598TIP3    H134674   6.262   8.525   3.056
11598TIP3    H234675   6.159   8.614   3.120
11599TIP3   OH234676   8.027   8.980   3.117
11599TIP3    H134677   8.028   8.883   3.130
11599TIP3    H234678   7.945   9.004   3.166
11600TIP3   OH234679   7.144   8.773   3.264
11600TIP3    H134680   7.146   8.869   3.287
11600TIP3    H234681   7.049   8.756   3.276
11601TIP3   OH234682   6.895   8.906   2.202
11601TIP3    H134683   6.846   8.887   2.119
11601TIP3    H234684   6.863   8.995   2.227
11602TIP3   OH234685   6.334   8.751   2.595
11602TIP3    H134686   6.387   8.740   2.677
11602TIP3    H234687   6.273   8.676   2.603
11603TIP3   OH234688   7.100   8.800   1.851
11603TIP3    H134689   7.160   8.731   1.816
11603TIP3    H234690   7.132   8.809   1.943
11604TIP3   OH234691   7.146   8.845   2.124
11604TIP3    H134692   7.057   8.857   2.164
11604TIP3    H234693   7.189   8.794   2.195
11605TIP3   OH234694   7.915   8.119   3.392
11605TIP3    H134695   7.843   8.116   3.327
11605TIP3    H234696   7.940   8.024   3.394
11606TIP3   OH234697   6.515   8.525   3.427
11606TIP3    H134698   6.564   8.503   3.508
11606TIP3    H234699   6.442   8.460   3.428
11607TIP3   OH234700   6.918   7.343   3.205
11607TIP3    H134701   6.827   7.315   3.182
11607TIP3    H234702   6.899   7.431   3.242
11608TIP3   OH234703   7.451   7.465   3.399
11608TIP3    H134704   7.518   7.435   3.464
11608TIP3    H234705   7.366   7.442   3.442
11609TIP3   OH234706   7.697   7.888   3.322
11609TIP3    H134707   7.645   7.884   3.406
11609TIP3    H234708   7.666   7.971   3.282
11610TIP3   OH234709   7.349   8.023   1.875
11610TIP3    H134710   7.318   7.995   1.787
11610TIP3    H234711   7.427   8.076   1.851
11611TIP3   OH234712   7.062   7.398   2.176
11611TIP3    H134713   7.035   7.399   2.270
11611TIP3    H234714   7.025   7.313   2.147
11612TIP3   OH234715   6.846   7.865   3.226
11612TIP3    H134716   6.791   7.885   3.304
11612TIP3    H234717   6.831   7.943   3.169
11613TIP3   OH234718   6.733   7.747   2.739
11613TIP3    H134719   6.640   7.722   2.753
11613TIP3    H234720   6.750   7.708   2.651
11614TIP3   OH234721   7.197   7.809   2.424
11614TIP3    H134722   7.163   7.900   2.416
11614TIP3    H234723   7.280   7.812   2.374
11615TIP3   OH234724   7.397   8.130   3.563
11615TIP3    H134725   7.374   8.050   3.615
11615TIP3    H234726   7.493   8.134   3.579
11616TIP3   OH234727   6.671   7.893   3.436
11616TIP3    H134728   6.689   7.955   3.508
11616TIP3    H234729   6.659   7.809   3.483
11617TIP3   OH234730   6.716   7.365   2.143
11617TIP3    H134731   6.713   7.365   2.241
11617TIP3    H234732   6.638   7.419   2.123
11618TIP3   OH234733   6.261   7.414   3.016
11618TIP3    H134734   6.339   7.446   3.067
11618TIP3    H234735   6.300   7.383   2.933
11619TIP3   OH234736   6.241   7.395   2.535
11619TIP3    H134737   6.286   7.434   2.457
11619TIP3    H234738   6.179   7.468   2.556
11620TIP3   OH234739   7.411   8.121   3.143
11620TIP3    H134740   7.438   8.053   3.077
11620TIP3    H234741   7.370   8.062   3.211
11621TIP3   OH234742   7.059   7.551   2.808
11621TIP3    H134743   6.982   7.564   2.866
11621TIP3    H234744   7.124   7.612   2.849
11622TIP3   OH234745   6.493   7.624   2.813
11622TIP3    H134746   6.400   7.630   2.783
11622TIP3    H234747   6.519   7.534   2.786
11623TIP3   OH234748   6.767   7.623   2.497
11623TIP3    H134749   6.863   7.636   2.484
11623TIP3    H234750   6.727   7.649   2.412
11624TIP3   OH234751   7.554   7.645   3.008
11624TIP3    H134752   7.507   7.656   3.093
11624TIP3    H234753   7.489   7.590   2.961
11625TIP3   OH234754   6.600   7.654   2.276
11625TIP3    H134755   6.528   7.612   2.226
11625TIP3    H234756   6.654   7.691   2.202
11626TIP3   OH234757   7.715   9.332   3.220
11626TIP3    H134758   7.718   9.355   3.124
11626TIP3    H234759   7.790   9.384   3.254
11627TIP3   OH234760   6.679   8.440   3.648
11627TIP3    H134761   6.732   8.486   3.712
11627TIP3    H234762   6.597   8.430   3.702
11628TIP3   OH234763   6.670   7.389   2.771
11628TIP3    H134764   6.642   7.306   2.813
11628TIP3    H234765   6.728   7.359   2.700
11629TIP3   OH234766   7.115   7.774   3.221
11629TIP3    H134767   7.034   7.821   3.194
11629TIP3    H234768   7.183   7.844   3.225
11630TIP3   OH234769   6.854   8.189   2.281
11630TIP3    H134770   6.782   8.123   2.272
11630TIP3    H234771   6.840   8.220   2.374
11631TIP3   OH234772   7.755   8.424   2.917
11631TIP3    H134773   7.783   8.472   2.836
11631TIP3    H234774   7.673   8.379   2.886
11632TIP3   OH234775   7.314   7.503   2.128
11632TIP3    H134776   7.218   7.489   2.147
11632TIP3    H234777   7.331   7.594   2.163
11633TIP3   OH234778   7.398   7.740   2.232
11633TIP3    H134779   7.491   7.752   2.259
11633TIP3    H234780   7.375   7.825   2.189
11634TIP3   OH234781   6.543   8.201   2.962
11634TIP3    H134782   6.582   8.185   2.874
11634TIP3    H234783   6.591   8.135   3.016
11635TIP3   OH234784   7.002   8.335   2.100
11635TIP3    H134785   6.956   8.422   2.107
11635TIP3    H234786   6.948   8.280   2.161
11636TIP3   OH234787   6.426   8.128   3.573
11636TIP3    H134788   6.447   8.111   3.667
11636TIP3    H234789   6.357   8.062   3.553
11637TIP3   OH234790   7.145   8.262   3.590
11637TIP3    H134791   7.087   8.199   3.541
11637TIP3    H234792   7.232   8.221   3.568
11638TIP3   OH234793   7.419   8.700   3.236
11638TIP3    H134794   7.332   8.730   3.199
11638TIP3    H234795   7.451   8.789   3.266
11639TIP3   OH234796   7.831   7.831   2.083
11639TIP3    H134797   7.767   7.786   2.023
11639TIP3    H234798   7.827   7.920   2.043
11640TIP3   OH234799   8.045   8.688   3.167
11640TIP3    H134800   7.947   8.685   3.158
11640TIP3    H234801   8.071   8.658   3.077
11641TIP3   OH234802   7.524   8.652   1.990
11641TIP3    H134803   7.503   8.584   2.055
11641TIP3    H234804   7.538   8.602   1.907
11642TIP3   OH234805   7.517   8.279   2.844
11642TIP3    H134806   7.425   8.245   2.847
11642TIP3    H234807   7.559   8.205   2.796
11643TIP3   OH234808   6.647   8.500   2.588
11643TIP3    H134809   6.686   8.588   2.571
11643TIP3    H234810   6.554   8.517   2.569
11644TIP3   OH234811   6.212   7.815   2.283
11644TIP3    H134812   6.259   7.898   2.303
11644TIP3    H234813   6.135   7.822   2.345
11645TIP3   OH234814   6.795   8.276   2.531
11645TIP3    H134815   6.757   8.365   2.545
11645TIP3    H234816   6.757   8.229   2.607
11646TIP3   OH234817   6.928   8.856   3.084
11646TIP3    H134818   6.922   8.900   2.997
11646TIP3    H234819   7.022   8.838   3.088
11647TIP3   OH234820   6.559   8.748   2.424
11647TIP3    H134821   6.478   8.762   2.477
11647TIP3    H234822   6.608   8.830   2.443
11648TIP3   OH234823   7.342   8.491   3.028
11648TIP3    H134824   7.271   8.438   3.067
11648TIP3    H234825   7.382   8.428   2.965
11649TIP3   OH234826   7.279   8.378   1.893
11649TIP3    H134827   7.332   8.354   1.973
11649TIP3    H234828   7.190   8.356   1.925
11650TIP3   OH234829   7.551   9.022   3.059
11650TIP3    H134830   7.466   8.981   3.034
11650TIP3    H234831   7.553   9.096   2.995
11651TIP3   OH234832   7.605   8.856   1.701
11651TIP3    H134833   7.647   8.927   1.649
11651TIP3    H234834   7.531   8.907   1.741
11652TIP3   OH234835   6.642   7.638   3.586
11652TIP3    H134836   6.545   7.636   3.594
11652TIP3    H234837   6.669   7.570   3.649
11653TIP3   OH234838   7.439   8.314   2.110
11653TIP3    H134839   7.429   8.249   2.183
11653TIP3    H234840   7.537   8.313   2.100
11654TIP3   OH234841   6.354   8.721   3.217
11654TIP3    H134842   6.409   8.643   3.233
11654TIP3    H234843   6.396   8.786   3.275
11655TIP3   OH234844   6.650   8.363   1.893
11655TIP3    H134845   6.665   8.271   1.864
11655TIP3    H234846   6.632   8.350   1.988
11656TIP3   OH234847   6.595   8.366   2.166
11656TIP3    H134848   6.665   8.341   2.228
11656TIP3    H234849   6.599   8.464   2.171
11657TIP3   OH234850   6.332   8.062   2.368
11657TIP3    H134851   6.267   8.108   2.426
11657TIP3    H234852   6.349   8.131   2.302
11658TIP3   OH234853   7.468   7.710   3.272
11658TIP3    H134854   7.558   7.734   3.297
11658TIP3    H234855   7.456   7.623   3.316
11659TIP3   OH234856   7.354   7.442   2.415
11659TIP3    H134857   7.341   7.481   2.327
11659TIP3    H234858   7.401   7.516   2.462
11660TIP3   OH234859   6.856   8.563   2.111
11660TIP3    H134860   6.772   8.593   2.151
11660TIP3    H234861   6.879   8.639   2.056
11661TIP3   OH234862   7.044   7.621   2.533
11661TIP3    H134863   7.105   7.691   2.499
11661TIP3    H234864   7.062   7.626   2.629
11662TIP3   OH234865   7.318   7.953   3.334
11662TIP3    H134866   7.339   7.994   3.420
11662TIP3    H234867   7.367   7.868   3.337
11663TIP3   OH234868   7.199   7.361   2.635
11663TIP3    H134869   7.179   7.439   2.692
11663TIP3    H234870   7.254   7.402   2.565
11664TIP3   OH234871   6.599   8.639   2.177
11664TIP3    H134872   6.569   8.710   2.117
11664TIP3    H234873   6.581   8.680   2.265
11665TIP3   OH234874   6.704   7.353   2.421
11665TIP3    H134875   6.703   7.445   2.455
11665TIP3    H234876   6.800   7.334   2.430
11666TIP3   OH234877   7.964   7.850   3.314
11666TIP3    H134878   7.866   7.848   3.325
11666TIP3    H234879   7.970   7.806   3.228
11667TIP3   OH234880   7.604   8.042   2.706
11667TIP3    H134881   7.526   7.987   2.726
11667TIP3    H234882   7.676   7.993   2.752
11668TIP3   OH234883   6.319   8.276   2.176
11668TIP3    H134884   6.380   8.351   2.186
11668TIP3    H234885   6.368   8.225   2.108
11669TIP3   OH234886   6.266   7.546   2.308
11669TIP3    H134887   6.266   7.644   2.301
11669TIP3    H234888   6.181   7.524   2.269
11670TIP3   OH234889   7.552   8.990   2.664
11670TIP3    H134890   7.505   9.033   2.590
11670TIP3    H234891   7.644   9.013   2.638
11671TIP3   OH234892   6.650   7.268   3.185
11671TIP3    H134893   6.621   7.236   3.097
11671TIP3    H234894   6.642   7.188   3.241
11672TIP3   OH234895   6.195   8.486   2.572
11672TIP3    H134896   6.112   8.520   2.607
11672TIP3    H234897   6.190   8.520   2.480
11673TIP3   OH234898   6.345   9.021   3.635
11673TIP3    H134899   6.431   9.019   3.682
11673TIP3    H234900   6.321   8.926   3.632
11674TIP3   OH234901   6.830   8.987   3.691
11674TIP3    H134902   6.923   9.011   3.678
11674TIP3    H234903   6.809   8.937   3.610
11675TIP3   OH234904   6.812   8.568   1.807
11675TIP3    H134905   6.754   8.499   1.847
11675TIP3    H234906   6.887   8.513   1.778
11676TIP3   OH234907   7.467   8.904   3.425
11676TIP3    H134908   7.477   8.830   3.487
11676TIP3    H234909   7.548   8.957   3.442
11677TIP3   OH234910   7.249   8.610   1.717
11677TIP3    H134911   7.296   8.548   1.775
11677TIP3    H234912   7.305   8.611   1.637
11678TIP3   OH234913   6.479   8.429   3.833
11678TIP3    H134914   6.491   8.333   3.840
11678TIP3    H234915   6.390   8.435   3.792
11679TIP3   OH234916   6.455   8.085   2.025
11679TIP3    H134917   6.509   8.051   2.098
11679TIP3    H234918   6.523   8.090   1.954
11680TIP3   OH234919   6.960   8.281   1.831
11680TIP3    H134920   6.964   8.295   1.928
11680TIP3    H234921   6.958   8.183   1.828
11681TIP3   OH234922   6.597   8.163   3.816
11681TIP3    H134923   6.670   8.103   3.796
11681TIP3    H234924   6.621   8.196   3.904
11682TIP3   OH234925   6.664   7.985   2.250
11682TIP3    H134926   6.641   7.943   2.334
11682TIP3    H234927   6.700   7.910   2.199
11683TIP3   OH234928   6.938   8.064   3.485
11683TIP3    H134929   6.852   8.112   3.486
11683TIP3    H234930   6.968   8.078   3.393
11684TIP3   OH234931   6.762   7.776   2.092
11684TIP3    H134932   6.736   7.778   1.998
11684TIP3    H234933   6.860   7.786   2.085
11685TIP3   OH234934   7.590   8.113   1.748
11685TIP3    H134935   7.566   8.064   1.667
11685TIP3    H234936   7.557   8.202   1.724
11686TIP3   OH234937   7.051   7.835   3.609
11686TIP3    H134938   7.055   7.754   3.554
11686TIP3    H234939   7.015   7.900   3.545
11687TIP3   OH234940   7.053   7.617   3.426
11687TIP3    H134941   7.085   7.665   3.346
11687TIP3    H234942   6.962   7.596   3.399
11688TIP3   OH234943   7.116   8.198   3.286
11688TIP3    H134944   7.160   8.149   3.215
11688TIP3    H234945   7.042   8.243   3.238
11689TIP3   OH234946   7.668   8.132   3.660
11689TIP3    H134947   7.703   8.049   3.696
11689TIP3    H234948   7.750   8.181   3.646
11690TIP3   OH234949   7.684   8.415   3.348
11690TIP3    H134950   7.727   8.491   3.305
11690TIP3    H234951   7.768   8.367   3.365
11691TIP3   OH234952   6.927   7.958   3.830
11691TIP3    H134953   6.862   7.887   3.844
11691TIP3    H234954   6.967   7.930   3.745
11692TIP3   OH234955   7.193   7.388   3.476
11692TIP3    H134956   7.144   7.471   3.456
11692TIP3    H234957   7.123   7.321   3.462
11693TIP3   OH234958   7.313   7.906   3.692
11693TIP3    H134959   7.314   7.887   3.787
11693TIP3    H234960   7.224   7.872   3.669
11694TIP3   OH234961   7.558   7.849   3.551
11694TIP3    H134962   7.483   7.842   3.612
11694TIP3    H234963   7.633   7.815   3.604
11695TIP3   OH234964   7.786   7.778   3.694
11695TIP3    H134965   7.797   7.685   3.721
11695TIP3    H234966   7.779   7.827   3.779
11696TIP3   OH234967   6.774   7.737   3.886
11696TIP3    H134968   6.782   7.649   3.844
11696TIP3    H234969   6.812   7.718   3.974
11697TIP3   OH234970   7.285   7.398   3.733
11697TIP3    H134971   7.354   7.329   3.728
11697TIP3    H234972   7.247   7.391   3.643
11698TIP3   OH234973   7.350   7.612   3.895
11698TIP3    H134974   7.328   7.541   3.830
11698TIP3    H234975   7.274   7.673   3.885
11699TIP3   OH234976   6.569   8.842   1.991
11699TIP3    H134977   6.665   8.841   1.974
11699TIP3    H234978   6.539   8.890   1.912
11700TIP3   OH234979   6.052   8.223   2.214
11700TIP3    H134980   6.146   8.247   2.199
11700TIP3    H234981   6.048   8.135   2.171
11701TIP3   OH234982   5.962   8.837   2.622
11701TIP3    H134983   5.895   8.773   2.588
11701TIP3    H234984   6.008   8.782   2.689
11702TIP3   OH234985   6.099   8.695   2.810
11702TIP3    H134986   6.092   8.616   2.865
11702TIP3    H234987   6.153   8.753   2.867
11703TIP3   OH234988   7.789   9.090   2.601
11703TIP3    H134989   7.834   9.116   2.683
11703TIP3    H234990   7.843   9.140   2.539
11704TIP3   OH234991   7.864   9.106   2.889
11704TIP3    H134992   7.822   9.018   2.883
11704TIP3    H234993   7.944   9.082   2.940
11705TIP3   OH234994   7.899   8.787   3.463
11705TIP3    H134995   7.830   8.796   3.532
11705TIP3    H234996   7.944   8.874   3.466
11706TIP3   OH234997   7.721   8.301   2.086
11706TIP3    H134998   7.793   8.362   2.061
11706TIP3    H234999   7.760   8.259   2.165
11707TIP3   OH235000   7.848   8.168   2.288
11707TIP3    H135001   7.782   8.123   2.346
11707TIP3    H235002   7.910   8.207   2.352
11708TIP3   OH235003   7.899   8.554   2.724
11708TIP3    H135004   7.952   8.493   2.669
11708TIP3    H235005   7.888   8.630   2.664
11709TIP3   OH235006   7.736   8.855   2.922
11709TIP3    H135007   7.662   8.901   2.966
11709TIP3    H235008   7.690   8.808   2.849
11710TIP3   OH235009   7.787   8.074   1.937
11710TIP3    H135010   7.716   8.078   1.869
11710TIP3    H235011   7.760   8.150   1.992
11711TIP3   OH235012   7.661   7.746   1.890
11711TIP3    H135013   7.616   7.789   1.817
11711TIP3    H235014   7.631   7.653   1.879
11712TIP3   OH235015   7.665   8.022   2.438
11712TIP3    H135016   7.670   7.925   2.429
11712TIP3    H235017   7.649   8.033   2.534
11713TIP3   OH235018   6.290   8.092   3.183
11713TIP3    H135019   6.289   8.068   3.088
11713TIP3    H235020   6.387   8.098   3.198
11714TIP3   OH235021   7.950   8.447   3.294
11714TIP3    H135022   8.022   8.380   3.287
11714TIP3    H235023   7.979   8.515   3.231
11715TIP3   OH235024   8.136   8.257   3.319
11715TIP3    H135025   8.063   8.201   3.353
11715TIP3    H235026   8.211   8.194   3.329
11716TIP3   OH235027   7.603   7.480   1.877
11716TIP3    H135028   7.679   7.453   1.933
11716TIP3    H235029   7.530   7.425   1.908
11717TIP3   OH235030   7.663   7.746   2.328
11717TIP3    H135031   7.693   7.656   2.351
11717TIP3    H235032   7.726   7.769   2.258
11718TIP3   OH235033   7.823   7.917   2.825
11718TIP3    H135034   7.909   7.943   2.786
11718TIP3    H235035   7.836   7.948   2.916
11719TIP3   OH235036   7.893   8.055   3.060
11719TIP3    H135037   7.812   8.087   3.104
11719TIP3    H235038   7.924   8.135   3.012
11720TIP3   OH235039   6.506   7.786   3.865
11720TIP3    H135040   6.604   7.776   3.857
11720TIP3    H235041   6.483   7.698   3.900
11721TIP3   OH235042   8.343   7.645   3.617
11721TIP3    H135043   8.400   7.578   3.573
11721TIP3    H235044   8.316   7.701   3.541
11722TIP3   OH235045   7.772   7.487   2.365
11722TIP3    H135046   7.815   7.475   2.452
11722TIP3    H235047   7.706   7.415   2.367
11723TIP3   OH235048   6.468   7.477   3.194
11723TIP3    H135049   6.529   7.401   3.199
11723TIP3    H235050   6.530   7.550   3.184
11724TIP3   OH235051   6.274   7.751   3.265
11724TIP3    H135052   6.321   7.737   3.180
11724TIP3    H235053   6.302   7.842   3.285
11725TIP3   OH235054   8.216   7.790   3.424
11725TIP3    H135055   8.127   7.826   3.445
11725TIP3    H235056   8.192   7.719   3.363
11726TIP3   OH235057   7.852   7.427   1.999
11726TIP3    H135058   7.893   7.353   1.951
11726TIP3    H235059   7.920   7.497   1.992
11727TIP3   OH235060   6.253   7.256   2.764
11727TIP3    H135061   6.158   7.253   2.786
11727TIP3    H235062   6.254   7.312   2.684
11728TIP3   OH235063   7.417   8.958   2.269
11728TIP3    H135064   7.454   8.930   2.183
11728TIP3    H235065   7.484   9.021   2.297
11729TIP3   OH235066   6.475   7.339   3.581
11729TIP3    H135067   6.420   7.327   3.660
11729TIP3    H235068   6.408   7.371   3.517
11730TIP3   OH235069   6.520   8.745   3.666
11730TIP3    H135070   6.430   8.723   3.633
11730TIP3    H235071   6.504   8.748   3.761
11731TIP3   OH235072   6.692   8.790   3.207
11731TIP3    H135073   6.642   8.863   3.164
11731TIP3    H235074   6.778   8.805   3.162
11732TIP3   OH235075   7.139   9.037   3.337
11732TIP3    H135076   7.181   9.042   3.426
11732TIP3    H235077   7.203   9.089   3.284
11733TIP3   OH235078   7.319   9.184   3.200
11733TIP3    H135079   7.390   9.139   3.151
11733TIP3    H235080   7.371   9.244   3.257
11734TIP3   OH235081   8.110   7.552   3.299
11734TIP3    H135082   8.019   7.548   3.263
11734TIP3    H235083   8.139   7.458   3.287
11735TIP3   OH235084   6.369   9.047   3.226
11735TIP3    H135085   6.283   9.084   3.196
11735TIP3    H235086   6.368   9.076   3.318
11736TIP3   OH235087   6.606   9.028   3.083
11736TIP3    H135088   6.519   9.043   3.127
11736TIP3    H235089   6.589   9.062   2.993
11737TIP3   OH235090   7.039   9.062   2.879
11737TIP3    H135091   6.968   9.069   2.812
11737TIP3    H235092   7.040   9.152   2.915
11738TIP3   OH235093   7.298   8.996   2.939
11738TIP3    H135094   7.203   9.009   2.915
11738TIP3    H235095   7.338   9.065   2.884
11739TIP3   OH235096   7.518   9.195   2.846
11739TIP3    H135097   7.489   9.266   2.787
11739TIP3    H235098   7.537   9.123   2.781
11740TIP3   OH235099   6.282   8.840   2.969
11740TIP3    H135100   6.308   8.818   3.061
11740TIP3    H235101   6.357   8.800   2.920
11741TIP3   OH235102   6.482   8.713   2.825
11741TIP3    H135103   6.494   8.628   2.872
11741TIP3    H235104   6.574   8.737   2.805
11742TIP3   OH235105   7.334   7.464   2.934
11742TIP3    H135106   7.271   7.399   2.969
11742TIP3    H235107   7.382   7.414   2.867
11743TIP3   OH235108   7.846   7.345   2.825
11743TIP3    H135109   7.880   7.398   2.750
11743TIP3    H235110   7.749   7.360   2.818
11744TIP3   OH235111   7.937   7.447   2.586
11744TIP3    H135112   8.010   7.398   2.544
11744TIP3    H235113   7.967   7.540   2.572
11745TIP3   OH235114   6.566   7.175   2.937
11745TIP3    H135115   6.473   7.142   2.934
11745TIP3    H235116   6.615   7.090   2.932
11746TIP3   OH235117   6.349   7.042   2.578
11746TIP3    H135118   6.381   7.101   2.508
11746TIP3    H235119   6.320   7.106   2.646
11747TIP3   OH235120   7.007   7.207   2.814
11747TIP3    H135121   7.060   7.263   2.755
11747TIP3    H235122   7.025   7.248   2.900
11748TIP3   OH235123   7.571   7.349   2.798
11748TIP3    H135124   7.545   7.329   2.708
11748TIP3    H235125   7.543   7.268   2.847
11749TIP3   OH235126   7.584   7.274   2.358
11749TIP3    H135127   7.498   7.320   2.369
11749TIP3    H235128   7.567   7.191   2.407
11750TIP3   OH235129   6.066   8.610   2.366
11750TIP3    H135130   5.983   8.579   2.328
11750TIP3    H235131   6.056   8.706   2.351
11751TIP3   OH235132   6.466   7.203   2.347
11751TIP3    H135133   6.517   7.143   2.289
11751TIP3    H235134   6.537   7.260   2.383
11752TIP3   OH235135   6.982   7.374   2.445
11752TIP3    H135136   7.045   7.330   2.505
11752TIP3    H235137   7.001   7.468   2.471
11753TIP3   OH235138   6.838   8.808   1.940
11753TIP3    H135139   6.928   8.828   1.907
11753TIP3    H235140   6.818   8.730   1.883
11754TIP3   OH235141   7.551   8.916   2.034
11754TIP3    H135142   7.545   8.819   2.019
11754TIP3    H235143   7.511   8.950   1.952
11755TIP3   OH235144   6.770   7.457   3.828
11755TIP3    H135145   6.741   7.382   3.883
11755TIP3    H235146   6.866   7.458   3.849
11756TIP3   OH235147   7.020   7.454   3.945
11756TIP3    H135148   7.105   7.432   3.903
11756TIP3    H235149   7.012   7.382   4.010
11757TIP3   OH235150   6.144   8.641   2.003
11757TIP3    H135151   6.144   8.673   2.094
11757TIP3    H235152   6.234   8.602   1.993
11758TIP3   OH235153   7.845   7.509   3.731
11758TIP3    H135154   7.866   7.480   3.822
11758TIP3    H235155   7.933   7.508   3.688
11759TIP3   OH235156   7.783   9.066   3.227
11759TIP3    H135157   7.707   9.034   3.175
11759TIP3    H235158   7.769   9.162   3.222
11760TIP3   OH235159   8.350   8.331   2.736
11760TIP3    H135160   8.383   8.267   2.802
11760TIP3    H235161   8.422   8.395   2.734
11761TIP3   OH235162   8.306   8.714   2.458
11761TIP3    H135163   8.319   8.617   2.459
11761TIP3    H235164   8.393   8.748   2.485
11762TIP3   OH235165   8.028   7.950   2.251
11762TIP3    H135166   7.978   8.032   2.261
11762TIP3    H235167   7.958   7.891   2.218
11763TIP3   OH235168   8.090   8.236   2.416
11763TIP3    H135169   8.137   8.158   2.453
11763TIP3    H235170   8.145   8.257   2.339
11764TIP3   OH235171   8.590   7.825   2.421
11764TIP3    H135172   8.576   7.897   2.355
11764TIP3    H235173   8.546   7.751   2.373
11765TIP3   OH235174   8.233   8.028   2.523
11765TIP3    H135175   8.315   8.005   2.571
11765TIP3    H235176   8.243   7.972   2.444
11766TIP3   OH235177   8.671   8.236   2.320
11766TIP3    H135178   8.767   8.214   2.307
11766TIP3    H235179   8.630   8.152   2.289
11767TIP3   OH235180   8.594   7.807   2.850
11767TIP3    H135181   8.532   7.843   2.784
11767TIP3    H235182   8.544   7.825   2.933
11768TIP3   OH235183   8.464   7.924   2.638
11768TIP3    H135184   8.530   7.993   2.660
11768TIP3    H235185   8.510   7.880   2.562
11769TIP3   OH235186   7.930   8.462   1.978
11769TIP3    H135187   7.873   8.495   1.907
11769TIP3    H235188   7.950   8.545   2.027
11770TIP3   OH235189   8.951   7.515   2.573
11770TIP3    H135190   8.937   7.420   2.594
11770TIP3    H235191   8.873   7.555   2.617
11771TIP3   OH235192   8.440   8.352   2.222
11771TIP3    H135193   8.406   8.313   2.139
11771TIP3    H235194   8.531   8.317   2.224
11772TIP3   OH235195   8.603   8.352   2.564
11772TIP3    H135196   8.602   8.315   2.473
11772TIP3    H235197   8.604   8.448   2.548
11773TIP3   OH235198   8.489   8.456   2.979
11773TIP3    H135199   8.491   8.538   3.032
11773TIP3    H235200   8.394   8.434   2.986
11774TIP3   OH235201   8.329   8.214   2.006
11774TIP3    H135202   8.262   8.256   1.948
11774TIP3    H235203   8.286   8.130   2.026
11775TIP3   OH235204   8.102   8.591   2.922
11775TIP3    H135205   8.040   8.568   2.849
11775TIP3    H235206   8.139   8.503   2.947
11776TIP3   OH235207   7.965   8.786   2.560
11776TIP3    H135208   8.058   8.775   2.534
11776TIP3    H235209   7.967   8.866   2.614
11777TIP3   OH235210   8.301   8.772   2.916
11777TIP3    H135211   8.352   8.744   2.994
11777TIP3    H235212   8.236   8.700   2.909
11778TIP3   OH235213   8.712   7.603   2.687
11778TIP3    H135214   8.620   7.574   2.667
11778TIP3    H235215   8.693   7.687   2.731
11779TIP3   OH235216   9.246   7.709   2.878
11779TIP3    H135217   9.315   7.699   2.947
11779TIP3    H235218   9.163   7.701   2.929
11780TIP3   OH235219   8.847   7.642   1.664
11780TIP3    H135220   8.814   7.652   1.755
11780TIP3    H235221   8.800   7.561   1.637
11781TIP3   OH235222   8.639   8.123   2.712
11781TIP3    H135223   8.586   8.137   2.793
11781TIP3    H235224   8.620   8.203   2.659
11782TIP3   OH235225   8.530   8.009   2.227
11782TIP3    H135226   8.437   7.979   2.241
11782TIP3    H235227   8.548   7.969   2.139
11783TIP3   OH235228   8.465   8.149   2.923
11783TIP3    H135229   8.490   8.208   2.996
11783TIP3    H235230   8.454   8.064   2.970
11784TIP3   OH235231   8.508   7.618   1.635
11784TIP3    H135232   8.504   7.618   1.732
11784TIP3    H235233   8.429   7.671   1.612
11785TIP3   OH235234   8.058   7.673   2.500
11785TIP3    H135235   8.135   7.701   2.553
11785TIP3    H235236   8.097   7.636   2.419
11786TIP3   OH235237   8.037   7.652   2.020
11786TIP3    H135238   8.083   7.692   1.944
11786TIP3    H235239   7.975   7.724   2.043
11787TIP3   OH235240   8.838   7.838   2.287
11787TIP3    H135241   8.763   7.828   2.349
11787TIP3    H235242   8.914   7.814   2.345
11788TIP3   OH235243   8.291   7.881   2.297
11788TIP3    H135244   8.197   7.888   2.270
11788TIP3    H235245   8.315   7.790   2.274
11789TIP3   OH235246   8.563   7.876   1.985
11789TIP3    H135247   8.657   7.901   1.971
11789TIP3    H235248   8.520   7.904   1.902
11790TIP3   OH235249   8.396   7.902   1.764
11790TIP3    H135250   8.314   7.862   1.729
11790TIP3    H235251   8.429   7.944   1.684
11791TIP3   OH235252   8.466   8.687   3.128
11791TIP3    H135253   8.543   8.739   3.154
11791TIP3    H235254   8.409   8.694   3.207
11792TIP3   OH235255   8.466   7.645   2.259
11792TIP3    H135256   8.436   7.563   2.303
11792TIP3    H235257   8.521   7.612   2.187
11793TIP3   OH235258   8.913   8.030   2.695
11793TIP3    H135259   8.832   8.081   2.680
11793TIP3    H235260   8.982   8.098   2.698
11794TIP3   OH235261   8.351   8.448   2.455
11794TIP3    H135262   8.373   8.414   2.365
11794TIP3    H235263   8.372   8.372   2.511
11795TIP3   OH235264   8.225   8.385   3.059
11795TIP3    H135265   8.249   8.371   3.153
11795TIP3    H235266   8.158   8.316   3.045
11796TIP3   OH235267   8.007   8.072   1.770
11796TIP3    H135268   8.054   8.155   1.789
11796TIP3    H235269   7.931   8.078   1.832
11797TIP3   OH235270   8.438   7.893   3.069
11797TIP3    H135271   8.342   7.895   3.083
11797TIP3    H235272   8.467   7.829   3.136
11798TIP3   OH235273   8.142   8.963   2.771
11798TIP3    H135274   8.167   8.879   2.813
11798TIP3    H235275   8.208   9.021   2.814
11799TIP3   OH235276   8.128   8.318   1.848
11799TIP3    H135277   8.067   8.372   1.904
11799TIP3    H235278   8.191   8.385   1.815
11800TIP3   OH235279   8.846   7.878   2.017
11800TIP3    H135280   8.930   7.925   2.006
11800TIP3    H235281   8.842   7.874   2.115
11801TIP3   OH235282   8.984   7.624   2.124
11801TIP3    H135283   8.970   7.684   2.199
11801TIP3    H235284   9.051   7.678   2.076
11802TIP3   OH235285   8.500   7.609   1.910
11802TIP3    H135286   8.500   7.701   1.944
11802TIP3    H235287   8.595   7.589   1.919
11803TIP3   OH235288   8.065   7.805   1.793
11803TIP3    H135289   8.061   7.902   1.788
11803TIP3    H235290   7.979   7.779   1.759
11804TIP3   OH235291   8.446   7.524   2.672
11804TIP3    H135292   8.417   7.490   2.585
11804TIP3    H235293   8.439   7.445   2.729
11805TIP3   OH235294   7.959   8.717   2.070
11805TIP3    H135295   7.887   8.777   2.095
11805TIP3    H235296   7.978   8.750   1.980
11806TIP3   OH235297   8.121   9.260   3.165
11806TIP3    H135298   8.217   9.254   3.158
11806TIP3    H235299   8.098   9.172   3.132
11807TIP3   OH235300   8.272   8.686   3.324
11807TIP3    H135301   8.292   8.590   3.326
11807TIP3    H235302   8.186   8.687   3.277
11808TIP3   OH235303   8.392   8.417   3.302
11808TIP3    H135304   8.467   8.358   3.285
11808TIP3    H235305   8.416   8.452   3.390
11809TIP3   OH235306   8.438   8.202   1.712
11809TIP3    H135307   8.417   8.185   1.804
11809TIP3    H235308   8.515   8.144   1.694
11810TIP3   OH235309   8.725   8.306   2.963
11810TIP3    H135310   8.650   8.367   2.977
11810TIP3    H235311   8.738   8.310   2.868
11811TIP3   OH235312   8.841   8.086   3.096
11811TIP3    H135313   8.846   8.007   3.039
11811TIP3    H235314   8.810   8.155   3.034
11812TIP3   OH235315   8.850   7.876   2.908
11812TIP3    H135316   8.881   7.920   2.825
11812TIP3    H235317   8.758   7.853   2.883
11813TIP3   OH235318   8.723   8.214   3.316
11813TIP3    H135319   8.658   8.143   3.331
11813TIP3    H235320   8.762   8.185   3.231
11814TIP3   OH235321   8.987   7.647   2.967
11814TIP3    H135322   8.938   7.729   2.944
11814TIP3    H235323   8.917   7.579   2.953
11815TIP3   OH235324   9.085   8.191   3.204
11815TIP3    H135325   9.074   8.151   3.292
11815TIP3    H235326   9.007   8.156   3.158
11816TIP3   OH235327   8.568   7.993   3.371
11816TIP3    H135328   8.577   7.904   3.332
11816TIP3    H235329   8.603   7.977   3.461
11817TIP3   OH235330   9.081   7.652   3.222
11817TIP3    H135331   9.151   7.585   3.213
11817TIP3    H235332   9.042   7.649   3.132
11818TIP3   OH235333   9.139   7.863   3.386
11818TIP3    H135334   9.124   7.796   3.316
11818TIP3    H235335   9.063   7.923   3.374
11819TIP3   OH235336   7.847   8.483   1.683
11819TIP3    H135337   7.942   8.495   1.697
11819TIP3    H235338   7.842   8.390   1.651
11820TIP3   OH235339   7.741   9.094   2.118
11820TIP3    H135340   7.684   9.023   2.080
11820TIP3    H235341   7.804   9.042   2.172
11821TIP3   OH235342   7.889   8.943   2.292
11821TIP3    H135343   7.890   8.868   2.352
11821TIP3    H235344   7.934   9.011   2.344
11822TIP3   OH235345   8.085   8.352   2.669
11822TIP3    H135346   8.083   8.325   2.574
11822TIP3    H235347   8.182   8.353   2.685
11823TIP3   OH235348   8.302   8.044   3.347
11823TIP3    H135349   8.399   8.035   3.344
11823TIP3    H235350   8.277   7.958   3.387
11824TIP3   OH235351   8.264   7.732   2.676
11824TIP3    H135352   8.325   7.657   2.686
11824TIP3    H235353   8.327   7.806   2.670
11825TIP3   OH235354   8.070   8.009   2.750
11825TIP3    H135355   8.116   7.994   2.666
11825TIP3    H235356   8.103   8.096   2.773
11826TIP3   OH235357   8.050   7.511   2.250
11826TIP3    H135358   7.956   7.508   2.276
11826TIP3    H235359   8.048   7.568   2.171
11827TIP3   OH235360   8.270   7.592   3.066
11827TIP3    H135361   8.218   7.584   3.148
11827TIP3    H235362   8.202   7.627   3.005
11828TIP3   OH235363   8.298   9.023   3.185
11828TIP3    H135364   8.226   8.992   3.128
11828TIP3    H235365   8.283   8.971   3.265
11829TIP3   OH235366   9.045   7.719   2.401
11829TIP3    H135367   9.038   7.645   2.464
11829TIP3    H235368   9.137   7.712   2.368
11830TIP3   OH235369   8.362   7.431   2.422
11830TIP3    H135370   8.270   7.398   2.421
11830TIP3    H235371   8.412   7.347   2.418
11831TIP3   OH235372   8.144   7.299   2.064
11831TIP3    H135373   8.176   7.359   1.995
11831TIP3    H235374   8.116   7.362   2.133
11832TIP3   OH235375   8.802   7.464   2.301
11832TIP3    H135376   8.861   7.518   2.247
11832TIP3    H235377   8.820   7.498   2.390
11833TIP3   OH235378   9.422   7.495   2.226
11833TIP3    H135379   9.386   7.585   2.220
11833TIP3    H235380   9.367   7.462   2.300
11834TIP3   OH235381   7.831   8.859   1.858
11834TIP3    H135382   7.759   8.807   1.819
11834TIP3    H235383   7.808   8.946   1.820
11835TIP3   OH235384   8.262   7.461   1.832
11835TIP3    H135385   8.313   7.400   1.776
11835TIP3    H235386   8.333   7.516   1.871
11836TIP3   OH235387   8.774   7.631   1.934
11836TIP3    H135388   8.838   7.590   1.996
11836TIP3    H235389   8.793   7.725   1.956
11837TIP3   OH235390   8.568   7.715   3.313
11837TIP3    H135391   8.537   7.641   3.368
11837TIP3    H235392   8.663   7.715   3.336
11838TIP3   OH235393   8.817   7.712   3.431
11838TIP3    H135394   8.900   7.686   3.387
11838TIP3    H235395   8.806   7.640   3.497
11839TIP3   OH235396   9.588   7.749   3.241
11839TIP3    H135397   9.644   7.756   3.320
11839TIP3    H235398   9.650   7.773   3.170
11840TIP3   OH235399   0.538   8.529   4.618
11840TIP3    H135400   0.497   8.611   4.646
11840TIP3    H235401   0.535   8.540   4.522
11841TIP3   OH235402   0.802   8.439   5.314
11841TIP3    H135403   0.852   8.369   5.265
11841TIP3    H235404   0.762   8.489   5.240
11842TIP3   OH235405   0.665   8.577   5.117
11842TIP3    H135406   0.573   8.605   5.124
11842TIP3    H235407   0.657   8.504   5.052
11843TIP3   OH235408   0.302   8.221   3.691
11843TIP3    H135409   0.340   8.142   3.646
11843TIP3    H235410   0.373   8.287   3.679
11844TIP3   OH235411   0.564   8.337   4.986
11844TIP3    H135412   0.472   8.341   4.956
11844TIP3    H235413   0.585   8.243   4.972
11845TIP3   OH235414   0.382   8.225   4.257
11845TIP3    H135415   0.467   8.188   4.227
11845TIP3    H235416   0.405   8.319   4.265
11846TIP3   OH235417   0.463   8.739   3.928
11846TIP3    H135418   0.446   8.826   3.967
11846TIP3    H235419   0.406   8.682   3.981
11847TIP3   OH235420   2.311   8.769   4.105
11847TIP3    H135421   2.339   8.852   4.150
11847TIP3    H235422   2.332   8.791   4.013
11848TIP3   OH235423   1.712   8.953   4.137
11848TIP3    H135424   1.756   8.868   4.158
11848TIP3    H235425   1.678   8.934   4.048
11849TIP3   OH235426   1.049   8.611   4.108
11849TIP3    H135427   1.031   8.685   4.047
11849TIP3    H235428   1.000   8.539   4.063
11850TIP3   OH235429   1.744   8.699   3.734
11850TIP3    H135430   1.818   8.684   3.796
11850TIP3    H235431   1.792   8.738   3.659
11851TIP3   OH235432   0.673   8.795   4.217
11851TIP3    H135433   0.757   8.795   4.265
11851TIP3    H235434   0.700   8.760   4.130
11852TIP3   OH235435   1.140   9.016   3.986
11852TIP3    H135436   1.223   8.979   4.023
11852TIP3    H235437   1.089   8.936   3.964
11853TIP3   OH235438   2.392   8.968   4.284
11853TIP3    H135439   2.317   9.022   4.250
11853TIP3    H235440   2.411   9.015   4.367
11854TIP3   OH235441   1.048   8.595   4.543
11854TIP3    H135442   0.988   8.631   4.475
11854TIP3    H235443   0.997   8.615   4.624
11855TIP3   OH235444   1.959   8.702   3.898
11855TIP3    H135445   1.955   8.655   3.982
11855TIP3    H235446   2.011   8.782   3.923
11856TIP3   OH235447   0.919   8.706   4.329
11856TIP3    H135448   0.977   8.784   4.345
11856TIP3    H235449   0.966   8.666   4.253
11857TIP3   OH235450   2.107   8.669   4.273
11857TIP3    H135451   2.020   8.702   4.244
11857TIP3    H235452   2.166   8.702   4.203
11858TIP3   OH235453   1.411   8.317   4.257
11858TIP3    H135454   1.393   8.222   4.269
11858TIP3    H235455   1.332   8.356   4.300
11859TIP3   OH235456   1.308   8.827   3.274
11859TIP3    H135457   1.361   8.903   3.302
11859TIP3    H235458   1.357   8.796   3.196
11860TIP3   OH235459   1.943   9.196   4.387
11860TIP3    H135460   1.960   9.284   4.350
11860TIP3    H235461   1.852   9.177   4.354
11861TIP3   OH235462   2.039   8.261   3.355
11861TIP3    H135463   1.958   8.279   3.407
11861TIP3    H235464   2.050   8.345   3.307
11862TIP3   OH235465   2.163   9.155   4.572
11862TIP3    H135466   2.089   9.154   4.509
11862TIP3    H235467   2.190   9.061   4.572
11863TIP3   OH235468   1.169   8.391   4.381
11863TIP3    H135469   1.079   8.359   4.359
11863TIP3    H235470   1.146   8.477   4.421
11864TIP3   OH235471   1.698   8.507   4.576
11864TIP3    H135472   1.761   8.484   4.647
11864TIP3    H235473   1.611   8.489   4.617
11865TIP3   OH235474   1.940   8.922   4.495
11865TIP3    H135475   1.893   8.920   4.581
11865TIP3    H235476   1.919   9.010   4.461
11866TIP3   OH235477   1.313   8.441   3.352
11866TIP3    H135478   1.282   8.441   3.444
11866TIP3    H235479   1.275   8.356   3.322
11867TIP3   OH235480   1.087   8.912   4.386
11867TIP3    H135481   1.044   8.927   4.473
11867TIP3    H235482   1.081   9.000   4.346
11868TIP3   OH235483   0.984   8.790   3.917
11868TIP3    H135484   0.890   8.765   3.930
11868TIP3    H235485   0.998   8.754   3.826
11869TIP3   OH235486   1.484   8.880   3.643
11869TIP3    H135487   1.403   8.930   3.619
11869TIP3    H235488   1.525   8.863   3.556
11870TIP3   OH235489   1.655   9.149   4.724
11870TIP3    H135490   1.634   9.071   4.779
11870TIP3    H235491   1.749   9.164   4.745
11871TIP3   OH235492   1.622   8.899   3.885
11871TIP3    H135493   1.565   8.920   3.808
11871TIP3    H235494   1.663   8.818   3.848
11872TIP3   OH235495   0.923   8.939   4.636
11872TIP3    H135496   0.869   8.984   4.702
11872TIP3    H235497   0.901   8.845   4.656
11873TIP3   OH235498   0.969   8.415   3.324
11873TIP3    H135499   0.965   8.412   3.421
11873TIP3    H235500   0.883   8.455   3.303
11874TIP3   OH235501   0.512   8.465   4.172
11874TIP3    H135502   0.576   8.495   4.241
11874TIP3    H235503   0.569   8.412   4.115
11875TIP3   OH235504   0.484   8.452   3.716
11875TIP3    H135505   0.529   8.475   3.632
11875TIP3    H235506   0.451   8.539   3.740
11876TIP3   OH235507   1.686   9.141   4.328
11876TIP3    H135508   1.685   9.073   4.256
11876TIP3    H235509   1.609   9.108   4.380
11877TIP3   OH235510   1.306   8.606   3.979
11877TIP3    H135511   1.221   8.612   4.027
11877TIP3    H235512   1.368   8.631   4.049
11878TIP3   OH235513   0.742   8.673   3.977
11878TIP3    H135514   0.647   8.670   3.954
11878TIP3    H235515   0.771   8.581   3.964
11879TIP3   OH235516   1.021   8.667   3.673
11879TIP3    H135517   1.113   8.689   3.652
11879TIP3    H235518   0.971   8.698   3.596
11880TIP3   OH235519   1.799   8.689   4.179
11880TIP3    H135520   1.761   8.702   4.269
11880TIP3    H235521   1.735   8.627   4.141
11881TIP3   OH235522   0.837   8.682   3.457
11881TIP3    H135523   0.774   8.650   3.390
11881TIP3    H235524   0.877   8.757   3.410
11882TIP3   OH235525   1.386   8.916   4.067
11882TIP3    H135526   1.471   8.903   4.023
11882TIP3    H235527   1.410   8.915   4.161
11883TIP3   OH235528   0.916   8.434   3.949
11883TIP3    H135529   0.888   8.351   3.993
11883TIP3    H235530   0.971   8.402   3.876
11884TIP3   OH235531   1.366   8.827   4.376
11884TIP3    H135532   1.280   8.873   4.370
11884TIP3    H235533   1.423   8.895   4.418
11885TIP3   OH235534   1.563   8.553   3.318
11885TIP3    H135535   1.467   8.534   3.326
11885TIP3    H235536   1.570   8.648   3.341
11886TIP3   OH235537   1.634   8.809   3.407
11886TIP3    H135538   1.726   8.796   3.440
11886TIP3    H235539   1.644   8.893   3.359
11887TIP3   OH235540   1.334   9.214   4.788
11887TIP3    H135541   1.364   9.168   4.709
11887TIP3    H235542   1.410   9.269   4.809
11888TIP3   OH235543   2.075   8.869   3.265
11888TIP3    H135544   2.010   8.830   3.202
11888TIP3    H235545   2.080   8.959   3.230
11889TIP3   OH235546   0.897   8.680   4.767
11889TIP3    H135547   0.801   8.672   4.775
11889TIP3    H235548   0.922   8.604   4.823
11890TIP3   OH235549   1.721   8.747   4.439
11890TIP3    H135550   1.805   8.781   4.474
11890TIP3    H235551   1.708   8.665   4.491
11891TIP3   OH235552   1.605   8.496   3.598
11891TIP3    H135553   1.591   8.521   3.505
11891TIP3    H235554   1.644   8.578   3.636
11892TIP3   OH235555   1.305   8.671   3.704
11892TIP3    H135556   1.372   8.741   3.689
11892TIP3    H235557   1.303   8.666   3.802
11893TIP3   OH235558   1.551   8.985   4.512
11893TIP3    H135559   1.587   9.042   4.583
11893TIP3    H235560   1.612   8.909   4.511
11894TIP3   OH235561   1.445   8.406   3.811
11894TIP3    H135562   1.430   8.484   3.868
11894TIP3    H235563   1.502   8.444   3.741
11895TIP3   OH235564   0.952   8.397   3.598
11895TIP3    H135565   0.950   8.490   3.628
11895TIP3    H235566   1.048   8.378   3.608
11896TIP3   OH235567   2.210   8.891   4.499
11896TIP3    H135568   2.112   8.883   4.499
11896TIP3    H235569   2.230   8.870   4.407
11897TIP3   OH235570   1.848   9.072   3.865
11897TIP3    H135571   1.780   9.011   3.898
11897TIP3    H235572   1.925   9.050   3.921
11898TIP3   OH235573   0.510   8.590   3.484
11898TIP3    H135574   0.522   8.686   3.472
11898TIP3    H235575   0.431   8.570   3.433
11899TIP3   OH235576   0.908   8.306   4.363
11899TIP3    H135577   0.870   8.281   4.276
11899TIP3    H235578   0.887   8.227   4.417
11900TIP3   OH235579   0.875   9.198   4.965
11900TIP3    H135580   0.898   9.110   4.996
11900TIP3    H235581   0.876   9.253   5.046
11901TIP3   OH235582   1.185   9.009   4.635
11901TIP3    H135583   1.089   9.005   4.649
11901TIP3    H235584   1.191   9.078   4.566
11902TIP3   OH235585   1.031   8.811   3.294
11902TIP3    H135586   1.026   8.721   3.257
11902TIP3    H235587   1.128   8.819   3.312
11903TIP3   OH235588   1.320   8.854   4.799
11903TIP3    H135589   1.318   8.774   4.744
11903TIP3    H235590   1.274   8.916   4.738
11904TIP3   OH235591   1.308   8.661   4.590
11904TIP3    H135592   1.333   8.713   4.510
11904TIP3    H235593   1.213   8.645   4.572
11905TIP3   OH235594   1.928   9.182   4.837
11905TIP3    H135595   1.956   9.092   4.856
11905TIP3    H235596   2.013   9.221   4.810
11906TIP3   OH235597   1.176   9.002   5.005
11906TIP3    H135598   1.112   8.929   5.018
11906TIP3    H235599   1.216   8.976   4.920
11907TIP3   OH235600   1.440   8.432   4.652
11907TIP3    H135601   1.392   8.515   4.630
11907TIP3    H235602   1.369   8.366   4.640
11908TIP3   OH235603   1.566   8.946   4.878
11908TIP3    H135604   1.554   8.926   4.973
11908TIP3    H235605   1.478   8.914   4.846
11909TIP3   OH235606   1.808   8.883   4.730
11909TIP3    H135607   1.731   8.883   4.789
11909TIP3    H235608   1.880   8.852   4.788
11910TIP3   OH235609   2.034   8.826   4.883
11910TIP3    H135610   2.046   8.732   4.904
11910TIP3    H235611   2.032   8.869   4.971
11911TIP3   OH235612   1.029   8.780   5.060
11911TIP3    H135613   1.028   8.691   5.020
11911TIP3    H235614   1.058   8.760   5.151
11912TIP3   OH235615   1.536   8.444   4.908
11912TIP3    H135616   1.600   8.371   4.900
11912TIP3    H235617   1.493   8.439   4.820
11913TIP3   OH235618   1.600   8.658   5.070
11913TIP3    H135619   1.575   8.588   5.005
11913TIP3    H235620   1.523   8.718   5.065
11914TIP3   OH235621   1.902   8.797   3.066
11914TIP3    H135622   1.879   8.822   2.976
11914TIP3    H235623   1.879   8.701   3.065
11915TIP3   OH235624   1.940   9.046   3.614
11915TIP3    H135625   1.940   8.950   3.628
11915TIP3    H235626   1.920   9.077   3.706
11916TIP3   OH235627   2.367   9.325   4.514
11916TIP3    H135628   2.303   9.253   4.533
11916TIP3    H235629   2.450   9.275   4.504
11917TIP3   OH235630   1.849   8.532   3.060
11917TIP3    H135631   1.927   8.497   3.108
11917TIP3    H235632   1.778   8.469   3.083
11918TIP3   OH235633   1.898   8.773   3.509
11918TIP3    H135634   1.943   8.686   3.521
11918TIP3    H235635   1.959   8.815   3.446
11919TIP3   OH235636   2.069   8.955   3.993
11919TIP3    H135637   2.153   8.985   3.952
11919TIP3    H235638   2.084   8.993   4.082
11920TIP3   OH235639   2.141   9.082   4.225
11920TIP3    H135640   2.064   9.115   4.275
11920TIP3    H235641   2.191   9.165   4.211
11921TIP3   OH235642   0.764   8.842   5.056
11921TIP3    H135643   0.858   8.821   5.038
11921TIP3    H235644   0.728   8.754   5.073
11922TIP3   OH235645   2.585   8.685   4.793
11922TIP3    H135646   2.648   8.623   4.749
11922TIP3    H235647   2.561   8.746   4.721
11923TIP3   OH235648   2.019   8.530   3.546
11923TIP3    H135649   2.066   8.517   3.630
11923TIP3    H235650   1.957   8.454   3.546
11924TIP3   OH235651   0.715   8.510   4.350
11924TIP3    H135652   0.782   8.444   4.377
11924TIP3    H235653   0.766   8.593   4.356
11925TIP3   OH235654   0.547   8.796   4.464
11925TIP3    H135655   0.577   8.787   4.371
11925TIP3    H235656   0.522   8.889   4.465
11926TIP3   OH235657   2.463   8.835   4.604
11926TIP3    H135658   2.373   8.872   4.616
11926TIP3    H235659   2.443   8.766   4.538
11927TIP3   OH235660   2.100   8.471   3.174
11927TIP3    H135661   2.141   8.396   3.126
11927TIP3    H235662   2.169   8.539   3.169
11928TIP3   OH235663   0.506   8.288   3.927
11928TIP3    H135664   0.424   8.314   3.970
11928TIP3    H235665   0.508   8.351   3.851
11929TIP3   OH235666   0.737   8.450   4.795
11929TIP3    H135667   0.678   8.395   4.850
11929TIP3    H235668   0.680   8.457   4.715
11930TIP3   OH235669   2.358   8.597   4.477
11930TIP3    H135670   2.270   8.600   4.436
11930TIP3    H235671   2.386   8.504   4.461
11931TIP3   OH235672   1.573   8.513   4.099
11931TIP3    H135673   1.520   8.446   4.146
11931TIP3    H235674   1.633   8.459   4.045
11932TIP3   OH235675   2.092   8.389   4.003
11932TIP3    H135676   2.129   8.441   3.928
11932TIP3    H235677   1.997   8.407   3.994
11933TIP3   OH235678   2.184   8.490   3.764
11933TIP3    H135679   2.257   8.441   3.721
11933TIP3    H235680   2.216   8.583   3.750
11934TIP3   OH235681   0.813   8.220   4.111
11934TIP3    H135682   0.722   8.184   4.110
11934TIP3    H235683   0.865   8.136   4.108
11935TIP3   OH235684   0.598   8.084   3.756
11935TIP3    H135685   0.629   8.141   3.684
11935TIP3    H235686   0.570   8.150   3.823
11936TIP3   OH235687   1.256   8.250   3.990
11936TIP3    H135688   1.313   8.305   3.933
11936TIP3    H235689   1.268   8.293   4.076
11937TIP3   OH235690   1.813   8.396   3.974
11937TIP3    H135691   1.798   8.367   3.883
11937TIP3    H235692   1.790   8.314   4.025
11938TIP3   OH235693   1.833   8.318   3.536
11938TIP3    H135694   1.746   8.360   3.543
11938TIP3    H235695   1.817   8.234   3.583
11939TIP3   OH235696   0.715   8.248   3.524
11939TIP3    H135697   0.764   8.186   3.468
11939TIP3    H235698   0.788   8.303   3.560
11940TIP3   OH235699   1.230   8.422   3.620
11940TIP3    H135700   1.290   8.375   3.680
11940TIP3    H235701   1.250   8.514   3.645
11941TIP3   OH235702   1.023   8.502   5.003
11941TIP3    H135703   0.988   8.431   5.060
11941TIP3    H235704   1.117   8.503   5.030
11942TIP3   OH235705   1.271   8.499   5.124
11942TIP3    H135706   1.354   8.471   5.081
11942TIP3    H235707   1.258   8.427   5.189
11943TIP3   OH235708   2.096   8.555   4.909
11943TIP3    H135709   2.118   8.526   5.000
11943TIP3    H235710   2.184   8.556   4.866
11944TIP3   OH235711   2.276   9.003   3.424
11944TIP3    H135712   2.234   9.082   3.462
11944TIP3    H235713   2.200   8.945   3.408
11945TIP3   OH235714   4.106   9.028   3.591
11945TIP3    H135715   4.138   9.109   3.635
11945TIP3    H235716   4.129   9.047   3.499
11946TIP3   OH235717   3.507   9.209   3.624
11946TIP3    H135718   3.552   9.125   3.646
11946TIP3    H235719   3.475   9.190   3.534
11947TIP3   OH235720   2.844   8.867   3.596
11947TIP3    H135721   2.827   8.941   3.534
11947TIP3    H235722   2.797   8.795   3.549
11948TIP3   OH235723   3.540   8.957   3.219
11948TIP3    H135724   3.614   8.941   3.282
11948TIP3    H235725   3.590   8.995   3.144
11949TIP3   OH235726   2.470   9.047   3.711
11949TIP3    H135727   2.559   9.049   3.749
11949TIP3    H235728   2.489   9.022   3.619
11950TIP3   OH235729   2.936   9.272   3.475
11950TIP3    H135730   3.021   9.235   3.509
11950TIP3    H235731   2.886   9.192   3.450
11951TIP3   OH235732   4.192   9.228   3.766
11951TIP3    H135733   4.114   9.278   3.734
11951TIP3    H235734   4.197   9.259   3.857
11952TIP3   OH235735   2.843   8.851   4.030
11952TIP3    H135736   2.784   8.888   3.961
11952TIP3    H235737   2.792   8.873   4.110
11953TIP3   OH235738   3.754   8.959   3.386
11953TIP3    H135739   3.753   8.910   3.469
11953TIP3    H235740   3.807   9.037   3.409
11954TIP3   OH235741   2.716   8.963   3.816
11954TIP3    H135742   2.774   9.040   3.835
11954TIP3    H235743   2.764   8.924   3.740
11955TIP3   OH235744   3.902   8.930   3.760
11955TIP3    H135745   3.815   8.960   3.729
11955TIP3    H235746   3.962   8.961   3.688
11956TIP3   OH235747   3.204   8.575   3.740
11956TIP3    H135748   3.192   8.480   3.756
11956TIP3    H235749   3.126   8.612   3.786
11957TIP3   OH235750   3.085   9.111   2.728
11957TIP3    H135751   3.143   9.172   2.777
11957TIP3    H235752   3.151   9.057   2.681
11958TIP3   OH235753   3.741   9.452   3.873
11958TIP3    H135754   3.752   9.542   3.837
11958TIP3    H235755   3.650   9.430   3.840
11959TIP3   OH235756   3.835   8.517   2.842
11959TIP3    H135757   3.755   8.538   2.893
11959TIP3    H235758   3.849   8.601   2.793
11960TIP3   OH235759   3.961   9.418   4.055
11960TIP3    H135760   3.884   9.411   3.996
11960TIP3    H235761   3.990   9.324   4.059
11961TIP3   OH235762   2.964   8.646   3.869
11961TIP3    H135763   2.873   8.618   3.846
11961TIP3    H235764   2.943   8.732   3.909
11962TIP3   OH235765   3.496   8.764   4.062
11962TIP3    H135766   3.563   8.737   4.128
11962TIP3    H235767   3.411   8.744   4.108
11963TIP3   OH235768   3.738   9.180   3.984
11963TIP3    H135769   3.689   9.176   4.070
11963TIP3    H235770   3.712   9.266   3.949
11964TIP3   OH235771   3.124   8.697   2.848
11964TIP3    H135772   3.079   8.692   2.935
11964TIP3    H235773   3.074   8.630   2.798
11965TIP3   OH235774   2.887   9.170   3.882
11965TIP3    H135775   2.833   9.183   3.963
11965TIP3    H235776   2.875   9.254   3.835
11966TIP3   OH235777   2.780   9.045   3.403
11966TIP3    H135778   2.687   9.020   3.418
11966TIP3    H235779   2.794   9.012   3.312
11967TIP3   OH235780   3.278   9.136   3.130
11967TIP3    H135781   3.199   9.187   3.102
11967TIP3    H235782   3.325   9.122   3.045
11968TIP3   OH235783   3.447   9.399   4.206
11968TIP3    H135784   3.435   9.323   4.268
11968TIP3    H235785   3.534   9.433   4.235
11969TIP3   OH235786   3.418   9.156   3.371
11969TIP3    H135787   3.361   9.175   3.294
11969TIP3    H235788   3.461   9.075   3.334
11970TIP3   OH235789   2.727   9.190   4.116
11970TIP3    H135790   2.668   9.251   4.162
11970TIP3    H235791   2.701   9.103   4.153
11971TIP3   OH235792   2.735   8.647   2.817
11971TIP3    H135793   2.748   8.653   2.913
11971TIP3    H235794   2.680   8.725   2.800
11972TIP3   OH235795   2.305   8.715   3.677
11972TIP3    H135796   2.378   8.750   3.731
11972TIP3    H235797   2.350   8.682   3.598
11973TIP3   OH235798   2.284   8.694   3.198
11973TIP3    H135799   2.331   8.735   3.123
11973TIP3    H235800   2.225   8.766   3.224
11974TIP3   OH235801   3.486   9.397   3.814
11974TIP3    H135802   3.484   9.329   3.743
11974TIP3    H235803   3.409   9.366   3.867
11975TIP3   OH235804   3.101   8.865   3.464
11975TIP3    H135805   3.018   8.869   3.517
11975TIP3    H235806   3.167   8.885   3.532
11976TIP3   OH235807   2.539   8.930   3.466
11976TIP3    H135808   2.443   8.933   3.446
11976TIP3    H235809   2.563   8.837   3.450
11977TIP3   OH235810   2.817   8.924   3.156
11977TIP3    H135811   2.914   8.937   3.151
11977TIP3    H235812   2.786   8.967   3.074
11978TIP3   OH235813   3.596   8.948   3.666
11978TIP3    H135814   3.559   8.958   3.756
11978TIP3    H235815   3.533   8.884   3.628
11979TIP3   OH235816   2.627   8.957   2.936
11979TIP3    H135817   2.543   8.914   2.962
11979TIP3    H235818   2.603   9.050   2.939
11980TIP3   OH235819   3.183   9.174   3.554
11980TIP3    H135820   3.267   9.160   3.509
11980TIP3    H235821   3.208   9.171   3.648
11981TIP3   OH235822   2.714   8.690   3.435
11981TIP3    H135823   2.686   8.607   3.478
11981TIP3    H235824   2.769   8.658   3.362
11982TIP3   OH235825   3.162   9.084   3.864
11982TIP3    H135826   3.078   9.132   3.857
11982TIP3    H235827   3.222   9.150   3.904
11983TIP3   OH235828   3.367   8.810   2.806
11983TIP3    H135829   3.272   8.785   2.819
11983TIP3    H235830   3.370   8.905   2.828
11984TIP3   OH235831   3.429   9.067   2.897
11984TIP3    H135832   3.521   9.052   2.928
11984TIP3    H235833   3.442   9.143   2.838
11985TIP3   OH235834   3.179   9.434   4.329
11985TIP3    H135835   3.122   9.491   4.273
11985TIP3    H235836   3.242   9.398   4.264
11986TIP3   OH235837   3.869   9.126   2.753
11986TIP3    H135838   3.803   9.086   2.693
11986TIP3    H235839   3.899   9.198   2.695
11987TIP3   OH235840   2.685   8.930   4.247
11987TIP3    H135841   2.589   8.936   4.264
11987TIP3    H235842   2.715   8.872   4.318
11988TIP3   OH235843   3.518   9.002   3.926
11988TIP3    H135844   3.602   9.036   3.962
11988TIP3    H235845   3.504   8.920   3.978
11989TIP3   OH235846   3.399   8.754   3.087
11989TIP3    H135847   3.388   8.777   2.992
11989TIP3    H235848   3.441   8.835   3.123
11990TIP3   OH235849   3.094   8.930   3.192
11990TIP3    H135850   3.165   8.995   3.174
11990TIP3    H235851   3.099   8.922   3.290
11991TIP3   OH235852   3.348   9.242   3.997
11991TIP3    H135853   3.380   9.299   4.070
11991TIP3    H235854   3.409   9.166   4.001
11992TIP3   OH235855   3.240   8.661   3.296
11992TIP3    H135856   3.232   8.737   3.357
11992TIP3    H235857   3.299   8.699   3.227
11993TIP3   OH235858   2.747   8.656   3.094
11993TIP3    H135859   2.755   8.750   3.123
11993TIP3    H235860   2.842   8.632   3.098
11994TIP3   OH235861   4.008   9.152   3.982
11994TIP3    H135862   3.910   9.144   3.989
11994TIP3    H235863   4.021   9.115   3.893
11995TIP3   OH235864   3.643   9.330   3.354
11995TIP3    H135865   3.576   9.267   3.384
11995TIP3    H235866   3.721   9.305   3.408
11996TIP3   OH235867   2.317   8.862   2.976
11996TIP3    H135868   2.304   8.955   2.954
11996TIP3    H235869   2.241   8.819   2.933
11997TIP3   OH235870   2.699   8.568   3.848
11997TIP3    H135871   2.666   8.537   3.761
11997TIP3    H235872   2.686   8.488   3.904
11998TIP3   OH235873   2.658   9.429   4.481
11998TIP3    H135874   2.745   9.388   4.474
11998TIP3    H235875   2.674   9.506   4.539
11999TIP3   OH235876   2.973   9.317   4.118
11999TIP3    H135877   2.878   9.298   4.128
11999TIP3    H235878   2.981   9.330   4.023
12000TIP3   OH235879   2.843   8.933   2.737
12000TIP3    H135880   2.755   8.950   2.774
12000TIP3    H235881   2.897   9.003   2.775
12001TIP3   OH235882   3.103   9.127   4.275
12001TIP3    H135883   3.105   9.048   4.217
12001TIP3    H235884   3.062   9.193   4.215
12002TIP3   OH235885   3.102   8.920   4.077
12002TIP3    H135886   3.130   8.968   3.996
12002TIP3    H235887   3.008   8.901   4.056
12003TIP3   OH235888   3.726   9.439   4.325
12003TIP3    H135889   3.748   9.347   4.345
12003TIP3    H235890   3.812   9.474   4.300
12004TIP3   OH235891   2.963   9.258   4.496
12004TIP3    H135892   2.905   9.180   4.500
12004TIP3    H235893   3.011   9.245   4.412
12005TIP3   OH235894   3.237   8.690   4.139
12005TIP3    H135895   3.189   8.773   4.117
12005TIP3    H235896   3.166   8.623   4.127
12006TIP3   OH235897   3.363   9.192   4.360
12006TIP3    H135898   3.352   9.189   4.456
12006TIP3    H235899   3.271   9.170   4.333
12007TIP3   OH235900   3.604   9.139   4.216
12007TIP3    H135901   3.526   9.139   4.275
12007TIP3    H235902   3.676   9.107   4.275
12008TIP3   OH235903   3.835   9.085   4.367
12008TIP3    H135904   3.845   8.989   4.387
12008TIP3    H235905   3.829   9.125   4.456
12009TIP3   OH235906   2.811   9.035   4.549
12009TIP3    H135907   2.828   8.948   4.509
12009TIP3    H235908   2.850   9.023   4.638
12010TIP3   OH235909   3.329   8.698   4.397
12010TIP3    H135910   3.399   8.630   4.391
12010TIP3    H235911   3.291   8.692   4.307
12011TIP3   OH235912   3.395   8.914   4.558
12011TIP3    H135913   3.372   8.844   4.493
12011TIP3    H235914   3.319   8.975   4.551
12012TIP3   OH235915   3.674   9.058   2.561
12012TIP3    H135916   3.713   9.080   2.476
12012TIP3    H235917   3.664   8.961   2.553
12013TIP3   OH235918   3.734   9.303   3.102
12013TIP3    H135919   3.738   9.207   3.112
12013TIP3    H235920   3.715   9.331   3.194
12014TIP3   OH235921   4.171   9.578   3.991
12014TIP3    H135922   4.099   9.516   4.015
12014TIP3    H235923   4.248   9.516   3.989
12015TIP3   OH235924   3.647   8.789   2.546
12015TIP3    H135925   3.726   8.754   2.593
12015TIP3    H235926   3.577   8.725   2.570
12016TIP3   OH235927   3.694   9.031   2.994
12016TIP3    H135928   3.741   8.944   3.007
12016TIP3    H235929   3.754   9.071   2.929
12017TIP3   OH235930   3.864   9.213   3.481
12017TIP3    H135931   3.949   9.242   3.439
12017TIP3    H235932   3.882   9.249   3.570
12018TIP3   OH235933   3.940   9.341   3.711
12018TIP3    H135934   3.864   9.374   3.762
12018TIP3    H235935   3.989   9.425   3.693
12019TIP3   OH235936   2.541   9.087   4.515
12019TIP3    H135937   2.639   9.086   4.517
12019TIP3    H235938   2.523   9.005   4.565
12020TIP3   OH235939   4.387   8.946   4.279
12020TIP3    H135940   4.444   8.878   4.236
12020TIP3    H235941   4.361   9.002   4.203
12021TIP3   OH235942   3.813   8.788   3.034
12021TIP3    H135943   3.863   8.773   3.116
12021TIP3    H235944   3.754   8.710   3.033
12022TIP3   OH235945   2.510   8.772   3.856
12022TIP3    H135946   2.580   8.703   3.863
12022TIP3    H235947   2.565   8.852   3.844
12023TIP3   OH235948   2.316   9.057   3.936
12023TIP3    H135949   2.364   9.044   3.850
12023TIP3    H235950   2.336   9.150   3.952
12024TIP3   OH235951   4.260   9.093   4.087
12024TIP3    H135952   4.170   9.126   4.102
12024TIP3    H235953   4.240   9.020   4.025
12025TIP3   OH235954   3.897   8.728   2.662
12025TIP3    H135955   3.939   8.655   2.613
12025TIP3    H235956   3.961   8.801   2.649
12026TIP3   OH235957   2.298   8.552   3.426
12026TIP3    H135958   2.204   8.553   3.452
12026TIP3    H235959   2.299   8.610   3.347
12027TIP3   OH235960   2.516   8.628   4.241
12027TIP3    H135961   2.467   8.635   4.324
12027TIP3    H235962   2.454   8.672   4.179
12028TIP3   OH235963   4.156   8.852   3.963
12028TIP3    H135964   4.065   8.848   3.927
12028TIP3    H235965   4.186   8.759   3.950
12029TIP3   OH235966   3.364   8.769   3.579
12029TIP3    H135967   3.316   8.701   3.630
12029TIP3    H235968   3.433   8.717   3.534
12030TIP3   OH235969   3.887   8.646   3.488
12030TIP3    H135970   3.925   8.698   3.413
12030TIP3    H235971   3.792   8.665   3.480
12031TIP3   OH235972   3.980   8.747   3.251
12031TIP3    H135973   4.052   8.697   3.209
12031TIP3    H235974   4.012   8.839   3.236
12032TIP3   OH235975   2.610   8.476   3.600
12032TIP3    H135976   2.518   8.443   3.597
12032TIP3    H235977   2.660   8.391   3.594
12033TIP3   OH235978   2.394   8.343   3.242
12033TIP3    H135979   2.427   8.402   3.172
12033TIP3    H235980   2.365   8.407   3.310
12034TIP3   OH235981   3.051   8.507   3.478
12034TIP3    H135982   3.107   8.560   3.419
12034TIP3    H235983   3.070   8.549   3.564
12035TIP3   OH235984   3.603   8.653   3.463
12035TIP3    H135985   3.598   8.622   3.371
12035TIP3    H235986   3.586   8.570   3.513
12036TIP3   OH235987   3.629   8.574   3.022
12036TIP3    H135988   3.542   8.616   3.029
12036TIP3    H235989   3.614   8.490   3.071
12037TIP3   OH235990   2.512   8.504   3.012
12037TIP3    H135991   2.561   8.447   2.950
12037TIP3    H235992   2.585   8.559   3.048
12038TIP3   OH235993   3.023   8.677   3.112
12038TIP3    H135994   3.089   8.633   3.168
12038TIP3    H235995   3.046   8.770   3.133
12039TIP3   OH235996   2.816   8.750   4.484
12039TIP3    H135997   2.786   8.684   4.548
12039TIP3    H235998   2.911   8.757   4.510
12040TIP3   OH235999   3.064   8.753   4.606
12040TIP3    H136000   3.150   8.734   4.565
12040TIP3    H236001   3.058   8.681   4.672
12041TIP3   OH236002   3.889   8.813   4.396
12041TIP3    H136003   3.910   8.781   4.486
12041TIP3    H236004   3.977   8.809   4.352
12042TIP3   OH236005   4.071   9.258   2.914
12042TIP3    H136006   4.024   9.336   2.946
12042TIP3    H236007   3.998   9.200   2.886
12043TIP3   OH236008   5.904   9.284   3.078
12043TIP3    H136009   5.934   9.367   3.119
12043TIP3    H236010   5.927   9.301   2.985
12044TIP3   OH236011   5.306   9.468   3.112
12044TIP3    H136012   5.348   9.382   3.132
12044TIP3    H236013   5.271   9.450   3.022
12045TIP3   OH236014   4.642   9.125   3.082
12045TIP3    H136015   4.622   9.199   3.021
12045TIP3    H236016   4.594   9.052   3.037
12046TIP3   OH236017   5.335   9.213   2.707
12046TIP3    H136018   5.410   9.197   2.769
12046TIP3    H236019   5.385   9.251   2.631
12047TIP3   OH236020   4.269   9.308   3.200
12047TIP3    H136021   4.359   9.299   3.235
12047TIP3    H236022   4.281   9.279   3.108
12048TIP3   OH236023   4.731   9.529   2.968
12048TIP3    H136024   4.816   9.490   2.997
12048TIP3    H236025   4.680   9.451   2.939
12049TIP3   OH236026   5.990   9.486   3.253
12049TIP3    H136027   5.912   9.535   3.219
12049TIP3    H236028   5.990   9.515   3.345
12050TIP3   OH236029   4.641   9.107   3.518
12050TIP3    H136030   4.583   9.144   3.448
12050TIP3    H236031   4.589   9.129   3.598
12051TIP3   OH236032   5.550   9.216   2.872
12051TIP3    H136033   5.549   9.164   2.953
12051TIP3    H236034   5.604   9.294   2.897
12052TIP3   OH236035   4.515   9.221   3.304
12052TIP3    H136036   4.570   9.301   3.314
12052TIP3    H236037   4.562   9.179   3.227
12053TIP3   OH236038   5.698   9.189   3.248
12053TIP3    H136039   5.610   9.215   3.216
12053TIP3    H236040   5.757   9.217   3.175
12054TIP3   OH236041   5.002   8.831   3.229
12054TIP3    H136042   4.987   8.736   3.243
12054TIP3    H236043   4.923   8.868   3.274
12055TIP3   OH236044   4.902   9.339   2.256
12055TIP3    H136045   4.954   9.418   2.277
12055TIP3    H236046   4.942   9.312   2.171
12056TIP3   OH236047   5.537   9.710   3.359
12056TIP3    H136048   5.548   9.798   3.321
12056TIP3    H236049   5.446   9.686   3.325
12057TIP3   OH236050   5.631   8.774   2.328
12057TIP3    H136051   5.550   8.792   2.381
12057TIP3    H236052   5.642   8.859   2.280
12058TIP3   OH236053   5.758   9.675   3.541
12058TIP3    H136054   5.680   9.668   3.482
12058TIP3    H236055   5.785   9.581   3.544
12059TIP3   OH236056   4.760   8.903   3.354
12059TIP3    H136057   4.670   8.873   3.331
12059TIP3    H236058   4.738   8.988   3.397
12060TIP3   OH236059   5.291   9.023   3.550
12060TIP3    H136060   5.357   8.992   3.616
12060TIP3    H236061   5.206   9.000   3.593
12061TIP3   OH236062   5.537   9.437   3.474
12061TIP3    H136063   5.485   9.434   3.558
12061TIP3    H236064   5.507   9.520   3.433
12062TIP3   OH236065   4.907   8.953   2.327
12062TIP3    H136066   4.875   8.954   2.419
12062TIP3    H236067   4.867   8.870   2.295
12063TIP3   OH236068   4.664   9.450   3.321
12063TIP3    H136069   4.599   9.488   3.383
12063TIP3    H236070   4.697   9.529   3.276
12064TIP3   OH236071   4.575   9.304   2.890
12064TIP3    H136072   4.482   9.278   2.905
12064TIP3    H236073   4.589   9.267   2.800
12065TIP3   OH236074   5.077   9.394   2.617
12065TIP3    H136075   4.995   9.443   2.592
12065TIP3    H236076   5.118   9.376   2.530
12066TIP3   OH236077   5.254   9.656   3.693
12066TIP3    H136078   5.222   9.585   3.753
12066TIP3    H236079   5.348   9.660   3.718
12067TIP3   OH236080   5.215   9.413   2.858
12067TIP3    H136081   5.158   9.433   2.781
12067TIP3    H236082   5.257   9.332   2.821
12068TIP3   OH236083   4.498   9.465   3.611
12068TIP3    H136084   4.469   9.509   3.691
12068TIP3    H236085   4.478   9.372   3.631
12069TIP3   OH236086   4.562   8.931   2.296
12069TIP3    H136087   4.552   8.924   2.393
12069TIP3    H236088   4.480   8.978   2.272
12070TIP3   OH236089   4.102   8.971   3.165
12070TIP3    H136090   4.176   9.006   3.218
12070TIP3    H236091   4.143   8.942   3.083
12071TIP3   OH236092   4.085   8.960   2.680
12071TIP3    H136093   4.105   8.992   2.589
12071TIP3    H236094   4.021   9.029   2.705
12072TIP3   OH236095   5.280   9.656   3.304
12072TIP3    H136096   5.280   9.590   3.230
12072TIP3    H236097   5.204   9.620   3.355
12073TIP3   OH236098   4.899   9.122   2.952
12073TIP3    H136099   4.813   9.125   3.000
12073TIP3    H236100   4.961   9.140   3.023
12074TIP3   OH236101   4.335   9.186   2.956
12074TIP3    H136102   4.239   9.192   2.932
12074TIP3    H236103   4.358   9.094   2.934
12075TIP3   OH236104   4.611   9.180   2.647
12075TIP3    H136105   4.703   9.203   2.625
12075TIP3    H236106   4.561   9.207   2.567
12076TIP3   OH236107   5.392   9.204   3.155
12076TIP3    H136108   5.352   9.214   3.244
12076TIP3    H236109   5.330   9.140   3.115
12077TIP3   OH236110   4.447   9.203   2.425
12077TIP3    H136111   4.362   9.165   2.397
12077TIP3    H236112   4.450   9.281   2.368
12078TIP3   OH236113   4.980   9.434   3.041
12078TIP3    H136114   5.063   9.414   2.996
12078TIP3    H236115   5.002   9.425   3.135
12079TIP3   OH236116   4.513   8.946   2.924
12079TIP3    H136117   4.481   8.863   2.965
12079TIP3    H236118   4.561   8.914   2.846
12080TIP3   OH236119   4.954   9.344   3.350
12080TIP3    H136120   4.871   9.393   3.348
12080TIP3    H236121   5.015   9.408   3.393
12081TIP3   OH236122   5.155   9.067   2.290
12081TIP3    H136123   5.059   9.047   2.300
12081TIP3    H236124   5.162   9.162   2.314
12082TIP3   OH236125   5.227   9.322   2.382
12082TIP3    H136126   5.319   9.309   2.414
12082TIP3    H236127   5.235   9.405   2.333
12083TIP3   OH236128   4.945   9.730   3.765
12083TIP3    H136129   5.005   9.708   3.693
12083TIP3    H236130   4.990   9.806   3.808
12084TIP3   OH236131   5.669   9.385   2.238
12084TIP3    H136132   5.604   9.345   2.176
12084TIP3    H236133   5.671   9.476   2.205
12085TIP3   OH236134   4.482   9.192   3.734
12085TIP3    H136135   4.385   9.193   3.745
12085TIP3    H236136   4.510   9.128   3.801
12086TIP3   OH236137   5.312   9.262   3.416
12086TIP3    H136138   5.400   9.289   3.448
12086TIP3    H236139   5.297   9.178   3.465
12087TIP3   OH236140   5.198   9.009   2.572
12087TIP3    H136141   5.183   9.035   2.479
12087TIP3    H236142   5.236   9.091   2.610
12088TIP3   OH236143   4.898   9.184   2.677
12088TIP3    H136144   4.965   9.254   2.662
12088TIP3    H236145   4.895   9.179   2.775
12089TIP3   OH236146   5.145   9.500   3.485
12089TIP3    H136147   5.179   9.554   3.559
12089TIP3    H236148   5.203   9.422   3.486
12090TIP3   OH236149   5.037   8.919   2.785
12090TIP3    H136150   5.023   8.997   2.841
12090TIP3    H236151   5.095   8.957   2.714
12091TIP3   OH236152   4.545   8.910   2.571
12091TIP3    H136153   4.542   9.002   2.603
12091TIP3    H236154   4.641   8.893   2.580
12092TIP3   OH236155   5.806   9.409   3.467
12092TIP3    H136156   5.708   9.401   3.476
12092TIP3    H236157   5.816   9.370   3.379
12093TIP3   OH236158   5.440   9.587   2.841
12093TIP3    H136159   5.372   9.524   2.869
12093TIP3    H236160   5.517   9.560   2.895
12094TIP3   OH236161   4.495   8.825   3.335
12094TIP3    H136162   4.463   8.793   3.247
12094TIP3    H236163   4.483   8.746   3.391
12095TIP3   OH236164   4.457   9.704   3.943
12095TIP3    H136165   4.521   9.635   3.958
12095TIP3    H236166   4.463   9.761   4.022
12096TIP3   OH236167   4.769   9.479   3.587
12096TIP3    H136168   4.672   9.473   3.594
12096TIP3    H236169   4.777   9.563   3.537
12097TIP3   OH236170   4.629   9.311   2.235
12097TIP3    H136171   4.615   9.225   2.278
12097TIP3    H236172   4.720   9.332   2.267
12098TIP3   OH236173   4.914   9.368   3.778
12098TIP3    H136174   4.917   9.283   3.731
12098TIP3    H236175   4.865   9.420   3.709
12099TIP3   OH236176   4.902   9.172   3.563
12099TIP3    H136177   4.924   9.226   3.484
12099TIP3    H236178   4.806   9.157   3.547
12100TIP3   OH236179   5.524   9.690   3.815
12100TIP3    H136180   5.549   9.597   3.829
12100TIP3    H236181   5.608   9.727   3.785
12101TIP3   OH236182   4.768   9.513   3.985
12101TIP3    H136183   4.704   9.439   3.993
12101TIP3    H236184   4.809   9.492   3.899
12102TIP3   OH236185   5.034   8.943   3.625
12102TIP3    H136186   4.985   9.026   3.602
12102TIP3    H236187   4.963   8.877   3.614
12103TIP3   OH236188   5.161   9.459   3.853
12103TIP3    H136189   5.149   9.439   3.948
12103TIP3    H236190   5.072   9.429   3.821
12104TIP3   OH236191   5.403   9.404   3.706
12104TIP3    H136192   5.323   9.395   3.762
12104TIP3    H236193   5.473   9.365   3.762
12105TIP3   OH236194   5.634   9.341   3.854
12105TIP3    H136195   5.641   9.245   3.873
12105TIP3    H236196   5.626   9.381   3.943
12106TIP3   OH236197   4.612   9.293   4.034
12106TIP3    H136198   4.619   9.204   3.996
12106TIP3    H236199   4.648   9.277   4.124
12107TIP3   OH236200   5.130   8.959   3.881
12107TIP3    H136201   5.195   8.886   3.878
12107TIP3    H236202   5.088   8.950   3.793
12108TIP3   OH236203   5.194   9.173   4.041
12108TIP3    H136204   5.170   9.101   3.979
12108TIP3    H236205   5.115   9.231   4.037
12109TIP3   OH236206   5.497   9.308   2.040
12109TIP3    H136207   5.468   9.337   1.953
12109TIP3    H236208   5.473   9.213   2.038
12110TIP3   OH236209   5.531   9.559   2.589
12110TIP3    H136210   5.532   9.463   2.602
12110TIP3    H236211   5.511   9.589   2.681
12111TIP3   OH236212   5.970   9.834   3.479
12111TIP3    H136213   5.895   9.774   3.501
12111TIP3    H236214   6.044   9.769   3.477
12112TIP3   OH236215   5.442   9.044   2.031
12112TIP3    H136216   5.520   9.011   2.081
12112TIP3    H236217   5.371   8.982   2.057
12113TIP3   OH236218   5.490   9.286   2.482
12113TIP3    H136219   5.536   9.199   2.495
12113TIP3    H236220   5.552   9.329   2.420
12114TIP3   OH236221   5.661   9.470   2.968
12114TIP3    H136222   5.745   9.499   2.926
12114TIP3    H236223   5.679   9.505   3.058
12115TIP3   OH236224   5.738   9.598   3.198
12115TIP3    H136225   5.660   9.630   3.248
12115TIP3    H236226   5.785   9.682   3.178
12116TIP3   OH236227   4.343   9.351   4.013
12116TIP3    H136228   4.440   9.339   4.007
12116TIP3    H236229   4.319   9.265   4.051
12117TIP3   OH236230   6.184   9.204   3.766
12117TIP3    H136231   6.240   9.138   3.721
12117TIP3    H236232   6.156   9.261   3.692
12118TIP3   OH236233   5.610   9.044   2.519
12118TIP3    H136234   5.659   9.029   2.603
12118TIP3    H236235   5.549   8.967   2.520
12119TIP3   OH236236   4.308   9.030   3.344
12119TIP3    H136237   4.375   8.959   3.350
12119TIP3    H236238   4.365   9.108   3.333
12120TIP3   OH236239   4.112   9.314   3.421
12120TIP3    H136240   4.160   9.301   3.336
12120TIP3    H236241   4.135   9.406   3.439
12121TIP3   OH236242   6.056   9.349   3.574
12121TIP3    H136243   5.965   9.383   3.589
12121TIP3    H236244   6.036   9.277   3.511
12122TIP3   OH236245   5.692   8.985   2.147
12122TIP3    H136246   5.734   8.910   2.101
12122TIP3    H236247   5.761   9.054   2.143
12123TIP3   OH236248   4.095   8.814   2.908
12123TIP3    H136249   4.001   8.814   2.931
12123TIP3    H236250   4.097   8.873   2.829
12124TIP3   OH236251   4.315   8.893   3.729
12124TIP3    H136252   4.263   8.886   3.810
12124TIP3    H236253   4.249   8.929   3.667
12125TIP3   OH236254   5.950   9.110   3.450
12125TIP3    H136255   5.860   9.107   3.414
12125TIP3    H236256   5.979   9.016   3.437
12126TIP3   OH236257   5.164   9.026   3.072
12126TIP3    H136258   5.112   8.959   3.120
12126TIP3    H236259   5.225   8.972   3.019
12127TIP3   OH236260   5.684   8.906   2.977
12127TIP3    H136261   5.721   8.955   2.900
12127TIP3    H236262   5.588   8.919   2.967
12128TIP3   OH236263   5.776   9.004   2.738
12128TIP3    H136264   5.848   8.953   2.696
12128TIP3    H236265   5.809   9.096   2.723
12129TIP3   OH236266   4.407   8.732   3.087
12129TIP3    H136267   4.314   8.700   3.084
12129TIP3    H236268   4.455   8.647   3.081
12130TIP3   OH236269   4.192   8.599   2.729
12130TIP3    H136270   4.224   8.657   2.657
12130TIP3    H236271   4.161   8.666   2.794
12131TIP3   OH236272   4.849   8.763   2.963
12131TIP3    H136273   4.906   8.818   2.907
12131TIP3    H236274   4.861   8.804   3.050
12132TIP3   OH236275   5.405   8.909   2.948
12132TIP3    H136276   5.391   8.878   2.858
12132TIP3    H236277   5.384   8.828   3.001
12133TIP3   OH236278   5.425   8.831   2.509
12133TIP3    H136279   5.338   8.873   2.518
12133TIP3    H236280   5.410   8.747   2.557
12134TIP3   OH236281   4.307   8.752   2.508
12134TIP3    H136282   4.356   8.702   2.440
12134TIP3    H236283   4.376   8.814   2.538
12135TIP3   OH236284   4.823   8.935   2.594
12135TIP3    H136285   4.882   8.889   2.655
12135TIP3    H236286   4.843   9.028   2.618
12136TIP3   OH236287   4.613   9.014   3.977
12136TIP3    H136288   4.582   8.941   4.033
12136TIP3    H236289   4.708   9.015   4.001
12137TIP3   OH236290   4.864   9.012   4.094
12137TIP3    H136291   4.947   8.982   4.055
12137TIP3    H236292   4.850   8.944   4.163
12138TIP3   OH236293   5.686   9.070   3.882
12138TIP3    H136294   5.705   9.038   3.973
12138TIP3    H236295   5.774   9.064   3.839
12139TIP3   OH236296   5.869   9.512   2.402
12139TIP3    H136297   5.829   9.597   2.429
12139TIP3    H236298   5.791   9.460   2.379
12140TIP3   OH236299   6.436   9.381   2.569
12140TIP3    H136300   6.418   9.454   2.506
12140TIP3    H236301   6.389   9.308   2.524
12141TIP3   OH236302   7.141   9.449   2.184
12141TIP3    H136303   7.191   9.457   2.267
12141TIP3    H236304   7.120   9.541   2.165
12142TIP3   OH236305   6.063   9.563   2.688
12142TIP3    H136306   6.154   9.559   2.721
12142TIP3    H236307   6.075   9.539   2.594
12143TIP3   OH236308   6.522   9.782   2.461
12143TIP3    H136309   6.604   9.740   2.487
12143TIP3    H236310   6.469   9.709   2.424
12144TIP3   OH236311   6.435   9.366   3.006
12144TIP3    H136312   6.377   9.399   2.934
12144TIP3    H236313   6.381   9.388   3.084
12145TIP3   OH236314   7.338   9.465   2.435
12145TIP3    H136315   7.381   9.380   2.410
12145TIP3    H236316   7.414   9.525   2.416
12146TIP3   OH236317   6.309   9.475   2.790
12146TIP3    H136318   6.368   9.552   2.805
12146TIP3    H236319   6.354   9.435   2.712
12147TIP3   OH236320   6.807   9.089   2.712
12147TIP3    H136321   6.809   8.990   2.706
12147TIP3    H236322   6.724   9.105   2.760
12148TIP3   OH236323   6.680   9.605   1.714
12148TIP3    H136324   6.739   9.654   1.773
12148TIP3    H236325   6.742   9.568   1.649
12149TIP3   OH236326   7.420   9.027   1.812
12149TIP3    H136327   7.344   9.039   1.872
12149TIP3    H236328   7.428   9.115   1.774
12150TIP3   OH236329   6.556   9.155   2.842
12150TIP3    H136330   6.465   9.128   2.819
12150TIP3    H236331   6.538   9.244   2.877
12151TIP3   OH236332   7.084   9.288   3.040
12151TIP3    H136333   7.149   9.250   3.102
12151TIP3    H236334   6.998   9.259   3.079
12152TIP3   OH236335   7.342   9.718   2.959
12152TIP3    H136336   7.292   9.700   3.041
12152TIP3    H236337   7.287   9.784   2.914
12153TIP3   OH236338   6.705   9.212   1.814
12153TIP3    H136339   6.672   9.212   1.906
12153TIP3    H236340   6.665   9.128   1.782
12154TIP3   OH236341   6.475   9.685   2.849
12154TIP3    H136342   6.425   9.700   2.931
12154TIP3    H236343   6.466   9.770   2.803
12155TIP3   OH236344   6.373   9.560   2.376
12155TIP3    H136345   6.279   9.536   2.391
12155TIP3    H236346   6.386   9.523   2.286
12156TIP3   OH236347   6.858   9.624   2.084
12156TIP3    H136348   6.789   9.693   2.074
12156TIP3    H236349   6.913   9.634   2.005
12157TIP3   OH236350   7.044   9.911   3.180
12157TIP3    H136351   7.016   9.836   3.237
12157TIP3    H236352   7.138   9.918   3.201
12158TIP3   OH236353   6.311   9.710   3.097
12158TIP3    H136354   6.260   9.753   3.167
12158TIP3    H236355   6.289   9.616   3.113
12159TIP3   OH236356   6.355   9.180   1.784
12159TIP3    H136357   6.354   9.180   1.881
12159TIP3    H236358   6.275   9.232   1.766
12160TIP3   OH236359   5.898   9.227   2.652
12160TIP3    H136360   5.972   9.264   2.704
12160TIP3    H236361   5.941   9.197   2.571
12161TIP3   OH236362   5.878   9.207   2.169
12161TIP3    H136363   5.929   9.245   2.095
12161TIP3    H236364   5.820   9.282   2.193
12162TIP3   OH236365   7.058   9.917   2.800
12162TIP3    H136366   7.048   9.886   2.708
12162TIP3    H236367   6.993   9.860   2.845
12163TIP3   OH236368   6.697   9.382   2.440
12163TIP3    H136369   6.614   9.375   2.491
12163TIP3    H236370   6.760   9.407   2.510
12164TIP3   OH236371   6.132   9.442   2.444
12164TIP3    H136372   6.037   9.448   2.420
12164TIP3    H236373   6.156   9.350   2.421
12165TIP3   OH236374   6.408   9.436   2.135
12165TIP3    H136375   6.501   9.456   2.114
12165TIP3    H236376   6.359   9.466   2.056
12166TIP3   OH236377   6.224   9.442   1.921
12166TIP3    H136378   6.159   9.421   1.852
12166TIP3    H236379   6.283   9.504   1.873
12167TIP3   OH236380   6.306   9.203   2.409
12167TIP3    H136381   6.279   9.120   2.452
12167TIP3    H236382   6.366   9.172   2.339
12168TIP3   OH236383   6.748   9.588   2.848
12168TIP3    H136384   6.668   9.638   2.825
12168TIP3    H236385   6.811   9.660   2.869
12169TIP3   OH236386   6.951   9.324   1.778
12169TIP3    H136387   6.856   9.298   1.788
12169TIP3    H236388   6.952   9.418   1.805
12170TIP3   OH236389   7.028   9.583   1.864
12170TIP3    H136390   7.117   9.553   1.886
12170TIP3    H236391   7.044   9.645   1.791
12171TIP3   OH236392   6.709  10.037   3.251
12171TIP3    H136393   6.767   9.989   3.190
12171TIP3    H236394   6.768  10.053   3.327
12172TIP3   OH236395   6.276   9.449   3.222
12172TIP3    H136396   6.178   9.449   3.232
12172TIP3    H236397   6.303   9.382   3.287
12173TIP3   OH236398   7.146   9.500   2.868
12173TIP3    H136399   7.200   9.545   2.935
12173TIP3    H236400   7.107   9.428   2.921
12174TIP3   OH236401   6.992   9.259   2.057
12174TIP3    H136402   6.978   9.289   1.965
12174TIP3    H236403   7.044   9.332   2.096
12175TIP3   OH236404   6.687   9.434   2.168
12175TIP3    H136405   6.754   9.502   2.145
12175TIP3    H236406   6.692   9.434   2.266
12176TIP3   OH236407   6.937   9.749   2.974
12176TIP3    H136408   6.969   9.813   3.041
12176TIP3    H236409   7.002   9.678   2.979
12177TIP3   OH236410   6.837   9.179   2.277
12177TIP3    H136411   6.813   9.259   2.326
12177TIP3    H236412   6.890   9.216   2.203
12178TIP3   OH236413   6.341   9.166   2.058
12178TIP3    H136414   6.338   9.260   2.088
12178TIP3    H236415   6.437   9.149   2.069
12179TIP3   OH236416   7.609   9.639   2.933
12179TIP3    H136417   7.517   9.666   2.955
12179TIP3    H236418   7.613   9.663   2.840
12180TIP3   OH236419   5.903   9.359   1.934
12180TIP3    H136420   5.915   9.453   1.949
12180TIP3    H236421   5.809   9.347   1.917
12181TIP3   OH236422   6.289   9.082   2.822
12181TIP3    H136423   6.259   9.051   2.734
12181TIP3    H236424   6.279   9.001   2.876
12182TIP3   OH236425   6.268   9.962   3.426
12182TIP3    H136426   6.305   9.880   3.460
12182TIP3    H236427   6.262  10.019   3.505
12183TIP3   OH236428   6.574   9.786   3.105
12183TIP3    H136429   6.477   9.780   3.111
12183TIP3    H236430   6.585   9.828   3.019
12184TIP3   OH236431   6.408   9.574   1.773
12184TIP3    H136432   6.370   9.568   1.684
12184TIP3    H236433   6.505   9.579   1.757
12185TIP3   OH236434   6.708   9.622   3.261
12185TIP3    H136435   6.708   9.543   3.204
12185TIP3    H236436   6.663   9.685   3.199
12186TIP3   OH236437   6.693   9.430   3.061
12186TIP3    H136438   6.720   9.482   2.981
12186TIP3    H236439   6.599   9.410   3.037
12187TIP3   OH236440   7.323   9.954   3.307
12187TIP3    H136441   7.345   9.860   3.319
12187TIP3    H236442   7.402   9.986   3.263
12188TIP3   OH236443   6.562   9.770   3.462
12188TIP3    H136444   6.497   9.698   3.477
12188TIP3    H236445   6.603   9.741   3.378
12189TIP3   OH236446   6.831   9.203   3.117
12189TIP3    H136447   6.780   9.284   3.092
12189TIP3    H236448   6.764   9.133   3.100
12190TIP3   OH236449   6.955   9.710   3.338
12190TIP3    H136450   6.941   9.691   3.432
12190TIP3    H236451   6.868   9.680   3.304
12191TIP3   OH236452   7.198   9.653   3.183
12191TIP3    H136453   7.122   9.648   3.243
12191TIP3    H236454   7.271   9.620   3.241
12192TIP3   OH236455   7.415   9.595   3.345
12192TIP3    H136456   7.432   9.501   3.362
12192TIP3    H236457   7.420   9.636   3.434
12193TIP3   OH236458   6.409   9.551   3.522
12193TIP3    H136459   6.415   9.463   3.481
12193TIP3    H236460   6.444   9.532   3.611
12194TIP3   OH236461   6.922   9.209   3.373
12194TIP3    H136462   6.991   9.142   3.359
12194TIP3    H236463   6.880   9.208   3.284
12195TIP3   OH236464   6.986   9.427   3.532
12195TIP3    H136465   6.964   9.357   3.466
12195TIP3    H236466   6.911   9.488   3.524
12196TIP3   OH236467   7.226   9.319   1.524
12196TIP3    H136468   7.312   9.293   1.561
12196TIP3    H236469   7.168   9.243   1.540
12197TIP3   OH236470   6.140   9.609   3.502
12197TIP3    H136471   6.237   9.595   3.493
12197TIP3    H236472   6.115   9.522   3.539
12198TIP3   OH236473   7.963   9.474   3.239
12198TIP3    H136474   8.012   9.390   3.222
12198TIP3    H236475   7.924   9.494   3.152
12199TIP3   OH236476   7.384   9.303   2.016
12199TIP3    H136477   7.444   9.285   2.090
12199TIP3    H236478   7.325   9.226   2.017
12200TIP3   OH236479   6.102   9.287   2.834
12200TIP3    H136480   6.169   9.216   2.837
12200TIP3    H236481   6.159   9.365   2.818
12201TIP3   OH236482   5.909   9.572   2.910
12201TIP3    H136483   5.956   9.555   2.825
12201TIP3    H236484   5.930   9.665   2.923
12202TIP3   OH236485   5.890   9.067   2.398
12202TIP3    H136486   5.797   9.068   2.424
12202TIP3    H236487   5.891   9.125   2.319
12203TIP3   OH236488   6.111   9.150   3.217
12203TIP3    H136489   6.057   9.144   3.297
12203TIP3    H236490   6.047   9.186   3.153
12204TIP3   OH236491   7.761   9.359   2.950
12204TIP3    H136492   7.672   9.370   2.913
12204TIP3    H236493   7.787   9.272   2.914
12205TIP3   OH236494   6.968   9.280   2.565
12205TIP3    H136495   6.912   9.219   2.617
12205TIP3    H236496   7.006   9.220   2.500
12206TIP3   OH236497   7.480   9.189   2.476
12206TIP3    H136498   7.523   9.217   2.392
12206TIP3    H236499   7.387   9.174   2.450
12207TIP3   OH236500   7.574   9.276   2.227
12207TIP3    H136501   7.637   9.210   2.187
12207TIP3    H236502   7.622   9.357   2.206
12208TIP3   OH236503   6.202   8.990   2.574
12208TIP3    H136504   6.110   8.957   2.572
12208TIP3    H236505   6.252   8.905   2.570
12209TIP3   OH236506   5.983   8.857   2.215
12209TIP3    H136507   6.018   8.916   2.145
12209TIP3    H236508   5.957   8.921   2.284
12210TIP3   OH236509   6.636   9.033   2.447
12210TIP3    H136510   6.704   9.078   2.394
12210TIP3    H236511   6.667   9.050   2.537
12211TIP3   OH236512   7.210   9.172   2.431
12211TIP3    H136513   7.179   9.138   2.346
12211TIP3    H236514   7.191   9.095   2.491
12212TIP3   OH236515   7.218   9.081   1.995
12212TIP3    H136516   7.132   9.126   2.006
12212TIP3    H236517   7.202   8.998   2.045
12213TIP3   OH236518   6.103   9.019   1.983
12213TIP3    H136519   6.154   8.958   1.927
12213TIP3    H236520   6.174   9.075   2.020
12214TIP3   OH236521   6.619   9.189   2.078
12214TIP3    H136522   6.675   9.142   2.142
12214TIP3    H236523   6.638   9.282   2.106
12215TIP3   OH236524   6.407   9.272   3.464
12215TIP3    H136525   6.377   9.199   3.520
12215TIP3    H236526   6.503   9.273   3.487
12216TIP3   OH236527   6.659   9.270   3.583
12216TIP3    H136528   6.739   9.244   3.536
12216TIP3    H236529   6.647   9.196   3.647
12217TIP3   OH236530   7.482   9.327   3.371
12217TIP3    H136531   7.506   9.295   3.460
12217TIP3    H236532   7.569   9.323   3.324
12218TIP3   OH236533   2.240   0.677   7.827
12218TIP3    H136534   2.221   0.637   7.913
12218TIP3    H236535   2.252   0.769   7.856
12219TIP3   OH236536   1.836   1.087   7.864
12219TIP3    H136537   1.893   1.026   7.813
12219TIP3    H236538   1.874   1.085   7.952
12220TIP3   OH236539   2.265   0.886   8.019
12220TIP3    H136540   2.178   0.891   8.060
12220TIP3    H236541   2.272   0.974   7.975
12221TIP3   OH236542   1.989   0.930   7.700
12221TIP3    H136543   2.028   0.850   7.659
12221TIP3    H236544   2.045   1.000   7.658
12222TIP3   OH236545   2.095   0.697   7.589
12222TIP3    H136546   2.128   0.635   7.521
12222TIP3    H236547   2.165   0.691   7.658
12223TIP3   OH236548   2.514   0.804   8.363
12223TIP3    H136549   2.494   0.725   8.311
12223TIP3    H236550   2.490   0.877   8.302
12224TIP3   OH236551   2.718   0.445   8.203
12224TIP3    H136552   2.626   0.474   8.214
12224TIP3    H236553   2.734   0.463   8.108
12225TIP3   OH236554   2.300   0.746   7.012
12225TIP3    H136555   2.307   0.843   6.994
12225TIP3    H236556   2.392   0.716   6.999
12226TIP3   OH236557   2.745   1.143   8.402
12226TIP3    H136558   2.742   1.047   8.418
12226TIP3    H236559   2.662   1.171   8.447
12227TIP3   OH236560   1.611   1.065   7.485
12227TIP3    H136561   1.567   1.053   7.399
12227TIP3    H236562   1.581   1.155   7.512
12228TIP3   OH236563   1.813   0.961   7.135
12228TIP3    H136564   1.876   0.896   7.095
12228TIP3    H236565   1.848   0.965   7.227
12229TIP3   OH236566   1.864   1.003   7.411
12229TIP3    H136567   1.777   1.026   7.450
12229TIP3    H236568   1.927   1.018   7.483
12230TIP3   OH236569   2.428   1.494   8.500
12230TIP3    H136570   2.427   1.518   8.405
12230TIP3    H236571   2.507   1.544   8.530
12231TIP3   OH236572   2.465   0.582   8.191
12231TIP3    H136573   2.514   0.628   8.119
12231TIP3    H236574   2.374   0.610   8.172
12232TIP3   OH236575   2.759   0.849   8.453
12232TIP3    H136576   2.662   0.845   8.440
12232TIP3    H236577   2.787   0.821   8.363
12233TIP3   OH236578   2.245   0.809   7.276
12233TIP3    H136579   2.211   0.730   7.319
12233TIP3    H236580   2.250   0.780   7.183
12234TIP3   OH236581   2.021   0.549   7.173
12234TIP3    H136582   2.041   0.513   7.261
12234TIP3    H236583   1.923   0.543   7.172
12235TIP3   OH236584   2.270   1.179   8.337
12235TIP3    H136585   2.182   1.140   8.323
12235TIP3    H236586   2.264   1.255   8.275
12236TIP3   OH236587   2.334   1.019   6.998
12236TIP3    H136588   2.368   1.089   6.939
12236TIP3    H236589   2.253   1.065   7.029
12237TIP3   OH236590   2.159   0.481   7.427
12237TIP3    H136591   2.154   0.388   7.454
12237TIP3    H236592   2.249   0.481   7.386
12238TIP3   OH236593   2.290   1.144   7.934
12238TIP3    H136594   2.247   1.197   7.862
12238TIP3    H236595   2.383   1.170   7.916
12239TIP3   OH236596   1.977   0.786   7.006
12239TIP3    H136597   2.012   0.707   7.051
12239TIP3    H236598   2.018   0.779   6.918
12240TIP3   OH236599   2.337   0.280   7.019
12240TIP3    H136600   2.307   0.230   6.940
12240TIP3    H236601   2.290   0.365   7.002
12241TIP3   OH236602   2.539   1.245   7.894
12241TIP3    H136603   2.566   1.287   7.977
12241TIP3    H236604   2.588   1.296   7.828
12242TIP3   OH236605   2.569   1.271   8.174
12242TIP3    H136606   2.533   1.181   8.168
12242TIP3    H236607   2.646   1.254   8.230
12243TIP3   OH236608   2.430   0.464   7.372
12243TIP3    H136609   2.500   0.525   7.339
12243TIP3    H236610   2.476   0.419   7.446
12244TIP3   OH236611   2.559   0.329   7.577
12244TIP3    H136612   2.498   0.308   7.648
12244TIP3    H236613   2.634   0.371   7.625
12245TIP3   OH236614   2.605   0.712   8.002
12245TIP3    H136615   2.664   0.654   7.950
12245TIP3    H236616   2.605   0.794   7.947
12246TIP3   OH236617   2.447   1.015   8.202
12246TIP3    H136618   2.381   1.069   8.251
12246TIP3    H236619   2.393   0.975   8.131
12247TIP3   OH236620   2.501   0.239   7.222
12247TIP3    H136621   2.438   0.245   7.147
12247TIP3    H236622   2.469   0.314   7.275
12248TIP3   OH236623   2.648   0.595   8.558
12248TIP3    H136624   2.729   0.545   8.577
12248TIP3    H236625   2.682   0.682   8.531
12249TIP3   OH236626   2.842   0.409   8.605
12249TIP3    H136627   2.773   0.345   8.627
12249TIP3    H236628   2.924   0.360   8.615
12250TIP3   OH236629   2.128   1.101   7.550
12250TIP3    H136630   2.178   1.096   7.466
12250TIP3    H236631   2.162   1.185   7.587
12251TIP3   OH236632   2.026   1.366   8.459
12251TIP3    H136633   2.085   1.290   8.448
12251TIP3    H236634   2.067   1.410   8.535
12252TIP3   OH236635   1.779   1.224   8.148
12252TIP3    H136636   1.692   1.227   8.104
12252TIP3    H236637   1.777   1.309   8.197
12253TIP3   OH236638   2.028   1.153   8.206
12253TIP3    H136639   1.935   1.178   8.184
12253TIP3    H236640   2.073   1.234   8.175
12254TIP3   OH236641   2.222   1.351   8.129
12254TIP3    H136642   2.205   1.439   8.087
12254TIP3    H236643   2.245   1.297   8.051
12255TIP3   OH236644   1.554   0.944   7.212
12255TIP3    H136645   1.647   0.969   7.193
12255TIP3    H236646   1.548   0.869   7.151
12256TIP3   OH236647   2.267   1.081   7.317
12256TIP3    H136648   2.261   0.984   7.301
12256TIP3    H236649   2.225   1.116   7.236
12257TIP3   OH236650   2.500   1.227   8.501
12257TIP3    H136651   2.418   1.195   8.457
12257TIP3    H236652   2.481   1.323   8.505
12258TIP3   OH236653   3.757   0.599   7.282
12258TIP3    H136654   3.732   0.689   7.254
12258TIP3    H236655   3.686   0.548   7.238
12259TIP3   OH236656   3.772   0.591   7.648
12259TIP3    H136657   3.724   0.546   7.718
12259TIP3    H236658   3.737   0.544   7.571
12260TIP3   OH236659   3.062   0.496   8.015
12260TIP3    H136660   3.103   0.437   8.080
12260TIP3    H236661   3.132   0.562   8.004
12261TIP3   OH236662   4.012   0.895   7.336
12261TIP3    H136663   3.981   0.826   7.395
12261TIP3    H236664   3.981   0.976   7.378
12262TIP3   OH236665   3.030   0.900   7.748
12262TIP3    H136666   3.024   0.802   7.751
12262TIP3    H236667   3.127   0.912   7.738
12263TIP3   OH236668   2.732   0.099   7.540
12263TIP3    H136669   2.696   0.189   7.548
12263TIP3    H236670   2.661   0.056   7.491
12264TIP3   OH236671   2.802   0.392   7.693
12264TIP3    H136672   2.852   0.318   7.733
12264TIP3    H236673   2.862   0.422   7.624
12265TIP3   OH236674   3.647   1.359   7.347
12265TIP3    H136675   3.700   1.290   7.303
12265TIP3    H236676   3.652   1.333   7.439
12266TIP3   OH236677   3.560   0.818   7.705
12266TIP3    H136678   3.592   0.757   7.638
12266TIP3    H236679   3.645   0.864   7.727
12267TIP3   OH236680   2.948   0.187   7.807
12267TIP3    H136681   3.022   0.155   7.863
12267TIP3    H236682   2.963   0.131   7.728
12268TIP3   OH236683   3.386   0.385   7.600
12268TIP3    H136684   3.475   0.349   7.612
12268TIP3    H236685   3.337   0.305   7.568
12269TIP3   OH236686   4.616   0.323   7.894
12269TIP3    H136687   4.564   0.398   7.858
12269TIP3    H236688   4.675   0.366   7.958
12270TIP3   OH236689   3.655   0.816   7.148
12270TIP3    H136690   3.616   0.795   7.062
12270TIP3    H236691   3.616   0.904   7.165
12271TIP3   OH236692   3.417   0.740   7.941
12271TIP3    H136693   3.350   0.804   7.976
12271TIP3    H236694   3.455   0.791   7.867
12272TIP3   OH236695   3.190   0.079   7.913
12272TIP3    H136696   3.251   0.153   7.930
12272TIP3    H236697   3.214   0.052   7.824
12273TIP3   OH236698   3.240   0.932   8.025
12273TIP3    H136699   3.216   1.017   7.983
12273TIP3    H236700   3.161   0.920   8.083
12274TIP3   OH236701   2.637   0.624   7.264
12274TIP3    H136702   2.596   0.648   7.178
12274TIP3    H236703   2.664   0.712   7.298
12275TIP3   OH236704   3.784   1.189   7.182
12275TIP3    H136705   3.831   1.107   7.152
12275TIP3    H236706   3.842   1.256   7.139
12276TIP3   OH236707   3.919   0.973   7.082
12276TIP3    H136708   3.890   0.896   7.030
12276TIP3    H236709   3.963   0.931   7.158
12277TIP3   OH236710   3.596   0.452   7.103
12277TIP3    H136711   3.514   0.500   7.080
12277TIP3    H236712   3.640   0.445   7.017
12278TIP3   OH236713   3.550   0.233   6.828
12278TIP3    H136714   3.625   0.281   6.866
12278TIP3    H236715   3.599   0.165   6.777
12279TIP3   OH236716   4.490   0.684   7.694
12279TIP3    H136717   4.428   0.759   7.702
12279TIP3    H236718   4.528   0.705   7.605
12280TIP3   OH236719   3.937   0.532   7.078
12280TIP3    H136720   3.887   0.558   7.158
12280TIP3    H236721   4.023   0.504   7.118
12281TIP3   OH236722   4.164   0.559   7.986
12281TIP3    H136723   4.188   0.632   8.048
12281TIP3    H236724   4.088   0.602   7.942
12282TIP3   OH236725   3.172   0.531   7.493
12282TIP3    H136726   3.127   0.476   7.425
12282TIP3    H236727   3.249   0.475   7.516
12283TIP3   OH236728   3.298   0.935   7.644
12283TIP3    H136729   3.279   0.897   7.557
12283TIP3    H236730   3.390   0.909   7.659
12284TIP3   OH236731   3.318   0.499   7.849
12284TIP3    H136732   3.340   0.482   7.755
12284TIP3    H236733   3.353   0.589   7.864
12285TIP3   OH236734   3.844   1.131   7.616
12285TIP3    H136735   3.830   1.220   7.654
12285TIP3    H236736   3.824   1.070   7.689
12286TIP3   OH236737   3.445   1.054   8.174
12286TIP3    H136738   3.387   1.120   8.218
12286TIP3    H236739   3.379   1.005   8.122
12287TIP3   OH236740   3.785   0.383   6.902
12287TIP3    H136741   3.843   0.442   6.954
12287TIP3    H236742   3.810   0.409   6.810
12288TIP3   OH236743   3.184   0.624   8.263
12288TIP3    H136744   3.191   0.708   8.314
12288TIP3    H236745   3.090   0.603   8.278
12289TIP3   OH236746   3.522   1.073   7.180
12289TIP3    H136747   3.597   1.131   7.202
12289TIP3    H236748   3.460   1.134   7.137
12290TIP3   OH236749   3.243   1.227   8.255
12290TIP3    H136750   3.206   1.226   8.165
12290TIP3    H236751   3.165   1.205   8.310
12291TIP3   OH236752   3.035   0.378   7.302
12291TIP3    H136753   2.973   0.421   7.239
12291TIP3    H236754   3.002   0.287   7.303
12292TIP3   OH236755   4.095   1.000   6.497
12292TIP3    H136756   4.104   1.097   6.482
12292TIP3    H236757   4.187   0.970   6.484
12293TIP3   OH236758   2.822   0.754   8.207
12293TIP3    H136759   2.762   0.735   8.133
12293TIP3    H236760   2.856   0.665   8.230
12294TIP3   OH236761   2.674   0.942   7.851
12294TIP3    H136762   2.768   0.945   7.827
12294TIP3    H236763   2.662   1.031   7.890
12295TIP3   OH236764   3.646   1.185   8.025
12295TIP3    H136765   3.651   1.279   8.056
12295TIP3    H236766   3.575   1.150   8.083
12296TIP3   OH236767   3.403   1.316   6.978
12296TIP3    H136768   3.359   1.298   6.892
12296TIP3    H236769   3.373   1.406   6.999
12297TIP3   OH236770   2.843   1.167   7.358
12297TIP3    H136771   2.891   1.156   7.443
12297TIP3    H236772   2.775   1.098   7.367
12298TIP3   OH236773   3.607   1.216   6.619
12298TIP3    H136774   3.667   1.148   6.582
12298TIP3    H236775   3.641   1.226   6.710
12299TIP3   OH236776   3.655   1.264   6.890
12299TIP3    H136777   3.567   1.274   6.933
12299TIP3    H236778   3.707   1.225   6.961
12300TIP3   OH236779   4.425   0.512   8.183
12300TIP3    H136780   4.374   0.562   8.118
12300TIP3    H236781   4.461   0.439   8.129
12301TIP3   OH236782   3.027   0.936   8.194
12301TIP3    H136783   3.075   0.926   8.278
12301TIP3    H236784   2.952   0.875   8.204
12302TIP3   OH236785   3.858   0.438   6.645
12302TIP3    H136786   3.825   0.412   6.557
12302TIP3    H236787   3.936   0.491   6.620
12303TIP3   OH236788   3.364   0.274   7.992
12303TIP3    H136789   3.313   0.297   8.073
12303TIP3    H236790   3.347   0.353   7.937
12304TIP3   OH236791   3.234   0.181   7.506
12304TIP3    H136792   3.152   0.137   7.532
12304TIP3    H236793   3.253   0.138   7.419
12305TIP3   OH236794   3.734   0.254   7.232
12305TIP3    H136795   3.680   0.326   7.191
12305TIP3    H236796   3.783   0.222   7.154
12306TIP3   OH236797   3.924   0.561   8.275
12306TIP3    H136798   3.911   0.519   8.364
12306TIP3    H236799   4.011   0.601   8.290
12307TIP3   OH236800   3.888   0.284   7.471
12307TIP3    H136801   3.835   0.313   7.394
12307TIP3    H236802   3.926   0.203   7.436
12308TIP3   OH236803   3.194   0.316   8.208
12308TIP3    H136804   3.182   0.385   8.275
12308TIP3    H236805   3.126   0.251   8.232
12309TIP3   OH236806   3.919   0.477   7.892
12309TIP3    H136807   3.860   0.465   7.815
12309TIP3    H236808   3.854   0.485   7.965
12310TIP3   OH236809   3.000   0.040   7.580
12310TIP3    H136810   2.906   0.058   7.555
12310TIP3    H236811   3.011  -0.051   7.552
12311TIP3   OH236812   3.287   0.059   7.266
12311TIP3    H136813   3.374   0.040   7.227
12311TIP3    H236814   3.228   0.055   7.188
12312TIP3   OH236815   3.104   0.072   7.046
12312TIP3    H136816   3.039   0.027   6.990
12312TIP3    H236817   3.163   0.108   6.977
12313TIP3   OH236818   4.206   1.789   7.994
12313TIP3    H136819   4.217   1.765   7.901
12313TIP3    H236820   4.296   1.778   8.028
12314TIP3   OH236821   3.187   0.857   8.416
12314TIP3    H136822   3.267   0.892   8.461
12314TIP3    H236823   3.122   0.867   8.489
12315TIP3   OH236824   3.678   0.325   7.695
12315TIP3    H136825   3.726   0.279   7.623
12315TIP3    H236826   3.654   0.252   7.755
12316TIP3   OH236827   3.633   0.203   7.968
12316TIP3    H136828   3.540   0.233   7.973
12316TIP3    H236829   3.677   0.265   8.029
12317TIP3   OH236830   3.366   0.603   7.054
12317TIP3    H136831   3.293   0.538   7.042
12317TIP3    H236832   3.347   0.636   7.145
12318TIP3   OH236833   4.264   0.854   7.670
12318TIP3    H136834   4.287   0.847   7.576
12318TIP3    H236835   4.179   0.806   7.671
12319TIP3   OH236836   3.766   0.918   8.052
12319TIP3    H136837   3.781   0.904   8.146
12319TIP3    H236838   3.731   1.009   8.049
12320TIP3   OH236839   3.882   0.139   7.013
12320TIP3    H136840   3.980   0.148   7.022
12320TIP3    H236841   3.862   0.214   6.954
12321TIP3   OH236842   3.057   0.621   7.731
12321TIP3    H136843   3.092   0.596   7.643
12321TIP3    H236844   3.092   0.551   7.787
12322TIP3   OH236845   3.511   0.753   6.873
12322TIP3    H136846   3.464   0.840   6.879
12322TIP3    H236847   3.456   0.698   6.932
12323TIP3   OH236848   2.939   0.539   8.342
12323TIP3    H136849   2.946   0.528   8.438
12323TIP3    H236850   2.858   0.487   8.320
12324TIP3   OH236851   3.666   0.654   8.368
12324TIP3    H136852   3.590   0.611   8.324
12324TIP3    H236853   3.738   0.641   8.304
12325TIP3   OH236854   3.928   1.160   7.956
12325TIP3    H136855   3.833   1.179   7.954
12325TIP3    H236856   3.958   1.231   8.016
12326TIP3   OH236857   4.335   0.246   6.855
12326TIP3    H136858   4.275   0.199   6.793
12326TIP3    H236859   4.339   0.332   6.809
12327TIP3   OH236860   4.544   1.084   7.948
12327TIP3    H136861   4.490   1.165   7.955
12327TIP3    H236862   4.557   1.074   7.851
12328TIP3   OH236863   4.030   1.070   6.759
12328TIP3    H136864   4.014   0.996   6.819
12328TIP3    H236865   4.048   1.027   6.673
12329TIP3   OH236866   4.035   0.692   7.620
12329TIP3    H136867   3.939   0.673   7.620
12329TIP3    H236868   4.068   0.620   7.562
12330TIP3   OH236869   3.156   0.926   7.353
12330TIP3    H136870   3.161   1.008   7.301
12330TIP3    H236871   3.061   0.914   7.358
12331TIP3   OH236872   2.722   0.228   7.055
12331TIP3    H136873   2.766   0.313   7.071
12331TIP3    H236874   2.644   0.237   7.114
12332TIP3   OH236875   3.304   0.696   7.303
12332TIP3    H136876   3.265   0.785   7.316
12332TIP3    H236877   3.260   0.646   7.374
12333TIP3   OH236878   3.426   1.272   7.823
12333TIP3    H136879   3.462   1.345   7.771
12333TIP3    H236880   3.504   1.243   7.873
12334TIP3   OH236881   3.081   1.165   7.209
12334TIP3    H136882   2.993   1.174   7.251
12334TIP3    H236883   3.112   1.258   7.208
12335TIP3   OH236884   3.815   0.896   7.782
12335TIP3    H136885   3.810   0.906   7.880
12335TIP3    H236886   3.904   0.862   7.769
12336TIP3   OH236887   3.786   0.794   6.664
12336TIP3    H136888   3.838   0.772   6.744
12336TIP3    H236889   3.697   0.772   6.694
12337TIP3   OH236890   4.031   1.457   7.841
12337TIP3    H136891   3.976   1.388   7.800
12337TIP3    H236892   4.044   1.518   7.765
12338TIP3   OH236893   4.129   1.275   6.484
12338TIP3    H136894   4.169   1.346   6.431
12338TIP3    H236895   4.049   1.322   6.515
12339TIP3   OH236896   3.948   0.738   6.886
12339TIP3    H136897   3.939   0.665   6.951
12339TIP3    H236898   4.044   0.733   6.867
12340TIP3   OH236899   2.865   1.136   7.983
12340TIP3    H136900   2.919   1.061   8.012
12340TIP3    H236901   2.894   1.205   8.045
12341TIP3   OH236902   3.158   0.779   6.661
12341TIP3    H136903   3.171   0.688   6.630
12341TIP3    H236904   3.138   0.765   6.756
12342TIP3   OH236905   3.104   0.784   6.935
12342TIP3    H136906   3.174   0.759   6.997
12342TIP3    H236907   3.107   0.882   6.939
12343TIP3   OH236908   2.840   0.480   7.137
12343TIP3    H136909   2.773   0.525   7.193
12343TIP3    H236910   2.853   0.549   7.068
12344TIP3   OH236911   3.367   0.982   6.885
12344TIP3    H136912   3.280   1.012   6.919
12344TIP3    H236913   3.385   1.051   6.819
12345TIP3   OH236914   3.581   0.037   7.295
12345TIP3    H136915   3.621   0.123   7.270
12345TIP3    H236916   3.538   0.058   7.379
12346TIP3   OH236917   3.825   0.357   8.124
12346TIP3    H136918   3.832   0.442   8.173
12346TIP3    H236919   3.884   0.301   8.176
12347TIP3   OH236920   3.108   1.057   6.949
12347TIP3    H136921   3.078   1.125   6.884
12347TIP3    H236922   3.092   1.102   7.034
12348TIP3   OH236923   4.110   0.461   7.482
12348TIP3    H136924   4.040   0.393   7.488
12348TIP3    H236925   4.188   0.414   7.521
12349TIP3   OH236926   2.827   0.691   6.946
12349TIP3    H136927   2.885   0.769   6.952
12349TIP3    H236928   2.875   0.641   6.877
12350TIP3   OH236929   2.755  -0.056   7.066
12350TIP3    H136930   2.793   0.034   7.068
12350TIP3    H236931   2.662  -0.034   7.080
12351TIP3   OH236932   4.096   1.413   7.430
12351TIP3    H136933   4.040   1.447   7.358
12351TIP3    H236934   4.183   1.449   7.400
12352TIP3   OH236935   2.701   0.900   7.339
12352TIP3    H136936   2.620   0.937   7.377
12352TIP3    H236937   2.694   0.936   7.249
12353TIP3   OH236938   2.854   1.439   8.403
12353TIP3    H136939   2.939   1.438   8.451
12353TIP3    H236940   2.832   1.344   8.403
12354TIP3   OH236941   3.341   1.412   8.447
12354TIP3    H136942   3.436   1.395   8.454
12354TIP3    H236943   3.317   1.355   8.371
12355TIP3   OH236944   3.321   0.985   6.578
12355TIP3    H136945   3.263   0.913   6.614
12355TIP3    H236946   3.395   0.932   6.543
12356TIP3   OH236947   3.971   1.317   8.185
12356TIP3    H136948   3.971   1.245   8.252
12356TIP3    H236949   4.063   1.345   8.182
12357TIP3   OH236950   3.756   1.027   6.485
12357TIP3    H136951   3.807   0.967   6.542
12357TIP3    H236952   3.811   1.030   6.404
12358TIP3   OH236953   2.987   0.837   8.606
12358TIP3    H136954   3.000   0.741   8.591
12358TIP3    H236955   2.899   0.851   8.565
12359TIP3   OH236956   2.962   0.503   6.793
12359TIP3    H136957   3.017   0.467   6.865
12359TIP3    H236958   3.029   0.508   6.722
12360TIP3   OH236959   3.599   0.932   8.376
12360TIP3    H136960   3.552   0.948   8.291
12360TIP3    H236961   3.625   0.838   8.370
12361TIP3   OH236962   3.467   0.699   6.602
12361TIP3    H136963   3.471   0.712   6.698
12361TIP3    H236964   3.467   0.601   6.597
12362TIP3   OH236965   4.086   0.933   7.979
12362TIP3    H136966   4.148   0.985   7.926
12362TIP3    H236967   4.011   0.997   7.982
12363TIP3   OH236968   3.101   0.564   8.590
12363TIP3    H136969   3.185   0.522   8.567
12363TIP3    H236970   3.119   0.598   8.679
12364TIP3   OH236971   3.177   0.400   7.022
12364TIP3    H136972   3.148   0.356   7.103
12364TIP3    H236973   3.209   0.325   6.968
12365TIP3   OH236974   3.440   0.535   8.253
12365TIP3    H136975   3.349   0.575   8.256
12365TIP3    H236976   3.457   0.535   8.158
12366TIP3   OH236977   3.271   0.191   6.863
12366TIP3    H136978   3.244   0.199   6.768
12366TIP3    H236979   3.368   0.202   6.855
12367TIP3   OH236980   3.951   0.862   8.382
12367TIP3    H136981   4.039   0.865   8.342
12367TIP3    H236982   3.963   0.800   8.456
12368TIP3   OH236983   4.095   0.528   6.520
12368TIP3    H136984   4.079   0.482   6.435
12368TIP3    H236985   4.066   0.618   6.494
12369TIP3   OH236986   3.530   0.279   8.262
12369TIP3    H136987   3.524   0.265   8.357
12369TIP3    H236988   3.498   0.373   8.256
12370TIP3   OH236989   3.626   0.589   8.029
12370TIP3    H136990   3.668   0.611   7.946
12370TIP3    H236991   3.551   0.651   8.025
12371TIP3   OH236992   4.180   0.553   8.427
12371TIP3    H136993   4.230   0.475   8.451
12371TIP3    H236994   4.249   0.617   8.405
12372TIP3   OH236995   4.218   0.781   8.159
12372TIP3    H136996   4.159   0.840   8.106
12372TIP3    H236997   4.305   0.813   8.125
12373TIP3   OH236998   3.415   0.390   8.591
12373TIP3    H136999   3.350   0.319   8.606
12373TIP3    H237000   3.492   0.342   8.559
12374TIP3   OH237001   3.892   0.411   8.494
12374TIP3    H137002   3.856   0.429   8.582
12374TIP3    H237003   3.822   0.359   8.452
12375TIP3   OH237004   3.077   1.257   6.762
12375TIP3    H137005   3.172   1.260   6.742
12375TIP3    H237006   3.044   1.305   6.684
12376TIP3   OH237007   2.561   0.638   6.987
12376TIP3    H137008   2.655   0.662   6.968
12376TIP3    H237009   2.554   0.552   6.941
12377TIP3   OH237010   2.473   1.253   7.388
12377TIP3    H137011   2.404   1.192   7.354
12377TIP3    H237012   2.515   1.197   7.457
12378TIP3   OH237013   2.609   1.111   7.577
12378TIP3    H137014   2.599   1.034   7.635
12378TIP3    H237015   2.660   1.172   7.635
12379TIP3   OH237016   4.327   1.534   7.372
12379TIP3    H137017   4.370   1.545   7.459
12379TIP3    H237018   4.402   1.548   7.312
12380TIP3   OH237019   4.369   1.539   7.656
12380TIP3    H137020   4.305   1.478   7.695
12380TIP3    H237021   4.435   1.538   7.728
12381TIP3   OH237022   4.411   1.197   8.238
12381TIP3    H137023   4.336   1.220   8.297
12381TIP3    H237024   4.441   1.285   8.209
12382TIP3   OH237025   4.226   0.718   6.854
12382TIP3    H137026   4.295   0.781   6.825
12382TIP3    H237027   4.269   0.678   6.932
12383TIP3   OH237028   4.353   0.585   7.054
12383TIP3    H137029   4.293   0.542   7.118
12383TIP3    H237030   4.425   0.620   7.111
12384TIP3   OH237031   4.292   0.487   6.706
12384TIP3    H137032   4.222   0.496   6.637
12384TIP3    H237033   4.269   0.565   6.761
12385TIP3   OH237034   4.166   0.155   6.659
12385TIP3    H137035   4.141   0.230   6.603
12385TIP3    H237036   4.133   0.080   6.608
12386TIP3   OH237037   4.168   0.439   7.211
12386TIP3    H137038   4.181   0.343   7.207
12386TIP3    H237039   4.158   0.455   7.307
12387TIP3   OH237040   2.797   0.516   7.945
12387TIP3    H137041   2.797   0.489   7.851
12387TIP3    H237042   2.894   0.516   7.964
12388TIP3   OH237043   4.457   0.853   8.059
12388TIP3    H137044   4.535   0.794   8.047
12388TIP3    H237045   4.484   0.932   8.006
12389TIP3   OH237046   4.642   0.654   8.080
12389TIP3    H137047   4.587   0.600   8.140
12389TIP3    H237048   4.732   0.630   8.107
12390TIP3   OH237049   4.153   0.157   7.054
12390TIP3    H137050   4.202   0.121   7.132
12390TIP3    H237051   4.226   0.191   6.998
12391TIP3   OH237052   4.333   0.360   7.602
12391TIP3    H137053   4.417   0.369   7.552
12391TIP3    H237054   4.365   0.385   7.690
12392TIP3   OH237055   4.392   0.483   7.842
12392TIP3    H137056   4.317   0.535   7.878
12392TIP3    H237057   4.432   0.550   7.780
12393TIP3   OH237058   2.800   0.163   8.041
12393TIP3    H137059   2.836   0.160   7.950
12393TIP3    H237060   2.802   0.257   8.061
12394TIP3   OH237061   3.920   1.369   7.037
12394TIP3    H137062   3.971   1.355   6.954
12394TIP3    H237063   3.972   1.438   7.081
12395TIP3   OH237064   3.024   1.166   8.426
12395TIP3    H137065   2.930   1.146   8.411
12395TIP3    H237066   3.030   1.159   8.523
12396TIP3   OH237067   3.199   1.203   7.970
12396TIP3    H137068   3.149   1.279   7.932
12396TIP3    H237069   3.284   1.220   7.925
12397TIP3   OH237070   3.650   1.452   8.108
12397TIP3    H137071   3.691   1.459   8.196
12397TIP3    H237072   3.715   1.502   8.054
12398TIP3   OH237073   3.827   1.600   7.964
12398TIP3    H137074   3.901   1.550   7.924
12398TIP3    H237075   3.877   1.659   8.024
12399TIP3   OH237076   2.877   1.463   7.994
12399TIP3    H137077   2.790   1.500   7.967
12399TIP3    H237078   2.882   1.497   8.084
12400TIP3   OH237079   3.113   1.441   7.850
12400TIP3    H137080   3.027   1.456   7.895
12400TIP3    H237081   3.094   1.477   7.761
12401TIP3   OH237082   3.536   1.475   7.649
12401TIP3    H137083   3.470   1.498   7.582
12401TIP3    H237084   3.552   1.563   7.691
12402TIP3   OH237085   3.801   1.403   7.686
12402TIP3    H137086   3.708   1.431   7.674
12402TIP3    H237087   3.849   1.484   7.662
12403TIP3   OH237088   4.017   1.608   7.614
12403TIP3    H137089   4.003   1.694   7.568
12403TIP3    H237090   4.044   1.549   7.541
12404TIP3   OH237091   2.787   1.259   7.739
12404TIP3    H137092   2.814   1.237   7.830
12404TIP3    H237093   2.860   1.216   7.689
12405TIP3   OH237094   2.979   1.130   7.593
12405TIP3    H137095   2.998   1.047   7.641
12405TIP3    H237096   3.068   1.171   7.586
12406TIP3   OH237097   3.243   1.228   7.595
12406TIP3    H137098   3.279   1.139   7.580
12406TIP3    H237099   3.285   1.250   7.680
12407TIP3   OH237100   2.575   1.029   7.136
12407TIP3    H137101   2.492   0.996   7.097
12407TIP3    H237102   2.564   1.124   7.117
12408TIP3   OH237103   3.348   1.225   6.712
12408TIP3    H137104   3.437   1.245   6.676
12408TIP3    H237105   3.325   1.149   6.653
12409TIP3   OH237106   4.064   1.337   6.804
12409TIP3    H137107   4.054   1.240   6.790
12409TIP3    H237108   4.022   1.371   6.723
12410TIP3   OH237109   2.651   1.057   6.771
12410TIP3    H137110   2.648   1.093   6.861
12410TIP3    H237111   2.742   1.020   6.765
12411TIP3   OH237112   5.559   0.853   6.761
12411TIP3    H137113   5.534   0.946   6.744
12411TIP3    H237114   5.479   0.808   6.728
12412TIP3   OH237115   5.557   0.853   7.135
12412TIP3    H137116   5.587   0.823   7.222
12412TIP3    H237117   5.513   0.774   7.101
12413TIP3   OH237118   4.855   0.762   7.515
12413TIP3    H137119   4.898   0.693   7.569
12413TIP3    H237120   4.931   0.811   7.483
12414TIP3   OH237121   5.798   1.155   6.819
12414TIP3    H137122   5.789   1.085   6.885
12414TIP3    H237123   5.827   1.230   6.874
12415TIP3   OH237124   4.525   0.347   7.028
12415TIP3    H137125   4.491   0.438   7.038
12415TIP3    H237126   4.461   0.309   6.966
12416TIP3   OH237127   4.591   0.643   7.176
12416TIP3    H137128   4.646   0.576   7.223
12416TIP3    H237129   4.659   0.693   7.128
12417TIP3   OH237130   5.446   1.619   6.835
12417TIP3    H137131   5.497   1.547   6.790
12417TIP3    H237132   5.441   1.585   6.925
12418TIP3   OH237133   5.357   1.076   7.190
12418TIP3    H137134   5.393   1.003   7.138
12418TIP3    H237135   5.441   1.122   7.211
12419TIP3   OH237136   5.769   0.594   7.220
12419TIP3    H137137   5.803   0.510   7.254
12419TIP3    H237138   5.741   0.572   7.129
12420TIP3   OH237139   4.739   0.439   7.297
12420TIP3    H137140   4.821   0.413   7.345
12420TIP3    H237141   4.756   0.390   7.214
12421TIP3   OH237142   5.182   0.642   7.090
12421TIP3    H137143   5.274   0.610   7.101
12421TIP3    H237144   5.137   0.561   7.057
12422TIP3   OH237145   6.415   0.575   7.364
12422TIP3    H137146   6.362   0.654   7.345
12422TIP3    H237147   6.462   0.601   7.447
12423TIP3   OH237148   5.457   1.077   6.628
12423TIP3    H137149   5.407   1.049   6.551
12423TIP3    H237150   5.413   1.162   6.650
12424TIP3   OH237151   5.210   0.997   7.423
12424TIP3    H137152   5.144   1.062   7.459
12424TIP3    H237153   5.251   1.049   7.351
12425TIP3   OH237154   4.977   0.342   7.393
12425TIP3    H137155   5.040   0.411   7.421
12425TIP3    H237156   5.021   0.304   7.316
12426TIP3   OH237157   5.034   1.188   7.512
12426TIP3    H137158   5.011   1.273   7.469
12426TIP3    H237159   4.956   1.179   7.571
12427TIP3   OH237160   4.432   0.882   6.751
12427TIP3    H137161   4.394   0.909   6.665
12427TIP3    H237162   4.463   0.967   6.788
12428TIP3   OH237163   5.873   1.397   6.990
12428TIP3    H137164   5.783   1.388   7.030
12428TIP3    H237165   5.864   1.483   6.945
12429TIP3   OH237166   5.580   1.447   6.668
12429TIP3    H137167   5.629   1.364   6.644
12429TIP3    H237168   5.639   1.512   6.624
12430TIP3   OH237169   5.720   1.231   6.566
12430TIP3    H137170   5.674   1.154   6.530
12430TIP3    H237171   5.752   1.196   6.652
12431TIP3   OH237172   6.098   1.315   7.334
12431TIP3    H137173   6.089   1.236   7.276
12431TIP3    H237174   6.085   1.388   7.270
12432TIP3   OH237175   5.389   0.706   6.588
12432TIP3    H137176   5.308   0.755   6.566
12432TIP3    H237177   5.434   0.701   6.502
12433TIP3   OH237178   5.344   0.493   6.312
12433TIP3    H137179   5.420   0.536   6.354
12433TIP3    H237180   5.390   0.420   6.265
12434TIP3   OH237181   6.284   0.932   7.168
12434TIP3    H137182   6.212   0.997   7.181
12434TIP3    H237183   6.321   0.964   7.083
12435TIP3   OH237184   5.737   0.789   6.563
12435TIP3    H137185   5.682   0.814   6.641
12435TIP3    H237186   5.820   0.761   6.607
12436TIP3   OH237187   5.970   0.836   7.465
12436TIP3    H137188   5.971   0.919   7.516
12436TIP3    H237189   5.884   0.845   7.418
12437TIP3   OH237190   4.975   0.791   6.973
12437TIP3    H137191   4.928   0.731   6.911
12437TIP3    H237192   5.047   0.733   7.005
12438TIP3   OH237193   5.112   1.218   7.111
12438TIP3    H137194   5.074   1.150   7.054
12438TIP3    H237195   5.195   1.175   7.139
12439TIP3   OH237196   5.100   0.760   7.334
12439TIP3    H137197   5.135   0.736   7.245
12439TIP3    H237198   5.148   0.843   7.353
12440TIP3   OH237199   5.631   1.396   7.109
12440TIP3    H137200   5.617   1.475   7.163
12440TIP3    H237201   5.617   1.322   7.171
12441TIP3   OH237202   5.240   1.315   7.655
12441TIP3    H137203   5.181   1.378   7.701
12441TIP3    H237204   5.174   1.263   7.606
12442TIP3   OH237205   5.584   0.638   6.390
12442TIP3    H137206   5.640   0.698   6.443
12442TIP3    H237207   5.608   0.666   6.298
12443TIP3   OH237208   4.983   0.876   7.760
12443TIP3    H137209   4.988   0.962   7.808
12443TIP3    H237210   4.887   0.865   7.751
12444TIP3   OH237211   5.319   1.328   6.659
12444TIP3    H137212   5.393   1.384   6.690
12444TIP3    H237213   5.256   1.393   6.626
12445TIP3   OH237214   5.038   1.488   7.743
12445TIP3    H137215   5.005   1.482   7.651
12445TIP3    H237216   4.958   1.462   7.794
12446TIP3   OH237217   4.833   0.634   6.785
12446TIP3    H137218   4.767   0.673   6.723
12446TIP3    H237219   4.801   0.544   6.793
12447TIP3   OH237220   5.890   1.257   5.981
12447TIP3    H137221   5.899   1.354   5.969
12447TIP3    H237222   5.983   1.228   5.970
12448TIP3   OH237223   4.589   1.008   7.684
12448TIP3    H137224   4.609   1.000   7.589
12448TIP3    H237225   4.639   0.932   7.722
12449TIP3   OH237226   6.333   1.655   7.372
12449TIP3    H137227   6.336   1.558   7.387
12449TIP3    H237228   6.252   1.677   7.422
12450TIP3   OH237229   5.442   1.444   7.513
12450TIP3    H137230   5.443   1.537   7.545
12450TIP3    H237231   5.370   1.405   7.567
12451TIP3   OH237232   5.198   1.574   6.463
12451TIP3    H137233   5.154   1.555   6.379
12451TIP3    H237234   5.168   1.664   6.484
12452TIP3   OH237235   4.637   1.424   6.844
12452TIP3    H137236   4.688   1.416   6.927
12452TIP3    H237237   4.574   1.351   6.855
12453TIP3   OH237238   5.403   1.473   6.106
12453TIP3    H137239   5.463   1.405   6.070
12453TIP3    H237240   5.436   1.482   6.198
12454TIP3   OH237241   5.451   1.521   6.377
12454TIP3    H137242   5.363   1.530   6.420
12454TIP3    H237243   5.502   1.478   6.448
12455TIP3   OH237244   6.221   0.779   7.660
12455TIP3    H137245   6.159   0.812   7.594
12455TIP3    H237246   6.256   0.698   7.622
12456TIP3   OH237247   4.834   1.186   7.691
12456TIP3    H137248   4.874   1.164   7.777
12456TIP3    H237249   4.745   1.148   7.694
12457TIP3   OH237250   5.885   0.651   7.654
12457TIP3    H137251   5.945   0.577   7.661
12457TIP3    H237252   5.920   0.706   7.582
12458TIP3   OH237253   5.657   0.692   6.132
12458TIP3    H137254   5.621   0.669   6.045
12458TIP3    H237255   5.729   0.752   6.107
12459TIP3   OH237256   5.156   0.532   7.479
12459TIP3    H137257   5.107   0.557   7.560
12459TIP3    H237258   5.139   0.610   7.422
12460TIP3   OH237259   5.027   0.442   6.990
12460TIP3    H137260   4.948   0.394   7.020
12460TIP3    H237261   5.048   0.394   6.907
12461TIP3   OH237262   5.531   0.511   6.718
12461TIP3    H137263   5.476   0.583   6.681
12461TIP3    H237264   5.578   0.479   6.639
12462TIP3   OH237265   5.707   0.825   7.809
12462TIP3    H137266   5.703   0.733   7.840
12462TIP3    H237267   5.804   0.833   7.802
12463TIP3   OH237268   5.688   0.537   6.961
12463TIP3    H137269   5.631   0.574   6.891
12463TIP3    H237270   5.718   0.456   6.917
12464TIP3   OH237271   4.969   0.578   7.685
12464TIP3    H137272   4.996   0.634   7.759
12464TIP3    H237273   4.950   0.493   7.726
12465TIP3   OH237274   5.698   0.791   7.386
12465TIP3    H137275   5.729   0.719   7.326
12465TIP3    H237276   5.667   0.738   7.462
12466TIP3   OH237277   4.794   0.298   7.067
12466TIP3    H137278   4.700   0.312   7.044
12466TIP3    H237279   4.808   0.207   7.038
12467TIP3   OH237280   5.083   0.314   6.753
12467TIP3    H137281   5.171   0.295   6.716
12467TIP3    H237282   5.026   0.310   6.674
12468TIP3   OH237283   4.896   0.333   6.533
12468TIP3    H137284   4.842   0.273   6.478
12468TIP3    H237285   4.957   0.367   6.464
12469TIP3   OH237286   6.022   2.009   7.475
12469TIP3    H137287   6.021   2.030   7.380
12469TIP3    H237288   6.100   2.058   7.506
12470TIP3   OH237289   4.984   1.108   7.910
12470TIP3    H137290   5.067   1.144   7.949
12470TIP3    H237291   4.922   1.125   7.984
12471TIP3   OH237292   5.453   0.576   7.158
12471TIP3    H137293   5.513   0.525   7.103
12471TIP3    H237294   5.453   0.526   7.241
12472TIP3   OH237295   5.425   0.450   7.464
12472TIP3    H137296   5.337   0.493   7.462
12472TIP3    H237297   5.482   0.519   7.503
12473TIP3   OH237298   5.161   0.860   6.539
12473TIP3    H137299   5.089   0.794   6.528
12473TIP3    H237300   5.144   0.893   6.630
12474TIP3   OH237301   6.063   1.098   7.171
12474TIP3    H137302   6.088   1.144   7.088
12474TIP3    H237303   5.978   1.055   7.147
12475TIP3   OH237304   5.563   1.178   7.535
12475TIP3    H137305   5.579   1.152   7.627
12475TIP3    H237306   5.522   1.266   7.544
12476TIP3   OH237307   5.680   0.392   6.494
12476TIP3    H137308   5.777   0.402   6.506
12476TIP3    H237309   5.658   0.472   6.442
12477TIP3   OH237310   4.834   0.834   7.214
12477TIP3    H137311   4.881   0.846   7.129
12477TIP3    H237312   4.905   0.801   7.271
12478TIP3   OH237313   5.306   1.009   6.357
12478TIP3    H137314   5.259   1.096   6.366
12478TIP3    H237315   5.252   0.953   6.418
12479TIP3   OH237316   4.719   0.814   7.832
12479TIP3    H137317   4.761   0.798   7.919
12479TIP3    H237318   4.666   0.734   7.819
12480TIP3   OH237319   5.455   0.929   7.849
12480TIP3    H137320   5.390   0.874   7.800
12480TIP3    H237321   5.541   0.891   7.821
12481TIP3   OH237322   5.723   1.439   7.429
12481TIP3    H137323   5.626   1.434   7.442
12481TIP3    H237324   5.749   1.489   7.509
12482TIP3   OH237325   6.138   0.502   6.338
12482TIP3    H137326   6.074   0.455   6.279
12482TIP3    H237327   6.136   0.590   6.295
12483TIP3   OH237328   6.350   1.371   7.420
12483TIP3    H137329   6.252   1.361   7.412
12483TIP3    H237330   6.377   1.334   7.333
12484TIP3   OH237331   5.830   1.327   6.246
12484TIP3    H137332   5.806   1.258   6.310
12484TIP3    H237333   5.842   1.279   6.163
12485TIP3   OH237334   5.827   0.956   7.092
12485TIP3    H137335   5.734   0.930   7.102
12485TIP3    H237336   5.863   0.879   7.045
12486TIP3   OH237337   4.949   1.180   6.834
12486TIP3    H137338   4.956   1.264   6.786
12486TIP3    H237339   4.854   1.171   6.845
12487TIP3   OH237340   4.520   0.484   6.542
12487TIP3    H137341   4.567   0.568   6.559
12487TIP3    H237342   4.441   0.495   6.599
12488TIP3   OH237343   5.100   0.953   6.784
12488TIP3    H137344   5.061   1.040   6.803
12488TIP3    H237345   5.063   0.899   6.857
12489TIP3   OH237346   5.222   1.532   7.310
12489TIP3    H137347   5.264   1.602   7.257
12489TIP3    H237348   5.298   1.496   7.358
12490TIP3   OH237349   4.874   1.423   6.692
12490TIP3    H137350   4.787   1.431   6.737
12490TIP3    H237351   4.905   1.516   6.695
12491TIP3   OH237352   5.615   1.162   7.266
12491TIP3    H137353   5.607   1.160   7.364
12491TIP3    H237354   5.695   1.110   7.252
12492TIP3   OH237355   5.582   1.051   6.149
12492TIP3    H137356   5.635   1.028   6.229
12492TIP3    H237357   5.493   1.029   6.180
12493TIP3   OH237358   5.860   1.700   7.320
12493TIP3    H137359   5.783   1.641   7.312
12493TIP3    H237360   5.844   1.763   7.247
12494TIP3   OH237361   5.926   1.532   5.971
12494TIP3    H137362   5.964   1.603   5.917
12494TIP3    H237363   5.846   1.578   6.003
12495TIP3   OH237364   5.743   0.988   6.366
12495TIP3    H137365   5.733   0.923   6.438
12495TIP3    H237366   5.841   0.987   6.356
12496TIP3   OH237367   4.953   1.036   6.148
12496TIP3    H137368   4.967   0.945   6.118
12496TIP3    H237369   4.935   1.022   6.243
12497TIP3   OH237370   4.898   1.041   6.423
12497TIP3    H137371   4.967   1.013   6.484
12497TIP3    H237372   4.905   1.139   6.428
12498TIP3   OH237373   4.633   0.735   6.622
12498TIP3    H137374   4.570   0.781   6.681
12498TIP3    H237375   4.651   0.805   6.557
12499TIP3   OH237376   5.162   1.239   6.370
12499TIP3    H137377   5.077   1.268   6.407
12499TIP3    H237378   5.180   1.308   6.306
12500TIP3   OH237379   5.378   0.294   6.785
12500TIP3    H137380   5.416   0.381   6.762
12500TIP3    H237381   5.335   0.312   6.870
12501TIP3   OH237382   5.610   0.625   7.583
12501TIP3    H137383   5.620   0.694   7.650
12501TIP3    H237384   5.696   0.579   7.597
12502TIP3   OH237385   4.904   1.314   6.436
12502TIP3    H137386   4.873   1.384   6.373
12502TIP3    H237387   4.888   1.358   6.522
12503TIP3   OH237388   5.913   0.719   6.957
12503TIP3    H137389   5.841   0.657   6.976
12503TIP3    H237390   5.989   0.677   7.005
12504TIP3   OH237391   4.622   0.950   6.430
12504TIP3    H137392   4.686   1.023   6.440
12504TIP3    H237393   4.670   0.896   6.364
12505TIP3   OH237394   4.554   0.201   6.550
12505TIP3    H137395   4.592   0.291   6.557
12505TIP3    H237396   4.461   0.220   6.563
12506TIP3   OH237397   5.880   1.670   6.911
12506TIP3    H137398   5.837   1.717   6.836
12506TIP3    H237399   5.974   1.688   6.891
12507TIP3   OH237400   4.499   1.159   6.826
12507TIP3    H137401   4.416   1.193   6.863
12507TIP3    H237402   4.491   1.193   6.735
12508TIP3   OH237403   4.648   1.701   7.888
12508TIP3    H137404   4.735   1.692   7.932
12508TIP3    H237405   4.606   1.615   7.907
12509TIP3   OH237406   5.139   1.668   7.933
12509TIP3    H137407   5.232   1.643   7.940
12509TIP3    H237408   5.110   1.612   7.859
12510TIP3   OH237409   5.117   1.241   6.065
12510TIP3    H137410   5.059   1.170   6.102
12510TIP3    H237411   5.191   1.187   6.033
12511TIP3   OH237412   5.773   1.571   7.667
12511TIP3    H137413   5.763   1.501   7.736
12511TIP3    H237414   5.851   1.620   7.698
12512TIP3   OH237415   5.553   1.284   5.973
12512TIP3    H137416   5.600   1.222   6.030
12512TIP3    H237417   5.609   1.286   5.892
12513TIP3   OH237418   4.779   1.103   8.094
12513TIP3    H137419   4.800   1.008   8.089
12513TIP3    H237420   4.690   1.104   8.051
12514TIP3   OH237421   4.761   0.759   6.284
12514TIP3    H137422   4.816   0.722   6.354
12514TIP3    H237423   4.827   0.763   6.211
12515TIP3   OH237424   5.390   1.192   7.864
12515TIP3    H137425   5.349   1.201   7.776
12515TIP3    H237426   5.422   1.099   7.863
12516TIP3   OH237427   5.264   0.957   6.088
12516TIP3    H137428   5.268   0.969   6.185
12516TIP3    H237429   5.264   0.859   6.083
12517TIP3   OH237430   5.884   1.193   7.468
12517TIP3    H137431   5.957   1.241   7.424
12517TIP3    H237432   5.811   1.258   7.457
12518TIP3   OH237433   4.894   0.820   8.076
12518TIP3    H137434   4.980   0.783   8.049
12518TIP3    H237435   4.920   0.863   8.160
12519TIP3   OH237436   4.971   0.658   6.507
12519TIP3    H137437   4.945   0.615   6.591
12519TIP3    H237438   5.004   0.582   6.455
12520TIP3   OH237439   5.238   0.797   7.733
12520TIP3    H137440   5.146   0.835   7.735
12520TIP3    H237441   5.265   0.811   7.640
12521TIP3   OH237442   5.065   0.450   6.347
12521TIP3    H137443   5.039   0.452   6.252
12521TIP3    H237444   5.162   0.458   6.340
12522TIP3   OH237445   5.756   1.132   7.872
12522TIP3    H137446   5.835   1.110   7.821
12522TIP3    H237447   5.747   1.056   7.930
12523TIP3   OH237448   5.895   0.786   6.003
12523TIP3    H137449   5.869   0.740   5.921
12523TIP3    H237450   5.863   0.876   5.982
12524TIP3   OH237451   5.272   0.541   7.787
12524TIP3    H137452   5.365   0.518   7.778
12524TIP3    H237453   5.272   0.636   7.759
12525TIP3   OH237454   5.408   0.839   7.520
12525TIP3    H137455   5.485   0.850   7.463
12525TIP3    H237456   5.349   0.910   7.488
12526TIP3   OH237457   5.977   0.809   7.929
12526TIP3    H137458   6.026   0.726   7.933
12526TIP3    H237459   6.042   0.869   7.891
12527TIP3   OH237460   6.017   1.053   7.656
12527TIP3    H137461   5.958   1.106   7.597
12527TIP3    H237462   6.105   1.075   7.617
12528TIP3   OH237463   5.212   0.639   8.086
12528TIP3    H137464   5.144   0.570   8.085
12528TIP3    H237465   5.251   0.630   7.998
12529TIP3   OH237466   3.797   9.983   5.963
12529TIP3    H137467   3.819   9.943   6.047
12529TIP3    H237468   3.701   9.991   5.967
12530TIP3   OH237469   4.873   1.518   6.249
12530TIP3    H137470   4.969   1.515   6.230
12530TIP3    H237471   4.842   1.563   6.169
12531TIP3   OH237472   4.355   0.895   6.469
12531TIP3    H137473   4.449   0.919   6.453
12531TIP3    H237474   4.351   0.807   6.428
12532TIP3   OH237475   4.267   1.511   6.878
12532TIP3    H137476   4.200   1.447   6.845
12532TIP3    H237477   4.311   1.457   6.947
12533TIP3   OH237478   4.406   1.370   7.065
12533TIP3    H137479   4.409   1.289   7.118
12533TIP3    H237480   4.456   1.430   7.124
12534TIP3   OH237481   6.129   1.766   6.864
12534TIP3    H137482   6.158   1.796   6.951
12534TIP3    H237483   6.192   1.811   6.805
12535TIP3   OH237484   6.164   1.783   7.146
12535TIP3    H137485   6.120   1.696   7.141
12535TIP3    H237486   6.238   1.761   7.205
12536TIP3   OH237487   6.207   1.461   7.718
12536TIP3    H137488   6.134   1.467   7.783
12536TIP3    H237489   6.248   1.549   7.725
12537TIP3   OH237490   6.025   0.972   6.340
12537TIP3    H137491   6.095   1.036   6.315
12537TIP3    H237492   6.065   0.933   6.421
12538TIP3   OH237493   6.152   0.839   6.543
12538TIP3    H137494   6.087   0.798   6.604
12538TIP3    H237495   6.217   0.879   6.605
12539TIP3   OH237496   6.200   1.227   6.974
12539TIP3    H137497   6.259   1.168   6.924
12539TIP3    H237498   6.191   1.304   6.914
12540TIP3   OH237499   6.040   1.534   7.172
12540TIP3    H137500   5.968   1.572   7.226
12540TIP3    H237501   5.989   1.483   7.104
12541TIP3   OH237502   6.090   0.744   6.191
12541TIP3    H137503   6.019   0.754   6.124
12541TIP3    H237504   6.066   0.820   6.249
12542TIP3   OH237505   5.970   0.412   6.139
12542TIP3    H137506   5.928   0.485   6.092
12542TIP3    H237507   5.923   0.336   6.104
12543TIP3   OH237508   5.969   0.693   6.694
12543TIP3    H137509   5.978   0.597   6.701
12543TIP3    H237510   5.954   0.717   6.789
12544TIP3   OH237511   4.592   0.755   7.451
12544TIP3    H137512   4.584   0.753   7.354
12544TIP3    H237513   4.689   0.767   7.461
12545TIP3   OH237514   6.260   1.117   7.546
12545TIP3    H137515   6.336   1.055   7.539
12545TIP3    H237516   6.286   1.184   7.481
12546TIP3   OH237517   6.446   0.926   7.609
12546TIP3    H137518   6.377   0.861   7.630
12546TIP3    H237519   6.523   0.872   7.590
12547TIP3   OH237520   5.950   0.407   6.537
12547TIP3    H137521   5.995   0.374   6.618
12547TIP3    H237522   6.023   0.452   6.491
12548TIP3   OH237523   6.128   0.612   7.087
12548TIP3    H137524   6.216   0.628   7.045
12548TIP3    H237525   6.148   0.639   7.178
12549TIP3   OH237526   6.188   0.736   7.331
12549TIP3    H137527   6.106   0.781   7.361
12549TIP3    H237528   6.227   0.805   7.272
12550TIP3   OH237529   4.585   0.429   7.521
12550TIP3    H137530   4.630   0.410   7.436
12550TIP3    H237531   4.609   0.522   7.532
12551TIP3   OH237532   5.716   1.628   6.523
12551TIP3    H137533   5.767   1.611   6.441
12551TIP3    H237534   5.771   1.694   6.567
12552TIP3   OH237535   4.821   1.425   7.919
12552TIP3    H137536   4.735   1.390   7.892
12552TIP3    H237537   4.815   1.420   8.015
12553TIP3   OH237538   5.001   1.460   7.460
12553TIP3    H137539   4.941   1.528   7.425
12553TIP3    H237540   5.082   1.483   7.412
12554TIP3   OH237541   5.445   1.710   7.596
12554TIP3    H137542   5.486   1.713   7.685
12554TIP3    H237543   5.510   1.760   7.543
12555TIP3   OH237544   5.622   1.859   7.451
12555TIP3    H137545   5.693   1.808   7.410
12555TIP3    H237546   5.673   1.917   7.512
12556TIP3   OH237547   4.678   1.734   7.472
12556TIP3    H137548   4.586   1.765   7.455
12556TIP3    H237549   4.677   1.728   7.568
12557TIP3   OH237550   4.913   1.703   7.335
12557TIP3    H137551   4.828   1.716   7.383
12557TIP3    H237552   4.889   1.735   7.246
12558TIP3   OH237553   5.337   1.733   7.133
12558TIP3    H137554   5.266   1.753   7.069
12558TIP3    H237555   5.349   1.820   7.177
12559TIP3   OH237556   5.603   1.672   7.185
12559TIP3    H137557   5.508   1.687   7.165
12559TIP3    H237558   5.644   1.750   7.145
12560TIP3   OH237559   5.815   1.865   7.104
12560TIP3    H137560   5.800   1.949   7.055
12560TIP3    H237561   5.838   1.803   7.032
12561TIP3   OH237562   4.579   1.516   7.224
12561TIP3    H137563   4.586   1.462   7.306
12561TIP3    H237564   4.656   1.479   7.174
12562TIP3   OH237565   4.776   1.392   7.076
12562TIP3    H137566   4.789   1.310   7.126
12562TIP3    H237567   4.867   1.428   7.072
12563TIP3   OH237568   5.042   1.484   7.080
12563TIP3    H137569   5.075   1.392   7.070
12563TIP3    H237570   5.083   1.505   7.166
12564TIP3   OH237571   4.371   1.285   6.621
12564TIP3    H137572   4.287   1.252   6.583
12564TIP3    H237573   4.359   1.380   6.607
12565TIP3   OH237574   5.143   1.482   6.197
12565TIP3    H137575   5.233   1.501   6.163
12565TIP3    H237576   5.121   1.405   6.140
12566TIP3   OH237577   5.862   1.594   6.290
12566TIP3    H137578   5.853   1.496   6.277
12566TIP3    H237579   5.817   1.627   6.210
12567TIP3   OH237580   4.449   1.319   6.258
12567TIP3    H137581   4.447   1.344   6.351
12567TIP3    H237582   4.537   1.276   6.249
12568TIP3   OH237583   6.090   1.741   7.481
12568TIP3    H137584   6.012   1.706   7.434
12568TIP3    H237585   6.069   1.836   7.481
12569TIP3   OH237586   7.355   1.110   6.248
12569TIP3    H137587   7.329   1.203   6.230
12569TIP3    H237588   7.276   1.064   6.216
12570TIP3   OH237589   7.357   1.110   6.621
12570TIP3    H137590   7.381   1.077   6.709
12570TIP3    H237591   7.309   1.033   6.585
12571TIP3   OH237592   7.596   1.411   6.306
12571TIP3    H137593   7.582   1.341   6.371
12571TIP3    H237594   7.622   1.486   6.361
12572TIP3   OH237595   6.622   1.413   6.717
12572TIP3    H137596   6.613   1.316   6.725
12572TIP3    H237597   6.718   1.422   6.719
12573TIP3   OH237598   6.326   0.610   6.511
12573TIP3    H137599   6.284   0.696   6.526
12573TIP3    H237600   6.260   0.567   6.454
12574TIP3   OH237601   6.393   0.904   6.669
12574TIP3    H137602   6.441   0.830   6.711
12574TIP3    H237603   6.456   0.934   6.603
12575TIP3   OH237604   7.243   1.876   6.322
12575TIP3    H137605   7.293   1.805   6.277
12575TIP3    H237606   7.237   1.842   6.412
12576TIP3   OH237607   7.153   1.338   6.671
12576TIP3    H137608   7.187   1.262   6.622
12576TIP3    H237609   7.239   1.379   6.695
12577TIP3   OH237610   7.563   0.847   6.708
12577TIP3    H137611   7.616   0.768   6.715
12577TIP3    H237612   7.528   0.840   6.617
12578TIP3   OH237613   6.539   0.700   6.779
12578TIP3    H137614   6.615   0.676   6.835
12578TIP3    H237615   6.559   0.644   6.701
12579TIP3   OH237616   6.983   0.900   6.561
12579TIP3    H137617   7.070   0.865   6.587
12579TIP3    H237618   6.935   0.818   6.536
12580TIP3   OH237619   8.214   0.842   6.860
12580TIP3    H137620   8.153   0.914   6.834
12580TIP3    H237621   8.261   0.879   6.936
12581TIP3   OH237622   7.253   1.334   6.116
12581TIP3    H137623   7.204   1.306   6.038
12581TIP3    H237624   7.208   1.418   6.137
12582TIP3   OH237625   7.010   1.248   6.910
12582TIP3    H137626   6.941   1.305   6.951
12582TIP3    H237627   7.046   1.307   6.842
12583TIP3   OH237628   6.774   0.589   6.876
12583TIP3    H137629   6.819   0.665   6.919
12583TIP3    H237630   6.828   0.577   6.797
12584TIP3   OH237631   6.833   1.445   6.999
12584TIP3    H137632   6.804   1.531   6.964
12584TIP3    H237633   6.756   1.427   7.059
12585TIP3   OH237634   6.232   1.138   6.237
12585TIP3    H137635   6.188   1.166   6.154
12585TIP3    H237636   6.260   1.224   6.275
12586TIP3   OH237637   7.671   1.654   6.479
12586TIP3    H137638   7.581   1.645   6.518
12586TIP3    H237639   7.661   1.739   6.432
12587TIP3   OH237640   7.377   1.704   6.156
12587TIP3    H137641   7.425   1.621   6.131
12587TIP3    H237642   7.435   1.769   6.111
12588TIP3   OH237643   7.515   1.488   6.053
12588TIP3    H137644   7.471   1.412   6.015
12588TIP3    H237645   7.548   1.451   6.138
12589TIP3   OH237646   7.897   1.571   6.819
12589TIP3    H137647   7.884   1.493   6.761
12589TIP3    H237648   7.878   1.645   6.757
12590TIP3   OH237649   7.186   0.962   6.075
12590TIP3    H137650   7.104   1.011   6.054
12590TIP3    H237651   7.230   0.958   5.989
12591TIP3   OH237652   7.142   0.748   5.799
12591TIP3    H137653   7.216   0.794   5.842
12591TIP3    H237654   7.192   0.679   5.750
12592TIP3   OH237655   8.089   1.201   6.665
12592TIP3    H137656   8.007   1.255   6.670
12592TIP3    H237657   8.119   1.224   6.574
12593TIP3   OH237658   7.533   1.045   6.049
12593TIP3    H137659   7.478   1.071   6.127
12593TIP3    H237660   7.616   1.018   6.094
12594TIP3   OH237661   7.770   1.091   6.956
12594TIP3    H137662   7.764   1.178   7.002
12594TIP3    H237663   7.683   1.092   6.910
12595TIP3   OH237664   6.767   1.046   6.463
12595TIP3    H137665   6.724   0.987   6.397
12595TIP3    H237666   6.843   0.990   6.491
12596TIP3   OH237667   6.898   1.459   6.611
12596TIP3    H137668   6.873   1.406   6.534
12596TIP3    H237669   6.987   1.425   6.632
12597TIP3   OH237670   6.904   1.009   6.809
12597TIP3    H137671   6.942   1.004   6.719
12597TIP3    H237672   6.939   1.093   6.844
12598TIP3   OH237673   7.428   1.652   6.596
12598TIP3    H137674   7.413   1.731   6.651
12598TIP3    H237675   7.414   1.578   6.658
12599TIP3   OH237676   7.038   1.575   7.140
12599TIP3    H137677   6.978   1.634   7.190
12599TIP3    H237678   6.973   1.517   7.096
12600TIP3   OH237679   7.380   0.894   5.876
12600TIP3    H137680   7.436   0.954   5.930
12600TIP3    H237681   7.405   0.922   5.785
12601TIP3   OH237682   7.116   1.585   6.148
12601TIP3    H137683   7.188   1.642   6.177
12601TIP3    H237684   7.052   1.648   6.112
12602TIP3   OH237685   6.833   1.746   7.230
12602TIP3    H137686   6.798   1.737   7.139
12602TIP3    H237687   6.756   1.720   7.285
12603TIP3   OH237688   6.631   0.891   6.269
12603TIP3    H137689   6.563   0.930   6.210
12603TIP3    H237690   6.596   0.803   6.286
12604TIP3   OH237691   7.686   1.514   5.469
12604TIP3    H137692   7.695   1.611   5.456
12604TIP3    H237693   7.779   1.484   5.457
12605TIP3   OH237694   6.415   1.274   7.173
12605TIP3    H137695   6.352   1.240   7.107
12605TIP3    H237696   6.445   1.191   7.218
12606TIP3   OH237697   6.266   1.463   6.808
12606TIP3    H137698   6.362   1.454   6.802
12606TIP3    H237699   6.257   1.541   6.866
12607TIP3   OH237700   8.132   1.912   6.863
12607TIP3    H137701   8.130   1.815   6.875
12607TIP3    H237702   8.049   1.937   6.909
12608TIP3   OH237703   7.237   1.701   6.998
12608TIP3    H137704   7.238   1.793   7.032
12608TIP3    H237705   7.165   1.662   7.053
12609TIP3   OH237706   6.996   1.831   5.950
12609TIP3    H137707   6.950   1.810   5.866
12609TIP3    H237708   6.964   1.921   5.971
12610TIP3   OH237709   6.435   1.681   6.333
12610TIP3    H137710   6.484   1.670   6.418
12610TIP3    H237711   6.373   1.606   6.340
12611TIP3   OH237712   7.200   1.731   5.593
12611TIP3    H137713   7.259   1.662   5.556
12611TIP3    H237714   7.233   1.738   5.685
12612TIP3   OH237715   7.248   1.778   5.864
12612TIP3    H137716   7.159   1.788   5.906
12612TIP3    H237717   7.297   1.733   5.935
12613TIP3   OH237718   8.021   1.040   7.152
12613TIP3    H137719   7.954   1.079   7.094
12613TIP3    H237720   8.045   0.959   7.106
12614TIP3   OH237721   6.619   1.456   7.168
12614TIP3    H137722   6.672   1.436   7.248
12614TIP3    H237723   6.548   1.388   7.173
12615TIP3   OH237724   7.679   0.894   7.128
12615TIP3    H137725   7.753   0.842   7.160
12615TIP3    H237726   7.716   0.964   7.073
12616TIP3   OH237727   7.453   0.949   5.619
12616TIP3    H137728   7.417   0.926   5.531
12616TIP3    H237729   7.526   1.008   5.594
12617TIP3   OH237730   6.953   0.781   6.960
12617TIP3    H137731   6.895   0.814   7.033
12617TIP3    H237732   6.941   0.859   6.900
12618TIP3   OH237733   6.823   0.696   6.477
12618TIP3    H137734   6.743   0.649   6.507
12618TIP3    H237735   6.844   0.647   6.395
12619TIP3   OH237736   7.328   0.767   6.206
12619TIP3    H137737   7.272   0.840   6.169
12619TIP3    H237738   7.374   0.736   6.126
12620TIP3   OH237739   7.502   1.088   7.268
12620TIP3    H137740   7.490   1.038   7.352
12620TIP3    H237741   7.599   1.091   7.268
12621TIP3   OH237742   7.489   0.798   6.444
12621TIP3    H137743   7.427   0.836   6.379
12621TIP3    H237744   7.507   0.713   6.401
12622TIP3   OH237745   7.505   1.047   6.878
12622TIP3    H137746   7.525   0.970   6.820
12622TIP3    H237747   7.462   1.005   6.954
12623TIP3   OH237748   6.592   0.553   6.551
12623TIP3    H137749   6.497   0.572   6.530
12623TIP3    H237750   6.598   0.459   6.529
12624TIP3   OH237751   6.880   0.568   6.241
12624TIP3    H137752   6.970   0.553   6.206
12624TIP3    H237753   6.826   0.576   6.160
12625TIP3   OH237754   6.687   0.598   6.020
12625TIP3    H137755   6.664   0.506   6.003
12625TIP3    H237756   6.750   0.620   5.948
12626TIP3   OH237757   7.819   2.264   6.962
12626TIP3    H137758   7.817   2.286   6.867
12626TIP3    H237759   7.895   2.316   6.993
12627TIP3   OH237760   6.775   1.404   7.389
12627TIP3    H137761   6.858   1.410   7.439
12627TIP3    H237762   6.714   1.375   7.460
12628TIP3   OH237763   7.250   0.833   6.650
12628TIP3    H137764   7.299   0.769   6.598
12628TIP3    H237765   7.246   0.789   6.738
12629TIP3   OH237766   7.230   0.730   6.927
12629TIP3    H137767   7.136   0.749   6.947
12629TIP3    H237768   7.275   0.772   7.003
12630TIP3   OH237769   6.958   1.116   6.026
12630TIP3    H137770   6.886   1.051   6.015
12630TIP3    H237771   6.940   1.150   6.118
12631TIP3   OH237772   7.860   1.351   6.658
12631TIP3    H137773   7.883   1.400   6.575
12631TIP3    H237774   7.774   1.310   6.635
12632TIP3   OH237775   7.373   1.444   7.021
12632TIP3    H137776   7.366   1.399   7.107
12632TIP3    H237777   7.316   1.522   7.033
12633TIP3   OH237778   7.476   0.649   5.982
12633TIP3    H137779   7.573   0.660   5.993
12633TIP3    H237780   7.454   0.727   5.928
12634TIP3   OH237781   6.650   1.129   6.709
12634TIP3    H137782   6.685   1.105   6.621
12634TIP3    H237783   6.707   1.075   6.767
12635TIP3   OH237784   7.102   1.266   5.845
12635TIP3    H137785   7.056   1.353   5.854
12635TIP3    H237786   7.048   1.210   5.905
12636TIP3   OH237787   6.484   1.074   7.341
12636TIP3    H137788   6.566   1.064   7.392
12636TIP3    H237789   6.485   0.991   7.290
12637TIP3   OH237790   7.249   1.175   7.339
12637TIP3    H137791   7.173   1.129   7.297
12637TIP3    H237792   7.324   1.146   7.284
12638TIP3   OH237793   7.520   1.701   6.912
12638TIP3    H137794   7.425   1.687   6.927
12638TIP3    H237795   7.545   1.747   6.995
12639TIP3   OH237796   7.932   0.759   5.827
12639TIP3    H137797   7.870   0.712   5.767
12639TIP3    H237798   7.932   0.846   5.783
12640TIP3   OH237799   8.146   1.620   6.909
12640TIP3    H137800   8.048   1.617   6.900
12640TIP3    H237801   8.172   1.590   6.818
12641TIP3   OH237802   7.628   1.584   5.734
12641TIP3    H137803   7.602   1.514   5.796
12641TIP3    H237804   7.639   1.537   5.650
12642TIP3   OH237805   7.624   1.212   6.580
12642TIP3    H137806   7.531   1.187   6.591
12642TIP3    H237807   7.658   1.134   6.531
12643TIP3   OH237808   6.748   1.438   6.323
12643TIP3    H137809   6.750   1.521   6.272
12643TIP3    H237810   6.653   1.425   6.335
12644TIP3   OH237811   6.315   0.742   6.029
12644TIP3    H137812   6.361   0.827   6.046
12644TIP3    H237813   6.237   0.752   6.087
12645TIP3   OH237814   6.896   1.210   6.272
12645TIP3    H137815   6.856   1.297   6.291
12645TIP3    H237816   6.858   1.156   6.345
12646TIP3   OH237817   7.017   1.786   6.798
12646TIP3    H137818   7.059   1.857   6.746
12646TIP3    H237819   7.093   1.751   6.847
12647TIP3   OH237820   6.670   1.679   6.180
12647TIP3    H137821   6.584   1.686   6.225
12647TIP3    H237822   6.700   1.773   6.182
12648TIP3   OH237823   7.412   1.418   6.753
12648TIP3    H137824   7.404   1.420   6.852
12648TIP3    H237825   7.489   1.363   6.741
12649TIP3   OH237826   7.378   1.308   5.636
12649TIP3    H137827   7.430   1.285   5.716
12649TIP3    H237828   7.289   1.285   5.665
12650TIP3   OH237829   7.658   1.956   6.806
12650TIP3    H137830   7.581   1.896   6.801
12650TIP3    H237831   7.639   2.019   6.733
12651TIP3   OH237832   7.722   1.788   5.458
12651TIP3    H137833   7.759   1.859   5.402
12651TIP3    H237834   7.642   1.834   5.490
12652TIP3   OH237835   7.539   1.246   5.854
12652TIP3    H137836   7.529   1.180   5.925
12652TIP3    H237837   7.637   1.244   5.842
12653TIP3   OH237838   6.459   1.650   6.957
12653TIP3    H137839   6.505   1.569   6.985
12653TIP3    H237840   6.488   1.711   7.026
12654TIP3   OH237841   6.750   1.293   5.635
12654TIP3    H137842   6.763   1.201   5.604
12654TIP3    H237843   6.731   1.278   5.730
12655TIP3   OH237844   6.695   1.297   5.909
12655TIP3    H137845   6.763   1.269   5.972
12655TIP3    H237846   6.701   1.395   5.915
12656TIP3   OH237847   6.429   0.991   6.109
12656TIP3    H137848   6.366   1.036   6.168
12656TIP3    H237849   6.447   1.062   6.044
12657TIP3   OH237850   6.960   1.496   5.858
12657TIP3    H137851   6.873   1.525   5.893
12657TIP3    H237852   6.975   1.563   5.791
12658TIP3   OH237853   7.173   0.550   6.271
12658TIP3    H137854   7.212   0.638   6.251
12658TIP3    H237855   7.130   0.566   6.357
12659TIP3   OH237856   7.419   0.864   7.096
12659TIP3    H137857   7.397   0.944   7.146
12659TIP3    H237858   7.516   0.860   7.113
12660TIP3   OH237859   6.701   1.571   5.922
12660TIP3    H137860   6.670   1.639   5.859
12660TIP3    H237861   6.684   1.614   6.009
12661TIP3   OH237862   7.710   0.976   6.445
12661TIP3    H137863   7.637   0.912   6.458
12661TIP3    H237864   7.784   0.932   6.492
12662TIP3   OH237865   6.419   1.206   5.918
12662TIP3    H137866   6.480   1.280   5.927
12662TIP3    H237867   6.468   1.153   5.850
12663TIP3   OH237868   6.359   0.466   6.028
12663TIP3    H137869   6.383   0.560   6.039
12663TIP3    H237870   6.271   0.468   6.067
12664TIP3   OH237871   7.676   1.926   6.399
12664TIP3    H137872   7.633   1.973   6.324
12664TIP3    H237873   7.770   1.945   6.377
12665TIP3   OH237874   6.296   1.418   6.311
12665TIP3    H137875   6.216   1.448   6.356
12665TIP3    H237876   6.280   1.453   6.221
12666TIP3   OH237877   6.444   1.951   7.377
12666TIP3    H137878   6.531   1.946   7.421
12666TIP3    H237879   6.423   1.856   7.373
12667TIP3   OH237880   6.937   1.927   7.417
12667TIP3    H137881   7.028   1.898   7.426
12667TIP3    H237882   6.906   1.869   7.345
12668TIP3   OH237883   6.914   1.498   5.553
12668TIP3    H137884   6.855   1.427   5.588
12668TIP3    H237885   6.987   1.444   5.518
12669TIP3   OH237886   7.571   1.827   7.153
12669TIP3    H137887   7.559   1.757   7.222
12669TIP3    H237888   7.647   1.877   7.187
12670TIP3   OH237889   7.350   1.541   5.460
12670TIP3    H137890   7.397   1.477   5.516
12670TIP3    H237891   7.404   1.542   5.379
12671TIP3   OH237892   6.577   1.358   7.580
12671TIP3    H137893   6.598   1.262   7.579
12671TIP3    H237894   6.491   1.359   7.532
12672TIP3   OH237895   6.555   1.015   5.767
12672TIP3    H137896   6.609   0.981   5.840
12672TIP3    H237897   6.623   1.020   5.696
12673TIP3   OH237898   7.189   1.446   7.348
12673TIP3    H137899   7.140   1.452   7.264
12673TIP3    H237900   7.217   1.352   7.349
12674TIP3   OH237901   7.061   1.214   5.575
12674TIP3    H137902   7.064   1.226   5.672
12674TIP3    H237903   7.060   1.115   5.570
12675TIP3   OH237904   7.683   1.448   6.957
12675TIP3    H137905   7.749   1.503   6.911
12675TIP3    H237906   7.603   1.503   6.950
12676TIP3   OH237907   6.697   1.096   7.554
12676TIP3    H137908   6.762   1.027   7.535
12676TIP3    H237909   6.722   1.120   7.646
12677TIP3   OH237910   6.768   0.916   5.994
12677TIP3    H137911   6.739   0.874   6.077
12677TIP3    H237912   6.800   0.839   5.943
12678TIP3   OH237913   7.012   1.056   7.227
12678TIP3    H137914   6.914   1.041   7.229
12678TIP3    H237915   7.031   1.036   7.135
12679TIP3   OH237916   6.862   0.703   5.835
12679TIP3    H137917   6.836   0.707   5.741
12679TIP3    H237918   6.959   0.715   5.828
12680TIP3   OH237919   7.553   1.389   7.361
12680TIP3    H137920   7.628   1.361   7.308
12680TIP3    H237921   7.545   1.316   7.425
12681TIP3   OH237922   7.692   1.042   5.491
12681TIP3    H137923   7.666   0.997   5.408
12681TIP3    H237924   7.660   1.133   5.469
12682TIP3   OH237925   7.129   0.812   7.223
12682TIP3    H137926   7.103   0.764   7.303
12682TIP3    H237927   7.085   0.898   7.237
12683TIP3   OH237928   7.227   1.110   7.016
12683TIP3    H137929   7.270   1.104   6.931
12683TIP3    H237930   7.146   1.161   6.994
12684TIP3   OH237931   7.772   1.068   7.406
12684TIP3    H137932   7.817   0.984   7.420
12684TIP3    H237933   7.843   1.128   7.380
12685TIP3   OH237934   7.815   1.308   7.144
12685TIP3    H137935   7.752   1.360   7.087
12685TIP3    H237936   7.899   1.334   7.101
12686TIP3   OH237937   7.021   0.903   7.563
12686TIP3    H137938   6.945   0.844   7.580
12686TIP3    H237939   7.087   0.841   7.530
12687TIP3   OH237940   7.489   0.921   7.472
12687TIP3    H137941   7.430   0.904   7.548
12687TIP3    H237942   7.470   0.849   7.411
12688TIP3   OH237943   6.670   1.774   5.736
12688TIP3    H137944   6.765   1.773   5.716
12688TIP3    H237945   6.637   1.819   5.656
12689TIP3   OH237946   6.151   1.154   5.955
12689TIP3    H137947   6.246   1.177   5.941
12689TIP3    H237948   6.147   1.065   5.913
12690TIP3   OH237949   6.064   1.767   6.365
12690TIP3    H137950   5.996   1.705   6.331
12690TIP3    H237951   6.108   1.712   6.433
12691TIP3   OH237952   6.201   1.625   6.553
12691TIP3    H137953   6.191   1.546   6.609
12691TIP3    H237954   6.251   1.683   6.612
12692TIP3   OH237955   7.927   2.021   6.350
12692TIP3    H137956   7.955   2.054   6.438
12692TIP3    H237957   7.987   2.067   6.290
12693TIP3   OH237958   7.960   2.041   6.632
12693TIP3    H137959   7.915   1.954   6.627
12693TIP3    H237960   8.034   2.017   6.691
12694TIP3   OH237961   8.006   1.715   7.208
12694TIP3    H137962   7.930   1.723   7.269
12694TIP3    H237963   8.045   1.805   7.211
12695TIP3   OH237964   7.821   1.229   5.827
12695TIP3    H137965   7.890   1.293   5.801
12695TIP3    H237966   7.862   1.190   5.907
12696TIP3   OH237967   7.949   1.097   6.030
12696TIP3    H137968   7.883   1.055   6.089
12696TIP3    H237969   8.012   1.137   6.092
12697TIP3   OH237970   8.001   1.487   6.465
12697TIP3    H137971   8.053   1.424   6.411
12697TIP3    H237972   7.988   1.561   6.404
12698TIP3   OH237973   7.835   1.790   6.660
12698TIP3    H137974   7.763   1.831   6.712
12698TIP3    H237975   7.786   1.740   6.591
12699TIP3   OH237976   7.885   1.001   5.679
12699TIP3    H137977   7.815   1.010   5.610
12699TIP3    H237978   7.861   1.077   5.736
12700TIP3   OH237979   7.767   0.668   5.626
12700TIP3    H137980   7.725   0.742   5.580
12700TIP3    H237981   7.720   0.593   5.590
12701TIP3   OH237982   7.765   0.952   6.181
12701TIP3    H137983   7.771   0.855   6.183
12701TIP3    H237984   7.751   0.973   6.276
12702TIP3   OH237985   6.398   1.032   6.924
12702TIP3    H137986   6.395   1.000   6.832
12702TIP3    H237987   6.494   1.032   6.941
12703TIP3   OH237988   8.056   1.374   7.034
12703TIP3    H137989   8.131   1.312   7.021
12703TIP3    H237990   8.077   1.446   6.972
12704TIP3   OH237991   8.241   1.173   7.052
12704TIP3    H137992   8.173   1.126   7.105
12704TIP3    H237993   8.322   1.129   7.081
12705TIP3   OH237994   7.747   0.666   6.026
12705TIP3    H137995   7.792   0.633   6.107
12705TIP3    H237996   7.820   0.707   5.976
12706TIP3   OH237997   7.927   0.872   6.572
12706TIP3    H137998   8.016   0.885   6.533
12706TIP3    H237999   7.946   0.895   6.665
12707TIP3   OH238000   7.988   0.995   6.818
12707TIP3    H138001   7.904   1.036   6.849
12707TIP3    H238002   8.024   1.065   6.760
12708TIP3   OH238003   6.378   0.683   7.003
12708TIP3    H138004   6.428   0.681   6.919
12708TIP3    H238005   6.417   0.759   7.047
12709TIP3   OH238006   7.513   1.885   6.010
12709TIP3    H138007   7.562   1.867   5.927
12709TIP3    H238008   7.569   1.952   6.052
12710TIP3   OH238009   6.611   1.700   7.401
12710TIP3    H138010   6.528   1.657   7.375
12710TIP3    H238011   6.626   1.663   7.489
12711TIP3   OH238012   6.789   1.718   6.945
12711TIP3    H138013   6.741   1.793   6.906
12711TIP3    H238014   6.876   1.732   6.901
12712TIP3   OH238015   7.240   1.967   7.083
12712TIP3    H138016   7.282   1.969   7.172
12712TIP3    H238017   7.307   2.017   7.030
12713TIP3   OH238018   7.418   2.117   6.938
12713TIP3    H138019   7.489   2.064   6.898
12713TIP3    H238020   7.469   2.173   6.999
12714TIP3   OH238021   6.471   1.983   6.964
12714TIP3    H138022   6.382   2.018   6.941
12714TIP3    H238023   6.473   2.001   7.058
12715TIP3   OH238024   6.707   1.959   6.823
12715TIP3    H138025   6.621   1.972   6.870
12715TIP3    H238026   6.685   1.991   6.734
12716TIP3   OH238027   7.134   1.990   6.620
12716TIP3    H138028   7.062   2.009   6.556
12716TIP3    H238029   7.144   2.077   6.664
12717TIP3   OH238030   7.399   1.929   6.672
12717TIP3    H138031   7.304   1.943   6.653
12717TIP3    H238032   7.439   2.008   6.631
12718TIP3   OH238033   7.613   2.123   6.591
12718TIP3    H138034   7.596   2.206   6.542
12718TIP3    H238035   7.634   2.060   6.519
12719TIP3   OH238036   6.381   1.774   6.714
12719TIP3    H138037   6.408   1.748   6.805
12719TIP3    H238038   6.452   1.728   6.663
12720TIP3   OH238039   6.572   1.643   6.567
12720TIP3    H138040   6.588   1.559   6.615
12720TIP3    H238041   6.662   1.680   6.562
12721TIP3   OH238042   6.839   1.741   6.567
12721TIP3    H138043   6.870   1.649   6.555
12721TIP3    H238044   6.879   1.760   6.654
12722TIP3   OH238045   6.169   1.541   6.106
12722TIP3    H138046   6.084   1.507   6.070
12722TIP3    H238047   6.155   1.636   6.093
12723TIP3   OH238048   6.939   1.739   5.684
12723TIP3    H138049   7.029   1.758   5.649
12723TIP3    H238050   6.917   1.662   5.627
12724TIP3   OH238051   7.658   1.851   5.778
12724TIP3    H138052   7.650   1.753   5.764
12724TIP3    H238053   7.613   1.883   5.697
12725TIP3   OH238054   6.245   1.574   5.745
12725TIP3    H138055   6.241   1.600   5.838
12725TIP3    H238056   6.334   1.532   5.737
12726TIP3   OH238057   7.888   1.997   6.967
12726TIP3    H138058   7.809   1.962   6.920
12726TIP3    H238059   7.866   2.092   6.968
12727TIP3   OH238060   9.152   1.366   5.729
12727TIP3    H138061   9.128   1.460   5.719
12727TIP3    H238062   9.069   1.324   5.700
12728TIP3   OH238063   9.140   1.363   6.112
12728TIP3    H138064   9.177   1.335   6.197
12728TIP3    H238065   9.101   1.280   6.080
12729TIP3   OH238066   8.449   1.270   6.475
12729TIP3    H138067   8.482   1.203   6.539
12729TIP3    H238068   8.529   1.323   6.463
12730TIP3   OH238069   9.388   1.669   5.793
12730TIP3    H138070   9.388   1.598   5.859
12730TIP3    H238071   9.421   1.744   5.847
12731TIP3   OH238072   8.419   1.671   6.208
12731TIP3    H138073   8.411   1.574   6.211
12731TIP3    H238074   8.516   1.680   6.201
12732TIP3   OH238075   8.121   0.866   5.999
12732TIP3    H138076   8.077   0.953   6.012
12732TIP3    H238077   8.056   0.822   5.940
12733TIP3   OH238078   8.190   1.162   6.156
12733TIP3    H138079   8.239   1.087   6.197
12733TIP3    H238080   8.250   1.188   6.085
12734TIP3   OH238081   9.041   2.131   5.810
12734TIP3    H138082   9.086   2.058   5.763
12734TIP3    H238083   9.036   2.096   5.900
12735TIP3   OH238084   8.950   1.593   6.161
12735TIP3    H138085   8.985   1.514   6.115
12735TIP3    H238086   9.035   1.637   6.181
12736TIP3   OH238087   9.366   1.112   6.190
12736TIP3    H138088   9.391   1.027   6.228
12736TIP3    H238089   9.338   1.089   6.099
12737TIP3   OH238090   8.332   0.955   6.267
12737TIP3    H138091   8.412   0.929   6.319
12737TIP3    H238092   8.350   0.901   6.187
12738TIP3   OH238093   8.775   1.156   6.060
12738TIP3    H138094   8.866   1.123   6.076
12738TIP3    H238095   8.730   1.074   6.029
12739TIP3   OH238096   9.058   1.599   5.593
12739TIP3    H138097   9.000   1.562   5.524
12739TIP3    H238098   9.005   1.676   5.622
12740TIP3   OH238099   8.806   1.510   6.397
12740TIP3    H138100   8.739   1.572   6.434
12740TIP3    H238101   8.844   1.563   6.324
12741TIP3   OH238102   8.567   0.855   6.367
12741TIP3    H138103   8.630   0.925   6.394
12741TIP3    H238104   8.612   0.815   6.291
12742TIP3   OH238105   8.628   1.703   6.488
12742TIP3    H138106   8.602   1.787   6.446
12742TIP3    H238107   8.549   1.688   6.545
12743TIP3   OH238108   8.027   1.395   5.723
12743TIP3    H138109   7.984   1.420   5.640
12743TIP3    H238110   8.055   1.480   5.761
12744TIP3   OH238111   9.454   1.896   5.954
12744TIP3    H138112   9.363   1.898   5.993
12744TIP3    H238113   9.459   1.983   5.912
12745TIP3   OH238114   9.168   1.950   5.642
12745TIP3    H138115   9.225   1.874   5.621
12745TIP3    H238116   9.223   2.024   5.608
12746TIP3   OH238117   9.320   1.729   5.533
12746TIP3    H138118   9.243   1.671   5.523
12746TIP3    H238119   9.350   1.705   5.624
12747TIP3   OH238120   8.977   1.221   5.564
12747TIP3    H138121   8.896   1.270   5.538
12747TIP3    H238122   9.023   1.212   5.478
12748TIP3   OH238123   8.940   1.003   5.286
12748TIP3    H138124   9.015   1.051   5.326
12748TIP3    H238125   8.988   0.932   5.239
12749TIP3   OH238126   9.340   1.299   5.545
12749TIP3    H138127   9.271   1.328   5.610
12749TIP3    H238128   9.415   1.290   5.606
12750TIP3   OH238129   9.571   1.352   6.427
12750TIP3    H138130   9.558   1.424   6.490
12750TIP3    H238131   9.484   1.343   6.387
12751TIP3   OH238132   8.563   1.302   5.950
12751TIP3    H138133   8.519   1.243   5.885
12751TIP3    H238134   8.638   1.245   5.980
12752TIP3   OH238135   8.692   1.712   6.101
12752TIP3    H138136   8.669   1.663   6.020
12752TIP3    H238137   8.782   1.679   6.119
12753TIP3   OH238138   8.699   1.271   6.307
12753TIP3    H138139   8.731   1.248   6.217
12753TIP3    H238140   8.744   1.356   6.326
12754TIP3   OH238141   9.216   1.913   6.081
12754TIP3    H138142   9.207   1.989   6.141
12754TIP3    H238143   9.209   1.836   6.142
12755TIP3   OH238144   8.834   1.830   6.629
12755TIP3    H138145   8.773   1.892   6.676
12755TIP3    H238146   8.769   1.775   6.581
12756TIP3   OH238147   9.169   1.153   5.370
12756TIP3    H138148   9.236   1.204   5.420
12756TIP3    H238149   9.199   1.170   5.277
12757TIP3   OH238150   8.572   1.397   6.723
12757TIP3    H138151   8.577   1.477   6.778
12757TIP3    H238152   8.478   1.372   6.734
12758TIP3   OH238153   8.908   1.840   5.639
12758TIP3    H138154   8.986   1.894   5.660
12758TIP3    H238155   8.848   1.904   5.598
12759TIP3   OH238156   8.629   2.001   6.716
12759TIP3    H138157   8.595   1.995   6.625
12759TIP3    H238158   8.551   1.976   6.770
12760TIP3   OH238159   8.426   1.148   5.757
12760TIP3    H138160   8.359   1.186   5.697
12760TIP3    H238161   8.393   1.059   5.771
12761TIP3   OH238162   8.209   1.528   6.662
12761TIP3    H138163   8.145   1.505   6.592
12761TIP3    H238164   8.244   1.441   6.689
12762TIP3   OH238165   8.063   1.719   6.298
12762TIP3    H138166   8.158   1.712   6.287
12762TIP3    H238167   8.053   1.799   6.351
12763TIP3   OH238168   9.034   1.957   6.486
12763TIP3    H138169   9.035   2.050   6.518
12763TIP3    H238170   8.962   1.919   6.541
12764TIP3   OH238171   8.792   2.087   5.437
12764TIP3    H138172   8.746   2.066   5.353
12764TIP3    H238173   8.760   2.177   5.457
12765TIP3   OH238174   8.231   1.938   5.820
12765TIP3    H138175   8.279   1.926   5.905
12765TIP3    H238176   8.170   1.863   5.825
12766TIP3   OH238177   8.997   1.988   5.081
12766TIP3    H138178   9.059   1.920   5.045
12766TIP3    H238179   9.028   1.996   5.173
12767TIP3   OH238180   9.044   2.035   5.353
12767TIP3    H138181   8.955   2.043   5.393
12767TIP3    H238182   9.093   1.992   5.425
12768TIP3   OH238183   8.413   1.712   6.657
12768TIP3    H138184   8.465   1.691   6.738
12768TIP3    H238185   8.341   1.646   6.661
12769TIP3   OH238186   9.252   1.205   5.110
12769TIP3    H138187   9.218   1.179   5.021
12769TIP3    H238188   9.301   1.285   5.087
12770TIP3   OH238189   8.744   1.041   6.446
12770TIP3    H138190   8.712   1.066   6.535
12770TIP3    H238191   8.728   1.124   6.395
12771TIP3   OH238192   8.617   0.956   5.960
12771TIP3    H138193   8.540   0.907   5.994
12771TIP3    H238194   8.640   0.903   5.881
12772TIP3   OH238195   9.121   1.025   5.682
12772TIP3    H138196   9.057   1.097   5.662
12772TIP3    H238197   9.171   1.025   5.600
12773TIP3   OH238198   9.291   1.305   6.761
12773TIP3    H138199   9.275   1.271   6.852
12773TIP3    H238200   9.380   1.341   6.772
12774TIP3   OH238201   9.268   1.042   5.942
12774TIP3    H138202   9.225   1.089   5.869
12774TIP3    H238203   9.305   0.966   5.895
12775TIP3   OH238204   8.547   1.095   6.659
12775TIP3    H138205   8.590   1.141   6.733
12775TIP3    H238206   8.536   1.006   6.694
12776TIP3   OH238207   9.282   1.302   6.360
12776TIP3    H138208   9.319   1.231   6.302
12776TIP3    H238209   9.258   1.251   6.439
12777TIP3   OH238210   8.387   0.811   6.038
12777TIP3    H138211   8.293   0.826   6.016
12777TIP3    H238212   8.397   0.717   6.019
12778TIP3   OH238213   8.674   0.821   5.727
12778TIP3    H138214   8.764   0.815   5.692
12778TIP3    H238215   8.618   0.825   5.647
12779TIP3   OH238216   8.494   0.836   5.504
12779TIP3    H138217   8.424   0.799   5.447
12779TIP3    H238218   8.550   0.877   5.434
12780TIP3   OH238219   9.607   2.526   6.447
12780TIP3    H138220   9.611   2.542   6.350
12780TIP3    H238221   9.680   2.583   6.477
12781TIP3   OH238222   8.574   1.633   6.874
12781TIP3    H138223   8.655   1.661   6.921
12781TIP3    H238224   8.510   1.632   6.948
12782TIP3   OH238225   9.044   1.089   6.131
12782TIP3    H138226   9.110   1.041   6.079
12782TIP3    H238227   9.043   1.038   6.214
12783TIP3   OH238228   9.019   0.970   6.427
12783TIP3    H138229   8.929   1.007   6.436
12783TIP3    H238230   9.072   1.030   6.483
12784TIP3   OH238231   8.752   1.374   5.513
12784TIP3    H138232   8.681   1.307   5.502
12784TIP3    H238233   8.734   1.406   5.605
12785TIP3   OH238234   9.167   1.696   6.509
12785TIP3    H138235   9.167   1.660   6.599
12785TIP3    H238236   9.115   1.777   6.517
12786TIP3   OH238237   8.446   1.393   6.189
12786TIP3    H138238   8.483   1.365   6.103
12786TIP3    H238239   8.482   1.326   6.249
12787TIP3   OH238240   8.899   1.523   5.334
12787TIP3    H138241   8.852   1.609   5.341
12787TIP3    H238242   8.843   1.467   5.392
12788TIP3   OH238243   8.317   1.320   6.805
12788TIP3    H138244   8.346   1.301   6.896
12788TIP3    H238245   8.253   1.249   6.788
12789TIP3   OH238246   9.054   1.436   6.828
12789TIP3    H138247   8.976   1.390   6.789
12789TIP3    H238248   9.126   1.399   6.773
12790TIP3   OH238249   9.315   1.956   6.401
12790TIP3    H138250   9.219   1.945   6.414
12790TIP3    H238251   9.339   2.005   6.481
12791TIP3   OH238252   9.435   1.822   5.204
12791TIP3    H138253   9.405   1.789   5.291
12791TIP3    H238254   9.377   1.775   5.144
12792TIP3   OH238255   9.394   1.477   6.061
12792TIP3    H138256   9.309   1.429   6.071
12792TIP3    H238257   9.457   1.406   6.045
12793TIP3   OH238258   8.544   1.696   5.813
12793TIP3    H138259   8.547   1.778   5.760
12793TIP3    H238260   8.449   1.681   5.819
12794TIP3   OH238261   8.110   0.998   5.515
12794TIP3    H138262   8.157   1.083   5.532
12794TIP3    H238263   8.032   1.008   5.574
12795TIP3   OH238264   8.692   1.467   5.760
12795TIP3    H138265   8.652   1.554   5.779
12795TIP3    H238266   8.654   1.413   5.832
12796TIP3   OH238267   8.813   2.043   6.285
12796TIP3    H138268   8.855   2.113   6.231
12796TIP3    H238269   8.890   2.007   6.332
12797TIP3   OH238270   8.467   1.936   5.667
12797TIP3    H138271   8.380   1.943   5.712
12797TIP3    H238272   8.496   2.029   5.669
12798TIP3   OH238273   9.208   1.678   6.237
12798TIP3    H138274   9.205   1.670   6.335
12798TIP3    H238275   9.284   1.622   6.214
12799TIP3   OH238276   9.167   1.576   5.128
12799TIP3    H138277   9.220   1.540   5.202
12799TIP3    H238278   9.078   1.546   5.154
12800TIP3   OH238279   9.442   2.213   6.295
12800TIP3    H138280   9.365   2.156   6.280
12800TIP3    H238281   9.434   2.276   6.219
12801TIP3   OH238282   9.334   1.486   5.331
12801TIP3    H138283   9.324   1.427   5.409
12801TIP3    H238284   9.417   1.531   5.352
12802TIP3   OH238285   8.255   1.908   6.443
12802TIP3    H138286   8.302   1.827   6.468
12802TIP3    H238287   8.286   1.969   6.511
12803TIP3   OH238288   8.546   1.550   5.122
12803TIP3    H138289   8.558   1.458   5.089
12803TIP3    H238290   8.527   1.534   5.217
12804TIP3   OH238291   8.491   1.554   5.396
12804TIP3    H138292   8.560   1.526   5.458
12804TIP3    H238293   8.497   1.652   5.401
12805TIP3   OH238294   8.226   1.248   5.595
12805TIP3    H138295   8.162   1.293   5.654
12805TIP3    H238296   8.243   1.319   5.530
12806TIP3   OH238297   8.757   1.753   5.347
12806TIP3    H138298   8.669   1.782   5.380
12806TIP3    H238299   8.771   1.817   5.276
12807TIP3   OH238300   8.967   0.807   5.754
12807TIP3    H138301   9.009   0.894   5.737
12807TIP3    H238302   8.930   0.819   5.843
12808TIP3   OH238303   9.201   1.121   6.577
12808TIP3    H138304   9.225   1.190   6.642
12808TIP3    H238305   9.286   1.077   6.558
12809TIP3   OH238306   8.498   1.827   5.409
12809TIP3    H138307   8.466   1.896   5.346
12809TIP3    H238308   8.481   1.871   5.495
12810TIP3   OH238309   8.215   1.462   5.405
12810TIP3    H138310   8.277   1.537   5.413
12810TIP3    H238311   8.263   1.409   5.337
12811TIP3   OH238312   8.141   0.710   5.527
12811TIP3    H138313   8.180   0.799   5.528
12811TIP3    H238314   8.050   0.731   5.552
12812TIP3   OH238315   9.487   2.189   5.894
12812TIP3    H138316   9.448   2.238   5.819
12812TIP3    H238317   9.565   2.144   5.853
12813TIP3   OH238318   8.093   1.677   5.799
12813TIP3    H138319   8.011   1.705   5.841
12813TIP3    H238320   8.078   1.709   5.708
12814TIP3   OH238321   8.241   2.208   6.864
12814TIP3    H138322   8.327   2.204   6.909
12814TIP3    H238323   8.218   2.113   6.860
12815TIP3   OH238324   8.733   2.182   6.906
12815TIP3    H138325   8.825   2.155   6.913
12815TIP3    H238326   8.703   2.126   6.832
12816TIP3   OH238327   8.710   1.755   5.041
12816TIP3    H138328   8.652   1.683   5.075
12816TIP3    H238329   8.783   1.702   5.003
12817TIP3   OH238330   9.362   2.086   6.643
12817TIP3    H138331   9.352   2.013   6.709
12817TIP3    H238332   9.441   2.132   6.673
12818TIP3   OH238333   9.155   1.800   4.959
12818TIP3    H138334   9.181   1.713   4.997
12818TIP3    H238335   9.187   1.795   4.867
12819TIP3   OH238336   8.375   1.619   7.064
12819TIP3    H138337   8.392   1.523   7.069
12819TIP3    H238338   8.287   1.620   7.021
12820TIP3   OH238339   8.350   1.273   5.254
12820TIP3    H138340   8.404   1.235   5.325
12820TIP3    H238341   8.418   1.277   5.182
12821TIP3   OH238342   8.983   1.704   6.836
12821TIP3    H138343   8.940   1.713   6.750
12821TIP3    H238344   9.017   1.612   6.834
12822TIP3   OH238345   8.858   1.470   5.063
12822TIP3    H138346   8.859   1.481   5.160
12822TIP3    H238347   8.857   1.372   5.057
12823TIP3   OH238348   9.485   1.715   6.442
12823TIP3    H138349   9.529   1.757   6.367
12823TIP3    H238350   9.399   1.760   6.440
12824TIP3   OH238351   8.492   1.344   7.046
12824TIP3    H138352   8.569   1.289   7.028
12824TIP3    H238353   8.516   1.379   7.134
12825TIP3   OH238354   8.565   1.172   5.482
12825TIP3    H138355   8.537   1.129   5.565
12825TIP3    H238356   8.597   1.095   5.430
12826TIP3   OH238357   8.832   1.324   6.718
12826TIP3    H138358   8.738   1.352   6.711
12826TIP3    H238359   8.858   1.315   6.624
12827TIP3   OH238360   8.658   0.963   5.323
12827TIP3    H138361   8.632   0.966   5.228
12827TIP3    H238362   8.755   0.973   5.314
12828TIP3   OH238363   9.344   1.639   6.840
12828TIP3    H138364   9.431   1.630   6.800
12828TIP3    H238365   9.350   1.577   6.915
12829TIP3   OH238366   8.835   1.057   6.714
12829TIP3    H138367   8.905   1.018   6.768
12829TIP3    H238368   8.856   1.152   6.725
12830TIP3   OH238369   9.009   1.356   6.496
12830TIP3    H138370   9.078   1.361   6.429
12830TIP3    H238371   8.943   1.420   6.463
12831TIP3   OH238372   9.618   1.573   6.627
12831TIP3    H138373   9.557   1.627   6.572
12831TIP3    H238374   9.696   1.576   6.570
12832TIP3   OH238375   8.811   1.158   7.056
12832TIP3    H138376   8.747   1.085   7.049
12832TIP3    H238377   8.878   1.134   6.990
12833TIP3   OH238378   9.318   1.168   6.994
12833TIP3    H138379   9.258   1.126   7.059
12833TIP3    H238380   9.344   1.089   6.941
12834TIP3   OH238381   8.466   2.032   5.224
12834TIP3    H138382   8.561   2.029   5.203
12834TIP3    H238383   8.433   2.075   5.143
12835TIP3   OH238384   7.948   1.410   5.443
12835TIP3    H138385   8.042   1.433   5.428
12835TIP3    H238386   7.943   1.322   5.400
12836TIP3   OH238387   7.860   2.025   5.851
12836TIP3    H138388   7.792   1.962   5.817
12836TIP3    H238389   7.904   1.969   5.919
12837TIP3   OH238390   7.996   1.882   6.039
12837TIP3    H138391   7.986   1.803   6.094
12837TIP3    H238392   8.047   1.940   6.100
12838TIP3   OH238393   9.607   2.000   6.171
12838TIP3    H138394   9.537   2.059   6.200
12838TIP3    H238395   9.565   1.955   6.095
12839TIP3   OH238396   8.186   1.281   6.411
12839TIP3    H138397   8.186   1.254   6.317
12839TIP3    H238398   8.283   1.285   6.428
12840TIP3   OH238399   8.178   0.941   6.494
12840TIP3    H138400   8.224   0.927   6.409
12840TIP3    H238401   8.204   1.032   6.513
12841TIP3   OH238402   9.291   2.156   5.526
12841TIP3    H138403   9.327   2.128   5.438
12841TIP3    H238404   9.364   2.212   5.558
12842TIP3   OH238405   8.410   1.948   6.887
12842TIP3    H138406   8.321   1.915   6.865
12842TIP3    H238407   8.417   1.924   6.980
12843TIP3   OH238408   8.586   1.975   6.432
12843TIP3    H138409   8.537   2.050   6.392
12843TIP3    H238410   8.673   1.990   6.388
12844TIP3   OH238411   9.037   2.224   6.572
12844TIP3    H138412   9.080   2.227   6.659
12844TIP3    H238413   9.102   2.272   6.517
12845TIP3   OH238414   9.213   2.372   6.425
12845TIP3    H138415   9.283   2.322   6.380
12845TIP3    H238416   9.266   2.429   6.485
12846TIP3   OH238417   8.267   2.239   6.451
12846TIP3    H138418   8.178   2.273   6.427
12846TIP3    H238419   8.268   2.258   6.546
12847TIP3   OH238420   8.503   2.215   6.310
12847TIP3    H138421   8.417   2.228   6.356
12847TIP3    H238422   8.482   2.246   6.220
12848TIP3   OH238423   8.928   2.246   6.108
12848TIP3    H138424   8.859   2.266   6.042
12848TIP3    H238425   8.941   2.333   6.151
12849TIP3   OH238426   9.194   2.185   6.161
12849TIP3    H138427   9.100   2.201   6.138
12849TIP3    H238428   9.238   2.261   6.118
12850TIP3   OH238429   9.401   2.374   6.081
12850TIP3    H138430   9.386   2.459   6.034
12850TIP3    H238431   9.433   2.316   6.008
12851TIP3   OH238432   8.178   2.031   6.201
12851TIP3    H138433   8.204   2.005   6.292
12851TIP3    H238434   8.248   1.985   6.149
12852TIP3   OH238435   8.368   1.900   6.054
12852TIP3    H138436   8.385   1.816   6.101
12852TIP3    H238437   8.458   1.938   6.048
12853TIP3   OH238438   8.635   1.998   6.055
12853TIP3    H138439   8.666   1.907   6.040
12853TIP3    H238440   8.675   2.016   6.141
12854TIP3   OH238441   7.964   1.798   5.594
12854TIP3    H138442   7.881   1.763   5.557
12854TIP3    H238443   7.951   1.892   5.578
12855TIP3   OH238444   8.736   1.996   5.171
12855TIP3    H138445   8.825   2.015   5.135
12855TIP3    H238446   8.713   1.919   5.114
12856TIP3   OH238447   9.391   2.083   5.292
12856TIP3    H138448   9.424   1.997   5.258
12856TIP3    H238449   9.365   2.128   5.209
12857TIP3   OH238450   8.041   1.831   5.231
12857TIP3    H138451   8.038   1.857   5.324
12857TIP3    H238452   8.130   1.789   5.223
12858TIP3   OH238453   9.652   2.258   6.467
12858TIP3    H138454   9.590   2.214   6.405
12858TIP3    H238455   9.626   2.351   6.452
12859TIP3   OH238456   1.605   2.161   7.429
12859TIP3    H138457   1.574   2.250   7.403
12859TIP3    H238458   1.531   2.106   7.396
12860TIP3   OH238459   1.591   2.156   7.803
12860TIP3    H138460   1.628   2.113   7.882
12860TIP3    H238461   1.576   2.083   7.742
12861TIP3   OH238462   0.941   2.091   8.177
12861TIP3    H138463   0.973   2.010   8.220
12861TIP3    H238464   1.024   2.132   8.148
12862TIP3   OH238465   1.843   2.457   7.482
12862TIP3    H138466   1.832   2.384   7.545
12862TIP3    H238467   1.872   2.530   7.539
12863TIP3   OH238468   0.871   2.456   7.899
12863TIP3    H138469   0.864   2.358   7.901
12863TIP3    H238470   0.968   2.467   7.888
12864TIP3   OH238471   1.490   2.919   7.499
12864TIP3    H138472   1.539   2.849   7.451
12864TIP3    H238473   1.490   2.883   7.589
12865TIP3   OH238474   1.401   2.381   7.852
12865TIP3    H138475   1.435   2.303   7.806
12865TIP3    H238476   1.487   2.424   7.873
12866TIP3   OH238477   2.415   1.701   7.849
12866TIP3    H138478   2.441   1.785   7.891
12866TIP3    H238479   2.430   1.721   7.755
12867TIP3   OH238480   1.831   1.899   7.881
12867TIP3    H138481   1.874   1.821   7.918
12867TIP3    H238482   1.758   1.852   7.834
12868TIP3   OH238483   1.856   1.598   7.458
12868TIP3    H138484   1.911   1.608   7.539
12868TIP3    H238485   1.882   1.676   7.409
12869TIP3   OH238486   1.239   1.950   7.751
12869TIP3    H138487   1.327   1.910   7.756
12869TIP3    H238488   1.188   1.872   7.719
12870TIP3   OH238489   2.488   1.909   8.020
12870TIP3    H138490   2.405   1.957   7.998
12870TIP3    H238491   2.496   1.931   8.114
12871TIP3   OH238492   1.497   2.378   7.296
12871TIP3    H138493   1.455   2.350   7.213
12871TIP3    H238494   1.454   2.464   7.313
12872TIP3   OH238495   1.255   2.300   8.083
12872TIP3    H138496   1.192   2.365   8.121
12872TIP3    H238497   1.297   2.351   8.012
12873TIP3   OH238498   2.063   1.633   7.643
12873TIP3    H138499   2.045   1.586   7.726
12873TIP3    H238500   2.112   1.711   7.673
12874TIP3   OH238501   1.079   2.492   8.181
12874TIP3    H138502   1.054   2.576   8.136
12874TIP3    H238503   0.997   2.475   8.232
12875TIP3   OH238504   0.517   2.194   7.400
12875TIP3    H138505   0.444   2.215   7.340
12875TIP3    H238506   0.512   2.266   7.465
12876TIP3   OH238507   1.918   2.699   7.657
12876TIP3    H138508   1.827   2.691   7.694
12876TIP3    H238509   1.910   2.783   7.608
12877TIP3   OH238510   2.205   1.603   8.019
12877TIP3    H138511   2.114   1.621   7.986
12877TIP3    H238512   2.260   1.633   7.943
12878TIP3   OH238513   1.623   2.748   7.331
12878TIP3    H138514   1.671   2.665   7.308
12878TIP3    H238515   1.682   2.813   7.287
12879TIP3   OH238516   1.760   2.533   7.231
12879TIP3    H138517   1.727   2.454   7.187
12879TIP3    H238518   1.795   2.495   7.315
12880TIP3   OH238519   2.144   2.615   7.996
12880TIP3    H138520   2.134   2.537   7.938
12880TIP3    H238521   2.128   2.689   7.934
12881TIP3   OH238522   1.436   2.016   7.250
12881TIP3    H138523   1.354   2.062   7.223
12881TIP3    H238524   1.483   2.007   7.165
12882TIP3   OH238525   1.392   1.789   6.974
12882TIP3    H138526   1.460   1.838   7.023
12882TIP3    H238527   1.450   1.726   6.924
12883TIP3   OH238528   2.338   2.250   7.841
12883TIP3    H138529   2.256   2.302   7.846
12883TIP3    H238530   2.367   2.272   7.750
12884TIP3   OH238531   1.780   2.089   7.228
12884TIP3    H138532   1.727   2.114   7.307
12884TIP3    H238533   1.864   2.061   7.270
12885TIP3   OH238534   2.018   2.132   8.132
12885TIP3    H138535   2.012   2.217   8.179
12885TIP3    H238536   1.931   2.131   8.087
12886TIP3   OH238537   1.024   2.103   7.652
12886TIP3    H138538   0.979   2.050   7.582
12886TIP3    H238539   1.098   2.044   7.676
12887TIP3   OH238540   1.141   2.496   7.793
12887TIP3    H138541   1.121   2.451   7.710
12887TIP3    H238542   1.233   2.466   7.810
12888TIP3   OH238543   1.138   2.078   7.971
12888TIP3    H138544   1.182   2.045   7.889
12888TIP3    H238545   1.197   2.151   7.999
12889TIP3   OH238546   1.674   2.698   7.772
12889TIP3    H138547   1.662   2.776   7.828
12889TIP3    H238548   1.663   2.623   7.834
12890TIP3   OH238549   1.287   2.618   8.321
12890TIP3    H138550   1.224   2.680   8.365
12890TIP3    H238551   1.224   2.562   8.271
12891TIP3   OH238552   1.623   1.949   7.050
12891TIP3    H138553   1.682   2.006   7.104
12891TIP3    H238554   1.653   1.972   6.959
12892TIP3   OH238555   1.044   2.182   8.427
12892TIP3    H138556   1.034   2.268   8.472
12892TIP3    H238557   0.955   2.166   8.392
12893TIP3   OH238558   1.361   2.632   7.327
12893TIP3    H138559   1.439   2.685   7.350
12893TIP3    H238560   1.302   2.698   7.288
12894TIP3   OH238561   1.083   2.788   8.405
12894TIP3    H138562   1.049   2.787   8.313
12894TIP3    H238563   1.002   2.765   8.456
12895TIP3   OH238564   2.139   1.191   7.099
12895TIP3    H138565   2.058   1.211   7.149
12895TIP3    H238566   2.152   1.275   7.049
12896TIP3   OH238567   0.914   1.960   7.445
12896TIP3    H138568   0.842   2.004   7.397
12896TIP3    H238569   0.874   1.873   7.462
12897TIP3   OH238570   1.936   2.557   6.652
12897TIP3    H138571   1.947   2.653   6.633
12897TIP3    H238572   2.026   2.523   6.633
12898TIP3   OH238573   0.504   2.508   7.995
12898TIP3    H138574   0.596   2.482   7.975
12898TIP3    H238575   0.521   2.591   8.043
12899TIP3   OH238576   2.381   2.956   8.041
12899TIP3    H138577   2.379   2.860   8.051
12899TIP3    H238578   2.297   2.981   8.086
12900TIP3   OH238579   1.488   2.745   8.177
12900TIP3    H138580   1.487   2.839   8.207
12900TIP3    H238581   1.415   2.707   8.230
12901TIP3   OH238582   1.241   2.873   7.129
12901TIP3    H138583   1.201   2.856   7.042
12901TIP3    H238584   1.214   2.965   7.147
12902TIP3   OH238585   0.684   2.725   7.510
12902TIP3    H138586   0.734   2.715   7.594
12902TIP3    H238587   0.621   2.652   7.518
12903TIP3   OH238588   1.447   2.772   6.770
12903TIP3    H138589   1.509   2.705   6.732
12903TIP3    H238590   1.483   2.783   6.860
12904TIP3   OH238591   1.495   2.823   7.041
12904TIP3    H138592   1.408   2.831   7.086
12904TIP3    H238593   1.548   2.779   7.110
12905TIP3   OH238594   2.270   2.091   8.314
12905TIP3    H138595   2.191   2.105   8.260
12905TIP3    H238596   2.284   1.995   8.304
12906TIP3   OH238597   0.860   2.483   8.351
12906TIP3    H138598   0.920   2.478   8.428
12906TIP3    H238599   0.786   2.429   8.381
12907TIP3   OH238600   1.789   1.432   8.327
12907TIP3    H138601   1.872   1.410   8.375
12907TIP3    H238602   1.727   1.446   8.400
12908TIP3   OH238603   2.045   1.868   8.239
12908TIP3    H138604   1.992   1.862   8.322
12908TIP3    H238605   2.016   1.952   8.201
12909TIP3   OH238606   1.701   1.999   6.792
12909TIP3    H138607   1.670   1.966   6.705
12909TIP3    H238608   1.758   2.072   6.764
12910TIP3   OH238609   1.400   1.376   7.102
12910TIP3    H138610   1.371   1.387   7.195
12910TIP3    H238611   1.394   1.280   7.095
12911TIP3   OH238612   1.251   1.889   8.132
12911TIP3    H138613   1.176   1.851   8.182
12911TIP3    H238614   1.205   1.942   8.064
12912TIP3   OH238615   1.109   1.736   7.663
12912TIP3    H138616   1.030   1.686   7.689
12912TIP3    H238617   1.127   1.694   7.576
12913TIP3   OH238618   1.565   1.803   7.367
12913TIP3    H138619   1.518   1.883   7.334
12913TIP3    H238620   1.629   1.785   7.296
12914TIP3   OH238621   1.747   2.093   8.480
12914TIP3    H138622   1.730   2.017   8.539
12914TIP3    H238623   1.842   2.104   8.493
12915TIP3   OH238624   1.746   2.089   8.048
12915TIP3    H138625   1.781   2.018   7.989
12915TIP3    H238626   1.714   2.035   8.123
12916TIP3   OH238627   1.392   1.540   7.715
12916TIP3    H138628   1.326   1.561   7.783
12916TIP3    H238629   1.470   1.592   7.745
12917TIP3   OH238630   1.114   1.621   7.417
12917TIP3    H138631   1.211   1.615   7.405
12917TIP3    H238632   1.079   1.618   7.326
12918TIP3   OH238633   1.916   1.611   7.930
12918TIP3    H138634   1.863   1.625   8.011
12918TIP3    H238635   1.842   1.607   7.864
12919TIP3   OH238636   0.954   1.610   7.183
12919TIP3    H138637   0.874   1.594   7.131
12919TIP3    H238638   1.009   1.660   7.119
12920TIP3   OH238639   2.066   3.310   8.139
12920TIP3    H138640   2.065   3.331   8.043
12920TIP3    H238641   2.145   3.360   8.168
12921TIP3   OH238642   1.017   2.421   8.573
12921TIP3    H138643   1.105   2.449   8.608
12921TIP3    H238644   0.965   2.423   8.653
12922TIP3   OH238645   1.466   1.730   8.139
12922TIP3    H138646   1.391   1.793   8.136
12922TIP3    H238647   1.540   1.791   8.156
12923TIP3   OH238648   1.201   2.164   7.200
12923TIP3    H138649   1.130   2.097   7.192
12923TIP3    H238650   1.188   2.195   7.293
12924TIP3   OH238651   2.108   2.398   7.834
12924TIP3    H138652   2.132   2.445   7.752
12924TIP3    H238653   2.023   2.354   7.810
12925TIP3   OH238654   1.658   1.477   7.053
12925TIP3    H138655   1.562   1.469   7.067
12925TIP3    H238656   1.678   1.569   7.082
12926TIP3   OH238657   1.611   2.482   8.198
12926TIP3    H138658   1.619   2.449   8.288
12926TIP3    H238659   1.568   2.568   8.208
12927TIP3   OH238660   1.740   1.717   7.156
12927TIP3    H138661   1.835   1.724   7.180
12927TIP3    H238662   1.723   1.799   7.107
12928TIP3   OH238663   0.889   2.177   7.883
12928TIP3    H138664   0.925   2.154   7.795
12928TIP3    H238665   0.957   2.138   7.941
12929TIP3   OH238666   1.350   2.310   7.019
12929TIP3    H138667   1.304   2.397   7.027
12929TIP3    H238668   1.297   2.255   7.080
12930TIP3   OH238669   1.500   2.216   8.510
12930TIP3    H138670   1.445   2.160   8.452
12930TIP3    H238671   1.589   2.183   8.485
12931TIP3   OH238672   1.769   2.742   8.093
12931TIP3    H138673   1.673   2.734   8.104
12931TIP3    H238674   1.793   2.793   8.173
12932TIP3   OH238675   2.179   1.805   7.003
12932TIP3    H138676   2.114   1.762   6.943
12932TIP3    H238677   2.177   1.894   6.961
12933TIP3   OH238678   2.395   2.666   8.085
12933TIP3    H138679   2.297   2.661   8.077
12933TIP3    H238680   2.420   2.635   7.995
12934TIP3   OH238681   1.873   2.629   6.912
12934TIP3    H138682   1.854   2.554   6.970
12934TIP3    H238683   1.889   2.586   6.825
12935TIP3   OH238684   1.874   2.257   7.756
12935TIP3    H138685   1.780   2.231   7.769
12935TIP3    H238686   1.908   2.178   7.709
12936TIP3   OH238687   0.997   2.486   7.506
12936TIP3    H138688   1.002   2.566   7.451
12936TIP3    H238689   0.902   2.470   7.506
12937TIP3   OH238690   1.141   2.255   7.448
12937TIP3    H138691   1.105   2.343   7.468
12937TIP3    H238692   1.109   2.203   7.524
12938TIP3   OH238693   1.265   2.831   7.976
12938TIP3    H138694   1.304   2.902   7.921
12938TIP3    H238695   1.344   2.796   8.020
12939TIP3   OH238696   0.920   2.724   7.357
12939TIP3    H138697   0.833   2.734   7.401
12939TIP3    H238698   0.952   2.817   7.358
12940TIP3   OH238699   1.661   2.465   7.930
12940TIP3    H138700   1.653   2.460   8.028
12940TIP3    H238701   1.737   2.408   7.914
12941TIP3   OH238702   1.624   2.352   6.820
12941TIP3    H138703   1.679   2.331   6.898
12941TIP3    H238704   1.536   2.329   6.853
12942TIP3   OH238705   1.905   3.002   7.984
12942TIP3    H138706   1.828   2.943   7.973
12942TIP3    H238707   1.890   3.066   7.910
12943TIP3   OH238708   1.971   2.833   6.635
12943TIP3    H138709   2.008   2.903   6.578
12943TIP3    H238710   1.891   2.879   6.666
12944TIP3   OH238711   1.788   2.292   7.034
12944TIP3    H138712   1.779   2.224   7.104
12944TIP3    H238713   1.885   2.290   7.020
12945TIP3   OH238714   0.700   2.688   8.137
12945TIP3    H138715   0.765   2.619   8.159
12945TIP3    H238716   0.730   2.761   8.192
12946TIP3   OH238717   0.994   2.338   6.812
12946TIP3    H138718   1.016   2.248   6.782
12946TIP3    H238719   0.979   2.323   6.908
12947TIP3   OH238720   0.942   2.340   7.088
12947TIP3    H138721   1.016   2.313   7.144
12947TIP3    H238722   0.948   2.438   7.092
12948TIP3   OH238723   0.691   2.021   7.291
12948TIP3    H138724   0.629   2.075   7.346
12948TIP3    H238725   0.710   2.087   7.222
12949TIP3   OH238726   1.822   1.680   8.187
12949TIP3    H138727   1.909   1.708   8.219
12949TIP3    H238728   1.807   1.596   8.234
12950TIP3   OH238729   1.706   1.417   7.331
12950TIP3    H138730   1.692   1.455   7.243
12950TIP3    H238731   1.752   1.491   7.378
12951TIP3   OH238732   1.206   2.539   7.033
12951TIP3    H138733   1.120   2.571   7.069
12951TIP3    H238734   1.227   2.611   6.972
12952TIP3   OH238735   1.395   1.614   7.453
12952TIP3    H138736   1.463   1.682   7.434
12952TIP3    H238737   1.406   1.602   7.550
12953TIP3   OH238738   1.673   1.930   8.251
12953TIP3    H138739   1.682   1.977   8.335
12953TIP3    H238740   1.720   1.846   8.266
12954TIP3   OH238741   1.552   1.332   7.548
12954TIP3    H138742   1.530   1.405   7.610
12954TIP3    H238743   1.607   1.379   7.482
12955TIP3   OH238744   0.946   2.614   7.099
12955TIP3    H138745   0.918   2.684   7.035
12955TIP3    H238746   0.933   2.660   7.185
12956TIP3   OH238747   2.310   1.821   8.234
12956TIP3    H138748   2.212   1.822   8.243
12956TIP3    H238749   2.317   1.784   8.145
12957TIP3   OH238750   1.956   2.014   7.624
12957TIP3    H138751   1.884   1.956   7.650
12957TIP3    H238752   2.032   1.971   7.670
12958TIP3   OH238753   0.663   2.253   7.090
12958TIP3    H138754   0.727   2.325   7.105
12958TIP3    H238755   0.714   2.201   7.025
12959TIP3   OH238756   1.924   2.971   7.576
12959TIP3    H138757   1.882   3.018   7.501
12959TIP3    H238758   2.019   2.990   7.554
12960TIP3   OH238759   0.544   2.472   7.505
12960TIP3    H138760   0.454   2.503   7.518
12960TIP3    H238761   0.553   2.487   7.410
12961TIP3   OH238762   0.714   3.004   8.532
12961TIP3    H138763   0.787   3.003   8.596
12961TIP3    H238764   0.672   2.919   8.548
12962TIP3   OH238765   1.181   2.971   8.596
12962TIP3    H138766   1.275   2.950   8.603
12962TIP3    H238767   1.155   2.915   8.520
12963TIP3   OH238768   1.159   2.542   6.726
12963TIP3    H138769   1.104   2.470   6.764
12963TIP3    H238770   1.236   2.491   6.696
12964TIP3   OH238771   1.814   2.876   8.334
12964TIP3    H138772   1.808   2.801   8.398
12964TIP3    H238773   1.896   2.921   8.360
12965TIP3   OH238774   1.598   2.584   6.635
12965TIP3    H138775   1.645   2.519   6.689
12965TIP3    H238776   1.653   2.587   6.554
12966TIP3   OH238777   0.805   2.057   6.947
12966TIP3    H138778   0.862   2.027   7.020
12966TIP3    H238779   0.873   2.062   6.875
12967TIP3   OH238780   1.439   2.489   8.524
12967TIP3    H138781   1.397   2.501   8.437
12967TIP3    H238782   1.469   2.396   8.520
12968TIP3   OH238783   1.302   2.255   6.752
12968TIP3    H138784   1.313   2.269   6.848
12968TIP3    H238785   1.307   2.157   6.747
12969TIP3   OH238786   1.930   2.496   8.135
12969TIP3    H138787   2.001   2.543   8.087
12969TIP3    H238788   1.855   2.557   8.119
12970TIP3   OH238789   1.008   1.961   7.164
12970TIP3    H138790   0.995   1.927   7.254
12970TIP3    H238791   1.049   1.884   7.118
12971TIP3   OH238792   1.270   2.024   8.401
12971TIP3    H138793   1.202   2.095   8.405
12971TIP3    H238794   1.318   2.043   8.318
12972TIP3   OH238795   1.111   1.750   7.009
12972TIP3    H138796   1.088   1.753   6.914
12972TIP3    H238797   1.209   1.759   7.005
12973TIP3   OH238798   1.801   2.431   8.536
12973TIP3    H138799   1.876   2.407   8.480
12973TIP3    H238800   1.798   2.357   8.599
12974TIP3   OH238801   1.445   1.821   8.506
12974TIP3    H138802   1.396   1.750   8.461
12974TIP3    H238803   1.380   1.893   8.495
12975TIP3   OH238804   1.444   2.150   8.216
12975TIP3    H138805   1.515   2.131   8.153
12975TIP3    H238806   1.385   2.208   8.164
12976TIP3   OH238807   2.018   2.106   8.584
12976TIP3    H138808   2.067   2.023   8.599
12976TIP3    H238809   2.088   2.163   8.550
12977TIP3   OH238810   2.059   2.358   8.326
12977TIP3    H138811   2.001   2.408   8.264
12977TIP3    H238812   2.146   2.374   8.284
12978TIP3   OH238813   1.683   1.870   8.625
12978TIP3    H138814   1.647   1.892   8.711
12978TIP3    H238815   1.600   1.849   8.575
12979TIP3   OH238816   1.907   1.818   8.466
12979TIP3    H138817   1.833   1.821   8.530
12979TIP3    H238818   1.982   1.788   8.522
12980TIP3   OH238819   2.134   1.754   8.616
12980TIP3    H138820   2.148   1.660   8.641
12980TIP3    H238821   2.126   1.799   8.703
12981TIP3   OH238822   0.918   2.816   6.912
12981TIP3    H138823   1.013   2.816   6.894
12981TIP3    H238824   0.887   2.864   6.833
12982TIP3   OH238825   0.402   2.173   7.144
12982TIP3    H138826   0.489   2.217   7.133
12982TIP3    H238827   0.424   2.084   7.110
12983TIP3   OH238828   0.316   2.805   7.530
12983TIP3    H138829   0.232   2.759   7.524
12983TIP3    H238830   0.357   2.762   7.608
12984TIP3   OH238831   0.438   2.677   7.735
12984TIP3    H138832   0.449   2.594   7.783
12984TIP3    H238833   0.496   2.736   7.787
12985TIP3   OH238834   2.175   3.066   7.528
12985TIP3    H138835   2.205   3.102   7.613
12985TIP3    H238836   2.234   3.109   7.465
12986TIP3   OH238837   2.206   3.086   7.812
12986TIP3    H138838   2.165   2.998   7.804
12986TIP3    H238839   2.284   3.063   7.865
12987TIP3   OH238840   2.254   2.761   8.384
12987TIP3    H138841   2.178   2.769   8.444
12987TIP3    H238842   2.294   2.850   8.388
12988TIP3   OH238843   2.067   2.276   7.005
12988TIP3    H138844   2.138   2.337   6.976
12988TIP3    H238845   2.110   2.234   7.083
12989TIP3   OH238846   2.196   2.144   7.207
12989TIP3    H138847   2.131   2.098   7.265
12989TIP3    H238848   2.259   2.182   7.272
12990TIP3   OH238849   2.249   2.531   7.642
12990TIP3    H138850   2.301   2.468   7.588
12990TIP3    H238851   2.239   2.607   7.581
12991TIP3   OH238852   2.085   2.834   7.837
12991TIP3    H138853   2.012   2.875   7.887
12991TIP3    H238854   2.036   2.784   7.767
12992TIP3   OH238855   2.124   2.044   6.858
12992TIP3    H138856   2.072   2.056   6.778
12992TIP3    H238857   2.103   2.125   6.908
12993TIP3   OH238858   2.004   1.722   6.813
12993TIP3    H138859   1.973   1.763   6.731
12993TIP3    H238860   1.976   1.629   6.799
12994TIP3   OH238861   2.013   1.997   7.355
12994TIP3    H138862   2.019   1.900   7.346
12994TIP3    H238863   1.998   2.007   7.452
12995TIP3   OH238864   2.300   2.422   8.212
12995TIP3    H138865   2.373   2.357   8.204
12995TIP3    H238866   2.326   2.490   8.149
12996TIP3   OH238867   2.488   2.231   8.238
12996TIP3    H138868   2.412   2.180   8.274
12996TIP3    H238869   2.560   2.165   8.248
12997TIP3   OH238870   1.952   1.455   6.799
12997TIP3    H138871   2.027   1.427   6.854
12997TIP3    H238872   1.879   1.397   6.827
12998TIP3   OH238873   2.011   1.721   7.245
12998TIP3    H138874   2.043   1.631   7.268
12998TIP3    H238875   2.073   1.745   7.174
12999TIP3   OH238876   2.172   1.891   7.746
12999TIP3    H138877   2.259   1.918   7.707
12999TIP3    H238878   2.184   1.926   7.836
13000TIP3   OH238879   2.238   2.031   7.981
13000TIP3    H138880   2.158   2.065   8.026
13000TIP3    H238881   2.270   2.111   7.934
13001TIP3   OH238882   2.682   1.614   8.534
13001TIP3    H138883   2.745   1.554   8.489
13001TIP3    H238884   2.660   1.679   8.464
13002TIP3   OH238885   2.121   1.463   7.285
13002TIP3    H138886   2.162   1.451   7.373
13002TIP3    H238887   2.055   1.390   7.286
13003TIP3   OH238888   2.564   1.766   8.342
13003TIP3    H138889   2.476   1.803   8.362
13003TIP3    H238890   2.538   1.694   8.282
13004TIP3   OH238891   2.202   1.400   6.920
13004TIP3    H138892   2.241   1.328   6.867
13004TIP3    H238893   2.266   1.472   6.909
13005TIP3   OH238894   1.762   2.929   7.188
13005TIP3    H138895   1.809   2.910   7.104
13005TIP3    H238896   1.818   2.997   7.226
13006TIP3   OH238897   0.860   2.723   8.570
13006TIP3    H138898   0.778   2.675   8.550
13006TIP3    H238899   0.864   2.723   8.666
13007TIP3   OH238900   1.037   2.765   8.122
13007TIP3    H138901   0.991   2.841   8.081
13007TIP3    H238902   1.124   2.777   8.078
13008TIP3   OH238903   1.488   3.011   8.258
13008TIP3    H138904   1.531   3.016   8.346
13008TIP3    H238905   1.553   3.061   8.203
13009TIP3   OH238906   1.666   3.160   8.116
13009TIP3    H138907   1.736   3.110   8.071
13009TIP3    H238908   1.719   3.218   8.175
13010TIP3   OH238909   2.459   1.528   8.218
13010TIP3    H138910   2.369   1.529   8.182
13010TIP3    H238911   2.485   1.434   8.203
13011TIP3   OH238912   0.718   3.020   8.145
13011TIP3    H138913   0.631   3.056   8.119
13011TIP3    H238914   0.723   3.052   8.236
13012TIP3   OH238915   0.954   3.001   8.000
13012TIP3    H138916   0.868   3.015   8.046
13012TIP3    H238917   0.935   3.035   7.911
13013TIP3   OH238918   1.379   3.032   7.799
13013TIP3    H138919   1.313   3.053   7.731
13013TIP3    H238920   1.393   3.120   7.840
13014TIP3   OH238921   1.647   2.974   7.851
13014TIP3    H138922   1.553   2.989   7.829
13014TIP3    H238923   1.690   3.049   7.807
13015TIP3   OH238924   1.859   3.166   7.767
13015TIP3    H138925   1.844   3.250   7.719
13015TIP3    H238926   1.883   3.105   7.695
13016TIP3   OH238927   0.626   2.812   7.886
13016TIP3    H138928   0.650   2.797   7.980
13016TIP3    H238929   0.702   2.769   7.841
13017TIP3   OH238930   0.821   2.687   7.743
13017TIP3    H138931   0.842   2.603   7.789
13017TIP3    H238932   0.910   2.727   7.735
13018TIP3   OH238933   1.085   2.785   7.745
13018TIP3    H138934   1.119   2.696   7.729
13018TIP3    H238935   1.127   2.805   7.831
13019TIP3   OH238936   2.203   1.319   7.749
13019TIP3    H138937   2.234   1.372   7.672
13019TIP3    H238938   2.105   1.327   7.738
13020TIP3   OH238939   2.286   1.420   7.507
13020TIP3    H138940   2.358   1.373   7.461
13020TIP3    H238941   2.314   1.514   7.492
13021TIP3   OH238942   1.935   1.305   7.711
13021TIP3    H138943   1.872   1.338   7.646
13021TIP3    H238944   1.881   1.246   7.766
13022TIP3   OH238945   1.932   1.250   7.276
13022TIP3    H138946   1.848   1.299   7.288
13022TIP3    H238947   1.910   1.165   7.320
13023TIP3   OH238948   0.397   2.588   7.295
13023TIP3    H138949   0.349   2.548   7.221
13023TIP3    H238950   0.395   2.682   7.269
13024TIP3   OH238951   1.318   1.373   7.368
13024TIP3    H138952   1.381   1.322   7.422
13024TIP3    H238953   1.343   1.464   7.397
13025TIP3   OH238954   1.188   2.782   6.862
13025TIP3    H138955   1.278   2.802   6.827
13025TIP3    H238956   1.166   2.706   6.803
13026TIP3   OH238957   1.904   2.895   6.955
13026TIP3    H138958   1.897   2.797   6.941
13026TIP3    H238959   1.862   2.928   6.873
13027TIP3   OH238960   0.492   2.606   6.927
13027TIP3    H138961   0.496   2.659   7.008
13027TIP3    H238962   0.584   2.575   6.915
13028TIP3   OH238963   2.197   1.482   8.656
13028TIP3    H138964   2.227   1.426   8.729
13028TIP3    H238965   2.278   1.485   8.600
13029TIP3   OH238966   2.134   3.041   8.146
13029TIP3    H138967   2.057   3.008   8.096
13029TIP3    H238968   2.116   3.137   8.143
13030TIP3   OH238969   3.399   2.412   6.912
13030TIP3    H138970   3.373   2.504   6.893
13030TIP3    H238971   3.321   2.364   6.878
13031TIP3   OH238972   3.398   2.412   7.286
13031TIP3    H138973   3.426   2.379   7.373
13031TIP3    H238974   3.356   2.334   7.248
13032TIP3   OH238975   2.700   2.312   7.656
13032TIP3    H138976   2.733   2.244   7.718
13032TIP3    H238977   2.778   2.367   7.644
13033TIP3   OH238978   3.639   2.713   6.969
13033TIP3    H138979   3.629   2.642   7.035
13033TIP3    H238980   3.668   2.788   7.024
13034TIP3   OH238981   2.668   2.717   7.386
13034TIP3    H138982   2.660   2.619   7.388
13034TIP3    H238983   2.765   2.725   7.376
13035TIP3   OH238984   2.376   1.923   7.173
13035TIP3    H138985   2.326   2.007   7.179
13035TIP3    H238986   2.308   1.866   7.133
13036TIP3   OH238987   2.439   2.211   7.336
13036TIP3    H138988   2.486   2.133   7.372
13036TIP3    H238989   2.491   2.229   7.256
13037TIP3   OH238990   3.287   3.176   6.985
13037TIP3    H138991   3.337   3.105   6.939
13037TIP3    H238992   3.284   3.142   7.076
13038TIP3   OH238993   3.198   2.637   7.338
13038TIP3    H138994   3.233   2.561   7.289
13038TIP3    H238995   3.283   2.680   7.360
13039TIP3   OH238996   4.204   1.961   7.334
13039TIP3    H138997   4.236   2.041   7.380
13039TIP3    H238998   4.231   1.980   7.243
13040TIP3   OH238999   3.608   2.142   7.374
13040TIP3    H139000   3.652   2.057   7.393
13040TIP3    H239001   3.580   2.127   7.282
13041TIP3   OH239002   2.945   1.799   7.339
13041TIP3    H139003   2.924   1.872   7.276
13041TIP3    H239004   2.898   1.725   7.293
13042TIP3   OH239005   3.639   1.889   6.962
13042TIP3    H139006   3.712   1.873   7.026
13042TIP3    H239007   3.689   1.925   6.887
13043TIP3   OH239008   2.580   2.002   7.443
13043TIP3    H139009   2.664   1.981   7.489
13043TIP3    H239010   2.590   1.946   7.364
13044TIP3   OH239011   3.022   2.199   7.234
13044TIP3    H139012   3.116   2.173   7.247
13044TIP3    H239013   2.982   2.116   7.202
13045TIP3   OH239014   4.282   2.165   7.505
13045TIP3    H139015   4.199   2.214   7.487
13045TIP3    H239016   4.293   2.183   7.599
13046TIP3   OH239017   2.944   1.783   7.771
13046TIP3    H139018   2.884   1.820   7.703
13046TIP3    H239019   2.892   1.802   7.852
13047TIP3   OH239020   3.296   2.634   6.780
13047TIP3    H139021   3.249   2.608   6.700
13047TIP3    H239022   3.253   2.719   6.801
13048TIP3   OH239023   3.051   2.557   7.571
13048TIP3    H139024   2.986   2.620   7.608
13048TIP3    H239025   3.091   2.610   7.499
13049TIP3   OH239026   3.854   1.889   7.128
13049TIP3    H139027   3.849   1.839   7.210
13049TIP3    H239028   3.910   1.965   7.154
13050TIP3   OH239029   2.814   1.897   7.557
13050TIP3    H139030   2.877   1.970   7.578
13050TIP3    H239031   2.861   1.856   7.480
13051TIP3   OH239032   2.876   2.748   7.665
13051TIP3    H139033   2.850   2.832   7.622
13051TIP3    H239034   2.796   2.735   7.721
13052TIP3   OH239035   2.274   2.439   6.900
13052TIP3    H139036   2.233   2.462   6.814
13052TIP3    H239037   2.303   2.525   6.934
13053TIP3   OH239038   3.714   2.955   7.142
13053TIP3    H139039   3.624   2.947   7.180
13053TIP3    H239040   3.706   3.040   7.095
13054TIP3   OH239041   4.000   1.861   7.502
13054TIP3    H139042   3.914   1.893   7.471
13054TIP3    H239043   4.061   1.891   7.431
13055TIP3   OH239044   3.305   1.506   7.483
13055TIP3    H139045   3.291   1.410   7.497
13055TIP3    H239046   3.226   1.542   7.529
13056TIP3   OH239047   3.420   3.004   6.818
13056TIP3    H139048   3.469   2.922   6.794
13056TIP3    H239049   3.479   3.070   6.774
13057TIP3   OH239050   3.559   2.789   6.717
13057TIP3    H139051   3.518   2.712   6.677
13057TIP3    H239052   3.592   2.753   6.802
13058TIP3   OH239053   3.940   2.872   7.483
13058TIP3    H139054   3.930   2.794   7.425
13058TIP3    H239055   3.924   2.946   7.421
13059TIP3   OH239056   3.231   2.264   6.738
13059TIP3    H139057   3.149   2.314   6.716
13059TIP3    H239058   3.276   2.261   6.652
13060TIP3   OH239059   3.190   2.047   6.459
13060TIP3    H139060   3.259   2.097   6.507
13060TIP3    H239061   3.246   1.982   6.412
13061TIP3   OH239062   4.134   2.505   7.327
13061TIP3    H139063   4.052   2.559   7.333
13061TIP3    H239064   4.163   2.529   7.236
13062TIP3   OH239065   3.577   2.346   6.714
13062TIP3    H139066   3.523   2.372   6.792
13062TIP3    H239067   3.661   2.320   6.758
13063TIP3   OH239068   3.814   2.388   7.620
13063TIP3    H139069   3.811   2.472   7.669
13063TIP3    H239070   3.727   2.392   7.575
13064TIP3   OH239071   2.809   2.346   7.128
13064TIP3    H139072   2.765   2.289   7.061
13064TIP3    H239073   2.886   2.292   7.154
13065TIP3   OH239074   2.939   2.755   7.279
13065TIP3    H139075   2.917   2.709   7.196
13065TIP3    H239076   3.030   2.723   7.296
13066TIP3   OH239077   2.950   2.314   7.484
13066TIP3    H139078   2.979   2.297   7.392
13066TIP3    H239079   2.991   2.402   7.503
13067TIP3   OH239080   3.471   2.954   7.259
13067TIP3    H139081   3.458   3.033   7.314
13067TIP3    H239082   3.458   2.880   7.322
13068TIP3   OH239083   3.083   2.874   7.807
13068TIP3    H139084   3.023   2.936   7.853
13068TIP3    H239085   3.018   2.819   7.758
13069TIP3   OH239086   3.422   2.203   6.538
13069TIP3    H139087   3.478   2.263   6.591
13069TIP3    H239088   3.448   2.229   6.446
13070TIP3   OH239089   2.837   2.431   7.906
13070TIP3    H139090   2.840   2.517   7.953
13070TIP3    H239091   2.742   2.412   7.909
13071TIP3   OH239092   3.159   2.887   6.814
13071TIP3    H139093   3.234   2.943   6.839
13071TIP3    H239094   3.097   2.950   6.774
13072TIP3   OH239095   2.879   3.045   7.892
13072TIP3    H139096   2.844   3.040   7.801
13072TIP3    H239097   2.799   3.021   7.945
13073TIP3   OH239098   3.935   1.448   6.584
13073TIP3    H139099   3.854   1.466   6.637
13073TIP3    H239100   3.946   1.532   6.536
13074TIP3   OH239101   2.674   2.186   6.937
13074TIP3    H139102   2.613   2.235   6.877
13074TIP3    H239103   2.629   2.100   6.941
13075TIP3   OH239104   3.731   2.815   6.132
13075TIP3    H139105   3.740   2.912   6.120
13075TIP3    H239106   3.824   2.786   6.121
13076TIP3   OH239107   2.458   2.571   7.840
13076TIP3    H139108   2.395   2.549   7.769
13076TIP3    H239109   2.494   2.484   7.866
13077TIP3   OH239110   2.311   2.762   7.478
13077TIP3    H139111   2.406   2.756   7.463
13077TIP3    H239112   2.303   2.845   7.527
13078TIP3   OH239113   4.176   3.212   7.527
13078TIP3    H139114   4.175   3.116   7.539
13078TIP3    H239115   4.093   3.237   7.573
13079TIP3   OH239116   3.284   3.002   7.663
13079TIP3    H139117   3.284   3.095   7.695
13079TIP3    H239118   3.212   2.964   7.718
13080TIP3   OH239119   3.040   3.131   6.614
13080TIP3    H139120   2.995   3.111   6.530
13080TIP3    H239121   3.010   3.222   6.635
13081TIP3   OH239122   2.480   2.982   6.996
13081TIP3    H139123   2.527   2.970   7.082
13081TIP3    H239124   2.418   2.907   7.000
13082TIP3   OH239125   3.245   3.031   6.256
13082TIP3    H139126   3.304   2.962   6.220
13082TIP3    H239127   3.277   3.040   6.348
13083TIP3   OH239128   3.292   3.079   6.527
13083TIP3    H139129   3.204   3.089   6.569
13083TIP3    H239130   3.342   3.036   6.598
13084TIP3   OH239131   4.066   2.348   7.803
13084TIP3    H139132   3.989   2.361   7.747
13084TIP3    H239133   4.084   2.252   7.790
13085TIP3   OH239134   2.662   2.755   7.834
13085TIP3    H139135   2.713   2.735   7.915
13085TIP3    H239136   2.589   2.690   7.839
13086TIP3   OH239137   3.064   1.577   7.611
13086TIP3    H139138   2.973   1.547   7.587
13086TIP3    H239139   3.040   1.662   7.652
13087TIP3   OH239140   3.596   1.694   7.805
13087TIP3    H139141   3.664   1.668   7.870
13087TIP3    H239142   3.511   1.674   7.851
13088TIP3   OH239143   3.835   2.121   7.723
13088TIP3    H139144   3.788   2.117   7.809
13088TIP3    H239145   3.813   2.209   7.690
13089TIP3   OH239146   3.495   2.254   6.282
13089TIP3    H139147   3.462   2.226   6.194
13089TIP3    H239148   3.572   2.308   6.257
13090TIP3   OH239149   3.210   1.628   6.583
13090TIP3    H139150   3.177   1.627   6.674
13090TIP3    H239151   3.170   1.546   6.550
13091TIP3   OH239152   2.994   2.092   7.632
13091TIP3    H139153   2.942   2.115   7.712
13091TIP3    H239154   2.979   2.172   7.576
13092TIP3   OH239155   2.878   1.978   7.146
13092TIP3    H139156   2.784   1.955   7.161
13092TIP3    H239157   2.892   1.939   7.057
13093TIP3   OH239158   3.369   2.066   6.871
13093TIP3    H139159   3.313   2.137   6.832
13093TIP3    H239160   3.422   2.038   6.794
13094TIP3   OH239161   3.542   2.348   7.962
13094TIP3    H139162   3.521   2.273   8.022
13094TIP3    H239163   3.637   2.359   7.980
13095TIP3   OH239164   3.527   2.096   7.113
13095TIP3    H139165   3.469   2.127   7.041
13095TIP3    H239166   3.558   2.013   7.072
13096TIP3   OH239167   2.813   2.123   7.840
13096TIP3    H139168   2.838   2.187   7.909
13096TIP3    H239169   2.801   2.041   7.891
13097TIP3   OH239170   2.865   1.598   6.551
13097TIP3    H139171   2.854   1.596   6.648
13097TIP3    H239172   2.786   1.651   6.525
13098TIP3   OH239173   2.405   1.646   7.422
13098TIP3    H139174   2.484   1.676   7.472
13098TIP3    H239175   2.442   1.614   7.338
13099TIP3   OH239176   2.387   1.629   6.942
13099TIP3    H139177   2.428   1.668   6.861
13099TIP3    H239178   2.323   1.700   6.963
13100TIP3   OH239179   3.537   2.343   7.538
13100TIP3    H139180   3.569   2.269   7.480
13100TIP3    H239181   3.508   2.291   7.616
13101TIP3   OH239182   3.202   1.802   7.208
13101TIP3    H139183   3.118   1.800   7.258
13101TIP3    H239184   3.267   1.806   7.279
13102TIP3   OH239185   2.638   1.855   7.218
13102TIP3    H139186   2.544   1.865   7.190
13102TIP3    H239187   2.660   1.765   7.191
13103TIP3   OH239188   2.913   1.856   6.903
13103TIP3    H139189   3.006   1.871   6.879
13103TIP3    H239190   2.864   1.877   6.820
13104TIP3   OH239191   3.695   1.878   7.407
13104TIP3    H139192   3.659   1.889   7.498
13104TIP3    H239193   3.632   1.815   7.370
13105TIP3   OH239194   2.751   1.884   6.687
13105TIP3    H139195   2.673   1.846   6.644
13105TIP3    H239196   2.798   1.919   6.608
13106TIP3   OH239197   3.863   3.566   7.625
13106TIP3    H139198   3.862   3.588   7.530
13106TIP3    H239199   3.941   3.616   7.656
13107TIP3   OH239200   2.823   2.677   8.050
13107TIP3    H139201   2.904   2.706   8.097
13107TIP3    H239202   2.759   2.676   8.124
13108TIP3   OH239203   3.289   2.127   7.304
13108TIP3    H139204   3.362   2.090   7.251
13108TIP3    H239205   3.304   2.087   7.391
13109TIP3   OH239206   2.818   1.619   7.179
13109TIP3    H139207   2.784   1.537   7.221
13109TIP3    H239208   2.865   1.585   7.102
13110TIP3   OH239209   3.266   2.020   7.599
13110TIP3    H139210   3.177   2.060   7.607
13110TIP3    H239211   3.324   2.082   7.647
13111TIP3   OH239212   3.003   2.419   6.690
13111TIP3    H139213   2.932   2.352   6.679
13111TIP3    H239214   2.984   2.451   6.782
13112TIP3   OH239215   3.904   2.654   7.321
13112TIP3    H139216   3.928   2.702   7.238
13112TIP3    H239217   3.819   2.612   7.297
13113TIP3   OH239218   3.461   1.732   6.545
13113TIP3    H139219   3.365   1.716   6.554
13113TIP3    H239220   3.472   1.826   6.571
13114TIP3   OH239221   3.403   2.735   7.686
13114TIP3    H139222   3.420   2.710   7.778
13114TIP3    H239223   3.364   2.824   7.694
13115TIP3   OH239224   3.532   1.975   6.652
13115TIP3    H139225   3.628   1.982   6.669
13115TIP3    H239226   3.514   2.056   6.599
13116TIP3   OH239227   2.696   2.440   7.368
13116TIP3    H139228   2.729   2.411   7.280
13116TIP3    H239229   2.729   2.370   7.426
13117TIP3   OH239230   3.147   2.567   6.508
13117TIP3    H139231   3.100   2.654   6.516
13117TIP3    H239232   3.092   2.512   6.568
13118TIP3   OH239233   2.571   2.361   7.979
13118TIP3    H139234   2.593   2.345   8.073
13118TIP3    H239235   2.503   2.293   7.962
13119TIP3   OH239236   3.297   2.471   7.999
13119TIP3    H139237   3.240   2.414   7.945
13119TIP3    H239238   3.386   2.439   7.971
13120TIP3   OH239239   3.564   2.995   7.581
13120TIP3    H139240   3.467   2.992   7.592
13120TIP3    H239241   3.590   3.047   7.659
13121TIP3   OH239242   3.974   2.063   6.490
13121TIP3    H139243   3.911   2.018   6.429
13121TIP3    H239244   3.971   2.152   6.449
13122TIP3   OH239245   4.190   2.921   7.572
13122TIP3    H139246   4.092   2.918   7.564
13122TIP3    H239247   4.216   2.892   7.482
13123TIP3   OH239248   3.671   2.885   6.397
13123TIP3    H139249   3.648   2.815   6.459
13123TIP3    H239250   3.683   2.837   6.313
13124TIP3   OH239251   3.668   2.514   7.243
13124TIP3    H139252   3.575   2.488   7.253
13124TIP3    H239253   3.703   2.436   7.195
13125TIP3   OH239254   2.793   2.741   6.991
13125TIP3    H139255   2.796   2.823   6.937
13125TIP3    H239256   2.698   2.725   6.994
13126TIP3   OH239257   2.382   2.041   6.716
13126TIP3    H139258   2.412   2.133   6.711
13126TIP3    H239259   2.286   2.053   6.725
13127TIP3   OH239260   2.940   2.511   6.938
13127TIP3    H139261   2.902   2.599   6.955
13127TIP3    H239262   2.900   2.459   7.010
13128TIP3   OH239263   3.062   3.087   7.462
13128TIP3    H139264   3.102   3.159   7.408
13128TIP3    H239265   3.140   3.053   7.509
13129TIP3   OH239266   2.716   2.980   6.845
13129TIP3    H139267   2.629   2.988   6.888
13129TIP3    H239268   2.746   3.073   6.845
13130TIP3   OH239269   3.456   2.721   7.417
13130TIP3    H139270   3.448   2.717   7.515
13130TIP3    H239271   3.535   2.667   7.402
13131TIP3   OH239272   3.424   2.609   6.299
13131TIP3    H139273   3.476   2.586   6.380
13131TIP3    H239274   3.334   2.587   6.329
13132TIP3   OH239275   3.701   3.258   7.470
13132TIP3    H139276   3.623   3.200   7.460
13132TIP3    H239277   3.686   3.322   7.397
13133TIP3   OH239278   3.767   3.090   6.121
13133TIP3    H139279   3.805   3.161   6.067
13133TIP3    H239280   3.686   3.136   6.153
13134TIP3   OH239281   2.787   1.866   7.989
13134TIP3    H139282   2.691   1.871   8.003
13134TIP3    H239283   2.813   1.803   8.059
13135TIP3   OH239284   3.584   2.547   6.518
13135TIP3    H139285   3.574   2.481   6.589
13135TIP3    H239286   3.681   2.545   6.506
13136TIP3   OH239287   2.501   2.953   7.622
13136TIP3    H139288   2.551   2.873   7.644
13136TIP3    H239289   2.537   3.015   7.686
13137TIP3   OH239290   2.796   2.593   6.298
13137TIP3    H139291   2.807   2.501   6.268
13137TIP3    H239292   2.775   2.580   6.393
13138TIP3   OH239293   2.741   2.599   6.571
13138TIP3    H139294   2.808   2.571   6.634
13138TIP3    H239295   2.746   2.697   6.578
13139TIP3   OH239296   2.486   2.305   6.776
13139TIP3    H139297   2.413   2.341   6.831
13139TIP3    H239298   2.490   2.373   6.706
13140TIP3   OH239299   3.619   1.931   7.667
13140TIP3    H139300   3.701   1.968   7.703
13140TIP3    H239301   3.606   1.850   7.721
13141TIP3   OH239302   3.501   1.684   6.828
13141TIP3    H139303   3.487   1.708   6.735
13141TIP3    H239304   3.539   1.766   6.865
13142TIP3   OH239305   3.005   2.798   6.522
13142TIP3    H139306   2.918   2.826   6.556
13142TIP3    H239307   3.020   2.867   6.456
13143TIP3   OH239308   3.198   1.857   6.932
13143TIP3    H139309   3.261   1.930   6.915
13143TIP3    H239310   3.199   1.853   7.030
13144TIP3   OH239311   3.461   2.181   7.743
13144TIP3    H139312   3.478   2.234   7.823
13144TIP3    H239313   3.518   2.103   7.758
13145TIP3   OH239314   3.340   1.593   7.039
13145TIP3    H139315   3.331   1.670   7.098
13145TIP3    H239316   3.398   1.630   6.969
13146TIP3   OH239317   2.746   2.872   6.586
13146TIP3    H139318   2.715   2.940   6.522
13146TIP3    H239319   2.729   2.916   6.672
13147TIP3   OH239320   2.848   1.583   6.828
13147TIP3    H139321   2.844   1.675   6.859
13147TIP3    H239322   2.945   1.566   6.836
13148TIP3   OH239323   4.104   2.084   7.720
13148TIP3    H139324   4.006   2.079   7.727
13148TIP3    H239325   4.117   2.039   7.635
13149TIP3   OH239326   3.753   2.275   7.110
13149TIP3    H139327   3.678   2.214   7.123
13149TIP3    H239328   3.826   2.229   7.157
13150TIP3   OH239329   2.463   2.507   6.582
13150TIP3    H139330   2.525   2.582   6.588
13150TIP3    H239331   2.511   2.453   6.515
13151TIP3   OH239332   2.413   1.773   6.712
13151TIP3    H139333   2.417   1.872   6.711
13151TIP3    H239334   2.331   1.758   6.663
13152TIP3   OH239335   3.721   3.227   7.062
13152TIP3    H139336   3.678   3.274   6.987
13152TIP3    H239337   3.815   3.246   7.041
13153TIP3   OH239338   2.798   1.499   7.590
13153TIP3    H139339   2.766   1.468   7.503
13153TIP3    H239340   2.785   1.419   7.646
13154TIP3   OH239341   2.343   2.723   6.977
13154TIP3    H139342   2.259   2.750   7.016
13154TIP3    H239343   2.329   2.753   6.885
13155TIP3   OH239344   2.489   3.252   8.042
13155TIP3    H139345   2.577   3.250   8.086
13155TIP3    H239346   2.469   3.157   8.037
13156TIP3   OH239347   2.978   3.226   8.084
13156TIP3    H139348   3.072   3.204   8.091
13156TIP3    H239349   2.952   3.170   8.009
13157TIP3   OH239350   2.958   2.799   6.215
13157TIP3    H139351   2.899   2.729   6.252
13157TIP3    H239352   3.031   2.745   6.183
13158TIP3   OH239353   3.613   3.129   7.818
13158TIP3    H139354   3.605   3.058   7.886
13158TIP3    H239355   3.692   3.178   7.848
13159TIP3   OH239356   3.394   2.841   6.123
13159TIP3    H139357   3.441   2.779   6.180
13159TIP3    H239358   3.450   2.844   6.043
13160TIP3   OH239359   2.623   2.662   8.241
13160TIP3    H139360   2.641   2.566   8.242
13160TIP3    H239361   2.535   2.665   8.197
13161TIP3   OH239362   2.599   2.321   6.432
13161TIP3    H139363   2.650   2.279   6.503
13161TIP3    H239364   2.667   2.323   6.360
13162TIP3   OH239365   3.231   2.746   8.014
13162TIP3    H139366   3.190   2.760   7.926
13162TIP3    H239367   3.263   2.653   8.008
13163TIP3   OH239368   3.107   2.513   6.238
13163TIP3    H139369   3.108   2.526   6.334
13163TIP3    H239370   3.103   2.415   6.233
13164TIP3   OH239371   3.725   2.752   7.619
13164TIP3    H139372   3.798   2.799   7.574
13164TIP3    H239373   3.652   2.816   7.607
13165TIP3   OH239374   2.741   2.395   8.221
13165TIP3    H139375   2.815   2.336   8.202
13165TIP3    H239376   2.765   2.428   8.310
13166TIP3   OH239377   2.817   2.216   6.661
13166TIP3    H139378   2.780   2.173   6.739
13166TIP3    H239379   2.846   2.139   6.607
13167TIP3   OH239380   3.077   2.282   7.885
13167TIP3    H139381   3.000   2.342   7.889
13167TIP3    H239382   3.124   2.314   7.805
13168TIP3   OH239383   2.907   2.008   6.497
13168TIP3    H139384   2.879   2.009   6.403
13168TIP3    H239385   3.004   2.018   6.489
13169TIP3   OH239386   3.594   2.685   8.020
13169TIP3    H139387   3.674   2.667   7.969
13169TIP3    H239388   3.595   2.614   8.086
13170TIP3   OH239389   3.735   2.345   6.154
13170TIP3    H139390   3.710   2.296   6.073
13170TIP3    H239391   3.702   2.434   6.130
13171TIP3   OH239392   3.200   2.068   8.013
13171TIP3    H139393   3.200   1.988   7.957
13171TIP3    H239394   3.158   2.134   7.954
13172TIP3   OH239395   3.203   1.854   7.817
13172TIP3    H139396   3.230   1.897   7.734
13172TIP3    H239397   3.108   1.833   7.798
13173TIP3   OH239398   3.236   2.394   7.690
13173TIP3    H139399   3.315   2.399   7.635
13173TIP3    H239400   3.179   2.462   7.647
13174TIP3   OH239401   3.817   2.360   8.076
13174TIP3    H139402   3.865   2.276   8.079
13174TIP3    H239403   3.885   2.419   8.039
13175TIP3   OH239404   3.855   2.612   7.809
13175TIP3    H139405   3.797   2.664   7.749
13175TIP3    H239406   3.943   2.631   7.768
13176TIP3   OH239407   3.077   2.187   8.239
13176TIP3    H139408   3.008   2.119   8.252
13176TIP3    H239409   3.112   2.163   8.152
13177TIP3   OH239410   3.335   1.621   7.882
13177TIP3    H139411   3.288   1.704   7.860
13177TIP3    H239412   3.265   1.554   7.869
13178TIP3   OH239413   3.461   2.128   8.100
13178TIP3    H139414   3.452   2.117   8.196
13178TIP3    H239415   3.370   2.102   8.072
13179TIP3   OH239416   3.701   2.076   7.954
13179TIP3    H139417   3.626   2.076   8.017
13179TIP3    H239418   3.775   2.045   8.011
13180TIP3   OH239419   3.924   2.015   8.107
13180TIP3    H139420   3.941   1.920   8.124
13180TIP3    H239421   3.927   2.054   8.197
13181TIP3   OH239422   2.918   1.967   8.290
13181TIP3    H139423   2.926   1.878   8.252
13181TIP3    H239424   2.953   1.952   8.380
13182TIP3   OH239425   3.431   1.629   8.139
13182TIP3    H139426   3.500   1.560   8.132
13182TIP3    H239427   3.391   1.623   8.050
13183TIP3   OH239428   3.495   1.844   8.301
13183TIP3    H139429   3.472   1.774   8.235
13183TIP3    H239430   3.419   1.906   8.292
13184TIP3   OH239431   2.714   3.074   6.400
13184TIP3    H139432   2.810   3.074   6.380
13184TIP3    H239433   2.681   3.120   6.321
13185TIP3   OH239434   2.193   2.450   6.620
13185TIP3    H139435   2.288   2.465   6.598
13185TIP3    H239436   2.177   2.362   6.577
13186TIP3   OH239437   2.107   3.069   7.028
13186TIP3    H139438   2.040   3.006   6.993
13186TIP3    H239439   2.152   3.013   7.095
13187TIP3   OH239440   2.244   2.927   7.217
13187TIP3    H139441   2.236   2.847   7.270
13187TIP3    H239442   2.296   2.984   7.276
13188TIP3   OH239443   3.971   3.323   7.014
13188TIP3    H139444   4.000   3.356   7.101
13188TIP3    H239445   4.031   3.367   6.953
13189TIP3   OH239446   4.003   3.342   7.297
13189TIP3    H139447   3.962   3.253   7.292
13189TIP3    H239448   4.079   3.321   7.353
13190TIP3   OH239449   4.049   3.018   7.870
13190TIP3    H139450   3.975   3.025   7.933
13190TIP3    H239451   4.090   3.107   7.874
13191TIP3   OH239452   3.865   2.532   6.492
13191TIP3    H139453   3.935   2.595   6.465
13191TIP3    H239454   3.906   2.491   6.571
13192TIP3   OH239455   3.992   2.399   6.694
13192TIP3    H139456   3.927   2.356   6.754
13192TIP3    H239457   4.057   2.438   6.757
13193TIP3   OH239458   4.044   2.787   7.127
13193TIP3    H139459   4.098   2.726   7.075
13193TIP3    H239460   4.034   2.863   7.066
13194TIP3   OH239461   3.881   3.090   7.323
13194TIP3    H139462   3.809   3.131   7.375
13194TIP3    H239463   3.831   3.041   7.255
13195TIP3   OH239464   3.932   2.305   6.343
13195TIP3    H139465   3.860   2.309   6.275
13195TIP3    H239466   3.905   2.381   6.398
13196TIP3   OH239467   3.804   1.979   6.297
13196TIP3    H139468   3.761   2.020   6.222
13196TIP3    H239469   3.775   1.885   6.287
13197TIP3   OH239470   3.808   2.253   6.843
13197TIP3    H139471   3.817   2.156   6.839
13197TIP3    H239472   3.796   2.268   6.939
13198TIP3   OH239473   2.435   2.327   7.588
13198TIP3    H139474   2.433   2.300   7.494
13198TIP3    H239475   2.532   2.329   7.604
13199TIP3   OH239476   4.096   2.678   7.698
13199TIP3    H139477   4.169   2.613   7.690
13199TIP3    H239478   4.124   2.748   7.637
13200TIP3   OH239479   4.283   2.487   7.724
13200TIP3    H139480   4.209   2.435   7.761
13200TIP3    H239481   4.356   2.423   7.735
13201TIP3   OH239482   3.746   1.713   6.285
13201TIP3    H139483   3.823   1.684   6.338
13201TIP3    H239484   3.675   1.654   6.313
13202TIP3   OH239485   3.803   1.969   6.740
13202TIP3    H139486   3.843   1.880   6.755
13202TIP3    H239487   3.862   2.002   6.670
13203TIP3   OH239488   3.966   2.149   7.232
13203TIP3    H139489   4.053   2.174   7.192
13203TIP3    H239490   3.980   2.182   7.322
13204TIP3   OH239491   4.032   2.288   7.466
13204TIP3    H139492   3.953   2.323   7.513
13204TIP3    H239493   4.065   2.367   7.420
13205TIP3   OH239494   2.651   2.018   8.265
13205TIP3    H139495   2.749   2.008   8.263
13205TIP3    H239496   2.626   1.933   8.307
13206TIP3   OH239497   4.496   1.884   8.026
13206TIP3    H139498   4.545   1.812   7.979
13206TIP3    H239499   4.458   1.934   7.950
13207TIP3   OH239500   3.913   1.719   6.775
13207TIP3    H139501   3.962   1.704   6.858
13207TIP3    H239502   3.853   1.642   6.775
13208TIP3   OH239503   2.614   1.706   7.596
13208TIP3    H139504   2.677   1.632   7.604
13208TIP3    H239505   2.675   1.782   7.589
13209TIP3   OH239506   2.420   1.982   7.671
13209TIP3    H139507   2.465   1.970   7.585
13209TIP3    H239508   2.449   2.071   7.694
13210TIP3   OH239509   4.361   2.022   7.830
13210TIP3    H139510   4.272   2.051   7.855
13210TIP3    H239511   4.338   1.946   7.773
13211TIP3   OH239512   3.996   1.658   6.405
13211TIP3    H139513   4.037   1.583   6.357
13211TIP3    H239514   4.064   1.727   6.397
13212TIP3   OH239515   2.398   1.488   7.171
13212TIP3    H139516   2.304   1.483   7.194
13212TIP3    H239517   2.398   1.544   7.091
13213TIP3   OH239518   3.558   3.185   6.674
13213TIP3    H139519   3.607   3.168   6.591
13213TIP3    H239520   3.612   3.253   6.716
13214TIP3   OH239521   2.618   1.562   7.983
13214TIP3    H139522   2.567   1.561   8.066
13214TIP3    H239523   2.553   1.603   7.923
13215TIP3   OH239524   2.658   2.992   8.062
13215TIP3    H139525   2.569   2.958   8.042
13215TIP3    H239526   2.666   2.971   8.156
13216TIP3   OH239527   2.835   3.020   7.609
13216TIP3    H139528   2.787   3.095   7.568
13216TIP3    H239529   2.921   3.034   7.565
13217TIP3   OH239530   3.285   3.269   7.747
13217TIP3    H139531   3.327   3.271   7.835
13217TIP3    H239532   3.351   3.318   7.693
13218TIP3   OH239533   3.463   3.417   7.602
13218TIP3    H139534   3.534   3.367   7.560
13218TIP3    H239535   3.514   3.474   7.663
13219TIP3   OH239536   4.257   1.787   7.702
13219TIP3    H139537   4.164   1.781   7.675
13219TIP3    H239538   4.287   1.695   7.687
13220TIP3   OH239539   2.515   3.281   7.629
13220TIP3    H139540   2.427   3.317   7.603
13220TIP3    H239541   2.517   3.307   7.722
13221TIP3   OH239542   2.751   3.258   7.487
13221TIP3    H139543   2.665   3.272   7.532
13221TIP3    H239544   2.731   3.291   7.397
13222TIP3   OH239545   3.177   3.290   7.285
13222TIP3    H139546   3.108   3.310   7.219
13222TIP3    H239547   3.190   3.377   7.327
13223TIP3   OH239548   3.444   3.229   7.337
13223TIP3    H139549   3.349   3.245   7.316
13223TIP3    H239550   3.486   3.306   7.295
13224TIP3   OH239551   3.655   3.422   7.254
13224TIP3    H139552   3.640   3.506   7.206
13224TIP3    H239553   3.679   3.361   7.182
13225TIP3   OH239554   2.425   3.075   7.378
13225TIP3    H139555   2.453   3.050   7.469
13225TIP3    H239556   2.496   3.031   7.326
13226TIP3   OH239557   2.616   2.946   7.231
13226TIP3    H139558   2.634   2.861   7.278
13226TIP3    H239559   2.706   2.983   7.224
13227TIP3   OH239560   2.882   3.043   7.232
13227TIP3    H139561   2.915   2.952   7.216
13227TIP3    H239562   2.924   3.061   7.318
13228TIP3   OH239563   3.461   1.699   7.322
13228TIP3    H139564   3.416   1.630   7.374
13228TIP3    H239565   3.530   1.649   7.276
13229TIP3   OH239566   3.986   1.571   7.230
13229TIP3    H139567   4.025   1.626   7.159
13229TIP3    H239568   3.891   1.594   7.223
13230TIP3   OH239569   4.079   1.679   6.993
13230TIP3    H139570   4.153   1.628   6.952
13230TIP3    H239571   4.112   1.771   6.978
13231TIP3   OH239572   2.710   1.407   7.343
13231TIP3    H139573   2.618   1.375   7.339
13231TIP3    H239574   2.759   1.321   7.336
13232TIP3   OH239575   2.500   1.273   6.987
13232TIP3    H139576   2.526   1.332   6.913
13232TIP3    H239577   2.464   1.337   7.051
13233TIP3   OH239578   3.153   1.437   7.219
13233TIP3    H139579   3.210   1.490   7.162
13233TIP3    H239580   3.167   1.478   7.305
13234TIP3   OH239581   3.703   1.583   7.205
13234TIP3    H139582   3.696   1.552   7.114
13234TIP3    H239583   3.685   1.501   7.256
13235TIP3   OH239584   3.729   1.505   6.764
13235TIP3    H139585   3.642   1.547   6.773
13235TIP3    H239586   3.714   1.421   6.813
13236TIP3   OH239587   2.212   2.843   6.772
13236TIP3    H139588   2.130   2.808   6.734
13236TIP3    H239589   2.199   2.938   6.753
13237TIP3   OH239590   2.610   1.431   6.755
13237TIP3    H139591   2.660   1.374   6.695
13237TIP3    H239592   2.680   1.490   6.790
13238TIP3   OH239593   3.126   1.608   6.850
13238TIP3    H139594   3.186   1.562   6.910
13238TIP3    H239595   3.147   1.701   6.874
13239TIP3   OH239596   2.985   3.039   6.348
13239TIP3    H139597   3.074   3.060   6.313
13239TIP3    H239598   2.962   2.963   6.290
13240TIP3   OH239599   3.702   3.152   6.441
13240TIP3    H139600   3.694   3.054   6.427
13240TIP3    H239601   3.658   3.185   6.360
13241TIP3   OH239602   2.917   1.686   8.229
13241TIP3    H139603   2.884   1.616   8.289
13241TIP3    H239604   3.012   1.688   8.256
13242TIP3   OH239605   3.165   1.684   8.351
13242TIP3    H139606   3.250   1.660   8.310
13242TIP3    H239607   3.154   1.612   8.416
13243TIP3   OH239608   2.290   2.877   6.408
13243TIP3    H139609   2.286   2.903   6.501
13243TIP3    H239610   2.378   2.833   6.401
13244TIP3   OH239611   3.983   1.745   8.141
13244TIP3    H139612   4.015   1.712   8.227
13244TIP3    H239613   4.067   1.754   8.090
13245TIP3   OH239614   3.931   3.298   7.631
13245TIP3    H139615   3.853   3.265   7.583
13245TIP3    H239616   3.912   3.394   7.631
13246TIP3   OH239617   5.196   2.668   6.398
13246TIP3    H139618   5.170   2.761   6.380
13246TIP3    H239619   5.118   2.621   6.366
13247TIP3   OH239620   5.194   2.668   6.773
13247TIP3    H139621   5.222   2.637   6.861
13247TIP3    H239622   5.152   2.588   6.737
13248TIP3   OH239623   4.496   2.567   7.142
13248TIP3    H139624   4.528   2.500   7.205
13248TIP3    H239625   4.574   2.624   7.134
13249TIP3   OH239626   5.436   2.969   6.456
13249TIP3    H139627   5.424   2.899   6.522
13249TIP3    H239628   5.463   3.045   6.512
13250TIP3   OH239629   4.463   2.973   6.870
13250TIP3    H139630   4.456   2.875   6.874
13250TIP3    H239631   4.560   2.982   6.866
13251TIP3   OH239632   4.173   2.180   6.656
13251TIP3    H139633   4.124   2.263   6.667
13251TIP3    H239634   4.102   2.122   6.622
13252TIP3   OH239635   4.233   2.465   6.820
13252TIP3    H139636   4.281   2.389   6.860
13252TIP3    H239637   4.292   2.489   6.748
13253TIP3   OH239638   5.082   3.433   6.472
13253TIP3    H139639   5.133   3.361   6.427
13253TIP3    H239640   5.080   3.401   6.563
13254TIP3   OH239641   4.994   2.894   6.823
13254TIP3    H139642   5.031   2.817   6.776
13254TIP3    H239643   5.079   2.938   6.847
13255TIP3   OH239644   6.004   2.216   6.821
13255TIP3    H139645   6.033   2.298   6.866
13255TIP3    H239646   6.025   2.237   6.729
13256TIP3   OH239647   5.406   2.398   6.860
13256TIP3    H139648   5.448   2.312   6.880
13256TIP3    H239649   5.376   2.384   6.769
13257TIP3   OH239650   4.740   2.055   6.824
13257TIP3    H139651   4.720   2.128   6.762
13257TIP3    H239652   4.693   1.982   6.780
13258TIP3   OH239653   5.435   2.146   6.448
13258TIP3    H139654   5.508   2.129   6.512
13258TIP3    H239655   5.486   2.182   6.374
13259TIP3   OH239656   4.377   2.259   6.929
13259TIP3    H139657   4.459   2.238   6.977
13259TIP3    H239658   4.389   2.202   6.850
13260TIP3   OH239659   4.819   2.456   6.719
13260TIP3    H139660   4.912   2.430   6.735
13260TIP3    H239661   4.779   2.372   6.689
13261TIP3   OH239662   6.079   2.422   6.992
13261TIP3    H139663   5.996   2.471   6.972
13261TIP3    H239664   6.088   2.441   7.086
13262TIP3   OH239665   4.741   2.040   7.256
13262TIP3    H139666   4.678   2.076   7.191
13262TIP3    H239667   4.691   2.054   7.339
13263TIP3   OH239668   5.093   2.891   6.267
13263TIP3    H139669   5.045   2.864   6.187
13263TIP3    H239670   5.049   2.976   6.287
13264TIP3   OH239671   4.846   2.813   7.057
13264TIP3    H139672   4.782   2.876   7.096
13264TIP3    H239673   4.888   2.868   6.988
13265TIP3   OH239674   5.651   2.146   6.614
13265TIP3    H139675   5.644   2.094   6.695
13265TIP3    H239676   5.705   2.221   6.642
13266TIP3   OH239677   4.609   2.155   7.043
13266TIP3    H139678   4.672   2.226   7.066
13266TIP3    H239679   4.658   2.112   6.968
13267TIP3   OH239680   4.670   3.004   7.150
13267TIP3    H139681   4.646   3.090   7.110
13267TIP3    H239682   4.592   2.991   7.208
13268TIP3   OH239683   4.073   2.696   6.387
13268TIP3    H139684   4.029   2.723   6.304
13268TIP3    H239685   4.101   2.782   6.425
13269TIP3   OH239686   5.510   3.211   6.628
13269TIP3    H139687   5.420   3.203   6.668
13269TIP3    H239688   5.501   3.297   6.583
13270TIP3   OH239689   5.797   2.118   6.990
13270TIP3    H139690   5.709   2.147   6.960
13270TIP3    H239691   5.856   2.147   6.917
13271TIP3   OH239692   5.100   1.760   6.970
13271TIP3    H139693   5.089   1.665   6.988
13271TIP3    H239694   5.022   1.797   7.016
13272TIP3   OH239695   5.217   3.261   6.305
13272TIP3    H139696   5.265   3.179   6.281
13272TIP3    H239697   5.275   3.327   6.261
13273TIP3   OH239698   5.356   3.046   6.204
13273TIP3    H139699   5.315   2.968   6.164
13273TIP3    H239700   5.389   3.009   6.289
13274TIP3   OH239701   5.737   3.129   6.969
13274TIP3    H139702   5.725   3.050   6.911
13274TIP3    H239703   5.719   3.203   6.908
13275TIP3   OH239704   5.026   2.520   6.225
13275TIP3    H139705   4.946   2.571   6.201
13275TIP3    H239706   5.074   2.517   6.140
13276TIP3   OH239707   4.986   2.303   5.946
13276TIP3    H139708   5.054   2.353   5.994
13276TIP3    H239709   5.041   2.239   5.899
13277TIP3   OH239710   5.931   2.763   6.814
13277TIP3    H139711   5.849   2.815   6.821
13277TIP3    H239712   5.959   2.786   6.723
13278TIP3   OH239713   5.373   2.602   6.200
13278TIP3    H139714   5.319   2.628   6.278
13278TIP3    H239715   5.457   2.576   6.244
13279TIP3   OH239716   5.610   2.645   7.106
13279TIP3    H139717   5.606   2.729   7.156
13279TIP3    H239718   5.523   2.648   7.062
13280TIP3   OH239719   4.607   2.603   6.614
13280TIP3    H139720   4.564   2.545   6.548
13280TIP3    H239721   4.684   2.549   6.643
13281TIP3   OH239722   4.736   3.013   6.764
13281TIP3    H139723   4.715   2.963   6.684
13281TIP3    H239724   4.827   2.982   6.784
13282TIP3   OH239725   4.745   2.572   6.969
13282TIP3    H139726   4.777   2.554   6.879
13282TIP3    H239727   4.786   2.658   6.991
13283TIP3   OH239728   5.268   3.209   6.745
13283TIP3    H139729   5.255   3.289   6.799
13283TIP3    H239730   5.254   3.136   6.810
13284TIP3   OH239731   4.880   3.128   7.293
13284TIP3    H139732   4.823   3.192   7.342
13284TIP3    H239733   4.812   3.076   7.246
13285TIP3   OH239734   5.217   2.460   6.024
13285TIP3    H139735   5.274   2.519   6.078
13285TIP3    H239736   5.243   2.487   5.933
13286TIP3   OH239737   4.633   2.689   7.391
13286TIP3    H139738   4.637   2.774   7.439
13286TIP3    H239739   4.537   2.669   7.397
13287TIP3   OH239740   4.955   3.144   6.298
13287TIP3    H139741   5.030   3.198   6.326
13287TIP3    H239742   4.893   3.209   6.263
13288TIP3   OH239743   4.674   3.300   7.378
13288TIP3    H139744   4.639   3.295   7.287
13288TIP3    H239745   4.596   3.278   7.433
13289TIP3   OH239746   5.731   1.704   6.071
13289TIP3    H139747   5.650   1.721   6.124
13289TIP3    H239748   5.741   1.788   6.023
13290TIP3   OH239749   4.472   2.444   6.421
13290TIP3    H139750   4.408   2.488   6.362
13290TIP3    H239751   4.430   2.359   6.435
13291TIP3   OH239752   5.527   3.071   5.621
13291TIP3    H139753   5.537   3.167   5.606
13291TIP3    H239754   5.619   3.040   5.607
13292TIP3   OH239755   4.254   2.828   7.327
13292TIP3    H139756   4.191   2.804   7.256
13292TIP3    H239757   4.290   2.741   7.354
13293TIP3   OH239758   4.107   3.020   6.962
13293TIP3    H139759   4.203   3.013   6.951
13293TIP3    H239760   4.099   3.101   7.015
13294TIP3   OH239761   5.979   3.468   7.011
13294TIP3    H139762   5.973   3.372   7.027
13294TIP3    H239763   5.894   3.497   7.053
13295TIP3   OH239764   5.079   3.260   7.148
13295TIP3    H139765   5.082   3.352   7.181
13295TIP3    H239766   5.009   3.222   7.206
13296TIP3   OH239767   4.836   3.388   6.101
13296TIP3    H139768   4.791   3.370   6.016
13296TIP3    H239769   4.806   3.479   6.122
13297TIP3   OH239770   4.276   3.238   6.483
13297TIP3    H139771   4.325   3.228   6.568
13297TIP3    H239772   4.213   3.165   6.491
13298TIP3   OH239773   5.040   3.287   5.743
13298TIP3    H139774   5.101   3.219   5.707
13298TIP3    H239775   5.074   3.297   5.835
13299TIP3   OH239776   5.088   3.335   6.014
13299TIP3    H139777   5.000   3.345   6.057
13299TIP3    H239778   5.139   3.293   6.085
13300TIP3   OH239779   5.864   2.605   7.288
13300TIP3    H139780   5.784   2.620   7.236
13300TIP3    H239781   5.878   2.509   7.276
13301TIP3   OH239782   4.458   3.011   7.320
13301TIP3    H139783   4.510   2.993   7.401
13301TIP3    H239784   4.385   2.946   7.327
13302TIP3   OH239785   4.859   1.837   7.094
13302TIP3    H139786   4.769   1.806   7.071
13302TIP3    H239787   4.835   1.919   7.142
13303TIP3   OH239788   5.391   1.952   7.293
13303TIP3    H139789   5.458   1.923   7.358
13303TIP3    H239790   5.306   1.930   7.337
13304TIP3   OH239791   5.636   2.380   7.213
13304TIP3    H139792   5.585   2.374   7.297
13304TIP3    H239793   5.608   2.467   7.177
13305TIP3   OH239794   5.290   2.513   5.768
13305TIP3    H139795   5.259   2.483   5.681
13305TIP3    H239796   5.370   2.563   5.743
13306TIP3   OH239797   5.005   1.886   6.069
13306TIP3    H139798   4.974   1.884   6.162
13306TIP3    H239799   4.967   1.802   6.037
13307TIP3   OH239800   4.790   2.349   7.118
13307TIP3    H139801   4.739   2.372   7.199
13307TIP3    H239802   4.774   2.430   7.063
13308TIP3   OH239803   4.674   2.236   6.632
13308TIP3    H139804   4.581   2.210   6.648
13308TIP3    H239805   4.688   2.195   6.543
13309TIP3   OH239806   5.165   2.322   6.358
13309TIP3    H139807   5.110   2.394   6.318
13309TIP3    H239808   5.219   2.295   6.281
13310TIP3   OH239809   5.338   2.603   7.447
13310TIP3    H139810   5.317   2.529   7.509
13310TIP3    H239811   5.432   2.617   7.468
13311TIP3   OH239812   5.324   2.353   6.600
13311TIP3    H139813   5.265   2.384   6.528
13311TIP3    H239814   5.354   2.269   6.558
13312TIP3   OH239815   4.608   2.379   7.327
13312TIP3    H139816   4.636   2.442   7.396
13312TIP3    H239817   4.598   2.297   7.378
13313TIP3   OH239818   4.658   1.855   6.036
13313TIP3    H139819   4.655   1.852   6.134
13313TIP3    H239820   4.578   1.905   6.016
13314TIP3   OH239821   4.202   1.904   6.906
13314TIP3    H139822   4.278   1.933   6.960
13314TIP3    H239823   4.243   1.867   6.826
13315TIP3   OH239824   4.181   1.883   6.427
13315TIP3    H139825   4.228   1.922   6.350
13315TIP3    H239826   4.120   1.956   6.448
13316TIP3   OH239827   5.334   2.599   7.024
13316TIP3    H139828   5.366   2.526   6.966
13316TIP3    H239829   5.305   2.549   7.102
13317TIP3   OH239830   4.998   2.061   6.695
13317TIP3    H139831   4.915   2.056   6.746
13317TIP3    H239832   5.064   2.060   6.765
13318TIP3   OH239833   4.436   2.112   6.703
13318TIP3    H139834   4.341   2.119   6.676
13318TIP3    H239835   4.459   2.021   6.680
13319TIP3   OH239836   4.708   2.112   6.389
13319TIP3    H139837   4.803   2.125   6.369
13319TIP3    H239838   4.663   2.135   6.305
13320TIP3   OH239839   5.492   2.134   6.894
13320TIP3    H139840   5.457   2.145   6.985
13320TIP3    H239841   5.429   2.070   6.857
13321TIP3   OH239842   4.542   2.143   6.170
13321TIP3    H139843   4.468   2.101   6.122
13321TIP3    H239844   4.593   2.178   6.094
13322TIP3   OH239845   5.660   3.822   7.112
13322TIP3    H139846   5.659   3.844   7.017
13322TIP3    H239847   5.735   3.874   7.145
13323TIP3   OH239848   4.620   2.933   7.537
13323TIP3    H139849   4.700   2.962   7.584
13323TIP3    H239850   4.556   2.933   7.611
13324TIP3   OH239851   5.085   2.385   6.791
13324TIP3    H139852   5.156   2.344   6.740
13324TIP3    H239853   5.097   2.345   6.879
13325TIP3   OH239854   4.610   1.876   6.665
13325TIP3    H139855   4.579   1.795   6.711
13325TIP3    H239856   4.668   1.840   6.596
13326TIP3   OH239857   5.062   2.279   7.081
13326TIP3    H139858   4.973   2.317   7.094
13326TIP3    H239859   5.119   2.339   7.133
13327TIP3   OH239860   4.798   2.675   6.176
13327TIP3    H139861   4.726   2.609   6.165
13327TIP3    H239862   4.781   2.708   6.267
13328TIP3   OH239863   5.701   2.910   6.808
13328TIP3    H139864   5.723   2.958   6.725
13328TIP3    H239865   5.615   2.869   6.785
13329TIP3   OH239866   5.257   1.989   6.031
13329TIP3    H139867   5.160   1.973   6.041
13329TIP3    H239868   5.268   2.083   6.058
13330TIP3   OH239869   5.198   2.992   7.173
13330TIP3    H139870   5.218   2.968   7.264
13330TIP3    H239871   5.160   3.081   7.181
13331TIP3   OH239872   5.328   2.232   6.138
13331TIP3    H139873   5.424   2.238   6.155
13331TIP3    H239874   5.311   2.313   6.085
13332TIP3   OH239875   4.489   2.694   6.854
13332TIP3    H139876   4.527   2.666   6.768
13332TIP3    H239877   4.527   2.629   6.915
13333TIP3   OH239878   4.942   2.823   5.993
13333TIP3    H139879   4.896   2.910   6.002
13333TIP3    H239880   4.889   2.768   6.054
13334TIP3   OH239881   4.367   2.618   7.466
13334TIP3    H139882   4.392   2.603   7.560
13334TIP3    H239883   4.301   2.549   7.451
13335TIP3   OH239884   5.094   2.726   7.486
13335TIP3    H139885   5.037   2.669   7.432
13335TIP3    H239886   5.183   2.696   7.458
13336TIP3   OH239887   5.358   3.249   7.062
13336TIP3    H139888   5.263   3.251   7.079
13336TIP3    H239889   5.390   3.298   7.142
13337TIP3   OH239890   5.771   2.320   5.977
13337TIP3    H139891   5.707   2.275   5.916
13337TIP3    H239892   5.768   2.408   5.935
13338TIP3   OH239893   5.987   3.177   7.059
13338TIP3    H139894   5.889   3.175   7.052
13338TIP3    H239895   6.011   3.148   6.968
13339TIP3   OH239896   5.466   3.142   5.884
13339TIP3    H139897   5.444   3.071   5.946
13339TIP3    H239898   5.480   3.095   5.800
13340TIP3   OH239899   5.465   2.771   6.729
13340TIP3    H139900   5.371   2.745   6.741
13340TIP3    H239901   5.499   2.692   6.682
13341TIP3   OH239902   4.589   2.996   6.474
13341TIP3    H139903   4.592   3.079   6.423
13341TIP3    H239904   4.493   2.984   6.484
13342TIP3   OH239905   4.152   2.304   6.176
13342TIP3    H139906   4.199   2.386   6.197
13342TIP3    H239907   4.076   2.309   6.238
13343TIP3   OH239908   4.735   2.766   6.422
13343TIP3    H139909   4.697   2.855   6.440
13343TIP3    H239910   4.698   2.715   6.497
13344TIP3   OH239911   4.858   3.343   6.948
13344TIP3    H139912   4.900   3.415   6.898
13344TIP3    H239913   4.934   3.310   6.999
13345TIP3   OH239914   4.512   3.237   6.330
13345TIP3    H139915   4.425   3.245   6.375
13345TIP3    H239916   4.542   3.330   6.332
13346TIP3   OH239917   5.251   2.976   6.904
13346TIP3    H139918   5.242   2.975   7.002
13346TIP3    H239919   5.332   2.924   6.891
13347TIP3   OH239920   5.219   2.867   5.787
13347TIP3    H139921   5.273   2.843   5.866
13347TIP3    H239922   5.131   2.843   5.820
13348TIP3   OH239923   5.498   3.511   6.954
13348TIP3    H139924   5.419   3.454   6.949
13348TIP3    H239925   5.479   3.576   6.883
13349TIP3   OH239926   5.563   3.346   5.609
13349TIP3    H139927   5.601   3.415   5.553
13349TIP3    H239928   5.483   3.393   5.640
13350TIP3   OH239929   4.585   2.123   7.476
13350TIP3    H139930   4.488   2.125   7.490
13350TIP3    H239931   4.612   2.057   7.542
13351TIP3   OH239932   5.380   2.804   6.005
13351TIP3    H139933   5.370   2.737   6.075
13351TIP3    H239934   5.477   2.802   5.992
13352TIP3   OH239935   4.298   3.208   7.108
13352TIP3    H139936   4.348   3.130   7.133
13352TIP3    H239937   4.331   3.272   7.172
13353TIP3   OH239938   4.590   2.850   5.785
13353TIP3    H139939   4.606   2.759   5.756
13353TIP3    H239940   4.572   2.838   5.880
13354TIP3   OH239941   4.536   2.855   6.058
13354TIP3    H139942   4.605   2.827   6.121
13354TIP3    H239943   4.541   2.953   6.065
13355TIP3   OH239944   4.273   2.550   6.261
13355TIP3    H139945   4.207   2.594   6.319
13355TIP3    H239946   4.288   2.621   6.195
13356TIP3   OH239947   5.417   2.186   7.153
13356TIP3    H139948   5.496   2.223   7.194
13356TIP3    H239949   5.400   2.106   7.207
13357TIP3   OH239950   5.296   1.941   6.315
13357TIP3    H139951   5.284   1.966   6.221
13357TIP3    H239952   5.335   2.023   6.352
13358TIP3   OH239953   4.799   3.053   6.007
13358TIP3    H139954   4.714   3.082   6.044
13358TIP3    H239955   4.818   3.125   5.945
13359TIP3   OH239956   4.991   2.115   6.420
13359TIP3    H139957   5.056   2.186   6.402
13359TIP3    H239958   4.994   2.109   6.518
13360TIP3   OH239959   5.258   2.438   7.230
13360TIP3    H139960   5.274   2.492   7.310
13360TIP3    H239961   5.313   2.360   7.246
13361TIP3   OH239962   5.136   1.850   6.526
13361TIP3    H139963   5.131   1.926   6.587
13361TIP3    H239964   5.194   1.887   6.455
13362TIP3   OH239965   4.541   3.128   6.073
13362TIP3    H139966   4.510   3.197   6.010
13362TIP3    H239967   4.525   3.172   6.159
13363TIP3   OH239968   4.644   1.840   6.312
13363TIP3    H139969   4.643   1.931   6.349
13363TIP3    H239970   4.740   1.820   6.322
13364TIP3   OH239971   5.902   2.336   7.206
13364TIP3    H139972   5.804   2.335   7.217
13364TIP3    H239973   5.909   2.294   7.120
13365TIP3   OH239974   5.550   2.531   6.596
13365TIP3    H139975   5.474   2.471   6.610
13365TIP3    H239976   5.622   2.484   6.644
13366TIP3   OH239977   4.260   2.763   6.068
13366TIP3    H139978   4.321   2.838   6.078
13366TIP3    H239979   4.309   2.712   6.001
13367TIP3   OH239980   4.208   2.035   6.199
13367TIP3    H139981   4.205   2.133   6.194
13367TIP3    H239982   4.122   2.011   6.165
13368TIP3   OH239983   5.517   3.483   6.548
13368TIP3    H139984   5.475   3.531   6.473
13368TIP3    H239985   5.611   3.502   6.527
13369TIP3   OH239986   4.594   1.759   7.075
13369TIP3    H139987   4.562   1.723   6.990
13369TIP3    H239988   4.584   1.682   7.135
13370TIP3   OH239989   4.137   2.975   6.462
13370TIP3    H139990   4.056   3.006   6.505
13370TIP3    H239991   4.123   3.010   6.371
13371TIP3   OH239992   4.286   3.509   7.529
13371TIP3    H139993   4.373   3.508   7.573
13371TIP3    H239994   4.266   3.414   7.524
13372TIP3   OH239995   4.773   3.484   7.569
13372TIP3    H139996   4.868   3.465   7.580
13372TIP3    H239997   4.752   3.425   7.494
13373TIP3   OH239998   4.753   3.056   5.701
13373TIP3    H139999   4.695   2.986   5.739
13373TIP3    H240000   4.828   3.001   5.672
13374TIP3   OH240001   5.416   3.375   7.294
13374TIP3    H140002   5.398   3.320   7.372
13374TIP3    H240003   5.486   3.436   7.326
13375TIP3   OH240004   5.190   3.097   5.612
13375TIP3    H140005   5.237   3.035   5.670
13375TIP3    H240006   5.246   3.099   5.532
13376TIP3   OH240007   4.419   2.919   7.728
13376TIP3    H140008   4.438   2.823   7.730
13376TIP3    H240009   4.331   2.921   7.684
13377TIP3   OH240010   4.396   2.574   5.917
13377TIP3    H140011   4.448   2.538   5.991
13377TIP3    H240012   4.465   2.578   5.847
13378TIP3   OH240013   5.028   3.001   7.501
13378TIP3    H140014   4.988   3.017   7.414
13378TIP3    H240015   5.059   2.908   7.494
13379TIP3   OH240016   4.900   2.770   5.724
13379TIP3    H140017   4.905   2.783   5.820
13379TIP3    H240018   4.900   2.672   5.720
13380TIP3   OH240019   5.521   3.008   7.104
13380TIP3    H140020   5.593   3.057   7.062
13380TIP3    H240021   5.448   3.072   7.096
13381TIP3   OH240022   4.537   2.651   7.707
13381TIP3    H140023   4.611   2.591   7.690
13381TIP3    H240024   4.561   2.685   7.796
13382TIP3   OH240025   4.608   2.474   6.144
13382TIP3    H140026   4.580   2.431   6.227
13382TIP3    H240027   4.641   2.397   6.093
13383TIP3   OH240028   4.872   2.538   7.371
13383TIP3    H140029   4.796   2.599   7.376
13383TIP3    H240030   4.920   2.570   7.291
13384TIP3   OH240031   4.703   2.265   5.984
13384TIP3    H140032   4.677   2.265   5.890
13384TIP3    H240033   4.800   2.274   5.977
13385TIP3   OH240034   5.388   2.939   7.506
13385TIP3    H140035   5.471   2.926   7.459
13385TIP3    H240036   5.391   2.870   7.574
13386TIP3   OH240037   5.529   2.601   5.642
13386TIP3    H140038   5.508   2.553   5.560
13386TIP3    H240039   5.498   2.691   5.616
13387TIP3   OH240040   4.997   2.325   7.499
13387TIP3    H140041   4.996   2.244   7.445
13387TIP3    H240042   4.953   2.390   7.440
13388TIP3   OH240043   4.999   2.113   7.304
13388TIP3    H140044   5.026   2.153   7.219
13388TIP3    H240045   4.905   2.089   7.286
13389TIP3   OH240046   5.031   2.650   7.176
13389TIP3    H140047   5.112   2.655   7.123
13389TIP3    H240048   4.975   2.719   7.134
13390TIP3   OH240049   5.612   2.618   7.562
13390TIP3    H140050   5.661   2.534   7.566
13390TIP3    H240051   5.679   2.678   7.528
13391TIP3   OH240052   5.652   2.868   7.294
13391TIP3    H140053   5.592   2.920   7.235
13391TIP3    H240054   5.738   2.888   7.253
13392TIP3   OH240055   4.871   2.444   7.725
13392TIP3    H140056   4.804   2.374   7.738
13392TIP3    H240057   4.908   2.419   7.638
13393TIP3   OH240058   5.132   1.878   7.367
13393TIP3    H140059   5.082   1.960   7.347
13393TIP3    H240060   5.062   1.810   7.357
13394TIP3   OH240061   5.258   2.384   7.586
13394TIP3    H140062   5.247   2.373   7.683
13394TIP3    H240063   5.167   2.358   7.558
13395TIP3   OH240064   5.498   2.331   7.441
13395TIP3    H140065   5.421   2.332   7.502
13395TIP3    H240066   5.570   2.299   7.499
13396TIP3   OH240067   5.729   2.271   7.594
13396TIP3    H140068   5.739   2.175   7.614
13396TIP3    H240069   5.724   2.311   7.683
13397TIP3   OH240070   4.715   2.224   7.777
13397TIP3    H140071   4.719   2.133   7.740
13397TIP3    H240072   4.748   2.208   7.867
13398TIP3   OH240073   5.228   1.888   7.624
13398TIP3    H140074   5.295   1.817   7.620
13398TIP3    H240075   5.187   1.879   7.536
13399TIP3   OH240076   5.292   2.102   7.786
13399TIP3    H140077   5.270   2.031   7.722
13399TIP3    H240078   5.215   2.162   7.779
13400TIP3   OH240079   4.510   3.330   5.886
13400TIP3    H140080   4.606   3.330   5.867
13400TIP3    H240081   4.478   3.377   5.806
13401TIP3   OH240082   3.992   2.712   6.105
13401TIP3    H140083   4.087   2.735   6.091
13401TIP3    H240084   3.988   2.623   6.063
13402TIP3   OH240085   3.905   3.325   6.515
13402TIP3    H140086   3.837   3.262   6.481
13402TIP3    H240087   3.949   3.270   6.583
13403TIP3   OH240088   4.042   3.182   6.702
13403TIP3    H140089   4.032   3.104   6.759
13403TIP3    H240090   4.093   3.241   6.761
13404TIP3   OH240091   5.768   3.578   6.500
13404TIP3    H140092   5.794   3.609   6.589
13404TIP3    H240093   5.828   3.627   6.442
13405TIP3   OH240094   5.802   3.598   6.780
13405TIP3    H140095   5.756   3.511   6.778
13405TIP3    H240096   5.871   3.578   6.844
13406TIP3   OH240097   5.847   3.272   7.358
13406TIP3    H140098   5.769   3.281   7.415
13406TIP3    H240099   5.883   3.363   7.360
13407TIP3   OH240100   5.660   2.789   5.979
13407TIP3    H140101   5.731   2.851   5.951
13407TIP3    H240102   5.702   2.748   6.058
13408TIP3   OH240103   5.789   2.656   6.181
13408TIP3    H140104   5.723   2.612   6.240
13408TIP3    H240105   5.851   2.695   6.245
13409TIP3   OH240106   5.842   3.045   6.615
13409TIP3    H140107   5.894   2.983   6.561
13409TIP3    H240108   5.828   3.119   6.554
13410TIP3   OH240109   5.677   3.347   6.810
13410TIP3    H140110   5.607   3.390   6.864
13410TIP3    H240111   5.624   3.299   6.743
13411TIP3   OH240112   5.727   2.562   5.829
13411TIP3    H140113   5.656   2.565   5.762
13411TIP3    H240114   5.700   2.638   5.884
13412TIP3   OH240115   5.599   2.236   5.785
13412TIP3    H140116   5.559   2.277   5.708
13412TIP3    H240117   5.571   2.142   5.774
13413TIP3   OH240118   5.605   2.509   6.330
13413TIP3    H140119   5.612   2.413   6.325
13413TIP3    H240120   5.592   2.524   6.426
13414TIP3   OH240121   4.231   2.585   7.074
13414TIP3    H140122   4.231   2.557   6.980
13414TIP3    H240123   4.328   2.586   7.091
13415TIP3   OH240124   5.892   2.934   7.184
13415TIP3    H140125   5.967   2.871   7.177
13415TIP3    H240126   5.920   3.006   7.125
13416TIP3   OH240127   6.081   2.744   7.208
13416TIP3    H140128   6.006   2.695   7.246
13416TIP3    H240129   6.153   2.678   7.220
13417TIP3   OH240130   5.543   1.970   5.773
13417TIP3    H140131   5.619   1.940   5.825
13417TIP3    H240132   5.471   1.911   5.800
13418TIP3   OH240133   5.599   2.225   6.226
13418TIP3    H140134   5.639   2.136   6.242
13418TIP3    H240135   5.658   2.258   6.157
13419TIP3   OH240136   5.763   2.404   6.719
13419TIP3    H140137   5.850   2.431   6.680
13419TIP3    H240138   5.776   2.439   6.809
13420TIP3   OH240139   5.829   2.544   6.953
13420TIP3    H140140   5.750   2.578   7.000
13420TIP3    H240141   5.861   2.625   6.908
13421TIP3   OH240142   4.448   2.275   7.753
13421TIP3    H140143   4.545   2.264   7.750
13421TIP3    H240144   4.422   2.188   7.791
13422TIP3   OH240145   6.284   2.135   7.509
13422TIP3    H140146   6.340   2.067   7.466
13422TIP3    H240147   6.256   2.190   7.433
13423TIP3   OH240148   5.709   1.975   6.262
13423TIP3    H140149   5.757   1.960   6.345
13423TIP3    H240150   5.648   1.898   6.261
13424TIP3   OH240151   4.407   1.964   7.081
13424TIP3    H140152   4.469   1.889   7.091
13424TIP3    H240153   4.470   2.038   7.077
13425TIP3   OH240154   4.213   2.239   7.154
13425TIP3    H140155   4.262   2.228   7.071
13425TIP3    H240156   4.245   2.325   7.184
13426TIP3   OH240157   6.156   2.278   7.316
13426TIP3    H140158   6.068   2.315   7.337
13426TIP3    H240159   6.130   2.206   7.255
13427TIP3   OH240160   5.793   1.915   5.892
13427TIP3    H140161   5.832   1.840   5.843
13427TIP3    H240162   5.861   1.984   5.883
13428TIP3   OH240163   4.194   1.743   6.656
13428TIP3    H140164   4.100   1.741   6.680
13428TIP3    H240165   4.194   1.800   6.576
13429TIP3   OH240166   5.353   3.442   6.160
13429TIP3    H140167   5.404   3.425   6.078
13429TIP3    H240168   5.408   3.509   6.204
13430TIP3   OH240169   4.417   1.829   7.471
13430TIP3    H140170   4.366   1.817   7.553
13430TIP3    H240171   4.347   1.857   7.410
13431TIP3   OH240172   4.454   3.248   7.548
13431TIP3    H140173   4.364   3.215   7.530
13431TIP3    H240174   4.464   3.228   7.642
13432TIP3   OH240175   4.630   3.275   7.093
13432TIP3    H140176   4.584   3.352   7.055
13432TIP3    H240177   4.717   3.289   7.051
13433TIP3   OH240178   5.076   3.528   7.223
13433TIP3    H140179   5.113   3.522   7.315
13433TIP3    H240180   5.148   3.577   7.178
13434TIP3   OH240181   5.262   3.677   7.085
13434TIP3    H140182   5.334   3.622   7.054
13434TIP3    H240183   5.309   3.733   7.152
13435TIP3   OH240184   6.052   2.039   7.191
13435TIP3    H140185   5.960   2.035   7.159
13435TIP3    H240186   6.080   1.945   7.179
13436TIP3   OH240187   4.310   3.538   7.115
13436TIP3    H140188   4.222   3.574   7.092
13436TIP3    H240189   4.316   3.563   7.208
13437TIP3   OH240190   4.547   3.515   6.973
13437TIP3    H140191   4.461   3.528   7.019
13437TIP3    H240192   4.527   3.548   6.884
13438TIP3   OH240193   4.973   3.547   6.771
13438TIP3    H140194   4.903   3.569   6.706
13438TIP3    H240195   4.986   3.634   6.816
13439TIP3   OH240196   5.240   3.485   6.819
13439TIP3    H140197   5.145   3.501   6.802
13439TIP3    H240198   5.280   3.566   6.785
13440TIP3   OH240199   5.453   3.680   6.741
13440TIP3    H140200   5.437   3.764   6.692
13440TIP3    H240201   5.474   3.617   6.669
13441TIP3   OH240202   4.221   3.331   6.864
13441TIP3    H140203   4.249   3.307   6.955
13441TIP3    H240204   4.293   3.287   6.813
13442TIP3   OH240205   4.413   3.201   6.717
13442TIP3    H140206   4.430   3.117   6.765
13442TIP3    H240207   4.503   3.240   6.712
13443TIP3   OH240208   4.679   3.299   6.719
13443TIP3    H140209   4.711   3.208   6.706
13443TIP3    H240210   4.720   3.319   6.805
13444TIP3   OH240211   5.255   1.954   6.806
13444TIP3    H140212   5.212   1.887   6.862
13444TIP3    H240213   5.326   1.903   6.763
13445TIP3   OH240214   5.784   1.834   6.716
13445TIP3    H140215   5.819   1.886   6.641
13445TIP3    H240216   5.687   1.850   6.709
13446TIP3   OH240217   5.876   1.937   6.479
13446TIP3    H140218   5.949   1.885   6.438
13446TIP3    H240219   5.909   2.028   6.464
13447TIP3   OH240220   4.506   1.663   6.827
13447TIP3    H140221   4.414   1.630   6.827
13447TIP3    H240222   4.556   1.579   6.823
13448TIP3   OH240223   4.288   1.530   6.471
13448TIP3    H140224   4.321   1.589   6.401
13448TIP3    H240225   4.260   1.594   6.540
13449TIP3   OH240226   4.945   1.698   6.705
13449TIP3    H140227   5.007   1.748   6.651
13449TIP3    H240228   4.965   1.731   6.794
13450TIP3   OH240229   5.502   1.840   6.691
13450TIP3    H140230   5.493   1.805   6.601
13450TIP3    H240231   5.485   1.760   6.745
13451TIP3   OH240232   5.525   1.761   6.251
13451TIP3    H140233   5.437   1.802   6.260
13451TIP3    H240234   5.512   1.677   6.301
13452TIP3   OH240235   4.009   3.099   6.257
13452TIP3    H140236   3.925   3.066   6.220
13452TIP3    H240237   3.996   3.194   6.243
13453TIP3   OH240238   4.406   1.693   6.237
13453TIP3    H140239   4.456   1.630   6.182
13453TIP3    H240240   4.479   1.747   6.275
13454TIP3   OH240241   4.922   1.865   6.336
13454TIP3    H140242   4.981   1.817   6.397
13454TIP3    H240243   4.945   1.957   6.362
13455TIP3   OH240244   4.780   3.295   5.835
13455TIP3    H140245   4.870   3.316   5.800
13455TIP3    H240246   4.758   3.219   5.777
13456TIP3   OH240247   5.499   3.408   5.928
13456TIP3    H140248   5.490   3.311   5.915
13456TIP3    H240249   5.455   3.441   5.846
13457TIP3   OH240250   4.713   1.950   7.721
13457TIP3    H140251   4.679   1.873   7.771
13457TIP3    H240252   4.808   1.946   7.745
13458TIP3   OH240253   4.963   1.942   7.839
13458TIP3    H140254   5.046   1.914   7.796
13458TIP3    H240255   4.949   1.870   7.903
13459TIP3   OH240256   4.085   3.131   5.895
13459TIP3    H140257   4.081   3.160   5.987
13459TIP3    H240258   4.174   3.091   5.888
13460TIP3   OH240259   5.785   2.000   7.625
13460TIP3    H140260   5.806   1.967   7.715
13460TIP3    H240261   5.873   1.995   7.582
13461TIP3   OH240262   5.739   3.559   7.100
13461TIP3    H140263   5.655   3.518   7.073
13461TIP3    H240264   5.709   3.651   7.115
13462TIP3   OH240265   6.992   2.926   5.885
13462TIP3    H140266   6.964   3.018   5.865
13462TIP3    H240267   6.915   2.877   5.852
13463TIP3   OH240268   6.992   2.925   6.260
13463TIP3    H140269   7.018   2.891   6.347
13463TIP3    H240270   6.948   2.848   6.220
13464TIP3   OH240271   6.293   2.823   6.627
13464TIP3    H140272   6.324   2.756   6.691
13464TIP3    H240273   6.369   2.882   6.623
13465TIP3   OH240274   7.234   3.225   5.943
13465TIP3    H140275   7.219   3.154   6.006
13465TIP3    H240276   7.258   3.300   6.000
13466TIP3   OH240277   6.260   3.230   6.357
13466TIP3    H140278   6.251   3.132   6.361
13466TIP3    H240279   6.357   3.238   6.352
13467TIP3   OH240280   5.969   2.438   6.143
13467TIP3    H140281   5.919   2.520   6.154
13467TIP3    H240282   5.900   2.379   6.109
13468TIP3   OH240283   6.031   2.723   6.308
13468TIP3    H140284   6.077   2.646   6.347
13468TIP3    H240285   6.086   2.743   6.231
13469TIP3   OH240286   6.880   3.690   5.959
13469TIP3    H140287   6.930   3.619   5.913
13469TIP3    H240288   6.873   3.655   6.049
13470TIP3   OH240289   6.790   3.151   6.311
13470TIP3    H140290   6.824   3.074   6.262
13470TIP3    H240291   6.876   3.193   6.333
13471TIP3   OH240292   7.801   2.473   6.308
13471TIP3    H140293   7.830   2.555   6.352
13471TIP3    H240294   7.821   2.492   6.215
13472TIP3   OH240295   7.204   2.656   6.347
13472TIP3    H140296   7.244   2.569   6.366
13472TIP3    H240297   7.172   2.641   6.256
13473TIP3   OH240298   6.537   2.312   6.311
13473TIP3    H140299   6.516   2.385   6.248
13473TIP3    H240300   6.490   2.238   6.267
13474TIP3   OH240301   7.231   2.403   5.935
13474TIP3    H140302   7.304   2.385   5.999
13474TIP3    H240303   7.281   2.439   5.860
13475TIP3   OH240304   6.173   2.516   6.416
13475TIP3    H140305   6.256   2.494   6.464
13475TIP3    H240306   6.183   2.459   6.337
13476TIP3   OH240307   6.615   2.713   6.206
13476TIP3    H140308   6.708   2.686   6.221
13476TIP3    H240309   6.575   2.629   6.175
13477TIP3   OH240310   7.877   2.681   6.478
13477TIP3    H140311   7.792   2.727   6.458
13477TIP3    H240312   7.881   2.694   6.574
13478TIP3   OH240313   6.537   2.296   6.744
13478TIP3    H140314   6.475   2.332   6.678
13478TIP3    H240315   6.487   2.313   6.826
13479TIP3   OH240316   6.890   3.149   5.753
13479TIP3    H140317   6.842   3.120   5.674
13479TIP3    H240318   6.844   3.233   5.773
13480TIP3   OH240319   6.644   3.070   6.544
13480TIP3    H140320   6.578   3.131   6.583
13480TIP3    H240321   6.682   3.124   6.473
13481TIP3   OH240322   7.447   2.402   6.100
13481TIP3    H140323   7.440   2.349   6.180
13481TIP3    H240324   7.502   2.477   6.130
13482TIP3   OH240325   6.406   2.411   6.530
13482TIP3    H140326   6.469   2.483   6.552
13482TIP3    H240327   6.454   2.369   6.455
13483TIP3   OH240328   6.469   3.261   6.637
13483TIP3    H140329   6.442   3.346   6.597
13483TIP3    H240330   6.390   3.246   6.695
13484TIP3   OH240331   5.868   2.952   5.873
13484TIP3    H140332   5.826   2.976   5.789
13484TIP3    H240333   5.896   3.038   5.910
13485TIP3   OH240334   7.309   3.469   6.117
13485TIP3    H140335   7.219   3.459   6.156
13485TIP3    H240336   7.297   3.554   6.069
13486TIP3   OH240337   7.594   2.377   6.478
13486TIP3    H140338   7.505   2.402   6.447
13486TIP3    H240339   7.651   2.404   6.403
13487TIP3   OH240340   6.897   2.017   6.457
13487TIP3    H140341   6.885   1.922   6.474
13487TIP3    H240342   6.818   2.053   6.503
13488TIP3   OH240343   7.015   3.518   5.794
13488TIP3    H140344   7.061   3.435   5.769
13488TIP3    H240345   7.072   3.583   5.748
13489TIP3   OH240346   7.152   3.303   5.691
13489TIP3    H140347   7.110   3.226   5.650
13489TIP3    H240348   7.185   3.265   5.775
13490TIP3   OH240349   7.534   3.386   6.455
13490TIP3    H140350   7.521   3.307   6.399
13490TIP3    H240351   7.515   3.459   6.392
13491TIP3   OH240352   6.824   2.778   5.712
13491TIP3    H140353   6.742   2.827   5.689
13491TIP3    H240354   6.868   2.773   5.626
13492TIP3   OH240355   6.782   2.560   5.435
13492TIP3    H140356   6.852   2.609   5.480
13492TIP3    H240357   6.837   2.494   5.386
13493TIP3   OH240358   7.728   3.022   6.301
13493TIP3    H140359   7.644   3.072   6.308
13493TIP3    H240360   7.754   3.043   6.210
13494TIP3   OH240361   7.170   2.860   5.687
13494TIP3    H140362   7.115   2.885   5.764
13494TIP3    H240363   7.253   2.832   5.732
13495TIP3   OH240364   7.407   2.903   6.592
13495TIP3    H140365   7.400   2.986   6.642
13495TIP3    H240366   7.319   2.902   6.549
13496TIP3   OH240367   6.403   2.860   6.101
13496TIP3    H140368   6.359   2.802   6.034
13496TIP3    H240369   6.479   2.805   6.128
13497TIP3   OH240370   6.533   3.271   6.250
13497TIP3    H140371   6.509   3.222   6.170
13497TIP3    H240372   6.623   3.237   6.268
13498TIP3   OH240373   6.545   2.827   6.457
13498TIP3    H140374   6.573   2.810   6.365
13498TIP3    H240375   6.583   2.915   6.477
13499TIP3   OH240376   7.066   3.466   6.233
13499TIP3    H140377   7.050   3.545   6.288
13499TIP3    H240378   7.051   3.392   6.295
13500TIP3   OH240379   6.675   3.387   6.779
13500TIP3    H140380   6.615   3.449   6.827
13500TIP3    H240381   6.609   3.333   6.732
13501TIP3   OH240382   7.014   2.716   5.511
13501TIP3    H140383   7.071   2.776   5.564
13501TIP3    H240384   7.039   2.742   5.419
13502TIP3   OH240385   6.429   2.946   6.876
13502TIP3    H140386   6.432   3.030   6.926
13502TIP3    H240387   6.334   2.925   6.885
13503TIP3   OH240388   6.753   3.400   5.786
13503TIP3    H140389   6.825   3.458   5.814
13503TIP3    H240390   6.689   3.461   5.747
13504TIP3   OH240391   6.471   3.558   6.867
13504TIP3    H140392   6.435   3.552   6.776
13504TIP3    H240393   6.393   3.534   6.921
13505TIP3   OH240394   7.528   1.961   5.559
13505TIP3    H140395   7.446   1.978   5.610
13505TIP3    H240396   7.537   2.045   5.509
13506TIP3   OH240397   6.268   2.701   5.909
13506TIP3    H140398   6.204   2.746   5.850
13506TIP3    H240399   6.225   2.615   5.920
13507TIP3   OH240400   7.323   3.329   5.107
13507TIP3    H140401   7.332   3.425   5.093
13507TIP3    H240402   7.416   3.298   5.094
13508TIP3   OH240403   6.052   3.084   6.813
13508TIP3    H140404   5.986   3.061   6.745
13508TIP3    H240405   6.087   2.997   6.840
13509TIP3   OH240406   5.904   3.277   6.447
13509TIP3    H140407   6.000   3.272   6.439
13509TIP3    H240408   5.892   3.357   6.501
13510TIP3   OH240409   7.769   3.726   6.497
13510TIP3    H140410   7.768   3.630   6.512
13510TIP3    H240411   7.687   3.751   6.545
13511TIP3   OH240412   6.875   3.515   6.636
13511TIP3    H140413   6.876   3.607   6.669
13511TIP3    H240414   6.803   3.476   6.691
13512TIP3   OH240415   6.633   3.645   5.587
13512TIP3    H140416   6.587   3.623   5.504
13512TIP3    H240417   6.601   3.735   5.607
13513TIP3   OH240418   6.072   3.496   5.970
13513TIP3    H140419   6.120   3.484   6.056
13513TIP3    H240420   6.011   3.421   5.975
13514TIP3   OH240421   6.837   3.545   5.230
13514TIP3    H140422   6.897   3.476   5.193
13514TIP3    H240423   6.870   3.553   5.322
13515TIP3   OH240424   6.885   3.592   5.502
13515TIP3    H140425   6.796   3.602   5.542
13515TIP3    H240426   6.932   3.545   5.572
13516TIP3   OH240427   7.660   2.862   6.773
13516TIP3    H140428   7.579   2.875   6.722
13516TIP3    H240429   7.674   2.766   6.764
13517TIP3   OH240430   6.255   3.267   6.806
13517TIP3    H140431   6.305   3.250   6.888
13517TIP3    H240432   6.182   3.203   6.812
13518TIP3   OH240433   6.655   2.093   6.582
13518TIP3    H140434   6.565   2.060   6.559
13518TIP3    H240435   6.630   2.175   6.628
13519TIP3   OH240436   7.187   2.209   6.780
13519TIP3    H140437   7.253   2.179   6.845
13519TIP3    H240438   7.102   2.187   6.824
13520TIP3   OH240439   7.434   2.638   6.702
13520TIP3    H140440   7.381   2.631   6.785
13520TIP3    H240441   7.402   2.722   6.664
13521TIP3   OH240442   7.088   2.769   5.256
13521TIP3    H140443   7.054   2.740   5.170
13521TIP3    H240444   7.166   2.820   5.229
13522TIP3   OH240445   6.802   2.142   5.556
13522TIP3    H140446   6.769   2.140   5.648
13522TIP3    H240447   6.763   2.059   5.523
13523TIP3   OH240448   6.587   2.605   6.606
13523TIP3    H140449   6.534   2.627   6.686
13523TIP3    H240450   6.571   2.685   6.551
13524TIP3   OH240451   6.470   2.493   6.119
13524TIP3    H140452   6.377   2.467   6.135
13524TIP3    H240453   6.484   2.452   6.030
13525TIP3   OH240454   6.962   2.580   5.845
13525TIP3    H140455   6.906   2.651   5.805
13525TIP3    H240456   7.014   2.551   5.768
13526TIP3   OH240457   7.135   2.861   6.936
13526TIP3    H140458   7.112   2.787   6.996
13526TIP3    H240459   7.230   2.872   6.956
13527TIP3   OH240460   7.121   2.610   6.086
13527TIP3    H140461   7.061   2.639   6.014
13527TIP3    H240462   7.151   2.527   6.045
13528TIP3   OH240463   6.406   2.636   6.814
13528TIP3    H140464   6.427   2.699   6.884
13528TIP3    H240465   6.393   2.553   6.864
13529TIP3   OH240466   6.456   2.113   5.523
13529TIP3    H140467   6.449   2.109   5.621
13529TIP3    H240468   6.375   2.162   5.501
13530TIP3   OH240469   5.998   2.162   6.393
13530TIP3    H140470   6.075   2.189   6.446
13530TIP3    H240471   6.037   2.124   6.312
13531TIP3   OH240472   5.978   2.140   5.914
13531TIP3    H140473   6.023   2.179   5.836
13531TIP3    H240474   5.916   2.212   5.936
13532TIP3   OH240475   7.134   2.856   6.512
13532TIP3    H140476   7.163   2.783   6.453
13532TIP3    H240477   7.102   2.805   6.589
13533TIP3   OH240478   6.795   2.319   6.182
13533TIP3    H140479   6.711   2.313   6.231
13533TIP3    H240480   6.860   2.316   6.254
13534TIP3   OH240481   6.232   2.369   6.190
13534TIP3    H140482   6.137   2.376   6.163
13534TIP3    H240483   6.254   2.277   6.166
13535TIP3   OH240484   6.505   2.370   5.876
13535TIP3    H140485   6.599   2.383   5.853
13535TIP3    H240486   6.458   2.391   5.792
13536TIP3   OH240487   7.289   2.391   6.381
13536TIP3    H140488   7.252   2.401   6.472
13536TIP3    H240489   7.226   2.327   6.344
13537TIP3   OH240490   6.339   2.400   5.658
13537TIP3    H140491   6.265   2.357   5.611
13537TIP3    H240492   6.390   2.434   5.581
13538TIP3   OH240493   7.456   4.077   6.599
13538TIP3    H140494   7.452   4.102   6.505
13538TIP3    H240495   7.527   4.134   6.633
13539TIP3   OH240496   6.417   3.190   7.023
13539TIP3    H140497   6.496   3.220   7.073
13539TIP3    H240498   6.351   3.187   7.095
13540TIP3   OH240499   6.882   2.643   6.280
13540TIP3    H140500   6.951   2.599   6.227
13540TIP3    H240501   6.892   2.600   6.367
13541TIP3   OH240502   6.408   2.132   6.152
13541TIP3    H140503   6.375   2.051   6.197
13541TIP3    H240504   6.461   2.095   6.080
13542TIP3   OH240505   6.858   2.536   6.567
13542TIP3    H140506   6.768   2.572   6.580
13542TIP3    H240507   6.915   2.596   6.620
13543TIP3   OH240508   6.595   2.932   5.664
13543TIP3    H140509   6.523   2.866   5.652
13543TIP3    H240510   6.577   2.964   5.755
13544TIP3   OH240511   7.496   3.167   6.295
13544TIP3    H140512   7.518   3.215   6.212
13544TIP3    H240513   7.411   3.124   6.273
13545TIP3   OH240514   7.053   2.245   5.521
13545TIP3    H140515   6.957   2.228   5.528
13545TIP3    H240516   7.063   2.339   5.545
13546TIP3   OH240517   7.003   3.253   6.659
13546TIP3    H140518   7.008   3.220   6.749
13546TIP3    H240519   6.954   3.336   6.669
13547TIP3   OH240520   7.124   2.489   5.627
13547TIP3    H140521   7.220   2.495   5.642
13547TIP3    H240522   7.105   2.569   5.572
13548TIP3   OH240523   6.289   2.954   6.341
13548TIP3    H140524   6.323   2.922   6.255
13548TIP3    H240525   6.319   2.884   6.402
13549TIP3   OH240526   6.739   3.081   5.483
13549TIP3    H140527   6.693   3.168   5.491
13549TIP3    H240528   6.685   3.025   5.542
13550TIP3   OH240529   6.166   2.872   6.951
13550TIP3    H140530   6.186   2.859   7.046
13550TIP3    H240531   6.095   2.807   6.936
13551TIP3   OH240532   6.889   2.985   6.971
13551TIP3    H140533   6.830   2.926   6.921
13551TIP3    H240534   6.977   2.952   6.943
13552TIP3   OH240535   7.157   3.514   6.550
13552TIP3    H140536   7.061   3.504   6.564
13552TIP3    H240537   7.182   3.561   6.633
13553TIP3   OH240538   7.568   2.576   5.464
13553TIP3    H140539   7.504   2.531   5.403
13553TIP3    H240540   7.564   2.665   5.421
13554TIP3   OH240541   7.784   3.437   6.544
13554TIP3    H140542   7.686   3.432   6.538
13554TIP3    H240543   7.808   3.405   6.454
13555TIP3   OH240544   7.268   3.397   5.373
13555TIP3    H140545   7.238   3.328   5.432
13555TIP3    H240546   7.275   3.352   5.287
13556TIP3   OH240547   7.261   3.027   6.216
13556TIP3    H140548   7.168   3.001   6.228
13556TIP3    H240549   7.295   2.949   6.169
13557TIP3   OH240550   6.385   3.254   5.963
13557TIP3    H140551   6.387   3.336   5.910
13557TIP3    H240552   6.290   3.238   5.970
13558TIP3   OH240553   5.949   2.560   5.663
13558TIP3    H140554   5.996   2.643   5.683
13558TIP3    H240555   5.872   2.566   5.724
13559TIP3   OH240556   6.532   3.024   5.911
13559TIP3    H140557   6.494   3.112   5.928
13559TIP3    H240558   6.493   2.972   5.984
13560TIP3   OH240559   6.654   3.600   6.435
13560TIP3    H140560   6.695   3.672   6.383
13560TIP3    H240561   6.731   3.566   6.484
13561TIP3   OH240562   6.308   3.493   5.818
13561TIP3    H140563   6.221   3.500   5.862
13561TIP3    H240564   6.337   3.587   5.819
13562TIP3   OH240565   7.049   3.234   6.390
13562TIP3    H140566   7.041   3.232   6.489
13562TIP3    H240567   7.126   3.177   6.377
13563TIP3   OH240568   7.016   3.125   5.273
13563TIP3    H140569   7.067   3.100   5.353
13563TIP3    H240570   6.927   3.099   5.301
13564TIP3   OH240571   7.295   3.770   6.443
13564TIP3    H140572   7.218   3.710   6.438
13564TIP3    H240573   7.276   3.833   6.370
13565TIP3   OH240574   7.360   3.603   5.095
13565TIP3    H140575   7.393   3.672   5.036
13565TIP3    H240576   7.280   3.649   5.128
13566TIP3   OH240577   6.380   2.379   6.962
13566TIP3    H140578   6.284   2.384   6.977
13566TIP3    H240579   6.407   2.315   7.031
13567TIP3   OH240580   7.176   3.062   5.492
13567TIP3    H140581   7.166   2.995   5.562
13567TIP3    H240582   7.273   3.058   5.479
13568TIP3   OH240583   6.097   3.466   6.592
13568TIP3    H140584   6.144   3.385   6.620
13568TIP3    H240585   6.122   3.527   6.663
13569TIP3   OH240586   6.388   3.107   5.272
13569TIP3    H140587   6.399   3.015   5.241
13569TIP3    H240588   6.368   3.093   5.367
13570TIP3   OH240589   6.334   3.112   5.545
13570TIP3    H140590   6.400   3.084   5.609
13570TIP3    H240591   6.339   3.210   5.552
13571TIP3   OH240592   6.071   2.808   5.748
13571TIP3    H140593   6.004   2.851   5.805
13571TIP3    H240594   6.083   2.877   5.680
13572TIP3   OH240595   7.213   2.444   6.641
13572TIP3    H140596   7.293   2.477   6.682
13572TIP3    H240597   7.195   2.363   6.693
13573TIP3   OH240598   7.092   2.198   5.802
13573TIP3    H140599   7.078   2.220   5.708
13573TIP3    H240600   7.130   2.280   5.838
13574TIP3   OH240601   6.598   3.312   5.497
13574TIP3    H140602   6.510   3.339   5.530
13574TIP3    H240603   6.611   3.376   5.426
13575TIP3   OH240604   6.789   2.371   5.907
13575TIP3    H140605   6.853   2.443   5.889
13575TIP3    H240606   6.791   2.366   6.005
13576TIP3   OH240607   7.055   2.695   6.715
13576TIP3    H140608   7.069   2.748   6.797
13576TIP3    H240609   7.108   2.616   6.732
13577TIP3   OH240610   6.933   2.107   6.014
13577TIP3    H140611   6.924   2.185   6.072
13577TIP3    H240612   6.991   2.143   5.942
13578TIP3   OH240613   6.339   3.386   5.560
13578TIP3    H140614   6.307   3.453   5.496
13578TIP3    H240615   6.321   3.429   5.646
13579TIP3   OH240616   6.440   2.097   5.800
13579TIP3    H140617   6.438   2.187   5.835
13579TIP3    H240618   6.536   2.077   5.809
13580TIP3   OH240619   7.700   2.593   6.692
13580TIP3    H140620   7.602   2.593   6.704
13580TIP3    H240621   7.704   2.548   6.606
13581TIP3   OH240622   7.346   2.788   6.084
13581TIP3    H140623   7.270   2.729   6.095
13581TIP3    H240624   7.417   2.740   6.131
13582TIP3   OH240625   6.057   3.019   5.558
13582TIP3    H140626   6.117   3.095   5.563
13582TIP3    H240627   6.102   2.967   5.489
13583TIP3   OH240628   6.005   2.292   5.687
13583TIP3    H140629   6.001   2.389   5.681
13583TIP3    H240630   5.920   2.267   5.648
13584TIP3   OH240631   7.314   3.742   6.036
13584TIP3    H140632   7.270   3.788   5.961
13584TIP3    H240633   7.408   3.757   6.012
13585TIP3   OH240634   6.390   2.012   6.564
13585TIP3    H140635   6.358   1.978   6.477
13585TIP3    H240636   6.380   1.934   6.621
13586TIP3   OH240637   5.935   3.235   5.949
13586TIP3    H140638   5.853   3.263   5.992
13586TIP3    H240639   5.918   3.267   5.858
13587TIP3   OH240640   6.082   3.766   7.012
13587TIP3    H140641   6.168   3.763   7.059
13587TIP3    H240642   6.058   3.671   7.011
13588TIP3   OH240643   6.574   3.741   7.055
13588TIP3    H140644   6.666   3.713   7.064
13588TIP3    H240645   6.544   3.683   6.982
13589TIP3   OH240646   6.551   3.312   5.191
13589TIP3    H140647   6.492   3.241   5.225
13589TIP3    H240648   6.624   3.258   5.155
13590TIP3   OH240649   7.208   3.640   6.790
13590TIP3    H140650   7.196   3.571   6.859
13590TIP3    H240651   7.284   3.691   6.824
13591TIP3   OH240652   6.987   3.356   5.097
13591TIP3    H140653   7.032   3.290   5.153
13591TIP3    H240654   7.041   3.356   5.016
13592TIP3   OH240655   6.217   3.177   7.213
13592TIP3    H140656   6.232   3.080   7.218
13592TIP3    H240657   6.128   3.179   7.173
13593TIP3   OH240658   6.193   2.835   5.405
13593TIP3    H140659   6.245   2.795   5.476
13593TIP3    H240660   6.261   2.837   5.334
13594TIP3   OH240661   6.826   3.260   6.985
13594TIP3    H140662   6.780   3.272   6.900
13594TIP3    H240663   6.855   3.166   6.982
13595TIP3   OH240664   6.700   3.027   5.212
13595TIP3    H140665   6.701   3.039   5.309
13595TIP3    H240666   6.697   2.929   5.206
13596TIP3   OH240667   7.319   3.264   6.593
13596TIP3    H140668   7.388   3.316   6.548
13596TIP3    H240669   7.242   3.322   6.583
13597TIP3   OH240670   6.335   2.909   7.193
13597TIP3    H140671   6.406   2.845   7.180
13597TIP3    H240672   6.357   2.942   7.283
13598TIP3   OH240673   6.407   2.730   5.633
13598TIP3    H140674   6.375   2.686   5.714
13598TIP3    H240675   6.439   2.654   5.580
13599TIP3   OH240676   6.670   2.797   6.860
13599TIP3    H140677   6.591   2.855   6.864
13599TIP3    H240678   6.714   2.828   6.778
13600TIP3   OH240679   6.499   2.522   5.471
13600TIP3    H140680   6.472   2.522   5.377
13600TIP3    H240681   6.596   2.530   5.463
13601TIP3   OH240682   7.188   3.199   6.994
13601TIP3    H140683   7.267   3.177   6.944
13601TIP3    H240684   7.184   3.128   7.060
13602TIP3   OH240685   7.328   2.858   5.129
13602TIP3    H140686   7.304   2.809   5.047
13602TIP3    H240687   7.294   2.947   5.103
13603TIP3   OH240688   6.795   2.582   6.985
13603TIP3    H140689   6.792   2.501   6.931
13603TIP3    H240690   6.749   2.647   6.927
13604TIP3   OH240691   6.795   2.369   6.790
13604TIP3    H140692   6.821   2.409   6.705
13604TIP3    H240693   6.701   2.346   6.773
13605TIP3   OH240694   6.830   2.910   6.664
13605TIP3    H140695   6.906   2.911   6.605
13605TIP3    H240696   6.770   2.975   6.621
13606TIP3   OH240697   7.409   2.874   7.048
13606TIP3    H140698   7.455   2.789   7.056
13606TIP3    H240699   7.478   2.931   7.013
13607TIP3   OH240700   7.449   3.126   6.784
13607TIP3    H140701   7.389   3.177   6.724
13607TIP3    H240702   7.535   3.144   6.741
13608TIP3   OH240703   6.669   2.701   7.211
13608TIP3    H140704   6.601   2.632   7.226
13608TIP3    H240705   6.705   2.674   7.124
13609TIP3   OH240706   6.928   2.134   6.853
13609TIP3    H140707   6.878   2.217   6.833
13609TIP3    H240708   6.858   2.066   6.844
13610TIP3   OH240709   7.053   2.642   7.073
13610TIP3    H140710   7.043   2.629   7.169
13610TIP3    H240711   6.963   2.615   7.044
13611TIP3   OH240712   7.295   2.589   6.929
13611TIP3    H140713   7.217   2.589   6.988
13611TIP3    H240714   7.366   2.555   6.987
13612TIP3   OH240715   7.528   2.528   7.080
13612TIP3    H140716   7.536   2.432   7.100
13612TIP3    H240717   7.521   2.568   7.170
13613TIP3   OH240718   6.511   2.480   7.263
13613TIP3    H140719   6.516   2.389   7.227
13613TIP3    H240720   6.545   2.465   7.354
13614TIP3   OH240721   7.025   2.146   7.110
13614TIP3    H140722   7.091   2.073   7.107
13614TIP3    H240723   6.984   2.136   7.022
13615TIP3   OH240724   7.090   2.360   7.271
13615TIP3    H140725   7.066   2.288   7.208
13615TIP3    H240726   7.012   2.418   7.266
13616TIP3   OH240727   6.307   3.590   5.375
13616TIP3    H140728   6.402   3.588   5.353
13616TIP3    H240729   6.273   3.632   5.294
13617TIP3   OH240730   5.788   2.967   5.595
13617TIP3    H140731   5.882   2.991   5.577
13617TIP3    H240732   5.783   2.880   5.550
13618TIP3   OH240733   5.701   3.582   6.001
13618TIP3    H140734   5.633   3.520   5.967
13618TIP3    H240735   5.745   3.527   6.069
13619TIP3   OH240736   5.838   3.440   6.190
13619TIP3    H140737   5.827   3.361   6.245
13619TIP3    H240738   5.887   3.498   6.251
13620TIP3   OH240739   7.568   3.829   5.987
13620TIP3    H140740   7.589   3.865   6.075
13620TIP3    H240741   7.616   3.888   5.928
13621TIP3   OH240742   7.602   3.853   6.268
13621TIP3    H140743   7.552   3.769   6.263
13621TIP3    H240744   7.667   3.828   6.335
13622TIP3   OH240745   7.642   3.530   6.843
13622TIP3    H140746   7.567   3.537   6.905
13622TIP3    H240747   7.681   3.620   6.849
13623TIP3   OH240748   7.457   3.045   5.466
13623TIP3    H140749   7.528   3.107   5.439
13623TIP3    H240750   7.498   3.004   5.545
13624TIP3   OH240751   7.585   2.913   5.669
13624TIP3    H140752   7.519   2.868   5.725
13624TIP3    H240753   7.646   2.952   5.734
13625TIP3   OH240754   7.640   3.302   6.103
13625TIP3    H140755   7.690   3.238   6.050
13625TIP3    H240756   7.623   3.374   6.039
13626TIP3   OH240757   7.473   3.606   6.296
13626TIP3    H140758   7.401   3.644   6.349
13626TIP3    H240759   7.423   3.556   6.228
13627TIP3   OH240760   7.524   2.820   5.316
13627TIP3    H140761   7.453   2.821   5.248
13627TIP3    H240762   7.495   2.895   5.371
13628TIP3   OH240763   7.396   2.493   5.271
13628TIP3    H140764   7.354   2.532   5.194
13628TIP3    H240765   7.368   2.399   5.262
13629TIP3   OH240766   7.402   2.766   5.816
13629TIP3    H140767   7.408   2.669   5.810
13629TIP3    H240768   7.388   2.780   5.913
13630TIP3   OH240769   6.028   2.841   6.560
13630TIP3    H140770   6.026   2.813   6.466
13630TIP3    H240771   6.125   2.842   6.578
13631TIP3   OH240772   7.690   3.192   6.672
13631TIP3    H140773   7.762   3.126   6.664
13631TIP3    H240774   7.716   3.261   6.609
13632TIP3   OH240775   7.878   3.002   6.695
13632TIP3    H140776   7.802   2.951   6.732
13632TIP3    H240777   7.949   2.935   6.708
13633TIP3   OH240778   7.338   2.228   5.262
13633TIP3    H140779   7.414   2.195   5.314
13633TIP3    H240780   7.266   2.168   5.285
13634TIP3   OH240781   7.396   2.483   5.714
13634TIP3    H140782   7.435   2.393   5.729
13634TIP3    H240783   7.455   2.514   5.642
13635TIP3   OH240784   7.560   2.661   6.206
13635TIP3    H140785   7.646   2.687   6.167
13635TIP3    H240786   7.572   2.695   6.296
13636TIP3   OH240787   7.626   2.801   6.440
13636TIP3    H140788   7.546   2.834   6.487
13636TIP3    H240789   7.657   2.882   6.395
13637TIP3   OH240790   6.244   2.530   7.238
13637TIP3    H140791   6.342   2.520   7.237
13637TIP3    H240792   6.218   2.446   7.279
13638TIP3   OH240793   8.082   2.393   6.996
13638TIP3    H140794   8.136   2.324   6.952
13638TIP3    H240795   8.052   2.447   6.920
13639TIP3   OH240796   7.505   2.232   5.749
13639TIP3    H140797   7.553   2.216   5.833
13639TIP3    H240798   7.444   2.155   5.747
13640TIP3   OH240799   6.205   2.219   6.567
13640TIP3    H140800   6.267   2.144   6.578
13640TIP3    H240801   6.267   2.294   6.563
13641TIP3   OH240802   6.010   2.495   6.642
13641TIP3    H140803   6.058   2.485   6.558
13641TIP3    H240804   6.039   2.582   6.670
13642TIP3   OH240805   7.952   2.535   6.803
13642TIP3    H140806   7.864   2.571   6.823
13642TIP3    H240807   7.927   2.463   6.742
13643TIP3   OH240808   7.590   2.170   5.380
13643TIP3    H140809   7.627   2.096   5.329
13643TIP3    H240810   7.657   2.240   5.368
13644TIP3   OH240811   5.991   2.002   6.144
13644TIP3    H140812   5.896   1.997   6.167
13644TIP3    H240813   5.990   2.058   6.064
13645TIP3   OH240814   7.152   3.698   5.648
13645TIP3    H140815   7.199   3.680   5.564
13645TIP3    H240816   7.206   3.768   5.687
13646TIP3   OH240817   6.211   2.080   6.958
13646TIP3    H140818   6.161   2.071   7.040
13646TIP3    H240819   6.143   2.116   6.898
13647TIP3   OH240820   6.253   3.503   7.037
13647TIP3    H140821   6.162   3.474   7.015
13647TIP3    H240822   6.257   3.482   7.131
13648TIP3   OH240823   6.428   3.532   6.582
13648TIP3    H140824   6.377   3.606   6.544
13648TIP3    H240825   6.513   3.548   6.537
13649TIP3   OH240826   6.878   3.781   6.720
13649TIP3    H140827   6.919   3.784   6.809
13649TIP3    H240828   6.943   3.832   6.667
13650TIP3   OH240829   7.055   3.931   6.575
13650TIP3    H140830   7.126   3.878   6.535
13650TIP3    H240831   7.106   3.988   6.637
13651TIP3   OH240832   7.848   2.296   6.678
13651TIP3    H140833   7.756   2.292   6.645
13651TIP3    H240834   7.876   2.202   6.666
13652TIP3   OH240835   6.108   3.797   6.601
13652TIP3    H140836   6.019   3.831   6.578
13652TIP3    H240837   6.110   3.816   6.696
13653TIP3   OH240838   6.344   3.773   6.461
13653TIP3    H140839   6.259   3.786   6.507
13653TIP3    H240840   6.322   3.805   6.371
13654TIP3   OH240841   6.770   3.804   6.257
13654TIP3    H140842   6.700   3.823   6.193
13654TIP3    H240843   6.781   3.891   6.301
13655TIP3   OH240844   7.037   3.744   6.309
13655TIP3    H140845   6.941   3.756   6.290
13655TIP3    H240846   7.074   3.823   6.268
13656TIP3   OH240847   7.253   3.938   6.228
13656TIP3    H140848   7.234   4.020   6.179
13656TIP3    H240849   7.270   3.874   6.156
13657TIP3   OH240850   6.019   3.590   6.351
13657TIP3    H140851   6.045   3.563   6.442
13657TIP3    H240852   6.089   3.543   6.300
13658TIP3   OH240853   6.209   3.458   6.204
13658TIP3    H140854   6.225   3.374   6.252
13658TIP3    H240855   6.299   3.495   6.198
13659TIP3   OH240856   6.477   3.556   6.204
13659TIP3    H140857   6.507   3.465   6.191
13659TIP3    H240858   6.515   3.574   6.292
13660TIP3   OH240859   7.053   2.211   6.296
13660TIP3    H140860   7.008   2.144   6.350
13660TIP3    H240861   7.120   2.159   6.249
13661TIP3   OH240862   7.581   2.093   6.205
13661TIP3    H140863   7.615   2.143   6.128
13661TIP3    H240864   7.484   2.105   6.196
13662TIP3   OH240865   7.673   2.193   5.966
13662TIP3    H140866   7.745   2.142   5.925
13662TIP3    H240867   7.705   2.285   5.950
13663TIP3   OH240868   6.303   1.920   6.314
13663TIP3    H140869   6.210   1.887   6.314
13663TIP3    H240870   6.352   1.835   6.311
13664TIP3   OH240871   6.086   1.787   5.958
13664TIP3    H140872   6.117   1.846   5.887
13664TIP3    H240873   6.057   1.850   6.026
13665TIP3   OH240874   6.742   1.954   6.192
13665TIP3    H140875   6.804   2.005   6.137
13665TIP3    H240876   6.760   1.988   6.280
13666TIP3   OH240877   7.300   2.097   6.177
13666TIP3    H140878   7.287   2.062   6.087
13666TIP3    H240879   7.282   2.016   6.231
13667TIP3   OH240880   7.322   2.018   5.739
13667TIP3    H140881   7.233   2.058   5.745
13667TIP3    H240882   7.308   1.934   5.787
13668TIP3   OH240883   5.806   3.356   5.744
13668TIP3    H140884   5.722   3.321   5.708
13668TIP3    H240885   5.791   3.450   5.729
13669TIP3   OH240886   6.202   1.949   5.724
13669TIP3    H140887   6.252   1.886   5.669
13669TIP3    H240888   6.275   2.003   5.762
13670TIP3   OH240889   6.717   2.122   5.823
13670TIP3    H140890   6.776   2.073   5.883
13670TIP3    H240891   6.741   2.214   5.849
13671TIP3   OH240892   6.577   3.553   5.321
13671TIP3    H140893   6.666   3.573   5.285
13671TIP3    H240894   6.554   3.477   5.264
13672TIP3   OH240895   7.295   3.665   5.415
13672TIP3    H140896   7.288   3.567   5.402
13672TIP3    H240897   7.250   3.698   5.334
13673TIP3   OH240898   6.510   2.203   7.206
13673TIP3    H140899   6.476   2.130   7.261
13673TIP3    H240900   6.605   2.202   7.231
13674TIP3   OH240901   6.760   2.199   7.324
13674TIP3    H140902   6.842   2.168   7.284
13674TIP3    H240903   6.745   2.129   7.392
13675TIP3   OH240904   5.884   3.394   5.382
13675TIP3    H140905   5.880   3.413   5.477
13675TIP3    H240906   5.970   3.347   5.373
13676TIP3   OH240907   7.582   2.256   7.112
13676TIP3    H140908   7.601   2.225   7.203
13676TIP3    H240909   7.670   2.250   7.069
13677TIP3   OH240910   7.526   3.811   6.602
13677TIP3    H140911   7.447   3.776   6.558
13677TIP3    H240912   7.502   3.906   6.605
13678TIP3   OH240913   8.789   3.187   5.371
13678TIP3    H140914   8.758   3.277   5.350
13678TIP3    H240915   8.714   3.134   5.338
13679TIP3   OH240916   8.783   3.184   5.749
13679TIP3    H140917   8.815   3.148   5.834
13679TIP3    H240918   8.745   3.104   5.708
13680TIP3   OH240919   8.088   3.080   6.114
13680TIP3    H140920   8.119   3.012   6.177
13680TIP3    H240921   8.168   3.135   6.107
13681TIP3   OH240922   9.036   3.510   5.419
13681TIP3    H140923   9.015   3.425   5.460
13681TIP3    H240924   9.062   3.563   5.497
13682TIP3   OH240925   8.058   3.488   5.845
13682TIP3    H140926   8.046   3.391   5.849
13682TIP3    H240927   8.155   3.492   5.840
13683TIP3   OH240928   7.765   2.696   5.631
13683TIP3    H140929   7.712   2.777   5.639
13683TIP3    H240930   7.698   2.634   5.597
13684TIP3   OH240931   7.830   2.982   5.796
13684TIP3    H140932   7.874   2.902   5.834
13684TIP3    H240933   7.879   2.994   5.714
13685TIP3   OH240934   8.684   3.920   5.434
13685TIP3    H140935   8.753   3.852   5.437
13685TIP3    H240936   8.662   3.929   5.527
13686TIP3   OH240937   8.587   3.409   5.795
13686TIP3    H140938   8.619   3.329   5.751
13686TIP3    H240939   8.673   3.449   5.819
13687TIP3   OH240940   9.530   2.755   5.805
13687TIP3    H140941   9.596   2.804   5.859
13687TIP3    H240942   9.575   2.756   5.718
13688TIP3   OH240943   8.998   2.914   5.833
13688TIP3    H140944   9.040   2.828   5.854
13688TIP3    H240945   8.968   2.897   5.742
13689TIP3   OH240946   8.333   2.569   5.798
13689TIP3    H140947   8.312   2.641   5.735
13689TIP3    H240948   8.287   2.494   5.754
13690TIP3   OH240949   9.028   2.660   5.422
13690TIP3    H140950   9.100   2.642   5.486
13690TIP3    H240951   9.079   2.695   5.347
13691TIP3   OH240952   7.970   2.773   5.903
13691TIP3    H140953   8.052   2.750   5.950
13691TIP3    H240954   7.979   2.715   5.824
13692TIP3   OH240955   8.411   2.970   5.694
13692TIP3    H140956   8.504   2.942   5.708
13692TIP3    H240957   8.371   2.886   5.663
13693TIP3   OH240958   9.669   2.935   5.961
13693TIP3    H140959   9.583   2.983   5.958
13693TIP3    H240960   9.705   2.965   6.047
13694TIP3   OH240961   8.333   2.553   6.231
13694TIP3    H140962   8.271   2.588   6.164
13694TIP3    H240963   8.282   2.570   6.313
13695TIP3   OH240964   8.691   3.415   5.241
13695TIP3    H140965   8.649   3.373   5.164
13695TIP3    H240966   8.639   3.497   5.250
13696TIP3   OH240967   8.441   3.327   6.030
13696TIP3    H140968   8.374   3.387   6.070
13696TIP3    H240969   8.480   3.383   5.961
13697TIP3   OH240970   9.243   2.658   5.589
13697TIP3    H140971   9.240   2.603   5.668
13697TIP3    H240972   9.301   2.731   5.617
13698TIP3   OH240973   8.202   2.668   6.017
13698TIP3    H140974   8.266   2.739   6.039
13698TIP3    H240975   8.249   2.625   5.941
13699TIP3   OH240976   8.264   3.516   6.125
13699TIP3    H140977   8.236   3.600   6.085
13699TIP3    H240978   8.187   3.499   6.183
13700TIP3   OH240979   7.666   3.208   5.360
13700TIP3    H140980   7.620   3.232   5.277
13700TIP3    H240981   7.690   3.295   5.396
13701TIP3   OH240982   9.100   3.726   5.598
13701TIP3    H140983   9.011   3.718   5.639
13701TIP3    H240984   9.095   3.817   5.560
13702TIP3   OH240985   9.371   2.625   5.977
13702TIP3    H140986   9.284   2.652   5.943
13702TIP3    H240987   9.431   2.662   5.908
13703TIP3   OH240988   8.692   2.274   5.943
13703TIP3    H140989   8.682   2.179   5.960
13703TIP3    H240990   8.614   2.309   5.990
13704TIP3   OH240991   9.327   3.643   5.942
13704TIP3    H140992   9.315   3.563   5.886
13704TIP3    H240993   9.312   3.716   5.879
13705TIP3   OH240994   8.622   3.039   5.199
13705TIP3    H140995   8.538   3.081   5.173
13705TIP3    H240996   8.666   3.027   5.113
13706TIP3   OH240997   8.578   2.816   4.924
13706TIP3    H140998   8.651   2.865   4.966
13706TIP3    H240999   8.631   2.750   4.873
13707TIP3   OH241000   9.522   3.278   5.790
13707TIP3    H141001   9.437   3.328   5.796
13707TIP3    H241002   9.545   3.290   5.696
13708TIP3   OH241003   8.967   3.121   5.172
13708TIP3    H141004   8.912   3.141   5.251
13708TIP3    H241005   9.048   3.087   5.215
13709TIP3   OH241006   9.202   3.159   6.080
13709TIP3    H141007   9.197   3.242   6.131
13709TIP3    H241008   9.114   3.160   6.036
13710TIP3   OH241009   8.201   3.118   5.586
13710TIP3    H141010   8.155   3.059   5.522
13710TIP3    H241011   8.275   3.061   5.615
13711TIP3   OH241012   8.333   3.531   5.734
13711TIP3    H141013   8.304   3.477   5.659
13711TIP3    H241014   8.421   3.493   5.754
13712TIP3   OH241015   8.339   3.084   5.944
13712TIP3    H141016   8.368   3.064   5.853
13712TIP3    H241017   8.380   3.171   5.963
13713TIP3   OH241018   8.859   3.724   5.716
13713TIP3    H141019   8.849   3.801   5.774
13713TIP3    H241020   8.848   3.649   5.778
13714TIP3   OH241021   8.471   3.647   6.264
13714TIP3    H141022   8.413   3.706   6.315
13714TIP3    H241023   8.405   3.590   6.220
13715TIP3   OH241024   8.808   2.975   4.997
13715TIP3    H141025   8.868   3.033   5.050
13715TIP3    H241026   8.834   3.000   4.905
13716TIP3   OH241027   8.225   3.204   6.362
13716TIP3    H141028   8.227   3.287   6.414
13716TIP3    H241029   8.130   3.181   6.371
13717TIP3   OH241030   8.581   3.686   5.258
13717TIP3    H141031   8.574   3.741   5.337
13717TIP3    H241032   8.495   3.703   5.215
13718TIP3   OH241033   8.263   3.820   6.352
13718TIP3    H141034   8.229   3.801   6.263
13718TIP3    H241035   8.187   3.794   6.409
13719TIP3   OH241036   9.332   2.234   5.075
13719TIP3    H141037   9.240   2.248   5.108
13719TIP3    H241038   9.336   2.295   4.999
13720TIP3   OH241039   8.062   2.959   5.399
13720TIP3    H141040   7.999   3.002   5.337
13720TIP3    H241041   8.024   2.871   5.407
13721TIP3   OH241042   9.120   3.592   4.613
13721TIP3    H141043   9.128   3.684   4.581
13721TIP3    H241044   9.209   3.557   4.589
13722TIP3   OH241045   7.849   3.341   6.299
13722TIP3    H141046   7.782   3.318   6.231
13722TIP3    H241047   7.883   3.254   6.326
13723TIP3   OH241048   7.699   3.534   5.933
13723TIP3    H141049   7.794   3.528   5.926
13723TIP3    H241050   7.685   3.614   5.985
13724TIP3   OH241051   9.561   3.985   5.982
13724TIP3    H141052   9.565   3.890   5.999
13724TIP3    H241053   9.480   4.008   6.034
13725TIP3   OH241054   8.669   3.773   6.119
13725TIP3    H141055   8.672   3.865   6.154
13725TIP3    H241056   8.599   3.733   6.177
13726TIP3   OH241057   8.432   3.905   5.070
13726TIP3    H141058   8.382   3.880   4.990
13726TIP3    H241059   8.396   3.993   5.092
13727TIP3   OH241060   7.870   3.752   5.456
13727TIP3    H141061   7.913   3.739   5.543
13727TIP3    H241062   7.807   3.678   5.457
13728TIP3   OH241063   8.635   3.802   4.719
13728TIP3    H141064   8.693   3.734   4.677
13728TIP3    H241065   8.671   3.806   4.809
13729TIP3   OH241066   8.684   3.847   5.002
13729TIP3    H141067   8.592   3.874   5.023
13729TIP3    H241068   8.693   3.775   5.066
13730TIP3   OH241069   9.462   3.122   6.255
13730TIP3    H141070   9.379   3.131   6.205
13730TIP3    H241071   9.478   3.026   6.249
13731TIP3   OH241072   8.050   3.526   6.294
13731TIP3    H141073   8.101   3.506   6.375
13731TIP3    H241074   7.978   3.460   6.298
13732TIP3   OH241075   8.451   2.349   6.069
13732TIP3    H141076   8.362   2.316   6.046
13732TIP3    H241077   8.426   2.431   6.115
13733TIP3   OH241078   8.983   2.466   6.266
13733TIP3    H141079   9.051   2.435   6.330
13733TIP3    H241080   8.899   2.443   6.311
13734TIP3   OH241081   9.224   2.893   6.185
13734TIP3    H141082   9.176   2.888   6.271
13734TIP3    H241083   9.199   2.980   6.151
13735TIP3   OH241084   8.884   3.034   4.745
13735TIP3    H141085   8.848   2.999   4.661
13735TIP3    H241086   8.969   3.072   4.713
13736TIP3   OH241087   8.598   2.399   5.043
13736TIP3    H141088   8.565   2.396   5.135
13736TIP3    H241089   8.560   2.316   5.009
13737TIP3   OH241090   8.383   2.862   6.094
13737TIP3    H141091   8.330   2.883   6.173
13737TIP3    H241092   8.367   2.942   6.038
13738TIP3   OH241093   8.266   2.750   5.606
13738TIP3    H141094   8.173   2.723   5.622
13738TIP3    H241095   8.280   2.710   5.517
13739TIP3   OH241096   8.759   2.838   5.332
13739TIP3    H141097   8.703   2.907   5.290
13739TIP3    H241098   8.812   2.806   5.256
13740TIP3   OH241099   8.931   3.119   6.424
13740TIP3    H141100   8.909   3.043   6.483
13740TIP3    H241101   9.027   3.128   6.441
13741TIP3   OH241102   8.915   2.867   5.572
13741TIP3    H141103   8.856   2.892   5.498
13741TIP3    H241104   8.949   2.783   5.534
13742TIP3   OH241105   8.201   2.893   6.301
13742TIP3    H141106   8.225   2.954   6.372
13742TIP3    H241107   8.188   2.809   6.349
13743TIP3   OH241108   8.253   2.370   5.010
13743TIP3    H141109   8.245   2.365   5.107
13743TIP3    H241110   8.170   2.417   4.987
13744TIP3   OH241111   7.794   2.419   5.880
13744TIP3    H141112   7.873   2.445   5.932
13744TIP3    H241113   7.830   2.380   5.799
13745TIP3   OH241114   7.776   2.397   5.402
13745TIP3    H141115   7.820   2.436   5.323
13745TIP3    H241116   7.712   2.469   5.422
13746TIP3   OH241117   8.928   3.114   5.997
13746TIP3    H141118   8.959   3.040   5.940
13746TIP3    H241119   8.898   3.062   6.075
13747TIP3   OH241120   8.591   2.579   5.669
13747TIP3    H141121   8.508   2.570   5.719
13747TIP3    H241122   8.657   2.570   5.739
13748TIP3   OH241123   8.028   2.625   5.677
13748TIP3    H141124   7.934   2.632   5.650
13748TIP3    H241125   8.051   2.533   5.653
13749TIP3   OH241126   8.300   2.629   5.363
13749TIP3    H141127   8.395   2.638   5.341
13749TIP3    H241128   8.255   2.648   5.278
13750TIP3   OH241129   9.081   2.650   5.869
13750TIP3    H141130   9.043   2.659   5.959
13750TIP3    H241131   9.023   2.584   5.830
13751TIP3   OH241132   8.134   2.658   5.144
13751TIP3    H141133   8.061   2.613   5.099
13751TIP3    H241134   8.186   2.691   5.067
13752TIP3   OH241135   9.251   4.336   6.086
13752TIP3    H141136   9.252   4.360   5.991
13752TIP3    H241137   9.328   4.386   6.119
13753TIP3   OH241138   8.213   3.449   6.510
13753TIP3    H141139   8.292   3.476   6.560
13753TIP3    H241140   8.147   3.444   6.582
13754TIP3   OH241141   8.679   2.901   5.767
13754TIP3    H141142   8.746   2.856   5.713
13754TIP3    H241143   8.689   2.857   5.853
13755TIP3   OH241144   8.205   2.389   5.639
13755TIP3    H141145   8.172   2.308   5.684
13755TIP3    H241146   8.257   2.352   5.566
13756TIP3   OH241147   8.655   2.793   6.053
13756TIP3    H141148   8.565   2.829   6.068
13756TIP3    H241149   8.712   2.852   6.106
13757TIP3   OH241150   8.388   3.191   5.150
13757TIP3    H141151   8.319   3.122   5.138
13757TIP3    H241152   8.371   3.220   5.243
13758TIP3   OH241153   9.291   3.425   5.781
13758TIP3    H141154   9.312   3.469   5.696
13758TIP3    H241155   9.207   3.379   5.761
13759TIP3   OH241156   8.850   2.501   5.010
13759TIP3    H141157   8.753   2.484   5.015
13759TIP3    H241158   8.858   2.596   5.031
13760TIP3   OH241159   8.796   3.509   6.144
13760TIP3    H141160   8.808   3.474   6.233
13760TIP3    H241161   8.750   3.593   6.159
13761TIP3   OH241162   8.920   2.748   5.115
13761TIP3    H141163   9.017   2.750   5.127
13761TIP3    H241164   8.904   2.823   5.055
13762TIP3   OH241165   8.088   3.214   5.827
13762TIP3    H141166   8.120   3.179   5.741
13762TIP3    H241167   8.113   3.142   5.888
13763TIP3   OH241168   8.537   3.341   4.973
13763TIP3    H141169   8.488   3.426   4.981
13763TIP3    H241170   8.481   3.282   5.029
13764TIP3   OH241171   7.961   3.131   6.439
13764TIP3    H141172   7.981   3.114   6.533
13764TIP3    H241173   7.892   3.064   6.421
13765TIP3   OH241174   8.686   3.242   6.458
13765TIP3    H141175   8.627   3.183   6.408
13765TIP3    H241176   8.774   3.208   6.431
13766TIP3   OH241177   8.951   3.774   6.035
13766TIP3    H141178   8.856   3.761   6.052
13766TIP3    H241179   8.979   3.818   6.117
13767TIP3   OH241180   9.356   2.829   4.962
13767TIP3    H141181   9.299   2.780   4.898
13767TIP3    H241182   9.381   2.902   4.902
13768TIP3   OH241183   9.578   3.686   6.026
13768TIP3    H141184   9.480   3.684   6.023
13768TIP3    H241185   9.599   3.654   5.937
13769TIP3   OH241186   9.054   3.619   4.893
13769TIP3    H141187   9.036   3.523   4.892
13769TIP3    H241188   9.073   3.629   4.797
13770TIP3   OH241189   9.058   3.285   5.703
13770TIP3    H141190   8.965   3.258   5.715
13770TIP3    H241191   9.091   3.206   5.655
13771TIP3   OH241192   8.180   3.514   5.450
13771TIP3    H141193   8.176   3.595   5.396
13771TIP3    H241194   8.087   3.490   5.456
13772TIP3   OH241195   7.745   2.817   5.151
13772TIP3    H141196   7.791   2.900   5.172
13772TIP3    H241197   7.668   2.822   5.211
13773TIP3   OH241198   8.330   3.285   5.400
13773TIP3    H141199   8.286   3.370   5.419
13773TIP3    H241200   8.293   3.228   5.469
13774TIP3   OH241201   8.450   3.863   5.923
13774TIP3    H141202   8.499   3.924   5.864
13774TIP3    H241203   8.523   3.823   5.973
13775TIP3   OH241204   8.107   3.750   5.307
13775TIP3    H141205   8.018   3.757   5.349
13775TIP3    H241206   8.134   3.844   5.305
13776TIP3   OH241207   8.847   3.492   5.876
13776TIP3    H141208   8.837   3.490   5.974
13776TIP3    H241209   8.922   3.433   5.863
13777TIP3   OH241210   8.812   3.385   4.761
13777TIP3    H141211   8.862   3.356   4.841
13777TIP3    H241212   8.723   3.353   4.783
13778TIP3   OH241213   9.091   4.026   5.929
13778TIP3    H141214   9.014   3.967   5.924
13778TIP3    H241215   9.072   4.090   5.857
13779TIP3   OH241216   9.154   3.863   4.583
13779TIP3    H141217   9.190   3.931   4.525
13779TIP3    H241218   9.074   3.911   4.613
13780TIP3   OH241219   8.176   2.636   6.449
13780TIP3    H141220   8.079   2.640   6.463
13780TIP3    H241221   8.202   2.572   6.517
13781TIP3   OH241222   8.981   3.336   4.984
13781TIP3    H141223   8.958   3.265   5.047
13781TIP3    H241224   9.074   3.311   4.964
13782TIP3   OH241225   7.903   3.729   6.080
13782TIP3    H141226   7.936   3.640   6.100
13782TIP3    H241227   7.917   3.772   6.166
13783TIP3   OH241228   8.185   3.364   4.759
13783TIP3    H141229   8.195   3.273   4.725
13783TIP3    H241230   8.163   3.347   4.853
13784TIP3   OH241231   8.129   3.368   5.032
13784TIP3    H141232   8.196   3.338   5.095
13784TIP3    H241233   8.135   3.466   5.040
13785TIP3   OH241234   7.868   3.065   5.234
13785TIP3    H141235   7.800   3.107   5.291
13785TIP3    H241236   7.879   3.134   5.167
13786TIP3   OH241237   9.005   2.703   6.130
13786TIP3    H141238   9.091   2.735   6.164
13786TIP3    H241239   8.992   2.620   6.182
13787TIP3   OH241240   8.884   2.456   5.290
13787TIP3    H141241   8.874   2.477   5.195
13787TIP3    H241242   8.926   2.537   5.325
13788TIP3   OH241243   8.398   3.575   4.992
13788TIP3    H141244   8.306   3.598   5.017
13788TIP3    H241245   8.405   3.623   4.908
13789TIP3   OH241246   8.584   2.629   5.394
13789TIP3    H141247   8.651   2.699   5.376
13789TIP3    H241248   8.587   2.623   5.491
13790TIP3   OH241249   8.851   2.952   6.202
13790TIP3    H141250   8.867   3.002   6.285
13790TIP3    H241251   8.905   2.872   6.215
13791TIP3   OH241252   8.728   2.363   5.500
13791TIP3    H141253   8.724   2.440   5.560
13791TIP3    H241254   8.786   2.399   5.429
13792TIP3   OH241255   8.137   3.642   5.047
13792TIP3    H141256   8.105   3.708   4.981
13792TIP3    H241257   8.116   3.687   5.131
13793TIP3   OH241258   8.236   2.353   5.287
13793TIP3    H141259   8.235   2.444   5.323
13793TIP3    H241260   8.332   2.333   5.295
13794TIP3   OH241261   9.491   2.852   6.181
13794TIP3    H141262   9.392   2.848   6.186
13794TIP3    H241263   9.504   2.813   6.093
13795TIP3   OH241264   9.134   3.051   5.567
13795TIP3    H141265   9.063   2.986   5.581
13795TIP3    H241266   9.209   3.007   5.614
13796TIP3   OH241267   7.853   3.276   5.043
13796TIP3    H141268   7.913   3.351   5.047
13796TIP3    H241269   7.900   3.222   4.975
13797TIP3   OH241270   7.801   2.549   5.175
13797TIP3    H141271   7.795   2.646   5.168
13797TIP3    H241272   7.718   2.521   5.134
13798TIP3   OH241273   9.109   3.990   5.515
13798TIP3    H141274   9.069   4.047   5.445
13798TIP3    H241275   9.204   4.012   5.500
13799TIP3   OH241276   8.186   2.269   6.051
13799TIP3    H141277   8.155   2.235   5.964
13799TIP3    H241278   8.176   2.190   6.108
13800TIP3   OH241279   7.732   3.495   5.436
13800TIP3    H141280   7.649   3.519   5.479
13800TIP3    H241281   7.713   3.525   5.344
13801TIP3   OH241282   7.881   4.024   6.493
13801TIP3    H141283   7.964   4.024   6.546
13801TIP3    H241284   7.857   3.929   6.497
13802TIP3   OH241285   8.372   4.000   6.537
13802TIP3    H141286   8.463   3.970   6.551
13802TIP3    H241287   8.342   3.937   6.468
13803TIP3   OH241288   8.351   3.568   4.683
13803TIP3    H141289   8.290   3.495   4.711
13803TIP3    H241290   8.420   3.516   4.639
13804TIP3   OH241291   9.004   3.896   6.276
13804TIP3    H141292   8.993   3.828   6.346
13804TIP3    H241293   9.081   3.947   6.308
13805TIP3   OH241294   8.787   3.616   4.587
13805TIP3    H141295   8.828   3.543   4.636
13805TIP3    H241296   8.834   3.614   4.502
13806TIP3   OH241297   8.013   3.433   6.700
13806TIP3    H141298   8.029   3.337   6.705
13806TIP3    H241299   7.924   3.435   6.659
13807TIP3   OH241300   7.988   3.089   4.891
13807TIP3    H141301   8.040   3.048   4.962
13807TIP3    H241302   8.056   3.092   4.819
13808TIP3   OH241303   8.622   3.516   6.472
13808TIP3    H141304   8.578   3.525   6.386
13808TIP3    H241305   8.653   3.423   6.471
13809TIP3   OH241306   8.498   3.283   4.700
13809TIP3    H141307   8.496   3.294   4.797
13809TIP3    H241308   8.497   3.185   4.693
13810TIP3   OH241309   9.114   3.520   6.079
13810TIP3    H141310   9.186   3.571   6.036
13810TIP3    H241311   9.039   3.581   6.068
13811TIP3   OH241312   8.132   3.167   6.679
13811TIP3    H141313   8.200   3.101   6.666
13811TIP3    H241314   8.154   3.199   6.770
13812TIP3   OH241315   8.205   2.986   5.121
13812TIP3    H141316   8.171   2.940   5.199
13812TIP3    H241317   8.236   2.912   5.066
13813TIP3   OH241318   8.466   3.054   6.347
13813TIP3    H141319   8.387   3.112   6.350
13813TIP3    H241320   8.511   3.084   6.265
13814TIP3   OH241321   8.295   2.780   4.958
13814TIP3    H141322   8.268   2.778   4.863
13814TIP3    H241323   8.393   2.786   4.950
13815TIP3   OH241324   8.984   3.456   6.480
13815TIP3    H141325   9.065   3.435   6.431
13815TIP3    H241326   8.981   3.385   6.545
13816TIP3   OH241327   9.121   3.116   4.617
13816TIP3    H141328   9.101   3.063   4.537
13816TIP3    H241329   9.089   3.204   4.588
13817TIP3   OH241330   8.590   2.838   6.473
13817TIP3    H141331   8.588   2.757   6.418
13817TIP3    H241332   8.546   2.903   6.414
13818TIP3   OH241333   8.591   2.627   6.277
13818TIP3    H141334   8.618   2.664   6.191
13818TIP3    H241335   8.498   2.602   6.260
13819TIP3   OH241336   8.625   3.167   6.152
13819TIP3    H141337   8.703   3.164   6.094
13819TIP3    H241338   8.568   3.232   6.106
13820TIP3   OH241339   9.207   3.131   6.536
13820TIP3    H141340   9.251   3.045   6.540
13820TIP3    H241341   9.277   3.188   6.502
13821TIP3   OH241342   9.244   3.382   6.270
13821TIP3    H141343   9.186   3.433   6.209
13821TIP3    H241344   9.331   3.399   6.229
13822TIP3   OH241345   8.465   2.958   6.698
13822TIP3    H141346   8.397   2.889   6.713
13822TIP3    H241347   8.501   2.931   6.611
13823TIP3   OH241348   8.724   2.392   6.342
13823TIP3    H141349   8.674   2.474   6.320
13823TIP3    H241350   8.655   2.323   6.330
13824TIP3   OH241351   8.849   2.899   6.560
13824TIP3    H141352   8.839   2.886   6.656
13824TIP3    H241353   8.759   2.872   6.531
13825TIP3   OH241354   9.091   2.850   6.417
13825TIP3    H141355   9.014   2.845   6.476
13825TIP3    H241356   9.163   2.813   6.473
13826TIP3   OH241357   9.320   2.784   6.568
13826TIP3    H141358   9.330   2.689   6.587
13826TIP3    H241359   9.316   2.824   6.658
13827TIP3   OH241360   8.308   2.737   6.750
13827TIP3    H141361   8.313   2.646   6.713
13827TIP3    H241362   8.342   2.721   6.840
13828TIP3   OH241363   8.821   2.401   6.599
13828TIP3    H141364   8.888   2.330   6.594
13828TIP3    H241365   8.780   2.393   6.510
13829TIP3   OH241366   8.885   2.615   6.760
13829TIP3    H141367   8.862   2.544   6.696
13829TIP3    H241368   8.808   2.675   6.752
13830TIP3   OH241369   8.104   3.846   4.862
13830TIP3    H141370   8.198   3.846   4.837
13830TIP3    H241371   8.067   3.888   4.783
13831TIP3   OH241372   7.585   3.224   5.080
13831TIP3    H141373   7.679   3.246   5.064
13831TIP3    H241374   7.578   3.136   5.037
13832TIP3   OH241375   7.498   3.839   5.488
13832TIP3    H141376   7.430   3.777   5.453
13832TIP3    H241377   7.541   3.782   5.555
13833TIP3   OH241378   7.635   3.697   5.677
13833TIP3    H141379   7.621   3.617   5.729
13833TIP3    H241380   7.679   3.754   5.742
13834TIP3   OH241381   9.360   4.088   5.477
13834TIP3    H141382   9.387   4.127   5.562
13834TIP3    H241383   9.415   4.136   5.414
13835TIP3   OH241384   9.393   4.111   5.758
13835TIP3    H141385   9.352   4.022   5.754
13835TIP3    H241386   9.467   4.092   5.817
13836TIP3   OH241387   9.437   3.788   6.328
13836TIP3    H141388   9.364   3.794   6.393
13836TIP3    H241389   9.477   3.877   6.335
13837TIP3   OH241390   9.247   3.309   4.954
13837TIP3    H141391   9.321   3.367   4.925
13837TIP3    H241392   9.290   3.261   5.029
13838TIP3   OH241393   9.366   3.172   5.153
13838TIP3    H141394   9.304   3.121   5.209
13838TIP3    H241395   9.431   3.205   5.219
13839TIP3   OH241396   9.430   3.553   5.581
13839TIP3    H141397   9.484   3.497   5.523
13839TIP3    H241398   9.423   3.636   5.531
13840TIP3   OH241399   9.268   3.859   5.782
13840TIP3    H141400   9.200   3.901   5.838
13840TIP3    H241401   9.214   3.809   5.717
13841TIP3   OH241402   9.326   3.087   4.799
13841TIP3    H141403   9.252   3.077   4.736
13841TIP3    H241404   9.290   3.157   4.856
13842TIP3   OH241405   9.179   2.753   4.768
13842TIP3    H141406   9.165   2.787   4.679
13842TIP3    H241407   9.156   2.658   4.755
13843TIP3   OH241408   9.196   3.021   5.303
13843TIP3    H141409   9.205   2.925   5.294
13843TIP3    H241410   9.182   3.032   5.399
13844TIP3   OH241411   7.824   3.099   6.047
13844TIP3    H141412   7.823   3.069   5.953
13844TIP3    H241413   7.920   3.099   6.065
13845TIP3   OH241414   9.485   3.447   6.157
13845TIP3    H141415   9.559   3.382   6.150
13845TIP3    H241416   9.516   3.519   6.100
13846TIP3   OH241417   9.682   3.264   6.184
13846TIP3    H141418   9.604   3.215   6.217
13846TIP3    H241419   9.748   3.192   6.193
13847TIP3   OH241420   9.131   2.487   4.754
13847TIP3    H141421   9.208   2.448   4.799
13847TIP3    H241422   9.059   2.424   4.771
13848TIP3   OH241423   9.196   2.741   5.199
13848TIP3    H141424   9.235   2.652   5.215
13848TIP3    H241425   9.251   2.770   5.124
13849TIP3   OH241426   9.345   2.936   5.685
13849TIP3    H141427   9.432   2.962   5.647
13849TIP3    H241428   9.367   2.940   5.780
13850TIP3   OH241429   9.422   3.059   5.933
13850TIP3    H141430   9.341   3.091   5.976
13850TIP3    H241431   9.452   3.138   5.883
13851TIP3   OH241432   8.041   2.789   6.728
13851TIP3    H141433   8.139   2.776   6.725
13851TIP3    H241434   8.014   2.703   6.766
13852TIP3   OH241435   9.300   2.489   5.243
13852TIP3    H141436   9.335   2.473   5.333
13852TIP3    H241437   9.241   2.412   5.233
13853TIP3   OH241438   8.001   2.477   6.055
13853TIP3    H141439   8.062   2.401   6.065
13853TIP3    H241440   8.065   2.550   6.050
13854TIP3   OH241441   7.807   2.752   6.130
13854TIP3    H141442   7.854   2.739   6.045
13854TIP3    H241443   7.839   2.839   6.155
13855TIP3   OH241444   9.729   2.783   6.305
13855TIP3    H141445   9.646   2.831   6.318
13855TIP3    H241446   9.703   2.726   6.231
13856TIP3   OH241447   9.384   2.416   4.861
13856TIP3    H141448   9.428   2.332   4.840
13856TIP3    H241449   9.429   2.476   4.797
13857TIP3   OH241450   7.787   2.262   5.634
13857TIP3    H141451   7.692   2.253   5.653
13857TIP3    H241452   7.786   2.315   5.551
13858TIP3   OH241453   8.008   2.337   6.445
13858TIP3    H141454   7.956   2.328   6.527
13858TIP3    H241455   7.940   2.373   6.384
13859TIP3   OH241456   8.048   3.761   6.522
13859TIP3    H141457   7.958   3.728   6.503
13859TIP3    H241458   8.057   3.739   6.616
13860TIP3   OH241459   8.225   3.788   6.071
13860TIP3    H141460   8.166   3.846   6.023
13860TIP3    H241461   8.310   3.807   6.027
13861TIP3   OH241462   8.675   4.036   6.202
13861TIP3    H141463   8.708   4.041   6.294
13861TIP3    H241464   8.742   4.089   6.154
13862TIP3   OH241465   8.851   4.192   6.057
13862TIP3    H141466   8.922   4.136   6.023
13862TIP3    H241467   8.901   4.247   6.122
13863TIP3   OH241468   9.639   2.553   6.171
13863TIP3    H141469   9.551   2.554   6.129
13863TIP3    H241470   9.674   2.468   6.140
13864TIP3   OH241471   7.910   4.071   6.101
13864TIP3    H141472   7.822   4.096   6.065
13864TIP3    H241473   7.883   4.052   6.192
13865TIP3   OH241474   8.136   4.056   5.960
13865TIP3    H141475   8.042   4.034   5.981
13865TIP3    H241476   8.131   4.066   5.862
13866TIP3   OH241477   8.566   4.061   5.741
13866TIP3    H141478   8.492   4.081   5.680
13866TIP3    H241479   8.581   4.148   5.783
13867TIP3   OH241480   8.833   3.999   5.791
13867TIP3    H141481   8.738   4.017   5.774
13867TIP3    H241482   8.876   4.078   5.757
13868TIP3   OH241483   9.039   4.190   5.713
13868TIP3    H141484   9.027   4.277   5.668
13868TIP3    H241485   9.066   4.133   5.638
13869TIP3   OH241486   7.821   3.850   5.841
13869TIP3    H141487   7.843   3.814   5.930
13869TIP3    H241488   7.884   3.800   5.786
13870TIP3   OH241489   8.005   3.715   5.693
13870TIP3    H141490   8.021   3.629   5.738
13870TIP3    H241491   8.096   3.749   5.682
13871TIP3   OH241492   8.275   3.812   5.693
13871TIP3    H141493   8.301   3.719   5.676
13871TIP3    H241494   8.320   3.826   5.778
13872TIP3   OH241495   8.846   2.467   5.780
13872TIP3    H141496   8.804   2.398   5.835
13872TIP3    H241497   8.918   2.418   5.736
13873TIP3   OH241498   9.372   2.355   5.710
13873TIP3    H141499   9.407   2.399   5.629
13873TIP3    H241500   9.276   2.359   5.694
13874TIP3   OH241501   9.461   2.445   5.472
13874TIP3    H141502   9.544   2.402   5.445
13874TIP3    H241503   9.484   2.540   5.459
13875TIP3   OH241504   8.099   2.177   5.802
13875TIP3    H141505   8.006   2.144   5.801
13875TIP3    H241506   8.148   2.092   5.798
13876TIP3   OH241507   7.885   2.043   5.446
13876TIP3    H141508   7.914   2.102   5.374
13876TIP3    H241509   7.853   2.107   5.512
13877TIP3   OH241510   8.538   2.211   5.679
13877TIP3    H141511   8.600   2.260   5.623
13877TIP3    H241512   8.559   2.245   5.767
13878TIP3   OH241513   9.089   2.355   5.665
13878TIP3    H141514   9.091   2.317   5.576
13878TIP3    H241515   9.076   2.273   5.719
13879TIP3   OH241516   9.108   2.279   5.229
13879TIP3    H141517   9.018   2.316   5.238
13879TIP3    H241518   9.097   2.194   5.277
13880TIP3   OH241519   7.602   3.613   5.231
13880TIP3    H141520   7.519   3.577   5.195
13880TIP3    H241521   7.587   3.707   5.213
13881TIP3   OH241522   7.998   2.206   5.211
13881TIP3    H141523   8.047   2.142   5.156
13881TIP3    H241524   8.072   2.258   5.249
13882TIP3   OH241525   8.513   2.379   5.310
13882TIP3    H141526   8.572   2.330   5.369
13882TIP3    H241527   8.538   2.471   5.336
13883TIP3   OH241528   8.373   3.812   4.806
13883TIP3    H141529   8.461   3.831   4.769
13883TIP3    H241530   8.350   3.734   4.751
13884TIP3   OH241531   9.088   3.910   4.906
13884TIP3    H141532   9.076   3.818   4.877
13884TIP3    H241533   9.046   3.959   4.832
13885TIP3   OH241534   8.306   2.460   6.693
13885TIP3    H141535   8.272   2.387   6.748
13885TIP3    H241536   8.401   2.459   6.718
13886TIP3   OH241537   8.556   2.455   6.811
13886TIP3    H141538   8.638   2.426   6.769
13886TIP3    H241539   8.542   2.385   6.878
13887TIP3   OH241540   7.679   3.645   4.868
13887TIP3    H141541   7.673   3.673   4.961
13887TIP3    H241542   7.767   3.603   4.862
13888TIP3   OH241543   9.376   2.514   6.599
13888TIP3    H141544   9.399   2.481   6.689
13888TIP3    H241545   9.463   2.509   6.554
13889TIP3   OH241546   9.320   4.069   6.091
13889TIP3    H141547   9.240   4.036   6.046
13889TIP3    H241548   9.301   4.165   6.092
13890TIP3   OH241549   9.540   2.951   5.133
13890TIP3    H141550   9.473   3.022   5.124
13890TIP3    H241551   9.495   2.880   5.083
13891TIP3   OH241552   9.597   3.238   5.284
13891TIP3    H141553   9.631   3.156   5.321
13891TIP3    H241554   9.633   3.231   5.193
13892TIP3   OH241555   9.449   3.474   4.870
13892TIP3    H141556   9.439   3.473   4.774
13892TIP3    H241557   9.487   3.563   4.886
13893TIP3   OH241558   9.640   3.579   5.773
13893TIP3    H141559   9.566   3.546   5.718
13893TIP3    H241560   9.674   3.497   5.814
13894TIP3   OH241561   9.498   3.790   5.422
13894TIP3    H141562   9.594   3.791   5.415
13894TIP3    H241563   9.482   3.871   5.473
13895TIP3   OH241564   9.638   4.008   4.958
13895TIP3    H141565   9.686   4.007   5.042
13895TIP3    H241566   9.580   3.931   4.967
13896TIP3   OH241567   9.780   3.806   5.802
13896TIP3    H141568   9.822   3.777   5.884
13896TIP3    H241569   9.719   3.731   5.785
13897TIP3   OH241570   9.553   2.690   5.399
13897TIP3    H141571   9.630   2.730   5.440
13897TIP3    H241572   9.566   2.710   5.305
13898TIP3   OH241573   9.744   3.382   5.930
13898TIP3    H141574   9.769   3.352   6.019
13898TIP3    H241575   9.677   3.315   5.906
13899TIP3   OH241576   9.523   3.149   4.618
13899TIP3    H141577   9.595   3.138   4.683
13899TIP3    H241578   9.446   3.120   4.672
13900TIP3   OH241579   9.689   3.980   5.569
13900TIP3    H141580   9.723   3.902   5.615
13900TIP3    H241581   9.710   4.049   5.634
13901TIP3   OH241582   9.521   3.743   4.927
13901TIP3    H141583   9.435   3.778   4.951
13901TIP3    H241584   9.527   3.778   4.836
13902TIP3   OH241585   9.672   4.275   5.988
13902TIP3    H141586   9.761   4.266   6.027
13902TIP3    H241587   9.647   4.181   5.983
13903TIP3   OH241588   9.807   3.713   6.173
13903TIP3    H141589   9.836   3.628   6.209
13903TIP3    H241590   9.721   3.692   6.132
13904TIP3   OH241591   9.376   3.487   4.559
13904TIP3    H141592   9.474   3.479   4.564
13904TIP3    H241593   9.357   3.403   4.511
13905TIP3   OH241594   9.284   4.091   4.976
13905TIP3    H141595   9.217   4.026   4.947
13905TIP3    H241596   9.334   4.039   5.043
13906TIP3   OH241597   9.423   3.947   5.168
13906TIP3    H141598   9.431   3.873   5.230
13906TIP3    H241599   9.473   4.016   5.216
13907TIP3   OH241600   9.639   3.353   5.532
13907TIP3    H141601   9.615   3.321   5.442
13907TIP3    H241602   9.727   3.392   5.516
13908TIP3   OH241603   9.818   3.032   6.195
13908TIP3    H141604   9.910   3.062   6.205
13908TIP3    H241605   9.814   2.956   6.256
13909TIP3   OH241606   9.590   3.032   5.586
13909TIP3    H141607   9.651   2.956   5.581
13909TIP3    H241608   9.644   3.101   5.626
13910TIP3   OH241609   9.546   2.565   5.099
13910TIP3    H141610   9.451   2.546   5.109
13910TIP3    H241611   9.555   2.571   5.003
13911TIP3   OH241612   9.839   4.023   6.024
13911TIP3    H141613   9.758   3.983   5.989
13911TIP3    H241614   9.844   3.983   6.112
13912TIP3   OH241615   9.692   4.303   5.578
13912TIP3    H141616   9.604   4.339   5.556
13912TIP3    H241617   9.703   4.340   5.666
13913TIP3   OH241618   9.918   4.334   5.424
13913TIP3    H141619   9.849   4.300   5.486
13913TIP3    H241620   9.914   4.268   5.353
13914TIP3   OH241621   9.610   4.104   5.322
13914TIP3    H141622   9.636   4.078   5.413
13914TIP3    H241623   9.683   4.061   5.271
13915TIP3   OH241624   9.809   3.987   5.172
13915TIP3    H141625   9.827   3.891   5.172
13915TIP3    H241626   9.900   4.023   5.168
13916TIP3   OH241627   9.392   3.868   4.723
13916TIP3    H141628   9.310   3.839   4.678
13916TIP3    H241629   9.387   3.963   4.706
13917TIP3   OH241630   9.498   3.915   4.364
13917TIP3    H141631   9.464   3.939   4.451
13917TIP3    H241632   9.553   3.838   4.383
13918TIP3   OH241633   1.239   3.968   7.065
13918TIP3    H141634   1.212   4.059   7.043
13918TIP3    H241635   1.165   3.918   7.024
13919TIP3   OH241636   1.237   3.972   7.439
13919TIP3    H141637   1.266   3.934   7.523
13919TIP3    H241638   1.198   3.896   7.393
13920TIP3   OH241639   0.539   3.868   7.801
13920TIP3    H141640   0.568   3.800   7.864
13920TIP3    H241641   0.616   3.925   7.799
13921TIP3   OH241642   1.480   4.274   7.120
13921TIP3    H141643   1.469   4.198   7.179
13921TIP3    H241644   1.510   4.344   7.180
13922TIP3   OH241645   0.517   4.276   7.533
13922TIP3    H141646   0.501   4.179   7.538
13922TIP3    H241647   0.613   4.277   7.528
13923TIP3   OH241648   0.184   3.483   7.311
13923TIP3    H141649   0.173   3.573   7.346
13923TIP3    H241650   0.159   3.429   7.387
13924TIP3   OH241651   0.286   3.768   7.485
13924TIP3    H141652   0.334   3.692   7.525
13924TIP3    H241653   0.340   3.787   7.407
13925TIP3   OH241654   1.130   4.736   7.139
13925TIP3    H141655   1.178   4.667   7.089
13925TIP3    H241656   1.127   4.696   7.227
13926TIP3   OH241657   1.039   4.196   7.487
13926TIP3    H141658   1.072   4.119   7.439
13926TIP3    H241659   1.125   4.238   7.509
13927TIP3   OH241660   2.049   3.516   7.485
13927TIP3    H141661   2.078   3.600   7.528
13927TIP3    H241662   2.071   3.534   7.392
13928TIP3   OH241663   1.449   3.699   7.524
13928TIP3    H141664   1.493   3.614   7.542
13928TIP3    H241665   1.421   3.686   7.432
13929TIP3   OH241666   0.785   3.357   7.489
13929TIP3    H141667   0.766   3.430   7.426
13929TIP3    H241668   0.738   3.283   7.444
13930TIP3   OH241669   1.479   3.448   7.113
13930TIP3    H141670   1.555   3.432   7.174
13930TIP3    H241671   1.526   3.483   7.036
13931TIP3   OH241672   0.423   3.559   7.588
13931TIP3    H141673   0.499   3.541   7.646
13931TIP3    H241674   0.443   3.498   7.513
13932TIP3   OH241675   0.864   3.758   7.383
13932TIP3    H141676   0.957   3.732   7.397
13932TIP3    H241677   0.824   3.674   7.352
13933TIP3   OH241678   2.124   3.723   7.656
13933TIP3    H141679   2.041   3.771   7.635
13933TIP3    H241680   2.134   3.745   7.750
13934TIP3   OH241681   0.785   3.340   7.921
13934TIP3    H141682   0.725   3.378   7.853
13934TIP3    H241683   0.734   3.360   8.002
13935TIP3   OH241684   1.135   4.191   6.936
13935TIP3    H141685   1.097   4.161   6.852
13935TIP3    H241686   1.089   4.276   6.949
13936TIP3   OH241687   0.894   4.114   7.721
13936TIP3    H141688   0.827   4.175   7.759
13936TIP3    H241689   0.932   4.168   7.649
13937TIP3   OH241690   1.695   3.447   7.278
13937TIP3    H141691   1.693   3.393   7.358
13937TIP3    H241692   1.752   3.522   7.304
13938TIP3   OH241693   0.654   3.456   7.708
13938TIP3    H141694   0.717   3.528   7.729
13938TIP3    H241695   0.701   3.414   7.632
13939TIP3   OH241696   0.719   4.304   7.813
13939TIP3    H141697   0.693   4.389   7.773
13939TIP3    H241698   0.641   4.290   7.872
13940TIP3   OH241699   0.175   4.027   6.997
13940TIP3    H141700   0.087   4.047   6.961
13940TIP3    H241701   0.173   4.072   7.083
13941TIP3   OH241702   1.555   4.514   7.295
13941TIP3    H141703   1.465   4.504   7.332
13941TIP3    H241704   1.546   4.598   7.246
13942TIP3   OH241705   1.842   3.420   7.654
13942TIP3    H141706   1.754   3.446   7.622
13942TIP3    H241707   1.901   3.448   7.581
13943TIP3   OH241708   1.146   3.062   7.633
13943TIP3    H141709   1.133   2.967   7.648
13943TIP3    H241710   1.067   3.099   7.680
13944TIP3   OH241711   1.260   4.568   6.968
13944TIP3    H141712   1.306   4.483   6.947
13944TIP3    H241713   1.319   4.630   6.920
13945TIP3   OH241714   1.396   4.351   6.868
13945TIP3    H141715   1.372   4.272   6.818
13945TIP3    H241716   1.430   4.311   6.952
13946TIP3   OH241717   1.781   4.431   7.633
13946TIP3    H141718   1.771   4.351   7.575
13946TIP3    H241719   1.766   4.503   7.569
13947TIP3   OH241720   1.068   3.825   6.895
13947TIP3    H141721   0.993   3.873   6.856
13947TIP3    H241722   1.124   3.805   6.817
13948TIP3   OH241723   1.975   4.064   7.478
13948TIP3    H141724   1.893   4.117   7.483
13948TIP3    H241725   2.004   4.086   7.387
13949TIP3   OH241726   1.430   3.923   6.868
13949TIP3    H141727   1.370   3.935   6.945
13949TIP3    H241728   1.508   3.883   6.911
13950TIP3   OH241729   1.655   3.946   7.770
13950TIP3    H141730   1.650   4.031   7.818
13950TIP3    H241731   1.568   3.947   7.725
13951TIP3   OH241732   0.652   3.904   7.278
13951TIP3    H141733   0.609   3.846   7.212
13951TIP3    H241734   0.729   3.850   7.305
13952TIP3   OH241735   0.785   4.319   7.425
13952TIP3    H141736   0.759   4.267   7.347
13952TIP3    H241737   0.874   4.282   7.444
13953TIP3   OH241738   0.796   3.871   7.634
13953TIP3    H141739   0.822   3.855   7.542
13953TIP3    H241740   0.833   3.959   7.653
13954TIP3   OH241741   1.310   4.513   7.409
13954TIP3    H141742   1.300   4.589   7.467
13954TIP3    H241743   1.300   4.436   7.470
13955TIP3   OH241744   0.924   4.433   7.956
13955TIP3    H141745   0.864   4.495   8.003
13955TIP3    H241746   0.859   4.378   7.908
13956TIP3   OH241747   1.260   3.763   6.712
13956TIP3    H141748   1.329   3.830   6.719
13956TIP3    H241749   1.247   3.748   6.615
13957TIP3   OH241750   0.688   3.993   8.049
13957TIP3    H141751   0.687   4.079   8.095
13957TIP3    H241752   0.595   3.966   8.062
13958TIP3   OH241753   0.999   4.446   6.964
13958TIP3    H141754   1.075   4.501   6.989
13958TIP3    H241755   0.938   4.508   6.923
13959TIP3   OH241756   0.721   4.607   8.043
13959TIP3    H141757   0.686   4.595   7.953
13959TIP3    H241758   0.651   4.566   8.099
13960TIP3   OH241759   1.776   3.005   6.736
13960TIP3    H141760   1.695   3.025   6.787
13960TIP3    H241761   1.789   3.088   6.686
13961TIP3   OH241762   0.517   3.744   7.090
13961TIP3    H141763   0.459   3.786   7.023
13961TIP3    H241764   0.475   3.658   7.100
13962TIP3   OH241765   1.576   4.374   6.290
13962TIP3    H141766   1.589   4.469   6.269
13962TIP3    H241767   1.665   4.337   6.274
13963TIP3   OH241768   0.304   4.143   7.984
13963TIP3    H141769   0.252   4.102   7.914
13963TIP3    H241770   0.337   4.063   8.029
13964TIP3   OH241771   2.017   4.771   7.676
13964TIP3    H141772   2.017   4.674   7.688
13964TIP3    H241773   1.934   4.795   7.723
13965TIP3   OH241774   1.122   4.561   7.812
13965TIP3    H141775   1.123   4.653   7.846
13965TIP3    H241776   1.052   4.521   7.867
13966TIP3   OH241777   0.879   4.689   6.766
13966TIP3    H141778   0.838   4.666   6.680
13966TIP3    H241779   0.850   4.781   6.779
13967TIP3   OH241780   0.359   4.532   7.123
13967TIP3    H141781   0.382   4.499   7.212
13967TIP3    H241782   0.279   4.481   7.099
13968TIP3   OH241783   1.090   4.595   6.407
13968TIP3    H141784   1.146   4.523   6.373
13968TIP3    H241785   1.118   4.600   6.501
13969TIP3   OH241786   1.132   4.633   6.678
13969TIP3    H141787   1.045   4.645   6.721
13969TIP3    H241788   1.180   4.583   6.746
13970TIP3   OH241789   1.907   3.905   7.952
13970TIP3    H141790   1.829   3.919   7.897
13970TIP3    H241791   1.923   3.809   7.940
13971TIP3   OH241792   0.510   4.319   7.983
13971TIP3    H141793   0.558   4.303   8.067
13971TIP3    H241794   0.440   4.250   7.986
13972TIP3   OH241795   0.905   3.136   7.761
13972TIP3    H141796   0.816   3.103   7.738
13972TIP3    H241797   0.880   3.220   7.803
13973TIP3   OH241798   1.436   3.253   7.956
13973TIP3    H141799   1.502   3.223   8.021
13973TIP3    H241800   1.351   3.231   8.000
13974TIP3   OH241801   1.680   3.681   7.876
13974TIP3    H141802   1.629   3.676   7.960
13974TIP3    H241803   1.653   3.767   7.839
13975TIP3   OH241804   1.045   3.187   6.731
13975TIP3    H141805   1.018   3.185   6.825
13975TIP3    H241806   1.010   3.101   6.701
13976TIP3   OH241807   0.837   3.650   7.783
13976TIP3    H141808   0.783   3.672   7.862
13976TIP3    H241809   0.821   3.730   7.727
13977TIP3   OH241810   0.719   3.536   7.296
13977TIP3    H141811   0.626   3.512   7.310
13977TIP3    H241812   0.734   3.497   7.207
13978TIP3   OH241813   1.209   3.623   7.020
13978TIP3    H141814   1.155   3.695   6.981
13978TIP3    H241815   1.263   3.595   6.943
13979TIP3   OH241816   1.383   3.906   8.114
13979TIP3    H141817   1.361   3.831   8.173
13979TIP3    H241818   1.479   3.916   8.131
13980TIP3   OH241819   1.367   3.655   7.263
13980TIP3    H141820   1.310   3.685   7.189
13980TIP3    H241821   1.400   3.572   7.221
13981TIP3   OH241822   0.659   3.682   7.989
13981TIP3    H141823   0.670   3.746   8.060
13981TIP3    H241824   0.642   3.599   8.038
13982TIP3   OH241825   0.703   3.155   6.700
13982TIP3    H141826   0.697   3.154   6.798
13982TIP3    H241827   0.623   3.205   6.677
13983TIP3   OH241828   0.244   3.224   7.542
13983TIP3    H141829   0.304   3.241   7.618
13983TIP3    H241830   0.288   3.148   7.501
13984TIP3   OH241831   0.236   3.207   7.107
13984TIP3    H141832   0.274   3.223   7.018
13984TIP3    H241833   0.178   3.283   7.114
13985TIP3   OH241834   1.381   3.901   7.689
13985TIP3    H141835   1.411   3.827   7.630
13985TIP3    H241836   1.349   3.849   7.766
13986TIP3   OH241837   1.043   3.361   7.359
13986TIP3    H141838   0.960   3.357   7.410
13986TIP3    H241839   1.109   3.363   7.429
13987TIP3   OH241840   0.477   3.413   7.361
13987TIP3    H141841   0.386   3.409   7.327
13987TIP3    H241842   0.510   3.322   7.345
13988TIP3   OH241843   0.753   3.414   7.052
13988TIP3    H141844   0.848   3.426   7.033
13988TIP3    H241845   0.709   3.437   6.968
13989TIP3   OH241846   1.538   3.436   7.560
13989TIP3    H141847   1.498   3.446   7.649
13989TIP3    H241848   1.476   3.373   7.519
13990TIP3   OH241849   0.586   3.446   6.831
13990TIP3    H141850   0.516   3.400   6.782
13990TIP3    H241851   0.640   3.480   6.757
13991TIP3   OH241852   1.704   5.124   7.776
13991TIP3    H141853   1.704   5.145   7.681
13991TIP3    H241854   1.782   5.174   7.808
13992TIP3   OH241855   0.673   4.230   8.198
13992TIP3    H141856   0.751   4.265   8.245
13992TIP3    H241857   0.605   4.239   8.267
13993TIP3   OH241858   1.130   3.686   7.455
13993TIP3    H141859   1.201   3.648   7.401
13993TIP3    H241860   1.145   3.644   7.541
13994TIP3   OH241861   0.656   3.178   7.329
13994TIP3    H141862   0.625   3.097   7.372
13994TIP3    H241863   0.710   3.144   7.256
13995TIP3   OH241864   1.107   3.578   7.748
13995TIP3    H141865   1.017   3.617   7.757
13995TIP3    H241866   1.164   3.641   7.797
13996TIP3   OH241867   0.837   3.982   6.836
13996TIP3    H141868   0.769   3.911   6.829
13996TIP3    H241869   0.826   4.010   6.930
13997TIP3   OH241870   1.745   4.212   7.472
13997TIP3    H141871   1.768   4.259   7.388
13997TIP3    H241872   1.660   4.169   7.448
13998TIP3   OH241873   1.303   3.284   6.701
13998TIP3    H141874   1.205   3.276   6.696
13998TIP3    H241875   1.316   3.381   6.708
13999TIP3   OH241876   1.249   4.296   7.836
13999TIP3    H141877   1.258   4.264   7.926
13999TIP3    H241878   1.202   4.381   7.846
14000TIP3   OH241879   1.372   3.532   6.806
14000TIP3    H141880   1.468   3.545   6.811
14000TIP3    H241881   1.342   3.607   6.751
14001TIP3   OH241882   0.542   4.002   7.517
14001TIP3    H141883   0.575   3.966   7.432
14001TIP3    H241884   0.561   3.931   7.579
14002TIP3   OH241885   0.985   4.126   6.655
14002TIP3    H141886   0.940   4.213   6.669
14002TIP3    H241887   0.934   4.070   6.717
14003TIP3   OH241888   0.440   3.917   8.129
14003TIP3    H141889   0.448   3.906   8.226
14003TIP3    H241890   0.349   3.884   8.111
14004TIP3   OH241891   1.138   4.030   8.149
14004TIP3    H141892   1.078   3.972   8.098
14004TIP3    H241893   1.225   3.996   8.120
14005TIP3   OH241894   1.405   4.560   7.727
14005TIP3    H141895   1.309   4.549   7.741
14005TIP3    H241896   1.430   4.606   7.809
14006TIP3   OH241897   1.816   3.621   6.640
14006TIP3    H141898   1.755   3.575   6.577
14006TIP3    H241899   1.811   3.710   6.598
14007TIP3   OH241900   2.032   4.481   7.722
14007TIP3    H141901   1.934   4.476   7.714
14007TIP3    H241902   2.057   4.449   7.632
14008TIP3   OH241903   1.513   4.444   6.553
14008TIP3    H141904   1.491   4.367   6.608
14008TIP3    H241905   1.528   4.403   6.465
14009TIP3   OH241906   1.509   4.072   7.394
14009TIP3    H141907   1.416   4.046   7.404
14009TIP3    H241908   1.544   3.994   7.346
14010TIP3   OH241909   0.637   4.301   7.141
14010TIP3    H141910   0.641   4.379   7.083
14010TIP3    H241911   0.542   4.285   7.147
14011TIP3   OH241912   0.198   3.607   6.845
14011TIP3    H141913   0.266   3.677   6.856
14011TIP3    H241914   0.124   3.650   6.890
14012TIP3   OH241915   0.779   4.068   7.087
14012TIP3    H141916   0.743   4.157   7.107
14012TIP3    H241917   0.742   4.016   7.161
14013TIP3   OH241918   0.903   4.648   7.610
14013TIP3    H141919   0.948   4.717   7.558
14013TIP3    H241920   0.977   4.609   7.659
14014TIP3   OH241921   0.585   4.542   6.981
14014TIP3    H141922   0.499   4.542   7.029
14014TIP3    H241923   0.606   4.638   6.983
14015TIP3   OH241924   1.299   4.280   7.567
14015TIP3    H141925   1.290   4.275   7.665
14015TIP3    H241926   1.374   4.222   7.551
14016TIP3   OH241927   1.263   4.175   6.453
14016TIP3    H141928   1.319   4.151   6.529
14016TIP3    H241929   1.178   4.139   6.482
14017TIP3   OH241930   1.542   4.816   7.622
14017TIP3    H141931   1.466   4.755   7.615
14017TIP3    H241932   1.525   4.878   7.548
14018TIP3   OH241933   1.594   4.660   6.280
14018TIP3    H141934   1.665   4.696   6.224
14018TIP3    H241935   1.517   4.697   6.235
14019TIP3   OH241936   0.635   3.421   8.144
14019TIP3    H141937   0.541   3.430   8.166
14019TIP3    H241938   0.664   3.355   8.210
14020TIP3   OH241939   1.426   4.116   6.672
14020TIP3    H141940   1.416   4.047   6.742
14020TIP3    H241941   1.521   4.106   6.653
14021TIP3   OH241942   0.374   4.530   7.764
14021TIP3    H141943   0.397   4.436   7.770
14021TIP3    H241944   0.382   4.556   7.857
14022TIP3   OH241945   0.633   4.154   6.450
14022TIP3    H141946   0.650   4.064   6.416
14022TIP3    H241947   0.616   4.137   6.544
14023TIP3   OH241948   0.581   4.156   6.725
14023TIP3    H141949   0.655   4.126   6.781
14023TIP3    H241950   0.589   4.254   6.730
14024TIP3   OH241951   0.338   3.836   6.905
14024TIP3    H141952   0.276   3.892   6.958
14024TIP3    H241953   0.359   3.902   6.837
14025TIP3   OH241954   1.459   3.491   7.820
14025TIP3    H141955   1.543   3.524   7.855
14025TIP3    H241956   1.445   3.408   7.871
14026TIP3   OH241957   1.338   3.243   6.979
14026TIP3    H141958   1.325   3.264   6.884
14026TIP3    H241959   1.378   3.326   7.013
14027TIP3   OH241960   0.845   4.357   6.676
14027TIP3    H141961   0.757   4.387   6.706
14027TIP3    H241962   0.861   4.417   6.602
14028TIP3   OH241963   1.034   3.417   7.082
14028TIP3    H141964   1.101   3.486   7.061
14028TIP3    H241965   1.041   3.412   7.180
14029TIP3   OH241966   1.302   3.739   7.893
14029TIP3    H141967   1.318   3.792   7.973
14029TIP3    H241968   1.358   3.661   7.906
14030TIP3   OH241969   1.181   3.151   7.189
14030TIP3    H141970   1.173   3.229   7.247
14030TIP3    H241971   1.240   3.187   7.118
14031TIP3   OH241972   0.584   4.429   6.731
14031TIP3    H141973   0.554   4.501   6.671
14031TIP3    H241974   0.579   4.474   6.819
14032TIP3   OH241975   0.689   3.142   6.977
14032TIP3    H141976   0.688   3.233   7.012
14032TIP3    H241977   0.785   3.122   6.986
14033TIP3   OH241978   1.947   3.638   7.871
14033TIP3    H141979   1.849   3.636   7.879
14033TIP3    H241980   1.956   3.598   7.784
14034TIP3   OH241981   1.594   3.834   7.263
14034TIP3    H141982   1.519   3.772   7.271
14034TIP3    H241983   1.666   3.785   7.308
14035TIP3   OH241984   0.314   4.073   6.722
14035TIP3    H141985   0.388   4.135   6.736
14035TIP3    H241986   0.355   4.015   6.655
14036TIP3   OH241987   0.248   3.334   6.868
14036TIP3    H141988   0.246   3.432   6.863
14036TIP3    H241989   0.180   3.307   6.805
14037TIP3   OH241990   1.561   4.787   7.212
14037TIP3    H141991   1.520   4.835   7.137
14037TIP3    H241992   1.656   4.805   7.193
14038TIP3   OH241993   0.642   3.053   7.742
14038TIP3    H141994   0.607   3.024   7.655
14038TIP3    H241995   0.624   2.974   7.798
14039TIP3   OH241996   0.202   4.252   7.158
14039TIP3    H141997   0.113   4.287   7.144
14039TIP3    H241998   0.240   4.265   7.070
14040TIP3   OH241999   0.817   4.791   8.231
14040TIP3    H142000   0.909   4.763   8.244
14040TIP3    H242001   0.790   4.730   8.160
14041TIP3   OH242002   0.801   4.357   6.369
14041TIP3    H142003   0.743   4.284   6.402
14041TIP3    H242004   0.874   4.306   6.330
14042TIP3   OH242005   1.454   4.687   7.968
14042TIP3    H142006   1.445   4.616   8.036
14042TIP3    H242007   1.533   4.735   7.999
14043TIP3   OH242008   1.238   4.404   6.277
14043TIP3    H142009   1.278   4.333   6.331
14043TIP3    H242010   1.290   4.398   6.193
14044TIP3   OH242011   0.484   4.206   8.397
14044TIP3    H142012   0.517   4.114   8.394
14044TIP3    H242013   0.389   4.189   8.379
14045TIP3   OH242014   0.444   3.876   6.581
14045TIP3    H142015   0.497   3.838   6.653
14045TIP3    H242016   0.511   3.879   6.510
14046TIP3   OH242017   1.074   4.304   8.163
14046TIP3    H142018   1.030   4.315   8.076
14046TIP3    H242019   1.104   4.211   8.159
14047TIP3   OH242020   0.945   4.065   6.390
14047TIP3    H142021   0.952   4.083   6.486
14047TIP3    H242022   0.952   3.968   6.388
14048TIP3   OH242023   1.567   4.310   7.771
14048TIP3    H142024   1.638   4.358   7.724
14048TIP3    H242025   1.492   4.370   7.757
14049TIP3   OH242026   0.571   3.939   8.387
14049TIP3    H142027   0.647   3.890   8.355
14049TIP3    H242028   0.603   3.976   8.472
14050TIP3   OH242029   0.653   3.774   6.808
14050TIP3    H142030   0.626   3.730   6.890
14050TIP3    H242031   0.687   3.698   6.755
14051TIP3   OH242032   0.922   3.843   8.038
14051TIP3    H142033   0.841   3.900   8.039
14051TIP3    H242034   0.965   3.871   7.955
14052TIP3   OH242035   0.746   3.567   6.644
14052TIP3    H142036   0.714   3.562   6.552
14052TIP3    H242037   0.841   3.579   6.629
14053TIP3   OH242038   1.436   4.244   8.171
14053TIP3    H142039   1.515   4.223   8.119
14053TIP3    H242040   1.434   4.172   8.236
14054TIP3   OH242041   1.588   3.904   6.295
14054TIP3    H142042   1.534   3.845   6.239
14054TIP3    H242043   1.549   3.990   6.269
14055TIP3   OH242044   1.042   3.626   8.163
14055TIP3    H142045   1.040   3.546   8.107
14055TIP3    H242046   0.999   3.692   8.105
14056TIP3   OH242047   1.043   3.412   7.967
14056TIP3    H142048   1.070   3.455   7.883
14056TIP3    H242049   0.949   3.390   7.949
14057TIP3   OH242050   1.079   3.955   7.841
14057TIP3    H142051   1.156   3.956   7.781
14057TIP3    H242052   1.019   4.019   7.798
14058TIP3   OH242053   1.659   3.919   8.227
14058TIP3    H142054   1.705   3.834   8.228
14058TIP3    H242055   1.726   3.977   8.189
14059TIP3   OH242056   1.697   4.170   7.961
14059TIP3    H142057   1.639   4.221   7.900
14059TIP3    H242058   1.784   4.189   7.919
14060TIP3   OH242059   0.916   3.746   8.388
14060TIP3    H142060   0.849   3.676   8.402
14060TIP3    H242061   0.952   3.721   8.301
14061TIP3   OH242062   1.177   3.180   8.033
14061TIP3    H142063   1.128   3.262   8.010
14061TIP3    H242064   1.107   3.112   8.019
14062TIP3   OH242065   1.302   3.686   8.250
14062TIP3    H142066   1.289   3.675   8.346
14062TIP3    H242067   1.212   3.660   8.220
14063TIP3   OH242068   1.543   3.636   8.106
14063TIP3    H142069   1.466   3.634   8.166
14063TIP3    H242070   1.615   3.601   8.163
14064TIP3   OH242071   1.773   3.572   8.258
14064TIP3    H142072   1.784   3.477   8.278
14064TIP3    H242073   1.769   3.612   8.348
14065TIP3   OH242074   0.756   3.529   8.437
14065TIP3    H142075   0.765   3.439   8.401
14065TIP3    H242076   0.797   3.515   8.526
14066TIP3   OH242077   1.271   3.187   8.290
14066TIP3    H142078   1.340   3.118   8.282
14066TIP3    H242079   1.231   3.182   8.201
14067TIP3   OH242080   1.337   3.404   8.448
14067TIP3    H142081   1.313   3.333   8.384
14067TIP3    H242082   1.260   3.465   8.442
14068TIP3   OH242083   0.556   4.638   6.552
14068TIP3    H142084   0.651   4.631   6.531
14068TIP3    H242085   0.525   4.678   6.468
14069TIP3   OH242086   0.047   4.029   6.711
14069TIP3    H142087   0.141   4.041   6.738
14069TIP3    H242088   0.044   3.932   6.699
14070TIP3   OH242089   1.809   4.887   7.164
14070TIP3    H142090   1.843   4.914   7.251
14070TIP3    H242091   1.877   4.920   7.104
14071TIP3   OH242092   1.845   4.900   7.447
14071TIP3    H142093   1.801   4.812   7.442
14071TIP3    H242094   1.920   4.876   7.503
14072TIP3   OH242095   1.890   4.576   8.020
14072TIP3    H142096   1.816   4.583   8.083
14072TIP3    H242097   1.930   4.665   8.025
14073TIP3   OH242098   1.703   4.093   6.644
14073TIP3    H142099   1.775   4.151   6.613
14073TIP3    H242100   1.746   4.049   6.720
14074TIP3   OH242101   1.834   3.958   6.844
14074TIP3    H142102   1.768   3.913   6.901
14074TIP3    H242103   1.896   3.996   6.909
14075TIP3   OH242104   1.886   4.346   7.278
14075TIP3    H142105   1.939   4.282   7.226
14075TIP3    H242106   1.875   4.420   7.215
14076TIP3   OH242107   1.722   4.650   7.473
14076TIP3    H142108   1.649   4.687   7.527
14076TIP3    H242109   1.673   4.598   7.405
14077TIP3   OH242110   1.771   3.864   6.494
14077TIP3    H142111   1.705   3.866   6.421
14077TIP3    H242112   1.740   3.941   6.545
14078TIP3   OH242113   1.650   3.532   6.445
14078TIP3    H142114   1.593   3.583   6.387
14078TIP3    H242115   1.617   3.441   6.429
14079TIP3   OH242116   1.652   3.809   6.995
14079TIP3    H142117   1.657   3.713   6.986
14079TIP3    H242118   1.639   3.821   7.091
14080TIP3   OH242119   0.277   3.925   7.718
14080TIP3    H142120   0.275   3.874   7.635
14080TIP3    H242121   0.367   3.903   7.751
14081TIP3   OH242122   1.938   4.236   7.849
14081TIP3    H142123   2.011   4.171   7.841
14081TIP3    H242124   1.965   4.305   7.786
14082TIP3   OH242125   2.124   4.046   7.875
14082TIP3    H142126   2.049   3.994   7.911
14082TIP3    H242127   2.197   3.980   7.885
14083TIP3   OH242128   1.593   3.264   6.430
14083TIP3    H142129   1.663   3.238   6.493
14083TIP3    H242130   1.513   3.218   6.462
14084TIP3   OH242131   1.649   3.530   6.893
14084TIP3    H142132   1.687   3.440   6.906
14084TIP3    H242133   1.703   3.560   6.818
14085TIP3   OH242134   1.808   3.706   7.383
14085TIP3    H142135   1.894   3.732   7.343
14085TIP3    H242136   1.822   3.741   7.473
14086TIP3   OH242137   1.875   3.846   7.618
14086TIP3    H142138   1.795   3.880   7.663
14086TIP3    H242139   1.907   3.925   7.571
14087TIP3   OH242140   0.486   3.561   8.421
14087TIP3    H142141   0.582   3.572   8.406
14087TIP3    H242142   0.488   3.485   8.481
14088TIP3   OH242143   2.327   3.434   8.173
14088TIP3    H142144   2.385   3.368   8.129
14088TIP3    H242145   2.300   3.491   8.098
14089TIP3   OH242146   1.754   3.277   6.926
14089TIP3    H142147   1.802   3.260   7.009
14089TIP3    H242148   1.693   3.200   6.924
14090TIP3   OH242149   0.452   3.255   7.731
14090TIP3    H142150   0.520   3.187   7.748
14090TIP3    H242151   0.504   3.337   7.741
14091TIP3   OH242152   0.290   3.549   7.841
14091TIP3    H142153   0.309   3.529   7.748
14091TIP3    H242154   0.262   3.641   7.838
14092TIP3   OH242155   2.200   3.579   7.981
14092TIP3    H142156   2.111   3.616   7.997
14092TIP3    H242157   2.177   3.508   7.918
14093TIP3   OH242158   1.840   3.214   6.561
14093TIP3    H142159   1.876   3.141   6.506
14093TIP3    H242160   1.903   3.286   6.545
14094TIP3   OH242161   0.235   3.030   7.305
14094TIP3    H142162   0.149   3.058   7.337
14094TIP3    H242163   0.250   3.095   7.233
14095TIP3   OH242164   1.392   4.759   6.819
14095TIP3    H142165   1.443   4.723   6.743
14095TIP3    H242166   1.460   4.801   6.873
14096TIP3   OH242167   0.457   3.130   8.148
14096TIP3    H142168   0.394   3.115   8.220
14096TIP3    H242169   0.399   3.164   8.079
14097TIP3   OH242170   0.534   4.510   8.220
14097TIP3    H142171   0.444   4.537   8.197
14097TIP3    H242172   0.529   4.510   8.317
14098TIP3   OH242173   0.683   4.574   7.762
14098TIP3    H142174   0.625   4.642   7.723
14098TIP3    H242175   0.766   4.595   7.715
14099TIP3   OH242176   1.126   4.828   7.897
14099TIP3    H142177   1.168   4.828   7.986
14099TIP3    H242178   1.193   4.876   7.844
14100TIP3   OH242179   1.304   4.976   7.751
14100TIP3    H142180   1.374   4.923   7.711
14100TIP3    H242181   1.355   5.032   7.813
14101TIP3   OH242182   2.095   3.340   7.856
14101TIP3    H142183   2.005   3.337   7.820
14101TIP3    H242184   2.124   3.247   7.842
14102TIP3   OH242185   0.589   4.821   7.647
14102TIP3    H142186   0.500   4.819   7.685
14102TIP3    H242187   0.570   4.847   7.555
14103TIP3   OH242188   1.018   4.849   7.435
14103TIP3    H142189   0.951   4.871   7.369
14103TIP3    H242190   1.032   4.935   7.480
14104TIP3   OH242191   1.285   4.789   7.488
14104TIP3    H142192   1.191   4.802   7.465
14104TIP3    H242193   1.327   4.865   7.445
14105TIP3   OH242194   1.496   4.980   7.405
14105TIP3    H142195   1.482   5.064   7.355
14105TIP3    H242196   1.521   4.918   7.334
14106TIP3   OH242197   0.317   4.656   7.517
14106TIP3    H142198   0.335   4.613   7.603
14106TIP3    H242199   0.368   4.595   7.460
14107TIP3   OH242200   0.466   4.485   7.370
14107TIP3    H142201   0.480   4.404   7.426
14107TIP3    H242202   0.556   4.522   7.368
14108TIP3   OH242203   0.728   4.603   7.383
14108TIP3    H142204   0.757   4.512   7.364
14108TIP3    H242205   0.771   4.616   7.470
14109TIP3   OH242206   1.302   3.257   7.474
14109TIP3    H142207   1.257   3.187   7.525
14109TIP3    H242208   1.370   3.207   7.425
14110TIP3   OH242209   1.828   3.139   7.384
14110TIP3    H142210   1.865   3.187   7.306
14110TIP3    H242211   1.732   3.151   7.372
14111TIP3   OH242212   1.921   3.236   7.145
14111TIP3    H142213   1.992   3.185   7.102
14111TIP3    H242214   1.953   3.328   7.128
14112TIP3   OH242215   0.550   2.964   7.493
14112TIP3    H142216   0.458   2.930   7.487
14112TIP3    H242217   0.600   2.880   7.487
14113TIP3   OH242218   0.349   2.827   7.144
14113TIP3    H142219   0.364   2.883   7.066
14113TIP3    H242220   0.309   2.893   7.206
14114TIP3   OH242221   0.991   2.997   7.370
14114TIP3    H142222   1.050   3.048   7.312
14114TIP3    H242223   1.011   3.035   7.456
14115TIP3   OH242224   1.546   3.141   7.355
14115TIP3    H142225   1.538   3.110   7.264
14115TIP3    H242226   1.528   3.059   7.406
14116TIP3   OH242227   1.571   3.063   6.916
14116TIP3    H142228   1.482   3.105   6.920
14116TIP3    H242229   1.554   2.979   6.964
14117TIP3   OH242230   0.452   2.993   6.902
14117TIP3    H142231   0.502   2.932   6.844
14117TIP3    H242232   0.525   3.047   6.940
14118TIP3   OH242233   0.966   3.165   7.003
14118TIP3    H142234   1.029   3.120   7.061
14118TIP3    H242235   0.989   3.258   7.025
14119TIP3   OH242236   0.826   4.599   6.497
14119TIP3    H142237   0.916   4.618   6.463
14119TIP3    H242238   0.805   4.521   6.440
14120TIP3   OH242239   1.523   4.713   6.570
14120TIP3    H142240   1.524   4.615   6.587
14120TIP3    H242241   1.547   4.708   6.476
14121TIP3   OH242242   0.757   3.247   8.379
14121TIP3    H142243   0.723   3.174   8.434
14121TIP3    H242244   0.851   3.247   8.408
14122TIP3   OH242245   1.008   3.238   8.501
14122TIP3    H142246   1.091   3.215   8.457
14122TIP3    H242247   0.996   3.163   8.562
14123TIP3   OH242248   0.146   4.436   6.587
14123TIP3    H142249   0.173   4.523   6.622
14123TIP3    H242250   0.230   4.396   6.556
14124TIP3   OH242251   1.831   3.301   8.289
14124TIP3    H142252   1.853   3.268   8.378
14124TIP3    H242253   1.918   3.298   8.243
14125TIP3   OH242254   1.773   4.857   7.781
14125TIP3    H142255   1.694   4.822   7.734
14125TIP3    H242256   1.752   4.952   7.782
14126TIP3   OH242257   3.035   4.226   6.550
14126TIP3    H142258   3.008   4.318   6.527
14126TIP3    H242259   2.959   4.178   6.513
14127TIP3   OH242260   3.035   4.228   6.924
14127TIP3    H142261   3.062   4.190   7.010
14127TIP3    H242262   2.994   4.152   6.881
14128TIP3   OH242263   2.336   4.127   7.295
14128TIP3    H142264   2.370   4.058   7.355
14128TIP3    H242265   2.416   4.178   7.278
14129TIP3   OH242266   3.279   4.524   6.607
14129TIP3    H142267   3.265   4.455   6.672
14129TIP3    H242268   3.305   4.600   6.661
14130TIP3   OH242269   2.306   4.531   7.025
14130TIP3    H142270   2.298   4.433   7.026
14130TIP3    H242271   2.402   4.539   7.011
14131TIP3   OH242272   2.012   3.738   6.809
14131TIP3    H142273   1.961   3.821   6.815
14131TIP3    H242274   1.945   3.680   6.770
14132TIP3   OH242275   2.077   4.026   6.973
14132TIP3    H142276   2.123   3.947   7.009
14132TIP3    H242277   2.128   4.043   6.893
14133TIP3   OH242278   2.928   4.993   6.628
14133TIP3    H142279   2.972   4.924   6.573
14133TIP3    H242280   2.923   4.948   6.713
14134TIP3   OH242281   2.834   4.452   6.977
14134TIP3    H142282   2.867   4.377   6.925
14134TIP3    H242283   2.921   4.494   6.997
14135TIP3   OH242284   3.845   3.773   6.972
14135TIP3    H142285   3.874   3.856   7.016
14135TIP3    H242286   3.866   3.793   6.879
14136TIP3   OH242287   3.246   3.956   7.011
14136TIP3    H142288   3.289   3.870   7.030
14136TIP3    H242289   3.217   3.943   6.919
14137TIP3   OH242290   2.581   3.614   6.976
14137TIP3    H142291   2.561   3.686   6.912
14137TIP3    H242292   2.535   3.539   6.930
14138TIP3   OH242293   3.276   3.704   6.599
14138TIP3    H142294   3.350   3.687   6.662
14138TIP3    H242295   3.325   3.740   6.524
14139TIP3   OH242296   2.217   3.816   7.081
14139TIP3    H142297   2.301   3.794   7.126
14139TIP3    H242298   2.227   3.760   7.001
14140TIP3   OH242299   2.659   4.014   6.873
14140TIP3    H142300   2.753   3.987   6.885
14140TIP3    H242301   2.619   3.931   6.839
14141TIP3   OH242302   3.920   3.979   7.143
14141TIP3    H142303   3.837   4.028   7.123
14141TIP3    H242304   3.931   4.002   7.236
14142TIP3   OH242305   2.581   3.598   7.408
14142TIP3    H142306   2.520   3.633   7.340
14142TIP3    H242307   2.530   3.616   7.489
14143TIP3   OH242308   2.930   4.445   6.418
14143TIP3    H142309   2.892   4.424   6.330
14143TIP3    H242310   2.886   4.529   6.438
14144TIP3   OH242311   2.689   4.371   7.208
14144TIP3    H142312   2.624   4.435   7.245
14144TIP3    H242313   2.728   4.423   7.135
14145TIP3   OH242314   3.492   3.704   6.765
14145TIP3    H142315   3.487   3.651   6.845
14145TIP3    H242316   3.547   3.779   6.792
14146TIP3   OH242317   2.451   3.712   7.194
14146TIP3    H142318   2.515   3.783   7.215
14146TIP3    H242319   2.497   3.670   7.117
14147TIP3   OH242320   2.513   4.563   7.304
14147TIP3    H142321   2.487   4.645   7.258
14147TIP3    H242322   2.434   4.549   7.359
14148TIP3   OH242323   1.910   4.251   6.538
14148TIP3    H142324   1.874   4.270   6.448
14148TIP3    H242325   1.941   4.338   6.568
14149TIP3   OH242326   3.352   4.770   6.782
14149TIP3    H142327   3.261   4.762   6.818
14149TIP3    H242328   3.343   4.853   6.731
14150TIP3   OH242329   3.638   3.676   7.140
14150TIP3    H142330   3.551   3.704   7.109
14150TIP3    H242331   3.697   3.705   7.067
14151TIP3   OH242332   2.942   3.319   7.121
14151TIP3    H142333   2.929   3.223   7.136
14151TIP3    H242334   2.863   3.355   7.167
14152TIP3   OH242335   3.057   4.820   6.461
14152TIP3    H142336   3.103   4.737   6.434
14152TIP3    H242337   3.111   4.885   6.410
14153TIP3   OH242338   3.191   4.605   6.356
14153TIP3    H142339   3.161   4.528   6.307
14153TIP3    H242340   3.227   4.564   6.438
14154TIP3   OH242341   3.577   4.686   7.120
14154TIP3    H142342   3.567   4.608   7.062
14154TIP3    H242343   3.562   4.760   7.057
14155TIP3   OH242344   2.868   4.079   6.376
14155TIP3    H142345   2.787   4.131   6.355
14155TIP3    H242346   2.913   4.078   6.290
14156TIP3   OH242347   2.829   3.860   6.101
14156TIP3    H142348   2.899   3.910   6.147
14156TIP3    H242349   2.884   3.798   6.050
14157TIP3   OH242350   3.771   4.320   6.964
14157TIP3    H142351   3.689   4.373   6.970
14157TIP3    H242352   3.801   4.343   6.873
14158TIP3   OH242353   3.214   4.159   6.352
14158TIP3    H142354   3.159   4.186   6.429
14158TIP3    H242355   3.297   4.134   6.396
14159TIP3   OH242356   3.451   4.203   7.257
14159TIP3    H142357   3.447   4.287   7.305
14159TIP3    H242358   3.364   4.205   7.212
14160TIP3   OH242359   2.445   4.161   6.767
14160TIP3    H142360   2.402   4.104   6.699
14160TIP3    H242361   2.523   4.107   6.791
14161TIP3   OH242362   2.575   4.568   6.917
14161TIP3    H142363   2.553   4.528   6.832
14161TIP3    H242364   2.666   4.536   6.932
14162TIP3   OH242365   2.586   4.129   7.122
14162TIP3    H142366   2.615   4.109   7.031
14162TIP3    H242367   2.628   4.216   7.140
14163TIP3   OH242368   3.107   4.770   6.897
14163TIP3    H142369   3.095   4.846   6.955
14163TIP3    H242370   3.096   4.693   6.957
14164TIP3   OH242371   2.720   4.691   7.443
14164TIP3    H142372   2.659   4.751   7.490
14164TIP3    H242373   2.655   4.634   7.395
14165TIP3   OH242374   3.059   4.016   6.175
14165TIP3    H142375   3.115   4.077   6.228
14165TIP3    H242376   3.086   4.040   6.083
14166TIP3   OH242377   2.475   4.246   7.543
14166TIP3    H142378   2.476   4.332   7.591
14166TIP3    H242379   2.379   4.226   7.545
14167TIP3   OH242380   2.794   4.706   6.464
14167TIP3    H142381   2.875   4.759   6.471
14167TIP3    H242382   2.737   4.759   6.406
14168TIP3   OH242383   2.514   4.865   7.533
14168TIP3    H142384   2.483   4.857   7.440
14168TIP3    H242385   2.436   4.836   7.584
14169TIP3   OH242386   3.572   3.261   6.222
14169TIP3    H142387   3.491   3.279   6.274
14169TIP3    H242388   3.583   3.346   6.173
14170TIP3   OH242389   2.310   4.002   6.577
14170TIP3    H142390   2.252   4.049   6.514
14170TIP3    H242391   2.268   3.915   6.580
14171TIP3   OH242392   3.373   4.629   5.767
14171TIP3    H142393   3.376   4.726   5.752
14171TIP3    H242394   3.467   4.605   5.762
14172TIP3   OH242395   2.095   4.386   7.477
14172TIP3    H142396   2.032   4.362   7.406
14172TIP3    H242397   2.131   4.299   7.504
14173TIP3   OH242398   1.948   4.579   7.112
14173TIP3    H142399   2.043   4.566   7.099
14173TIP3    H242400   1.946   4.658   7.167
14174TIP3   OH242401   3.814   5.027   7.164
14174TIP3    H142402   3.813   4.930   7.175
14174TIP3    H242403   3.730   5.051   7.210
14175TIP3   OH242404   2.920   4.817   7.301
14175TIP3    H142405   2.919   4.910   7.332
14175TIP3    H242406   2.848   4.778   7.354
14176TIP3   OH242407   2.658   4.945   6.257
14176TIP3    H142408   2.627   4.921   6.169
14176TIP3    H242409   2.651   5.042   6.257
14177TIP3   OH242410   2.115   4.799   6.636
14177TIP3    H142411   2.165   4.785   6.719
14177TIP3    H242412   2.061   4.718   6.634
14178TIP3   OH242413   2.931   4.922   6.196
14178TIP3    H142414   2.838   4.898   6.210
14178TIP3    H242415   2.977   4.839   6.212
14179TIP3   OH242416   3.703   4.162   7.439
14179TIP3    H142417   3.625   4.176   7.384
14179TIP3    H242418   3.719   4.066   7.427
14180TIP3   OH242419   2.298   4.572   7.472
14180TIP3    H142420   2.351   4.549   7.552
14180TIP3    H242421   2.226   4.505   7.476
14181TIP3   OH242422   2.700   3.392   7.247
14181TIP3    H142423   2.610   3.361   7.223
14181TIP3    H242424   2.676   3.476   7.290
14182TIP3   OH242425   3.232   3.510   7.443
14182TIP3    H142426   3.299   3.480   7.508
14182TIP3    H242427   3.147   3.488   7.487
14183TIP3   OH242428   3.475   3.937   7.362
14183TIP3    H142429   3.425   3.933   7.447
14183TIP3    H242430   3.449   4.024   7.326
14184TIP3   OH242431   3.134   4.059   5.919
14184TIP3    H142432   3.101   4.036   5.830
14184TIP3    H242433   3.191   4.135   5.899
14185TIP3   OH242434   2.848   3.441   6.220
14185TIP3    H142435   2.814   3.441   6.311
14185TIP3    H242436   2.807   3.359   6.187
14186TIP3   OH242437   2.631   3.907   7.269
14186TIP3    H142438   2.579   3.930   7.349
14186TIP3    H242439   2.616   3.987   7.214
14187TIP3   OH242440   2.516   3.793   6.783
14187TIP3    H142441   2.422   3.769   6.797
14187TIP3    H242442   2.530   3.754   6.693
14188TIP3   OH242443   3.005   3.881   6.508
14188TIP3    H142444   2.950   3.952   6.469
14188TIP3    H242445   3.058   3.853   6.431
14189TIP3   OH242446   3.180   4.163   7.601
14189TIP3    H142447   3.158   4.088   7.660
14189TIP3    H242448   3.275   4.173   7.618
14190TIP3   OH242449   3.164   3.911   6.750
14190TIP3    H142450   3.106   3.942   6.678
14190TIP3    H242451   3.195   3.828   6.708
14191TIP3   OH242452   2.449   3.938   7.478
14191TIP3    H142453   2.477   4.000   7.547
14191TIP3    H242454   2.438   3.855   7.527
14192TIP3   OH242455   2.500   3.413   6.188
14192TIP3    H142456   2.491   3.410   6.285
14192TIP3    H242457   2.421   3.465   6.164
14193TIP3   OH242458   2.042   3.461   7.060
14193TIP3    H142459   2.122   3.490   7.109
14193TIP3    H242460   2.077   3.428   6.976
14194TIP3   OH242461   2.025   3.443   6.580
14194TIP3    H142462   2.067   3.481   6.499
14194TIP3    H242463   1.960   3.514   6.599
14195TIP3   OH242464   3.176   4.157   7.176
14195TIP3    H142465   3.207   4.084   7.117
14195TIP3    H242466   3.146   4.105   7.253
14196TIP3   OH242467   2.840   3.618   6.846
14196TIP3    H142468   2.756   3.614   6.895
14196TIP3    H242469   2.905   3.619   6.917
14197TIP3   OH242470   2.275   3.670   6.855
14197TIP3    H142471   2.181   3.678   6.827
14197TIP3    H242472   2.299   3.579   6.829
14198TIP3   OH242473   2.550   3.672   6.539
14198TIP3    H142474   2.644   3.685   6.515
14198TIP3    H242475   2.502   3.692   6.456
14199TIP3   OH242476   3.333   3.692   7.046
14199TIP3    H142477   3.295   3.703   7.136
14199TIP3    H242478   3.271   3.629   7.007
14200TIP3   OH242479   2.384   3.698   6.322
14200TIP3    H142480   2.311   3.657   6.273
14200TIP3    H242481   2.436   3.735   6.247
14201TIP3   OH242482   3.498   5.382   7.263
14201TIP3    H142483   3.500   5.402   7.167
14201TIP3    H242484   3.579   5.429   7.293
14202TIP3   OH242485   2.461   4.493   7.687
14202TIP3    H142486   2.541   4.521   7.735
14202TIP3    H242487   2.397   4.489   7.761
14203TIP3   OH242488   2.927   3.942   6.942
14203TIP3    H142489   2.997   3.904   6.888
14203TIP3    H242490   2.941   3.900   7.029
14204TIP3   OH242491   2.455   3.433   6.816
14204TIP3    H142492   2.421   3.352   6.858
14204TIP3    H242493   2.503   3.399   6.740
14205TIP3   OH242494   2.903   3.835   7.235
14205TIP3    H142495   2.814   3.874   7.244
14205TIP3    H242496   2.960   3.897   7.284
14206TIP3   OH242497   2.637   4.230   6.327
14206TIP3    H142498   2.564   4.166   6.317
14206TIP3    H242499   2.620   4.265   6.418
14207TIP3   OH242500   3.541   4.468   6.958
14207TIP3    H142501   3.565   4.516   6.876
14207TIP3    H242502   3.456   4.426   6.934
14208TIP3   OH242503   3.099   3.546   6.183
14208TIP3    H142504   3.002   3.530   6.190
14208TIP3    H242505   3.109   3.640   6.207
14209TIP3   OH242506   3.043   4.551   7.323
14209TIP3    H142507   3.056   4.522   7.414
14209TIP3    H242508   3.000   4.637   7.332
14210TIP3   OH242509   3.169   3.790   6.290
14210TIP3    H142510   3.265   3.798   6.305
14210TIP3    H242511   3.149   3.870   6.237
14211TIP3   OH242512   2.333   4.255   7.005
14211TIP3    H142513   2.366   4.227   6.917
14211TIP3    H242514   2.366   4.185   7.062
14212TIP3   OH242515   2.806   4.392   6.170
14212TIP3    H142516   2.752   4.473   6.159
14212TIP3    H242517   2.739   4.329   6.203
14213TIP3   OH242518   2.207   4.177   7.617
14213TIP3    H142519   2.231   4.160   7.710
14213TIP3    H242520   2.141   4.108   7.599
14214TIP3   OH242521   2.934   4.286   7.635
14214TIP3    H142522   2.877   4.229   7.582
14214TIP3    H242523   3.023   4.254   7.608
14215TIP3   OH242524   3.202   4.814   7.217
14215TIP3    H142525   3.106   4.805   7.228
14215TIP3    H242526   3.226   4.864   7.298
14216TIP3   OH242527   3.612   3.878   6.127
14216TIP3    H142528   3.549   3.833   6.066
14216TIP3    H242529   3.608   3.967   6.087
14217TIP3   OH242530   3.827   4.736   7.209
14217TIP3    H142531   3.729   4.732   7.201
14217TIP3    H242532   3.853   4.706   7.119
14218TIP3   OH242533   3.322   4.696   6.036
14218TIP3    H142534   3.280   4.629   6.092
14218TIP3    H242535   3.317   4.656   5.947
14219TIP3   OH242536   3.305   4.328   6.882
14219TIP3    H142537   3.211   4.302   6.891
14219TIP3    H242538   3.340   4.251   6.833
14220TIP3   OH242539   2.430   4.558   6.636
14220TIP3    H142540   2.438   4.634   6.575
14220TIP3    H242541   2.337   4.533   6.623
14221TIP3   OH242542   1.995   3.859   6.328
14221TIP3    H142543   2.040   3.944   6.343
14221TIP3    H242544   1.916   3.868   6.385
14222TIP3   OH242545   2.577   4.325   6.578
14222TIP3    H142546   2.541   4.415   6.593
14222TIP3    H242547   2.534   4.275   6.650
14223TIP3   OH242548   2.699   4.902   7.099
14223TIP3    H142549   2.740   4.972   7.044
14223TIP3    H242550   2.777   4.866   7.144
14224TIP3   OH242551   2.352   4.795   6.484
14224TIP3    H142552   2.264   4.803   6.526
14224TIP3    H242553   2.381   4.888   6.482
14225TIP3   OH242554   3.094   4.536   7.054
14225TIP3    H142555   3.087   4.531   7.152
14225TIP3    H242556   3.171   4.479   7.037
14226TIP3   OH242557   3.057   4.386   5.939
14226TIP3    H142558   3.106   4.389   6.024
14226TIP3    H242559   2.968   4.410   5.968
14227TIP3   OH242560   3.337   5.075   7.109
14227TIP3    H142561   3.261   5.014   7.099
14227TIP3    H242562   3.323   5.137   7.034
14228TIP3   OH242563   3.405   4.906   5.754
14228TIP3    H142564   3.435   4.980   5.697
14228TIP3    H242565   3.324   4.947   5.791
14229TIP3   OH242566   2.425   3.682   7.627
14229TIP3    H142567   2.328   3.684   7.639
14229TIP3    H242568   2.451   3.616   7.694
14230TIP3   OH242569   3.223   4.369   6.165
14230TIP3    H142570   3.213   4.297   6.230
14230TIP3    H242571   3.319   4.363   6.144
14231TIP3   OH242572   2.137   4.768   7.259
14231TIP3    H142573   2.187   4.686   7.277
14231TIP3    H242574   2.175   4.827   7.326
14232TIP3   OH242575   2.365   4.414   6.237
14232TIP3    H142576   2.454   4.387   6.261
14232TIP3    H242577   2.377   4.507   6.211
14233TIP3   OH242578   2.118   4.109   6.412
14233TIP3    H142579   2.049   4.153   6.466
14233TIP3    H242580   2.130   4.176   6.342
14234TIP3   OH242581   3.255   3.747   7.306
14234TIP3    H142582   3.339   3.781   7.342
14234TIP3    H242583   3.241   3.665   7.358
14235TIP3   OH242584   3.138   3.498   6.465
14235TIP3    H142585   3.123   3.522   6.372
14235TIP3    H242586   3.175   3.581   6.501
14236TIP3   OH242587   2.648   4.617   6.154
14236TIP3    H142588   2.557   4.646   6.178
14236TIP3    H242589   2.662   4.660   6.069
14237TIP3   OH242590   2.835   3.672   6.570
14237TIP3    H142591   2.898   3.744   6.551
14237TIP3    H242592   2.836   3.668   6.668
14238TIP3   OH242593   3.098   3.996   7.380
14238TIP3    H142594   3.115   4.048   7.461
14238TIP3    H242595   3.154   3.917   7.393
14239TIP3   OH242596   2.978   3.408   6.677
14239TIP3    H142597   2.968   3.487   6.734
14239TIP3    H242598   3.036   3.444   6.606
14240TIP3   OH242599   2.388   4.689   6.218
14240TIP3    H142600   2.358   4.758   6.154
14240TIP3    H242601   2.369   4.731   6.304
14241TIP3   OH242602   2.485   3.398   6.465
14241TIP3    H142603   2.483   3.490   6.497
14241TIP3    H242604   2.581   3.380   6.473
14242TIP3   OH242605   3.742   3.894   7.358
14242TIP3    H142606   3.644   3.892   7.366
14242TIP3    H242607   3.753   3.855   7.271
14243TIP3   OH242608   3.390   4.090   6.749
14243TIP3    H142609   3.315   4.029   6.759
14243TIP3    H242610   3.463   4.042   6.795
14244TIP3   OH242611   2.099   4.320   6.222
14244TIP3    H142612   2.168   4.389   6.230
14244TIP3    H242613   2.138   4.268   6.150
14245TIP3   OH242614   2.046   3.591   6.351
14245TIP3    H142615   2.047   3.689   6.345
14245TIP3    H242616   1.961   3.570   6.312
14246TIP3   OH242617   3.357   5.044   6.701
14246TIP3    H142618   3.314   5.090   6.625
14246TIP3    H242619   3.451   5.062   6.678
14247TIP3   OH242620   2.434   3.314   7.228
14247TIP3    H142621   2.403   3.281   7.140
14247TIP3    H242622   2.424   3.234   7.284
14248TIP3   OH242623   1.986   4.544   6.620
14248TIP3    H142624   1.896   4.566   6.646
14248TIP3    H242625   1.981   4.564   6.525
14249TIP3   OH242626   2.127   5.066   7.677
14249TIP3    H142627   2.213   5.061   7.722
14249TIP3    H242628   2.103   4.972   7.673
14250TIP3   OH242629   2.634   5.050   7.715
14250TIP3    H142630   2.716   4.999   7.725
14250TIP3    H242631   2.591   4.996   7.645
14251TIP3   OH242632   3.245   4.947   7.459
14251TIP3    H142633   3.240   4.873   7.524
14251TIP3    H242634   3.329   4.991   7.484
14252TIP3   OH242635   2.261   4.477   7.878
14252TIP3    H142636   2.278   4.381   7.881
14252TIP3    H242637   2.172   4.479   7.834
14253TIP3   OH242638   2.235   4.129   6.067
14253TIP3    H142639   2.295   4.096   6.136
14253TIP3    H242640   2.296   4.153   5.997
14254TIP3   OH242641   2.868   4.560   7.650
14254TIP3    H142642   2.827   4.572   7.563
14254TIP3    H242643   2.901   4.468   7.646
14255TIP3   OH242644   3.363   4.567   7.258
14255TIP3    H142645   3.435   4.613   7.211
14255TIP3    H242646   3.289   4.628   7.243
14256TIP3   OH242647   2.379   4.210   7.857
14256TIP3    H142648   2.451   4.149   7.840
14256TIP3    H242649   2.402   4.243   7.947
14257TIP3   OH242650   2.450   4.029   6.296
14257TIP3    H142651   2.419   3.983   6.376
14257TIP3    H242652   2.483   3.955   6.241
14258TIP3   OH242653   2.714   4.097   7.523
14258TIP3    H142654   2.636   4.157   7.526
14258TIP3    H242655   2.761   4.128   7.442
14259TIP3   OH242656   2.545   3.823   6.140
14259TIP3    H142657   2.515   3.820   6.046
14259TIP3    H242658   2.641   3.832   6.128
14260TIP3   OH242659   3.233   4.501   7.657
14260TIP3    H142660   3.311   4.480   7.606
14260TIP3    H242661   3.231   4.429   7.723
14261TIP3   OH242662   3.385   4.163   5.785
14261TIP3    H142663   3.346   4.114   5.710
14261TIP3    H242664   3.341   4.250   5.774
14262TIP3   OH242665   2.837   3.882   7.650
14262TIP3    H142666   2.837   3.802   7.594
14262TIP3    H242667   2.795   3.948   7.591
14263TIP3   OH242668   2.839   3.670   7.455
14263TIP3    H142669   2.867   3.711   7.370
14263TIP3    H242670   2.746   3.647   7.436
14264TIP3   OH242671   2.874   4.210   7.328
14264TIP3    H142672   2.952   4.211   7.271
14264TIP3    H242673   2.816   4.276   7.284
14265TIP3   OH242674   3.454   4.176   7.713
14265TIP3    H142675   3.501   4.091   7.717
14265TIP3    H242676   3.522   4.233   7.676
14266TIP3   OH242677   3.493   4.427   7.448
14266TIP3    H142678   3.435   4.478   7.386
14266TIP3    H242679   3.580   4.445   7.406
14267TIP3   OH242680   2.713   4.002   7.875
14267TIP3    H142681   2.645   3.933   7.888
14267TIP3    H242682   2.749   3.977   7.788
14268TIP3   OH242683   2.973   3.436   7.519
14268TIP3    H142684   2.924   3.518   7.497
14268TIP3    H242685   2.903   3.368   7.506
14269TIP3   OH242686   3.098   3.943   7.737
14269TIP3    H142687   3.089   3.931   7.833
14269TIP3    H242688   3.008   3.916   7.708
14270TIP3   OH242689   3.339   3.892   7.593
14270TIP3    H142690   3.263   3.890   7.653
14270TIP3    H242691   3.412   3.858   7.649
14271TIP3   OH242692   3.568   3.828   7.745
14271TIP3    H142693   3.580   3.733   7.764
14271TIP3    H242694   3.565   3.869   7.834
14272TIP3   OH242695   2.555   3.782   7.927
14272TIP3    H142696   2.562   3.692   7.889
14272TIP3    H242697   2.590   3.766   8.017
14273TIP3   OH242698   3.068   3.445   7.776
14273TIP3    H142699   3.136   3.375   7.771
14273TIP3    H242700   3.028   3.437   7.687
14274TIP3   OH242701   3.133   3.659   7.937
14274TIP3    H142702   3.110   3.588   7.872
14274TIP3    H242703   3.056   3.720   7.929
14275TIP3   OH242704   2.373   4.899   6.035
14275TIP3    H142705   2.451   4.903   5.978
14275TIP3    H242706   2.304   4.906   5.967
14276TIP3   OH242707   1.833   4.267   6.266
14276TIP3    H142708   1.925   4.294   6.241
14276TIP3    H242709   1.825   4.184   6.214
14277TIP3   OH242710   1.733   4.883   6.672
14277TIP3    H142711   1.682   4.812   6.630
14277TIP3    H242712   1.788   4.831   6.735
14278TIP3   OH242713   1.875   4.747   6.857
14278TIP3    H142714   1.877   4.661   6.902
14278TIP3    H242715   1.933   4.799   6.916
14279TIP3   OH242716   3.607   5.138   6.652
14279TIP3    H142717   3.640   5.172   6.737
14279TIP3    H242718   3.669   5.178   6.588
14280TIP3   OH242719   3.640   5.158   6.936
14280TIP3    H142720   3.598   5.069   6.928
14280TIP3    H242721   3.717   5.134   6.989
14281TIP3   OH242722   3.686   4.833   7.507
14281TIP3    H142723   3.612   4.840   7.570
14281TIP3    H242724   3.727   4.921   7.512
14282TIP3   OH242725   3.502   4.344   6.129
14282TIP3    H142726   3.570   4.409   6.101
14282TIP3    H242727   3.545   4.305   6.208
14283TIP3   OH242728   3.631   4.212   6.332
14283TIP3    H142729   3.564   4.170   6.390
14283TIP3    H242730   3.693   4.253   6.396
14284TIP3   OH242731   3.682   4.602   6.766
14284TIP3    H142732   3.735   4.539   6.712
14284TIP3    H242733   3.672   4.678   6.705
14285TIP3   OH242734   3.518   4.905   6.961
14285TIP3    H142735   3.445   4.944   7.012
14285TIP3    H242736   3.470   4.856   6.891
14286TIP3   OH242737   3.570   4.118   5.981
14286TIP3    H142738   3.501   4.123   5.911
14286TIP3    H242739   3.542   4.195   6.036
14287TIP3   OH242740   3.444   3.791   5.934
14287TIP3    H142741   3.396   3.837   5.864
14287TIP3    H242742   3.413   3.699   5.921
14288TIP3   OH242743   3.447   4.067   6.481
14288TIP3    H142744   3.453   3.970   6.476
14288TIP3    H242745   3.433   4.082   6.577
14289TIP3   OH242746   2.072   4.144   7.225
14289TIP3    H142747   2.071   4.114   7.131
14289TIP3    H242748   2.169   4.145   7.242
14290TIP3   OH242749   3.733   4.493   7.335
14290TIP3    H142750   3.807   4.428   7.327
14290TIP3    H242751   3.761   4.562   7.273
14291TIP3   OH242752   3.920   4.302   7.361
14291TIP3    H142753   3.846   4.250   7.398
14291TIP3    H242754   3.993   4.237   7.372
14292TIP3   OH242755   3.384   3.526   5.921
14292TIP3    H142756   3.459   3.497   5.977
14292TIP3    H242757   3.310   3.469   5.949
14293TIP3   OH242758   3.441   3.784   6.378
14293TIP3    H142759   3.481   3.695   6.392
14293TIP3    H242760   3.499   3.817   6.307
14294TIP3   OH242761   3.604   3.962   6.869
14294TIP3    H142762   3.690   3.988   6.830
14294TIP3    H242763   3.618   3.997   6.960
14295TIP3   OH242764   3.670   4.102   7.104
14295TIP3    H142765   3.591   4.137   7.150
14295TIP3    H242766   3.703   4.182   7.057
14296TIP3   OH242767   2.288   3.832   7.903
14296TIP3    H142768   2.385   3.822   7.900
14296TIP3    H242769   2.263   3.747   7.943
14297TIP3   OH242770   4.122   3.691   7.659
14297TIP3    H142771   4.181   3.625   7.616
14297TIP3    H242772   4.097   3.748   7.584
14298TIP3   OH242773   3.550   3.533   6.412
14298TIP3    H142774   3.598   3.517   6.496
14298TIP3    H242775   3.489   3.456   6.411
14299TIP3   OH242776   2.250   3.522   7.236
14299TIP3    H142777   2.312   3.446   7.242
14299TIP3    H242778   2.313   3.595   7.227
14300TIP3   OH242779   2.055   3.797   7.307
14300TIP3    H142780   2.101   3.783   7.222
14300TIP3    H242781   2.087   3.885   7.330
14301TIP3   OH242782   3.997   3.836   7.467
14301TIP3    H142783   3.908   3.872   7.485
14301TIP3    H242784   3.973   3.764   7.406
14302TIP3   OH242785   3.634   3.472   6.043
14302TIP3    H142786   3.674   3.398   5.993
14302TIP3    H242787   3.701   3.542   6.034
14303TIP3   OH242788   2.035   3.307   6.811
14303TIP3    H142789   1.940   3.298   6.828
14303TIP3    H242790   2.036   3.360   6.728
14304TIP3   OH242791   3.203   5.002   6.319
14304TIP3    H142792   3.238   4.978   6.231
14304TIP3    H242793   3.266   5.069   6.346
14305TIP3   OH242794   2.256   3.381   7.623
14305TIP3    H142795   2.203   3.374   7.704
14305TIP3    H242796   2.190   3.417   7.560
14306TIP3   OH242797   2.295   4.810   7.703
14306TIP3    H142798   2.208   4.774   7.678
14306TIP3    H242799   2.303   4.780   7.794
14307TIP3   OH242800   2.472   4.836   7.248
14307TIP3    H142801   2.424   4.910   7.205
14307TIP3    H242802   2.558   4.848   7.204
14308TIP3   OH242803   2.923   5.084   7.386
14308TIP3    H142804   2.970   5.082   7.472
14308TIP3    H242805   2.989   5.131   7.330
14309TIP3   OH242806   3.100   5.232   7.241
14309TIP3    H142807   3.167   5.181   7.193
14309TIP3    H242808   3.156   5.288   7.298
14310TIP3   OH242809   3.892   3.597   7.342
14310TIP3    H142810   3.801   3.593   7.308
14310TIP3    H242811   3.921   3.504   7.329
14311TIP3   OH242812   2.152   5.099   7.265
14311TIP3    H142813   2.064   5.134   7.241
14311TIP3    H242814   2.153   5.116   7.360
14312TIP3   OH242815   2.390   5.075   7.125
14312TIP3    H142816   2.303   5.088   7.169
14312TIP3    H242817   2.370   5.105   7.034
14313TIP3   OH242818   2.812   5.104   6.924
14313TIP3    H142819   2.746   5.123   6.856
14313TIP3    H242820   2.826   5.193   6.964
14314TIP3   OH242821   3.080   5.047   6.978
14314TIP3    H142822   2.987   5.059   6.952
14314TIP3    H242823   3.124   5.117   6.928
14315TIP3   OH242824   3.291   5.237   6.891
14315TIP3    H142825   3.277   5.320   6.841
14315TIP3    H242826   3.317   5.175   6.819
14316TIP3   OH242827   2.062   4.889   7.016
14316TIP3    H142828   2.091   4.863   7.106
14316TIP3    H242829   2.132   4.845   6.963
14317TIP3   OH242830   2.252   4.761   6.870
14317TIP3    H142831   2.271   4.674   6.912
14317TIP3    H242832   2.343   4.797   6.860
14318TIP3   OH242833   2.519   4.859   6.869
14318TIP3    H142834   2.551   4.769   6.848
14318TIP3    H242835   2.562   4.873   6.955
14319TIP3   OH242836   3.099   3.513   6.961
14319TIP3    H142837   3.053   3.444   7.013
14319TIP3    H242838   3.165   3.462   6.912
14320TIP3   OH242839   3.625   3.393   6.868
14320TIP3    H142840   3.660   3.444   6.792
14320TIP3    H242841   3.529   3.407   6.859
14321TIP3   OH242842   3.717   3.493   6.630
14321TIP3    H142843   3.790   3.442   6.588
14321TIP3    H242844   3.749   3.585   6.615
14322TIP3   OH242845   2.347   3.221   6.980
14322TIP3    H142846   2.255   3.189   6.977
14322TIP3    H242847   2.396   3.136   6.975
14323TIP3   OH242848   2.135   3.088   6.623
14323TIP3    H142849   2.163   3.146   6.550
14323TIP3    H242850   2.100   3.152   6.688
14324TIP3   OH242851   2.788   3.253   6.856
14324TIP3    H142852   2.848   3.305   6.799
14324TIP3    H242853   2.806   3.291   6.943
14325TIP3   OH242854   3.344   3.398   6.841
14325TIP3    H142855   3.332   3.365   6.751
14325TIP3    H242856   3.325   3.317   6.894
14326TIP3   OH242857   3.367   3.319   6.402
14326TIP3    H142858   3.279   3.361   6.409
14326TIP3    H242859   3.351   3.235   6.451
14327TIP3   OH242860   1.837   4.667   6.430
14327TIP3    H142861   1.781   4.614   6.371
14327TIP3    H242862   1.838   4.751   6.382
14328TIP3   OH242863   2.247   3.249   6.390
14328TIP3    H142864   2.297   3.188   6.332
14328TIP3    H242865   2.319   3.304   6.426
14329TIP3   OH242866   2.762   3.423   6.487
14329TIP3    H142867   2.822   3.375   6.547
14329TIP3    H242868   2.785   3.515   6.512
14330TIP3   OH242869   3.338   4.965   6.081
14330TIP3    H142870   3.335   4.867   6.066
14330TIP3    H242871   3.295   4.997   6.000
14331TIP3   OH242872   2.554   3.503   7.869
14331TIP3    H142873   2.522   3.430   7.925
14331TIP3    H242874   2.649   3.503   7.893
14332TIP3   OH242875   2.803   3.499   7.988
14332TIP3    H142876   2.887   3.474   7.946
14332TIP3    H242877   2.792   3.427   8.053
14333TIP3   OH242878   1.907   4.650   6.116
14333TIP3    H142879   1.941   4.733   6.151
14333TIP3    H242880   1.947   4.658   6.027
14334TIP3   OH242881   3.627   3.558   7.775
14334TIP3    H142882   3.647   3.525   7.866
14334TIP3    H242883   3.714   3.553   7.732
14335TIP3   OH242884   3.568   5.113   7.269
14335TIP3    H142885   3.490   5.080   7.220
14335TIP3    H242886   3.549   5.209   7.267
14336TIP3   OH242887   4.832   4.483   6.035
14336TIP3    H142888   4.805   4.575   6.014
14336TIP3    H242889   4.754   4.435   6.002
14337TIP3   OH242890   4.833   4.483   6.410
14337TIP3    H142891   4.859   4.449   6.497
14337TIP3    H242892   4.789   4.406   6.371
14338TIP3   OH242893   4.133   4.382   6.780
14338TIP3    H142894   4.166   4.315   6.842
14338TIP3    H242895   4.211   4.438   6.769
14339TIP3   OH242896   5.076   4.781   6.093
14339TIP3    H142897   5.060   4.713   6.160
14339TIP3    H242898   5.099   4.858   6.147
14340TIP3   OH242899   4.101   4.787   6.510
14340TIP3    H142900   4.094   4.689   6.512
14340TIP3    H242901   4.198   4.796   6.500
14341TIP3   OH242902   3.810   3.994   6.294
14341TIP3    H142903   3.761   4.078   6.304
14341TIP3    H242904   3.740   3.937   6.258
14342TIP3   OH242905   3.872   4.281   6.459
14342TIP3    H142906   3.919   4.204   6.497
14342TIP3    H242907   3.926   4.303   6.382
14343TIP3   OH242908   4.721   5.248   6.111
14343TIP3    H142909   4.770   5.178   6.062
14343TIP3    H242910   4.718   5.210   6.199
14344TIP3   OH242911   4.631   4.708   6.462
14344TIP3    H142912   4.665   4.633   6.411
14344TIP3    H242913   4.717   4.751   6.484
14345TIP3   OH242914   5.642   4.031   6.459
14345TIP3    H142915   5.670   4.113   6.503
14345TIP3    H242916   5.661   4.053   6.366
14346TIP3   OH242917   5.043   4.213   6.497
14346TIP3    H142918   5.085   4.127   6.517
14346TIP3    H242919   5.013   4.199   6.406
14347TIP3   OH242920   4.378   3.870   6.462
14347TIP3    H142921   4.357   3.942   6.399
14347TIP3    H242922   4.330   3.796   6.417
14348TIP3   OH242923   5.072   3.960   6.086
14348TIP3    H142924   5.145   3.943   6.149
14348TIP3    H242925   5.122   3.996   6.011
14349TIP3   OH242926   4.014   4.073   6.567
14349TIP3    H142927   4.097   4.052   6.614
14349TIP3    H242928   4.025   4.017   6.487
14350TIP3   OH242929   4.456   4.271   6.358
14350TIP3    H142930   4.549   4.244   6.372
14350TIP3    H242931   4.416   4.187   6.326
14351TIP3   OH242932   5.717   4.239   6.628
14351TIP3    H142933   5.633   4.285   6.609
14351TIP3    H242934   5.723   4.253   6.724
14352TIP3   OH242935   4.377   3.854   6.894
14352TIP3    H142936   4.316   3.890   6.828
14352TIP3    H242937   4.327   3.871   6.976
14353TIP3   OH242938   4.728   4.703   5.903
14353TIP3    H142939   4.686   4.681   5.818
14353TIP3    H242940   4.684   4.788   5.924
14354TIP3   OH242941   4.485   4.628   6.694
14354TIP3    H142942   4.419   4.691   6.732
14354TIP3    H242943   4.524   4.681   6.623
14355TIP3   OH242944   5.288   3.960   6.251
14355TIP3    H142945   5.280   3.908   6.332
14355TIP3    H242946   5.342   4.036   6.280
14356TIP3   OH242947   4.247   3.969   6.680
14356TIP3    H142948   4.310   4.040   6.703
14356TIP3    H242949   4.295   3.927   6.605
14357TIP3   OH242950   4.309   4.819   6.789
14357TIP3    H142951   4.283   4.903   6.746
14357TIP3    H242952   4.230   4.806   6.846
14358TIP3   OH242953   3.709   4.509   6.025
14358TIP3    H142954   3.667   4.531   5.940
14358TIP3    H242955   3.735   4.596   6.060
14359TIP3   OH242956   5.149   5.026   6.267
14359TIP3    H142957   5.058   5.018   6.305
14359TIP3    H242958   5.139   5.111   6.218
14360TIP3   OH242959   5.434   3.934   6.627
14360TIP3    H142960   5.346   3.961   6.597
14360TIP3    H242961   5.492   3.962   6.553
14361TIP3   OH242962   4.737   3.576   6.606
14361TIP3    H142963   4.726   3.481   6.624
14361TIP3    H242964   4.659   3.612   6.653
14362TIP3   OH242965   4.854   5.075   5.946
14362TIP3    H142966   4.901   4.993   5.919
14362TIP3    H242967   4.911   5.141   5.899
14363TIP3   OH242968   4.991   4.860   5.842
14363TIP3    H142969   4.950   4.783   5.800
14363TIP3    H242970   5.025   4.821   5.925
14364TIP3   OH242971   5.374   4.943   6.606
14364TIP3    H142972   5.362   4.865   6.548
14364TIP3    H242973   5.356   5.017   6.545
14365TIP3   OH242974   4.663   4.334   5.862
14365TIP3    H142975   4.583   4.387   5.842
14365TIP3    H242976   4.709   4.335   5.776
14366TIP3   OH242977   4.624   4.117   5.586
14366TIP3    H142978   4.693   4.167   5.634
14366TIP3    H242979   4.680   4.055   5.536
14367TIP3   OH242980   5.569   4.579   6.451
14367TIP3    H142981   5.485   4.629   6.458
14367TIP3    H242982   5.595   4.602   6.359
14368TIP3   OH242983   5.011   4.416   5.838
14368TIP3    H142984   4.955   4.443   5.915
14368TIP3    H242985   5.094   4.391   5.884
14369TIP3   OH242986   5.248   4.460   6.743
14369TIP3    H142987   5.243   4.543   6.793
14369TIP3    H242988   5.160   4.461   6.699
14370TIP3   OH242989   4.242   4.417   6.253
14370TIP3    H142990   4.200   4.360   6.185
14370TIP3    H242991   4.320   4.364   6.279
14371TIP3   OH242992   4.371   4.825   6.403
14371TIP3    H142993   4.350   4.782   6.319
14371TIP3    H242994   4.463   4.793   6.419
14372TIP3   OH242995   4.383   4.386   6.608
14372TIP3    H142996   4.413   4.368   6.516
14372TIP3    H242997   4.424   4.473   6.627
14373TIP3   OH242998   4.906   5.025   6.384
14373TIP3    H142999   4.891   5.104   6.438
14373TIP3    H243000   4.892   4.951   6.446
14374TIP3   OH243001   4.516   4.945   6.930
14374TIP3    H143002   4.456   5.007   6.977
14374TIP3    H243003   4.451   4.890   6.882
14375TIP3   OH243004   4.856   4.273   5.662
14375TIP3    H143005   4.911   4.334   5.715
14375TIP3    H243006   4.882   4.298   5.570
14376TIP3   OH243007   4.270   4.503   7.029
14376TIP3    H143008   4.273   4.588   7.077
14376TIP3    H243009   4.175   4.483   7.033
14377TIP3   OH243010   4.592   4.960   5.940
14377TIP3    H143011   4.669   5.015   5.961
14377TIP3    H243012   4.530   5.022   5.899
14378TIP3   OH243013   4.312   5.116   7.016
14378TIP3    H143014   4.278   5.111   6.925
14378TIP3    H243015   4.233   5.092   7.070
14379TIP3   OH243016   5.368   3.519   5.708
14379TIP3    H143017   5.287   3.536   5.761
14379TIP3    H243018   5.378   3.603   5.660
14380TIP3   OH243019   4.108   4.258   6.060
14380TIP3    H143020   4.047   4.305   6.000
14380TIP3    H243021   4.063   4.173   6.070
14381TIP3   OH243022   5.168   4.882   5.251
14381TIP3    H143023   5.164   4.979   5.239
14381TIP3    H243024   5.264   4.866   5.251
14382TIP3   OH243025   3.891   4.643   6.964
14382TIP3    H143026   3.828   4.620   6.893
14382TIP3    H243027   3.927   4.555   6.990
14383TIP3   OH243028   3.745   4.833   6.603
14383TIP3    H143029   3.839   4.827   6.586
14383TIP3    H243030   3.738   4.916   6.652
14384TIP3   OH243031   5.610   5.283   6.651
14384TIP3    H143032   5.608   5.187   6.664
14384TIP3    H243033   5.527   5.309   6.696
14385TIP3   OH243034   4.717   5.073   6.787
14385TIP3    H143035   4.717   5.166   6.819
14385TIP3    H243036   4.645   5.035   6.841
14386TIP3   OH243037   4.462   5.197   5.746
14386TIP3    H143038   4.430   5.182   5.655
14386TIP3    H243039   4.445   5.292   5.759
14387TIP3   OH243040   3.913   5.054   6.121
14387TIP3    H143041   3.960   5.041   6.205
14387TIP3    H243042   3.852   4.977   6.123
14388TIP3   OH243043   4.720   5.164   5.661
14388TIP3    H143044   4.633   5.161   5.705
14388TIP3    H243045   4.772   5.100   5.711
14389TIP3   OH243046   5.501   4.420   6.924
14389TIP3    H143047   5.420   4.433   6.873
14389TIP3    H243048   5.515   4.324   6.915
14390TIP3   OH243049   4.095   4.826   6.958
14390TIP3    H143050   4.147   4.806   7.039
14390TIP3    H243051   4.022   4.761   6.963
14391TIP3   OH243052   4.496   3.649   6.733
14391TIP3    H143053   4.406   3.618   6.710
14391TIP3    H243054   4.472   3.733   6.778
14392TIP3   OH243055   5.029   3.766   6.930
14392TIP3    H143056   5.097   3.737   6.994
14392TIP3    H243057   4.945   3.744   6.976
14393TIP3   OH243058   5.273   4.195   6.850
14393TIP3    H143059   5.223   4.188   6.935
14393TIP3    H243060   5.244   4.281   6.815
14394TIP3   OH243061   4.928   4.321   5.406
14394TIP3    H143062   4.897   4.293   5.317
14394TIP3    H243063   4.997   4.385   5.382
14395TIP3   OH243064   4.643   3.699   5.707
14395TIP3    H143065   4.611   3.698   5.799
14395TIP3    H243066   4.604   3.616   5.674
14396TIP3   OH243067   4.427   4.163   6.756
14396TIP3    H143068   4.376   4.186   6.836
14396TIP3    H243069   4.412   4.243   6.701
14397TIP3   OH243070   4.312   4.049   6.269
14397TIP3    H143071   4.218   4.025   6.285
14397TIP3    H243072   4.325   4.010   6.180
14398TIP3   OH243073   4.802   4.137   5.995
14398TIP3    H143074   4.746   4.208   5.956
14398TIP3    H243075   4.855   4.109   5.917
14399TIP3   OH243076   4.976   4.419   7.086
14399TIP3    H143077   4.954   4.345   7.146
14399TIP3    H243078   5.071   4.430   7.105
14400TIP3   OH243079   4.961   4.168   6.237
14400TIP3    H143080   4.902   4.199   6.165
14400TIP3    H243081   4.991   4.084   6.195
14401TIP3   OH243082   4.246   4.194   6.964
14401TIP3    H143083   4.273   4.257   7.033
14401TIP3    H243084   4.235   4.112   7.015
14402TIP3   OH243085   4.295   3.669   5.674
14402TIP3    H143086   4.290   3.667   5.771
14402TIP3    H243087   4.216   3.722   5.652
14403TIP3   OH243088   3.839   3.718   6.544
14403TIP3    H143089   3.916   3.747   6.596
14403TIP3    H243090   3.877   3.683   6.463
14404TIP3   OH243091   3.819   3.698   6.064
14404TIP3    H143092   3.864   3.738   5.986
14404TIP3    H243093   3.757   3.770   6.086
14405TIP3   OH243094   4.973   4.414   6.662
14405TIP3    H143095   5.004   4.340   6.604
14405TIP3    H243096   4.942   4.362   6.740
14406TIP3   OH243097   4.635   3.875   6.332
14406TIP3    H143098   4.552   3.871   6.382
14406TIP3    H243099   4.701   3.875   6.403
14407TIP3   OH243100   4.072   3.927   6.341
14407TIP3    H143101   3.978   3.935   6.314
14407TIP3    H243102   4.095   3.835   6.316
14408TIP3   OH243103   4.346   3.927   6.026
14408TIP3    H143104   4.440   3.941   6.004
14408TIP3    H243105   4.299   3.949   5.942
14409TIP3   OH243106   5.129   3.949   6.531
14409TIP3    H143107   5.094   3.959   6.622
14409TIP3    H243108   5.066   3.885   6.494
14410TIP3   OH243109   4.180   3.955   5.807
14410TIP3    H143110   4.106   3.915   5.759
14410TIP3    H243111   4.232   3.992   5.733
14411TIP3   OH243112   5.296   5.637   6.749
14411TIP3    H143113   5.295   5.658   6.654
14411TIP3    H243114   5.374   5.687   6.780
14412TIP3   OH243115   4.257   4.748   7.174
14412TIP3    H143116   4.337   4.777   7.222
14412TIP3    H243117   4.193   4.747   7.248
14413TIP3   OH243118   4.723   4.199   6.429
14413TIP3    H143119   4.793   4.159   6.377
14413TIP3    H243120   4.735   4.158   6.516
14414TIP3   OH243121   4.249   3.690   6.302
14414TIP3    H143122   4.217   3.609   6.347
14414TIP3    H243123   4.302   3.655   6.230
14415TIP3   OH243124   4.699   4.093   6.719
14415TIP3    H143125   4.610   4.131   6.731
14415TIP3    H243126   4.756   4.153   6.770
14416TIP3   OH243127   4.435   4.487   5.814
14416TIP3    H143128   4.361   4.423   5.803
14416TIP3    H243129   4.417   4.522   5.904
14417TIP3   OH243130   5.338   4.724   6.445
14417TIP3    H143131   5.360   4.773   6.363
14417TIP3    H243132   5.252   4.682   6.423
14418TIP3   OH243133   4.894   3.803   5.668
14418TIP3    H143134   4.798   3.787   5.677
14418TIP3    H243135   4.905   3.897   5.694
14419TIP3   OH243136   4.839   4.808   6.810
14419TIP3    H143137   4.851   4.780   6.901
14419TIP3    H243138   4.796   4.894   6.818
14420TIP3   OH243139   4.965   4.046   5.776
14420TIP3    H143140   5.061   4.054   5.792
14420TIP3    H243141   4.945   4.126   5.724
14421TIP3   OH243142   4.128   4.510   6.492
14421TIP3    H143143   4.163   4.482   6.405
14421TIP3    H243144   4.163   4.442   6.550
14422TIP3   OH243145   4.601   4.647   5.652
14422TIP3    H143146   4.544   4.728   5.647
14422TIP3    H243147   4.537   4.583   5.688
14423TIP3   OH243148   4.004   4.433   7.103
14423TIP3    H143149   4.028   4.417   7.197
14423TIP3    H243150   3.937   4.364   7.087
14424TIP3   OH243151   4.731   4.542   7.122
14424TIP3    H143152   4.673   4.484   7.069
14424TIP3    H243153   4.819   4.510   7.095
14425TIP3   OH243154   4.998   5.067   6.704
14425TIP3    H143155   4.901   5.062   6.715
14425TIP3    H243156   5.023   5.118   6.783
14426TIP3   OH243157   5.409   4.134   5.614
14426TIP3    H143158   5.346   4.089   5.553
14426TIP3    H243159   5.404   4.223   5.573
14427TIP3   OH243160   5.624   4.992   6.696
14427TIP3    H143161   5.526   4.989   6.688
14427TIP3    H243162   5.648   4.963   6.605
14428TIP3   OH243163   5.126   4.950   5.525
14428TIP3    H143164   5.074   4.891   5.581
14428TIP3    H243165   5.107   4.917   5.436
14429TIP3   OH243166   5.102   4.585   6.367
14429TIP3    H143167   5.008   4.559   6.378
14429TIP3    H243168   5.136   4.507   6.319
14430TIP3   OH243169   4.226   4.813   6.118
14430TIP3    H143170   4.231   4.892   6.061
14430TIP3    H243171   4.131   4.795   6.116
14431TIP3   OH243172   3.789   4.119   5.814
14431TIP3    H143173   3.836   4.202   5.834
14431TIP3    H243174   3.713   4.125   5.876
14432TIP3   OH243175   4.373   4.581   6.063
14432TIP3    H143176   4.336   4.671   6.078
14432TIP3    H243177   4.332   4.531   6.136
14433TIP3   OH243178   4.495   5.158   6.586
14433TIP3    H143179   4.535   5.229   6.532
14433TIP3    H243180   4.573   5.124   6.633
14434TIP3   OH243181   4.149   5.051   5.968
14434TIP3    H143182   4.062   5.060   6.012
14434TIP3    H243183   4.180   5.144   5.969
14435TIP3   OH243184   4.889   4.791   6.541
14435TIP3    H143185   4.881   4.789   6.639
14435TIP3    H243186   4.968   4.737   6.526
14436TIP3   OH243187   4.851   4.663   5.425
14436TIP3    H143188   4.907   4.650   5.505
14436TIP3    H243189   4.763   4.663   5.465
14437TIP3   OH243190   5.135   5.328   6.593
14437TIP3    H143191   5.057   5.270   6.585
14437TIP3    H243192   5.119   5.392   6.520
14438TIP3   OH243193   5.199   5.161   5.243
14438TIP3    H143194   5.225   5.234   5.184
14438TIP3    H243195   5.118   5.201   5.281
14439TIP3   OH243196   4.221   3.937   7.113
14439TIP3    H143197   4.125   3.941   7.127
14439TIP3    H243198   4.249   3.874   7.181
14440TIP3   OH243199   5.017   4.619   5.643
14440TIP3    H143200   5.008   4.552   5.714
14440TIP3    H243201   5.114   4.619   5.630
14441TIP3   OH243202   3.934   5.024   6.746
14441TIP3    H143203   3.983   4.943   6.767
14441TIP3    H243204   3.971   5.085   6.811
14442TIP3   OH243205   4.157   4.672   5.720
14442TIP3    H143206   4.245   4.641   5.746
14442TIP3    H243207   4.174   4.767   5.702
14443TIP3   OH243208   3.911   4.365   5.898
14443TIP3    H143209   3.844   4.410   5.954
14443TIP3    H243210   3.927   4.434   5.831
14444TIP3   OH243211   5.054   4.001   6.791
14444TIP3    H143212   5.134   4.036   6.832
14444TIP3    H243213   5.037   3.920   6.844
14445TIP3   OH243214   4.935   3.755   5.951
14445TIP3    H143215   4.920   3.780   5.858
14445TIP3    H243216   4.972   3.837   5.989
14446TIP3   OH243217   4.437   4.871   5.649
14446TIP3    H143218   4.349   4.897   5.683
14446TIP3    H243219   4.463   4.951   5.601
14447TIP3   OH243220   4.630   3.929   6.057
14447TIP3    H143221   4.693   4.001   6.039
14447TIP3    H243222   4.632   3.924   6.154
14448TIP3   OH243223   4.895   4.252   6.867
14448TIP3    H143224   4.910   4.305   6.947
14448TIP3    H243225   4.950   4.174   6.883
14449TIP3   OH243226   4.773   3.664   6.163
14449TIP3    H143227   4.766   3.741   6.222
14449TIP3    H243228   4.832   3.701   6.093
14450TIP3   OH243229   4.180   4.946   5.709
14450TIP3    H143230   4.148   5.015   5.646
14450TIP3    H243231   4.162   4.988   5.796
14451TIP3   OH243232   4.281   3.655   5.950
14451TIP3    H143233   4.279   3.746   5.985
14451TIP3    H243234   4.377   3.636   5.960
14452TIP3   OH243235   5.540   4.151   6.842
14452TIP3    H143236   5.442   4.150   6.854
14452TIP3    H243237   5.545   4.106   6.757
14453TIP3   OH243238   5.187   4.345   6.234
14453TIP3    H143239   5.111   4.286   6.246
14453TIP3    H243240   5.259   4.298   6.282
14454TIP3   OH243241   3.898   4.582   5.702
14454TIP3    H143242   3.973   4.642   5.722
14454TIP3    H243243   3.943   4.526   5.636
14455TIP3   OH243244   3.844   3.850   5.837
14455TIP3    H143245   3.843   3.947   5.831
14455TIP3    H243246   3.758   3.826   5.802
14456TIP3   OH243247   5.154   5.299   6.187
14456TIP3    H143248   5.110   5.345   6.112
14456TIP3    H243249   5.248   5.317   6.163
14457TIP3   OH243250   4.230   3.570   6.714
14457TIP3    H143251   4.199   3.537   6.627
14457TIP3    H243252   4.221   3.491   6.771
14458TIP3   OH243253   3.775   4.795   6.101
14458TIP3    H143254   3.690   4.820   6.139
14458TIP3    H243255   3.761   4.825   6.009
14459TIP3   OH243256   3.923   5.323   7.166
14459TIP3    H143257   4.010   5.321   7.210
14459TIP3    H243258   3.902   5.228   7.161
14460TIP3   OH243259   4.412   5.298   7.207
14460TIP3    H143260   4.505   5.274   7.216
14460TIP3    H243261   4.385   5.241   7.132
14461TIP3   OH243262   5.047   5.200   6.942
14461TIP3    H143263   5.037   5.129   7.010
14461TIP3    H243264   5.125   5.249   6.973
14462TIP3   OH243265   4.879   4.922   5.286
14462TIP3    H143266   4.889   4.827   5.299
14462TIP3    H243267   4.894   4.935   5.191
14463TIP3   OH243268   4.056   4.734   7.365
14463TIP3    H143269   4.074   4.638   7.367
14463TIP3    H243270   3.969   4.735   7.321
14464TIP3   OH243271   4.032   4.390   5.557
14464TIP3    H143272   4.089   4.356   5.628
14464TIP3    H243273   4.100   4.397   5.485
14465TIP3   OH243274   4.666   4.817   7.137
14465TIP3    H143275   4.623   4.830   7.050
14465TIP3    H243276   4.696   4.724   7.133
14466TIP3   OH243277   5.159   4.823   6.743
14466TIP3    H143278   5.230   4.872   6.698
14466TIP3    H243279   5.084   4.884   6.732
14467TIP3   OH243280   4.175   4.465   7.344
14467TIP3    H143281   4.249   4.406   7.327
14467TIP3    H243282   4.198   4.499   7.433
14468TIP3   OH243283   4.244   4.286   5.783
14468TIP3    H143284   4.216   4.242   5.864
14468TIP3    H243285   4.278   4.212   5.729
14469TIP3   OH243286   4.510   4.353   7.008
14469TIP3    H143287   4.433   4.414   7.013
14469TIP3    H243288   4.557   4.385   6.928
14470TIP3   OH243289   4.340   4.078   5.622
14470TIP3    H143290   4.313   4.082   5.528
14470TIP3    H243291   4.437   4.089   5.614
14471TIP3   OH243292   5.028   4.756   7.144
14471TIP3    H143293   5.108   4.736   7.094
14471TIP3    H243294   5.027   4.686   7.211
14472TIP3   OH243295   5.178   4.417   5.276
14472TIP3    H143296   5.149   4.370   5.195
14472TIP3    H243297   5.137   4.505   5.258
14473TIP3   OH243298   4.633   4.139   7.137
14473TIP3    H143299   4.633   4.058   7.082
14473TIP3    H243300   4.590   4.204   7.077
14474TIP3   OH243301   4.635   3.927   6.941
14474TIP3    H143302   4.663   3.967   6.856
14474TIP3    H243303   4.542   3.904   6.923
14475TIP3   OH243304   4.669   4.466   6.814
14475TIP3    H143305   4.748   4.469   6.758
14475TIP3    H243306   4.612   4.533   6.771
14476TIP3   OH243307   5.249   4.432   7.198
14476TIP3    H143308   5.295   4.347   7.208
14476TIP3    H243309   5.319   4.489   7.163
14477TIP3   OH243310   5.289   4.683   6.933
14477TIP3    H143311   5.230   4.735   6.873
14477TIP3    H243312   5.376   4.702   6.891
14478TIP3   OH243313   4.507   4.260   7.361
14478TIP3    H143314   4.441   4.189   7.375
14478TIP3    H243315   4.546   4.233   7.276
14479TIP3   OH243316   4.769   3.692   7.003
14479TIP3    H143317   4.720   3.775   6.984
14479TIP3    H243318   4.699   3.624   6.994
14480TIP3   OH243319   4.894   4.200   7.223
14480TIP3    H143320   4.887   4.187   7.319
14480TIP3    H243321   4.803   4.173   7.197
14481TIP3   OH243322   5.136   4.147   7.079
14481TIP3    H143323   5.059   4.146   7.139
14481TIP3    H243324   5.208   4.113   7.136
14482TIP3   OH243325   5.367   4.084   7.231
14482TIP3    H143326   5.378   3.988   7.252
14482TIP3    H243327   5.361   4.124   7.320
14483TIP3   OH243328   4.351   4.038   7.414
14483TIP3    H143329   4.359   3.948   7.377
14483TIP3    H243330   4.386   4.023   7.504
14484TIP3   OH243331   4.863   3.703   7.262
14484TIP3    H143332   4.933   3.635   7.260
14484TIP3    H243333   4.826   3.692   7.172
14485TIP3   OH243334   4.930   3.917   7.422
14485TIP3    H143335   4.907   3.845   7.359
14485TIP3    H243336   4.852   3.976   7.415
14486TIP3   OH243337   4.142   5.141   5.517
14486TIP3    H143338   4.239   5.150   5.508
14486TIP3    H243339   4.112   5.193   5.440
14487TIP3   OH243340   3.635   4.522   5.752
14487TIP3    H143341   3.725   4.553   5.728
14487TIP3    H243342   3.629   4.440   5.701
14488TIP3   OH243343   3.538   5.141   6.153
14488TIP3    H143344   3.473   5.076   6.118
14488TIP3    H243345   3.585   5.084   6.219
14489TIP3   OH243346   3.676   5.000   6.340
14489TIP3    H143347   3.669   4.918   6.392
14489TIP3    H243348   3.730   5.055   6.400
14490TIP3   OH243349   5.406   5.390   6.138
14490TIP3    H143350   5.433   5.426   6.225
14490TIP3    H243351   5.462   5.440   6.077
14491TIP3   OH243352   5.437   5.413   6.421
14491TIP3    H143353   5.394   5.325   6.415
14491TIP3    H243354   5.512   5.391   6.478
14492TIP3   OH243355   5.483   5.088   6.994
14492TIP3    H143356   5.408   5.096   7.056
14492TIP3    H243357   5.523   5.177   6.999
14493TIP3   OH243358   5.299   4.600   5.615
14493TIP3    H143359   5.366   4.667   5.591
14493TIP3    H243360   5.341   4.561   5.695
14494TIP3   OH243361   5.428   4.469   5.820
14494TIP3    H143362   5.359   4.426   5.875
14494TIP3    H243363   5.485   4.513   5.885
14495TIP3   OH243364   5.480   4.859   6.253
14495TIP3    H143365   5.531   4.798   6.197
14495TIP3    H243366   5.465   4.935   6.194
14496TIP3   OH243367   5.314   5.161   6.448
14496TIP3    H143368   5.242   5.203   6.499
14496TIP3    H243369   5.264   5.113   6.378
14497TIP3   OH243370   5.367   4.376   5.467
14497TIP3    H143371   5.297   4.379   5.398
14497TIP3    H243372   5.338   4.452   5.522
14498TIP3   OH243373   5.240   4.048   5.420
14498TIP3    H143374   5.194   4.093   5.348
14498TIP3    H243375   5.209   3.956   5.408
14499TIP3   OH243376   5.244   4.324   5.967
14499TIP3    H143377   5.249   4.227   5.962
14499TIP3    H243378   5.229   4.339   6.063
14500TIP3   OH243379   3.868   4.398   6.712
14500TIP3    H143380   3.867   4.371   6.618
14500TIP3    H243381   3.965   4.400   6.728
14501TIP3   OH243382   5.530   4.749   6.822
14501TIP3    H143383   5.603   4.684   6.814
14501TIP3    H243384   5.557   4.820   6.761
14502TIP3   OH243385   5.718   4.559   6.844
14502TIP3    H143386   5.643   4.509   6.882
14502TIP3    H243387   5.790   4.493   6.857
14503TIP3   OH243388   5.180   3.783   5.408
14503TIP3    H143389   5.256   3.754   5.463
14503TIP3    H243390   5.108   3.726   5.437
14504TIP3   OH243391   5.237   4.040   5.865
14504TIP3    H143392   5.276   3.951   5.879
14504TIP3    H243393   5.295   4.073   5.794
14505TIP3   OH243394   5.401   4.218   6.356
14505TIP3    H143395   5.487   4.245   6.317
14505TIP3    H243396   5.412   4.253   6.446
14506TIP3   OH243397   5.466   4.359   6.590
14506TIP3    H143398   5.387   4.392   6.637
14506TIP3    H243399   5.498   4.440   6.545
14507TIP3   OH243400   4.084   4.088   7.388
14507TIP3    H143401   4.182   4.079   7.387
14507TIP3    H243402   4.059   4.003   7.430
14508TIP3   OH243403   5.924   3.952   7.146
14508TIP3    H143404   5.977   3.882   7.102
14508TIP3    H243405   5.893   4.006   7.070
14509TIP3   OH243406   5.346   3.789   5.898
14509TIP3    H143407   5.394   3.774   5.983
14509TIP3    H243408   5.285   3.713   5.898
14510TIP3   OH243409   4.046   3.778   6.720
14510TIP3    H143410   4.108   3.703   6.729
14510TIP3    H243411   4.108   3.852   6.713
14511TIP3   OH243412   3.851   4.053   6.793
14511TIP3    H143413   3.899   4.042   6.708
14511TIP3    H243414   3.881   4.141   6.819
14512TIP3   OH243415   5.793   4.092   6.953
14512TIP3    H143416   5.705   4.129   6.975
14512TIP3    H243417   5.766   4.020   6.893
14513TIP3   OH243418   5.430   3.729   5.530
14513TIP3    H143419   5.469   3.654   5.481
14513TIP3    H243420   5.498   3.798   5.519
14514TIP3   OH243421   3.831   3.559   6.294
14514TIP3    H143422   3.737   3.555   6.317
14514TIP3    H243423   3.831   3.615   6.214
14515TIP3   OH243424   4.998   5.252   5.804
14515TIP3    H143425   5.037   5.236   5.715
14515TIP3    H243426   5.050   5.328   5.833
14516TIP3   OH243427   4.052   3.637   7.108
14516TIP3    H143428   4.001   3.630   7.191
14516TIP3    H243429   3.985   3.674   7.048
14517TIP3   OH243430   4.091   5.064   7.187
14517TIP3    H143431   4.002   5.030   7.166
14517TIP3    H243432   4.100   5.041   7.280
14518TIP3   OH243433   4.268   5.091   6.733
14518TIP3    H143434   4.220   5.166   6.692
14518TIP3    H243435   4.354   5.105   6.689
14519TIP3   OH243436   4.718   5.340   6.871
14519TIP3    H143437   4.760   5.342   6.959
14519TIP3    H243438   4.784   5.389   6.817
14520TIP3   OH243439   4.896   5.489   6.726
14520TIP3    H143440   4.966   5.437   6.684
14520TIP3    H243441   4.948   5.545   6.787
14521TIP3   OH243442   5.690   3.854   6.827
14521TIP3    H143443   5.597   3.849   6.797
14521TIP3    H243444   5.717   3.760   6.816
14522TIP3   OH243445   3.948   5.353   6.753
14522TIP3    H143446   3.861   5.389   6.728
14522TIP3    H243447   3.951   5.377   6.846
14523TIP3   OH243448   4.185   5.330   6.611
14523TIP3    H143449   4.099   5.343   6.656
14523TIP3    H243450   4.165   5.362   6.521
14524TIP3   OH243451   4.610   5.361   6.410
14524TIP3    H143452   4.542   5.380   6.343
14524TIP3    H243453   4.622   5.449   6.451
14525TIP3   OH243454   4.877   5.301   6.461
14525TIP3    H143455   4.782   5.315   6.440
14525TIP3    H243456   4.918   5.377   6.417
14526TIP3   OH243457   5.090   5.494   6.378
14526TIP3    H143458   5.073   5.578   6.329
14526TIP3    H243459   5.112   5.432   6.305
14527TIP3   OH243460   3.858   5.146   6.503
14527TIP3    H143461   3.887   5.121   6.593
14527TIP3    H243462   3.929   5.102   6.450
14528TIP3   OH243463   4.049   5.017   6.356
14528TIP3    H143464   4.067   4.932   6.401
14528TIP3    H243465   4.139   5.055   6.347
14529TIP3   OH243466   4.315   5.114   6.356
14529TIP3    H143467   4.348   5.024   6.339
14529TIP3    H243468   4.357   5.132   6.442
14530TIP3   OH243469   4.894   3.769   6.445
14530TIP3    H143470   4.849   3.702   6.499
14530TIP3    H243471   4.963   3.717   6.400
14531TIP3   OH243472   5.421   3.649   6.354
14531TIP3    H143473   5.456   3.701   6.278
14531TIP3    H243474   5.325   3.664   6.347
14532TIP3   OH243475   5.514   3.751   6.116
14532TIP3    H143476   5.586   3.700   6.075
14532TIP3    H243477   5.546   3.843   6.101
14533TIP3   OH243478   4.144   3.477   6.465
14533TIP3    H143479   4.051   3.445   6.464
14533TIP3    H243480   4.193   3.392   6.461
14534TIP3   OH243481   3.927   3.345   6.108
14534TIP3    H143482   3.958   3.404   6.038
14534TIP3    H243483   3.897   3.408   6.176
14535TIP3   OH243484   4.584   3.511   6.343
14535TIP3    H143485   4.644   3.562   6.287
14535TIP3    H243486   4.602   3.546   6.431
14536TIP3   OH243487   5.140   3.654   6.328
14536TIP3    H143488   5.129   3.620   6.238
14536TIP3    H243489   5.122   3.574   6.382
14537TIP3   OH243490   5.162   3.576   5.889
14537TIP3    H143491   5.075   3.618   5.897
14537TIP3    H243492   5.148   3.492   5.938
14538TIP3   OH243493   3.646   4.913   5.894
14538TIP3    H143494   3.562   4.879   5.859
14538TIP3    H243495   3.634   5.007   5.874
14539TIP3   OH243496   4.043   3.506   5.875
14539TIP3    H143497   4.094   3.445   5.819
14539TIP3    H243498   4.115   3.562   5.913
14540TIP3   OH243499   4.559   3.679   5.974
14540TIP3    H143500   4.618   3.632   6.034
14540TIP3    H243501   4.581   3.772   5.998
14541TIP3   OH243502   4.421   5.116   5.478
14541TIP3    H143503   4.503   5.153   5.440
14541TIP3    H243504   4.389   5.060   5.406
14542TIP3   OH243505   5.138   5.222   5.568
14542TIP3    H143506   5.132   5.125   5.551
14542TIP3    H243507   5.090   5.259   5.490
14543TIP3   OH243508   4.350   3.759   7.355
14543TIP3    H143509   4.318   3.687   7.412
14543TIP3    H243510   4.445   3.759   7.380
14544TIP3   OH243511   4.599   3.755   7.474
14544TIP3    H143512   4.684   3.730   7.433
14544TIP3    H243513   4.589   3.684   7.540
14545TIP3   OH243514   3.742   4.957   5.528
14545TIP3    H143515   3.698   4.987   5.609
14545TIP3    H243516   3.810   4.898   5.563
14546TIP3   OH243517   5.423   3.811   7.267
14546TIP3    H143518   5.434   3.765   7.353
14546TIP3    H243519   5.512   3.802   7.228
14547TIP3   OH243520   5.365   5.369   6.754
14547TIP3    H143521   5.286   5.335   6.707
14547TIP3    H243522   5.345   5.465   6.755
14548TIP3   OH243523   6.623   4.742   5.530
14548TIP3    H143524   6.596   4.832   5.499
14548TIP3    H243525   6.553   4.690   5.486
14549TIP3   OH243526   5.938   4.635   6.254
14549TIP3    H143527   5.962   4.570   6.324
14549TIP3    H243528   5.997   4.708   6.277
14550TIP3   OH243529   6.870   5.038   5.582
14550TIP3    H143530   6.865   4.971   5.650
14550TIP3    H243531   6.897   5.118   5.631
14551TIP3   OH243532   5.895   5.045   5.995
14551TIP3    H143533   5.889   4.947   6.000
14551TIP3    H243534   5.991   5.056   5.987
14552TIP3   OH243535   5.608   4.253   5.781
14552TIP3    H143536   5.554   4.335   5.791
14552TIP3    H243537   5.539   4.193   5.748
14553TIP3   OH243538   5.673   4.542   5.947
14553TIP3    H143539   5.716   4.461   5.983
14553TIP3    H243540   5.718   4.551   5.862
14554TIP3   OH243541   6.514   5.504   5.595
14554TIP3    H143542   6.565   5.433   5.550
14554TIP3    H243543   6.515   5.474   5.687
14555TIP3   OH243544   6.471   4.888   5.947
14555TIP3    H143545   6.461   4.910   5.852
14555TIP3    H243546   6.533   4.960   5.974
14556TIP3   OH243547   7.442   4.286   5.946
14556TIP3    H143548   7.467   4.370   5.988
14556TIP3    H243549   7.456   4.308   5.852
14557TIP3   OH243550   6.839   4.474   5.982
14557TIP3    H143551   6.877   4.388   6.006
14557TIP3    H243552   6.805   4.454   5.892
14558TIP3   OH243553   6.173   4.128   5.948
14558TIP3    H143554   6.151   4.199   5.884
14558TIP3    H243555   6.128   4.052   5.905
14559TIP3   OH243556   6.868   4.215   5.573
14559TIP3    H143557   6.943   4.200   5.635
14559TIP3    H243558   6.917   4.254   5.498
14560TIP3   OH243559   5.811   4.331   6.053
14560TIP3    H143560   5.892   4.307   6.101
14560TIP3    H243561   5.819   4.272   5.975
14561TIP3   OH243562   6.256   4.518   5.835
14561TIP3    H143563   6.337   4.466   5.847
14561TIP3    H243564   6.195   4.447   5.806
14562TIP3   OH243565   7.515   4.496   6.116
14562TIP3    H143566   7.432   4.542   6.094
14562TIP3    H243567   7.519   4.512   6.211
14563TIP3   OH243568   6.174   4.111   6.381
14563TIP3    H143569   6.111   4.145   6.315
14563TIP3    H243570   6.124   4.126   6.464
14564TIP3   OH243571   6.519   4.956   5.395
14564TIP3    H143572   6.486   4.936   5.304
14564TIP3    H243573   6.479   5.044   5.409
14565TIP3   OH243574   6.274   4.893   6.182
14565TIP3    H143575   6.202   4.945   6.226
14565TIP3    H243576   6.314   4.963   6.130
14566TIP3   OH243577   7.086   4.216   5.737
14566TIP3    H143578   7.077   4.164   5.818
14566TIP3    H243579   7.138   4.292   5.767
14567TIP3   OH243580   6.043   4.225   6.167
14567TIP3    H143581   6.107   4.295   6.190
14567TIP3    H243582   6.090   4.183   6.092
14568TIP3   OH243583   6.100   5.075   6.272
14568TIP3    H143584   6.077   5.162   6.235
14568TIP3    H243585   6.023   5.063   6.332
14569TIP3   OH243586   5.510   4.767   5.516
14569TIP3    H143587   5.462   4.789   5.433
14569TIP3    H243588   5.531   4.855   5.551
14570TIP3   OH243589   6.942   5.282   5.754
14570TIP3    H143590   6.851   5.275   5.790
14570TIP3    H243591   6.936   5.367   5.706
14571TIP3   OH243592   7.231   4.192   6.115
14571TIP3    H143593   7.141   4.216   6.084
14571TIP3    H243594   7.287   4.218   6.039
14572TIP3   OH243595   6.534   3.831   6.095
14572TIP3    H143596   6.521   3.736   6.111
14572TIP3    H243597   6.455   3.868   6.140
14573TIP3   OH243598   6.649   5.332   5.430
14573TIP3    H143599   6.696   5.249   5.404
14573TIP3    H243600   6.709   5.397   5.387
14574TIP3   OH243601   6.781   5.117   5.330
14574TIP3    H143602   6.763   5.040   5.273
14574TIP3    H243603   6.817   5.074   5.410
14575TIP3   OH243604   7.170   5.199   6.095
14575TIP3    H143605   7.159   5.122   6.035
14575TIP3    H243606   7.151   5.274   6.035
14576TIP3   OH243607   6.462   4.595   5.350
14576TIP3    H143608   6.382   4.647   5.327
14576TIP3    H243609   6.507   4.592   5.264
14577TIP3   OH243610   6.420   4.373   5.074
14577TIP3    H143611   6.490   4.424   5.119
14577TIP3    H243612   6.475   4.311   5.023
14578TIP3   OH243613   7.365   4.833   5.938
14578TIP3    H143614   7.282   4.886   5.944
14578TIP3    H243615   7.394   4.857   5.847
14579TIP3   OH243616   6.803   4.669   5.329
14579TIP3    H143617   6.752   4.701   5.406
14579TIP3    H243618   6.888   4.646   5.371
14580TIP3   OH243619   7.043   4.717   6.231
14580TIP3    H143620   7.042   4.797   6.286
14580TIP3    H243621   6.962   4.730   6.177
14581TIP3   OH243622   6.037   4.670   5.741
14581TIP3    H143623   5.991   4.617   5.672
14581TIP3    H243624   6.119   4.618   5.754
14582TIP3   OH243625   6.159   5.080   5.889
14582TIP3    H143626   6.136   5.041   5.803
14582TIP3    H243627   6.253   5.063   5.897
14583TIP3   OH243628   6.215   4.640   6.092
14583TIP3    H143629   6.192   4.638   5.997
14583TIP3    H243630   6.211   4.736   6.113
14584TIP3   OH243631   6.699   5.277   5.872
14584TIP3    H143632   6.688   5.363   5.915
14584TIP3    H243633   6.687   5.214   5.945
14585TIP3   OH243634   6.314   5.195   6.414
14585TIP3    H143635   6.263   5.262   6.465
14585TIP3    H243636   6.240   5.147   6.372
14586TIP3   OH243637   6.651   4.530   5.147
14586TIP3    H143638   6.706   4.590   5.201
14586TIP3    H243639   6.675   4.558   5.056
14587TIP3   OH243640   6.064   4.760   6.508
14587TIP3    H143641   6.071   4.844   6.559
14587TIP3    H243642   5.970   4.739   6.526
14588TIP3   OH243643   6.386   5.218   5.434
14588TIP3    H143644   6.465   5.274   5.448
14588TIP3    H243645   6.327   5.277   5.386
14589TIP3   OH243646   6.108   5.369   6.502
14589TIP3    H143647   6.071   5.365   6.412
14589TIP3    H243648   6.030   5.349   6.557
14590TIP3   OH243649   7.165   3.775   5.196
14590TIP3    H143650   7.083   3.792   5.247
14590TIP3    H243651   7.175   3.858   5.147
14591TIP3   OH243652   5.902   4.517   5.550
14591TIP3    H143653   5.841   4.561   5.488
14591TIP3    H243654   5.863   4.430   5.557
14592TIP3   OH243655   6.961   5.146   4.746
14592TIP3    H143656   6.964   5.242   4.724
14592TIP3    H243657   7.054   5.121   4.733
14593TIP3   OH243658   5.689   4.898   6.451
14593TIP3    H143659   5.622   4.877   6.382
14593TIP3    H243660   5.722   4.809   6.477
14594TIP3   OH243661   5.541   5.089   6.088
14594TIP3    H143662   5.637   5.089   6.075
14594TIP3    H243663   5.528   5.172   6.137
14595TIP3   OH243664   7.406   5.542   6.136
14595TIP3    H143665   7.404   5.445   6.149
14595TIP3    H243666   7.323   5.567   6.183
14596TIP3   OH243667   6.514   5.347   6.282
14596TIP3    H143668   6.530   5.425   6.340
14596TIP3    H243669   6.444   5.303   6.334
14597TIP3   OH243670   6.267   5.457   5.225
14597TIP3    H143671   6.225   5.439   5.140
14597TIP3    H243672   6.240   5.548   5.245
14598TIP3   OH243673   5.710   5.310   5.606
14598TIP3    H143674   5.756   5.298   5.692
14598TIP3    H243675   5.644   5.238   5.613
14599TIP3   OH243676   6.469   5.375   4.910
14599TIP3    H143677   6.540   5.331   4.861
14599TIP3    H243678   6.509   5.385   4.998
14600TIP3   OH243679   6.529   5.414   5.165
14600TIP3    H143680   6.437   5.417   5.200
14600TIP3    H243681   6.574   5.360   5.232
14601TIP3   OH243682   7.299   4.675   6.412
14601TIP3    H143683   7.217   4.691   6.363
14601TIP3    H243684   7.310   4.579   6.401
14602TIP3   OH243685   5.893   5.080   6.443
14602TIP3    H143686   5.942   5.065   6.526
14602TIP3    H243687   5.818   5.017   6.451
14603TIP3   OH243688   6.292   3.907   6.219
14603TIP3    H143689   6.203   3.874   6.196
14603TIP3    H243690   6.267   3.989   6.266
14604TIP3   OH243691   6.824   4.024   6.416
14604TIP3    H143692   6.890   3.994   6.482
14604TIP3    H243693   6.739   4.002   6.460
14605TIP3   OH243694   7.072   4.453   6.340
14605TIP3    H143695   7.019   4.445   6.422
14605TIP3    H243696   7.041   4.538   6.303
14606TIP3   OH243697   6.723   4.585   4.891
14606TIP3    H143698   6.694   4.551   4.804
14606TIP3    H243699   6.804   4.632   4.866
14607TIP3   OH243700   6.439   3.955   5.193
14607TIP3    H143701   6.406   3.954   5.285
14607TIP3    H243702   6.400   3.873   5.160
14608TIP3   OH243703   6.225   4.419   6.248
14608TIP3    H143704   6.166   4.439   6.324
14608TIP3    H243705   6.212   4.499   6.191
14609TIP3   OH243706   6.104   4.311   5.756
14609TIP3    H143707   6.012   4.282   5.772
14609TIP3    H243708   6.120   4.270   5.667
14610TIP3   OH243709   6.598   4.394   5.482
14610TIP3    H143710   6.544   4.465   5.441
14610TIP3    H243711   6.652   4.366   5.406
14611TIP3   OH243712   6.770   4.671   6.569
14611TIP3    H143713   6.751   4.600   6.633
14611TIP3    H243714   6.862   4.693   6.592
14612TIP3   OH243715   6.765   4.431   5.716
14612TIP3    H143716   6.698   4.454   5.649
14612TIP3    H243717   6.789   4.343   5.683
14613TIP3   OH243718   6.047   4.451   6.453
14613TIP3    H143719   6.057   4.514   6.526
14613TIP3    H243720   6.029   4.368   6.500
14614TIP3   OH243721   6.093   3.927   5.161
14614TIP3    H143722   6.086   3.922   5.258
14614TIP3    H243723   6.012   3.976   5.138
14615TIP3   OH243724   5.635   3.977   6.029
14615TIP3    H143725   5.713   4.002   6.082
14615TIP3    H243726   5.672   3.937   5.949
14616TIP3   OH243727   5.616   3.955   5.551
14616TIP3    H143728   5.661   3.994   5.473
14616TIP3    H243729   5.553   4.027   5.572
14617TIP3   OH243730   6.730   4.671   6.129
14617TIP3    H143731   6.777   4.603   6.075
14617TIP3    H243732   6.727   4.621   6.215
14618TIP3   OH243733   6.432   4.139   5.820
14618TIP3    H143734   6.349   4.127   5.871
14618TIP3    H243735   6.499   4.134   5.890
14619TIP3   OH243736   5.870   4.184   5.826
14619TIP3    H143737   5.775   4.192   5.800
14619TIP3    H243738   5.892   4.091   5.803
14620TIP3   OH243739   6.142   4.188   5.514
14620TIP3    H143740   6.236   4.197   5.490
14620TIP3    H243741   6.095   4.206   5.429
14621TIP3   OH243742   6.927   4.206   6.020
14621TIP3    H143743   6.888   4.216   6.110
14621TIP3    H243744   6.863   4.144   5.980
14622TIP3   OH243745   5.976   4.214   5.295
14622TIP3    H143746   5.903   4.171   5.248
14622TIP3    H243747   6.028   4.249   5.219
14623TIP3   OH243748   7.095   5.890   6.235
14623TIP3    H143749   7.088   5.915   6.142
14623TIP3    H243750   7.164   5.948   6.268
14624TIP3   OH243751   6.055   5.001   6.660
14624TIP3    H143752   6.135   5.032   6.708
14624TIP3    H243753   5.990   5.003   6.734
14625TIP3   OH243754   6.047   3.946   5.790
14625TIP3    H143755   6.012   3.866   5.834
14625TIP3    H243756   6.097   3.909   5.716
14626TIP3   OH243757   6.492   4.345   6.216
14626TIP3    H143758   6.403   4.385   6.223
14626TIP3    H243759   6.551   4.411   6.257
14627TIP3   OH243760   6.227   4.742   5.303
14627TIP3    H143761   6.154   4.677   5.293
14627TIP3    H243762   6.213   4.776   5.394
14628TIP3   OH243763   7.136   4.982   5.932
14628TIP3    H143764   7.161   5.031   5.850
14628TIP3    H243765   7.051   4.941   5.906
14629TIP3   OH243766   6.691   4.058   5.160
14629TIP3    H143767   6.594   4.043   5.165
14629TIP3    H243768   6.700   4.153   5.180
14630TIP3   OH243769   6.620   5.056   6.302
14630TIP3    H143770   6.654   5.041   6.391
14630TIP3    H243771   6.594   5.150   6.306
14631TIP3   OH243772   6.761   4.304   5.265
14631TIP3    H143773   6.857   4.311   5.278
14631TIP3    H243774   6.741   4.383   5.210
14632TIP3   OH243775   5.941   4.771   5.983
14632TIP3    H143776   5.959   4.734   5.894
14632TIP3    H243777   5.938   4.692   6.040
14633TIP3   OH243778   6.394   4.906   5.151
14633TIP3    H143779   6.337   4.984   5.135
14633TIP3    H243780   6.328   4.840   5.179
14634TIP3   OH243781   5.805   4.684   6.587
14634TIP3    H143782   5.823   4.673   6.683
14634TIP3    H243783   5.732   4.621   6.574
14635TIP3   OH243784   6.525   4.794   6.605
14635TIP3    H143785   6.466   4.723   6.572
14635TIP3    H243786   6.615   4.761   6.582
14636TIP3   OH243787   6.784   5.306   6.190
14636TIP3    H143788   6.691   5.331   6.207
14636TIP3    H243789   6.828   5.356   6.263
14637TIP3   OH243790   7.205   4.391   5.100
14637TIP3    H143791   7.141   4.346   5.040
14637TIP3    H243792   7.201   4.480   5.059
14638TIP3   OH243793   7.421   5.248   6.183
14638TIP3    H143794   7.322   5.246   6.176
14638TIP3    H243795   7.445   5.219   6.092
14639TIP3   OH243796   6.901   5.210   5.011
14639TIP3    H143797   6.873   5.135   5.064
14639TIP3    H243798   6.914   5.170   4.922
14640TIP3   OH243799   6.909   4.840   5.853
14640TIP3    H143800   6.822   4.806   5.873
14640TIP3    H243801   6.946   4.766   5.801
14641TIP3   OH243802   6.023   5.068   5.603
14641TIP3    H143803   6.027   5.149   5.547
14641TIP3    H243804   5.927   5.054   5.607
14642TIP3   OH243805   5.582   4.379   5.295
14642TIP3    H143806   5.632   4.458   5.323
14642TIP3    H243807   5.508   4.380   5.359
14643TIP3   OH243808   6.173   4.838   5.558
14643TIP3    H143809   6.134   4.928   5.566
14643TIP3    H243810   6.123   4.789   5.626
14644TIP3   OH243811   6.295   5.409   6.071
14644TIP3    H143812   6.332   5.485   6.022
14644TIP3    H243813   6.369   5.389   6.131
14645TIP3   OH243814   5.946   5.307   5.456
14645TIP3    H143815   5.859   5.315   5.499
14645TIP3    H243816   5.976   5.401   5.457
14646TIP3   OH243817   6.684   5.032   6.032
14646TIP3    H143818   6.679   5.048   6.129
14646TIP3    H243819   6.780   5.017   6.021
14647TIP3   OH243820   6.937   5.577   6.074
14647TIP3    H143821   6.854   5.528   6.072
14647TIP3    H243822   6.918   5.650   6.011
14648TIP3   OH243823   6.995   5.420   4.731
14648TIP3    H143824   7.033   5.492   4.678
14648TIP3    H243825   6.908   5.459   4.751
14649TIP3   OH243826   6.017   4.193   6.599
14649TIP3    H143827   5.920   4.198   6.614
14649TIP3    H243828   6.044   4.130   6.668
14650TIP3   OH243829   6.821   4.890   5.148
14650TIP3    H143830   6.804   4.810   5.200
14650TIP3    H243831   6.913   4.875   5.118
14651TIP3   OH243832   5.734   5.280   6.231
14651TIP3    H143833   5.781   5.200   6.259
14651TIP3    H243834   5.762   5.344   6.297
14652TIP3   OH243835   6.024   4.909   4.908
14652TIP3    H143836   6.039   4.817   4.882
14652TIP3    H243837   6.008   4.904   5.003
14653TIP3   OH243838   5.964   4.925   5.192
14653TIP3    H143839   6.045   4.900   5.238
14653TIP3    H243840   5.972   5.022   5.187
14654TIP3   OH243841   5.707   4.622   5.385
14654TIP3    H143842   5.641   4.667   5.442
14654TIP3    H243843   5.724   4.692   5.320
14655TIP3   OH243844   6.848   4.261   6.280
14655TIP3    H143845   6.930   4.293   6.321
14655TIP3    H243846   6.831   4.178   6.330
14656TIP3   OH243847   6.728   4.012   5.439
14656TIP3    H143848   6.714   4.034   5.345
14656TIP3    H243849   6.767   4.095   5.475
14657TIP3   OH243850   6.231   5.125   5.132
14657TIP3    H143851   6.143   5.153   5.164
14657TIP3    H243852   6.251   5.197   5.071
14658TIP3   OH243853   6.426   4.185   5.544
14658TIP3    H143854   6.491   4.257   5.525
14658TIP3    H243855   6.429   4.181   5.642
14659TIP3   OH243856   6.695   4.515   6.354
14659TIP3    H143857   6.716   4.561   6.438
14659TIP3    H243858   6.743   4.431   6.364
14660TIP3   OH243859   6.571   3.922   5.651
14660TIP3    H143860   6.564   4.001   5.708
14660TIP3    H243861   6.628   3.957   5.579
14661TIP3   OH243862   5.973   5.200   5.198
14661TIP3    H143863   5.943   5.269   5.135
14661TIP3    H243864   5.957   5.243   5.284
14662TIP3   OH243865   6.077   3.911   5.438
14662TIP3    H143866   6.075   4.002   5.472
14662TIP3    H243867   6.173   3.891   5.446
14663TIP3   OH243868   7.337   4.405   6.328
14663TIP3    H143869   7.240   4.406   6.342
14663TIP3    H243870   7.339   4.364   6.241
14664TIP3   OH243871   6.985   4.605   5.724
14664TIP3    H143872   6.909   4.544   5.729
14664TIP3    H243873   7.055   4.553   5.769
14665TIP3   OH243874   5.694   4.839   5.185
14665TIP3    H143875   5.764   4.904   5.205
14665TIP3    H243876   5.744   4.783   5.121
14666TIP3   OH243877   5.640   4.109   5.324
14666TIP3    H143878   5.636   4.206   5.315
14666TIP3    H243879   5.555   4.082   5.288
14667TIP3   OH243880   6.951   5.552   5.671
14667TIP3    H143881   6.907   5.600   5.598
14667TIP3    H243882   7.045   5.572   5.649
14668TIP3   OH243883   6.028   3.827   6.201
14668TIP3    H143884   5.995   3.793   6.114
14668TIP3    H243885   6.017   3.748   6.258
14669TIP3   OH243886   5.570   5.047   5.585
14669TIP3    H143887   5.489   5.075   5.630
14669TIP3    H243888   5.552   5.082   5.495
14670TIP3   OH243889   5.719   5.581   6.652
14670TIP3    H143890   5.806   5.579   6.697
14670TIP3    H243891   5.698   5.486   6.649
14671TIP3   OH243892   6.209   5.557   6.696
14671TIP3    H143893   6.306   5.562   6.688
14671TIP3    H243894   6.189   5.499   6.620
14672TIP3   OH243895   6.876   5.435   6.411
14672TIP3    H143896   6.830   5.390   6.485
14672TIP3    H243897   6.915   5.511   6.457
14673TIP3   OH243898   5.853   4.991   6.851
14673TIP3    H143899   5.870   4.895   6.855
14673TIP3    H243900   5.765   4.993   6.809
14674TIP3   OH243901   5.828   4.644   5.043
14674TIP3    H143902   5.885   4.609   5.114
14674TIP3    H243903   5.895   4.652   4.971
14675TIP3   OH243904   6.461   5.064   6.627
14675TIP3    H143905   6.424   5.091   6.541
14675TIP3    H243906   6.488   4.971   6.614
14676TIP3   OH243907   6.950   5.077   6.223
14676TIP3    H143908   7.026   5.124   6.184
14676TIP3    H243909   6.884   5.149   6.224
14677TIP3   OH243910   5.973   4.722   6.830
14677TIP3    H143911   6.044   4.658   6.819
14677TIP3    H243912   5.993   4.758   6.919
14678TIP3   OH243913   6.038   4.542   5.270
14678TIP3    H143914   6.012   4.494   5.350
14678TIP3    H243915   6.075   4.470   5.214
14679TIP3   OH243916   6.318   4.623   6.495
14679TIP3    H143917   6.233   4.670   6.507
14679TIP3    H243918   6.331   4.630   6.399
14680TIP3   OH243919   6.136   4.337   5.109
14680TIP3    H143920   6.110   4.338   5.014
14680TIP3    H243921   6.234   4.345   5.101
14681TIP3   OH243922   6.814   4.995   6.620
14681TIP3    H143923   6.905   5.006   6.591
14681TIP3    H243924   6.823   4.939   6.699
14682TIP3   OH243925   6.967   4.669   4.767
14682TIP3    H143926   6.951   4.624   4.682
14682TIP3    H243927   6.934   4.759   4.744
14683TIP3   OH243928   6.431   4.397   6.623
14683TIP3    H143929   6.429   4.314   6.570
14683TIP3    H243930   6.387   4.461   6.563
14684TIP3   OH243931   6.432   4.182   6.429
14684TIP3    H143932   6.459   4.222   6.343
14684TIP3    H243933   6.338   4.159   6.411
14685TIP3   OH243934   6.481   4.722   6.238
14685TIP3    H143935   6.567   4.746   6.276
14685TIP3    H243936   6.421   4.793   6.267
14686TIP3   OH243937   7.044   4.688   6.685
14686TIP3    H143938   7.094   4.605   6.693
14686TIP3    H243939   7.112   4.749   6.653
14687TIP3   OH243940   7.085   4.937   6.414
14687TIP3    H143941   7.025   4.991   6.357
14687TIP3    H243942   7.172   4.961   6.373
14688TIP3   OH243943   6.305   4.516   6.846
14688TIP3    H143944   6.237   4.447   6.864
14688TIP3    H243945   6.343   4.485   6.762
14689TIP3   OH243946   6.565   3.949   6.491
14689TIP3    H143947   6.515   4.031   6.471
14689TIP3    H243948   6.495   3.881   6.481
14690TIP3   OH243949   6.691   4.455   6.711
14690TIP3    H143950   6.681   4.445   6.807
14690TIP3    H243951   6.601   4.428   6.683
14691TIP3   OH243952   6.931   4.400   6.565
14691TIP3    H143953   6.854   4.403   6.625
14691TIP3    H243954   7.003   4.369   6.624
14692TIP3   OH243955   7.167   4.342   6.717
14692TIP3    H143956   7.172   4.246   6.738
14692TIP3    H243957   7.157   4.383   6.806
14693TIP3   OH243958   6.149   4.294   6.899
14693TIP3    H143959   6.153   4.203   6.865
14693TIP3    H243960   6.182   4.280   6.991
14694TIP3   OH243961   6.663   3.960   6.747
14694TIP3    H143962   6.728   3.887   6.744
14694TIP3    H243963   6.620   3.950   6.659
14695TIP3   OH243964   6.727   4.174   6.909
14695TIP3    H143965   6.703   4.103   6.845
14695TIP3    H243966   6.649   4.233   6.904
14696TIP3   OH243967   5.939   5.401   5.010
14696TIP3    H143968   6.036   5.393   4.996
14696TIP3    H243969   5.914   5.447   4.928
14697TIP3   OH243970   5.433   4.783   5.251
14697TIP3    H143971   5.524   4.810   5.223
14697TIP3    H243972   5.422   4.698   5.206
14698TIP3   OH243973   5.339   5.397   5.637
14698TIP3    H143974   5.270   5.336   5.603
14698TIP3    H243975   5.381   5.340   5.705
14699TIP3   OH243976   5.477   5.254   5.825
14699TIP3    H143977   5.461   5.176   5.881
14699TIP3    H243978   5.525   5.312   5.887
14700TIP3   OH243979   7.202   5.646   5.626
14700TIP3    H143980   7.229   5.683   5.711
14700TIP3    H243981   7.257   5.694   5.563
14701TIP3   OH243982   7.236   5.670   5.907
14701TIP3    H143983   7.189   5.584   5.900
14701TIP3    H243984   7.307   5.643   5.968
14702TIP3   OH243985   7.281   5.343   6.481
14702TIP3    H143986   7.203   5.351   6.540
14702TIP3    H243987   7.318   5.433   6.485
14703TIP3   OH243988   7.096   4.857   5.101
14703TIP3    H143989   7.163   4.923   5.074
14703TIP3    H243990   7.138   4.819   5.181
14704TIP3   OH243991   7.224   4.725   5.305
14704TIP3    H143992   7.156   4.683   5.362
14704TIP3    H243993   7.283   4.768   5.370
14705TIP3   OH243994   7.275   5.114   5.739
14705TIP3    H143995   7.327   5.055   5.683
14705TIP3    H243996   7.264   5.193   5.682
14706TIP3   OH243997   7.111   5.416   5.935
14706TIP3    H143998   7.042   5.464   5.985
14706TIP3    H243999   7.059   5.370   5.866
14707TIP3   OH244000   7.161   4.632   4.955
14707TIP3    H144001   7.091   4.633   4.886
14707TIP3    H244002   7.133   4.709   5.008
14708TIP3   OH244003   7.033   4.306   4.910
14708TIP3    H144004   7.001   4.350   4.830
14708TIP3    H244005   7.002   4.214   4.896
14709TIP3   OH244006   7.040   4.581   5.455
14709TIP3    H144007   7.044   4.484   5.447
14709TIP3    H244008   7.026   4.593   5.552
14710TIP3   OH244009   5.668   4.654   6.199
14710TIP3    H144010   5.662   4.626   6.105
14710TIP3    H244011   5.765   4.654   6.213
14711TIP3   OH244012   7.326   5.006   6.308
14711TIP3    H144013   7.401   4.943   6.300
14711TIP3    H244014   7.353   5.078   6.248
14712TIP3   OH244015   7.514   4.816   6.331
14712TIP3    H144016   7.439   4.766   6.370
14712TIP3    H244017   7.585   4.750   6.343
14713TIP3   OH244018   6.977   4.040   4.898
14713TIP3    H144019   7.050   4.009   4.953
14713TIP3    H244020   6.902   3.982   4.922
14714TIP3   OH244021   7.035   4.298   5.352
14714TIP3    H144022   7.074   4.208   5.366
14714TIP3    H244023   7.091   4.329   5.279
14715TIP3   OH244024   7.199   4.474   5.843
14715TIP3    H144025   7.284   4.502   5.804
14715TIP3    H244026   7.210   4.511   5.933
14716TIP3   OH244027   7.264   4.615   6.077
14716TIP3    H144028   7.185   4.648   6.125
14716TIP3    H244029   7.295   4.696   6.031
14717TIP3   OH244030   5.882   4.345   6.876
14717TIP3    H144031   5.979   4.334   6.875
14717TIP3    H244032   5.855   4.261   6.916
14718TIP3   OH244033   7.723   4.210   6.633
14718TIP3    H144034   7.773   4.139   6.587
14718TIP3    H244035   7.687   4.262   6.558
14719TIP3   OH244036   7.143   4.046   5.386
14719TIP3    H144037   7.189   4.030   5.471
14719TIP3    H244038   7.081   3.970   5.384
14720TIP3   OH244039   5.842   4.034   6.204
14720TIP3    H144040   5.903   3.958   6.215
14720TIP3    H244041   5.905   4.108   6.201
14721TIP3   OH244042   5.648   4.309   6.280
14721TIP3    H144043   5.695   4.299   6.194
14721TIP3    H244044   5.675   4.397   6.307
14722TIP3   OH244045   7.590   4.346   6.439
14722TIP3    H144046   7.506   4.387   6.467
14722TIP3    H244047   7.556   4.277   6.379
14723TIP3   OH244048   7.229   3.983   5.019
14723TIP3    H144049   7.264   3.911   4.965
14723TIP3    H244050   7.292   4.055   5.003
14724TIP3   OH244051   5.628   3.818   5.783
14724TIP3    H144052   5.533   3.811   5.804
14724TIP3    H244053   5.627   3.872   5.701
14725TIP3   OH244054   6.792   5.511   5.289
14725TIP3    H144055   6.835   5.493   5.203
14725TIP3    H244056   6.846   5.584   5.322
14726TIP3   OH244057   5.849   3.895   6.594
14726TIP3    H144058   5.799   3.885   6.677
14726TIP3    H244059   5.780   3.930   6.535
14727TIP3   OH244060   5.887   5.317   6.671
14727TIP3    H144061   5.796   5.287   6.656
14727TIP3    H244062   5.899   5.299   6.765
14728TIP3   OH244063   6.065   5.344   6.215
14728TIP3    H144064   6.015   5.420   6.179
14728TIP3    H244065   6.152   5.362   6.174
14729TIP3   OH244066   6.696   5.765   6.186
14729TIP3    H144067   6.748   5.684   6.188
14729TIP3    H244068   6.722   5.805   6.271
14730TIP3   OH244069   7.486   4.111   6.313
14730TIP3    H144070   7.393   4.109   6.283
14730TIP3    H244071   7.510   4.016   6.303
14731TIP3   OH244072   5.745   5.609   6.240
14731TIP3    H144073   5.656   5.644   6.215
14731TIP3    H244074   5.748   5.634   6.333
14732TIP3   OH244075   5.980   5.584   6.097
14732TIP3    H144076   5.895   5.599   6.144
14732TIP3    H244077   5.960   5.619   6.008
14733TIP3   OH244078   6.407   5.618   5.896
14733TIP3    H144079   6.337   5.640   5.831
14733TIP3    H244080   6.419   5.704   5.941
14734TIP3   OH244081   6.674   5.551   5.939
14734TIP3    H144082   6.579   5.570   5.926
14734TIP3    H244083   6.714   5.635   5.914
14735TIP3   OH244084   6.890   5.752   5.865
14735TIP3    H144085   6.870   5.835   5.817
14735TIP3    H244086   6.907   5.689   5.791
14736TIP3   OH244087   5.656   5.404   5.988
14736TIP3    H144088   5.682   5.378   6.079
14736TIP3    H244089   5.726   5.358   5.937
14737TIP3   OH244090   5.845   5.273   5.841
14737TIP3    H144091   5.862   5.189   5.890
14737TIP3    H244092   5.934   5.312   5.836
14738TIP3   OH244093   6.111   5.373   5.842
14738TIP3    H144094   6.142   5.283   5.828
14738TIP3    H244095   6.152   5.393   5.928
14739TIP3   OH244096   6.690   4.025   5.933
14739TIP3    H144097   6.645   3.957   5.987
14739TIP3    H244098   6.756   3.972   5.886
14740TIP3   OH244099   7.219   3.909   5.844
14740TIP3    H144100   7.252   3.958   5.765
14740TIP3    H244101   7.122   3.919   5.834
14741TIP3   OH244102   7.310   4.006   5.605
14741TIP3    H144103   7.382   3.956   5.561
14741TIP3    H244104   7.341   4.098   5.588
14742TIP3   OH244105   5.939   3.735   5.952
14742TIP3    H144106   5.847   3.701   5.951
14742TIP3    H244107   5.989   3.650   5.948
14743TIP3   OH244108   5.723   3.602   5.597
14743TIP3    H144109   5.754   3.659   5.525
14743TIP3    H244110   5.694   3.666   5.663
14744TIP3   OH244111   6.379   3.769   5.829
14744TIP3    H144112   6.442   3.819   5.774
14744TIP3    H244113   6.398   3.803   5.917
14745TIP3   OH244114   6.940   3.910   5.814
14745TIP3    H144115   6.924   3.878   5.724
14745TIP3    H244116   6.919   3.830   5.868
14746TIP3   OH244117   6.959   3.833   5.376
14746TIP3    H144118   6.871   3.873   5.381
14746TIP3    H244119   6.944   3.749   5.425
14747TIP3   OH244120   5.444   5.168   5.377
14747TIP3    H144121   5.358   5.136   5.345
14747TIP3    H244122   5.431   5.263   5.364
14748TIP3   OH244123   5.839   3.765   5.361
14748TIP3    H144124   5.887   3.700   5.306
14748TIP3    H244125   5.913   3.817   5.399
14749TIP3   OH244126   6.354   3.937   5.461
14749TIP3    H144127   6.412   3.887   5.519
14749TIP3    H244128   6.379   4.028   5.486
14750TIP3   OH244129   6.206   5.361   4.956
14750TIP3    H144130   6.300   5.383   4.934
14750TIP3    H244131   6.185   5.302   4.882
14751TIP3   OH244132   6.933   5.479   5.055
14751TIP3    H144133   6.924   5.382   5.038
14751TIP3    H244134   6.890   5.515   4.974
14752TIP3   OH244135   6.147   4.017   6.842
14752TIP3    H144136   6.112   3.945   6.897
14752TIP3    H244137   6.242   4.016   6.869
14753TIP3   OH244138   6.397   4.013   6.961
14753TIP3    H144139   6.480   3.982   6.922
14753TIP3    H244140   6.381   3.943   7.029
14754TIP3   OH244141   5.555   5.229   5.033
14754TIP3    H144142   5.494   5.252   5.106
14754TIP3    H244143   5.608   5.159   5.073
14755TIP3   OH244144   7.218   4.070   6.749
14755TIP3    H144145   7.237   4.039   6.840
14755TIP3    H244146   7.306   4.064   6.707
14756TIP3   OH244147   7.164   5.624   6.240
14756TIP3    H144148   7.084   5.588   6.196
14756TIP3    H244149   7.140   5.719   6.243
14757TIP3   OH244150   8.425   4.988   5.014
14757TIP3    H144151   8.422   5.080   4.987
14757TIP3    H244152   8.353   4.946   4.962
14758TIP3   OH244153   8.417   4.994   5.383
14758TIP3    H144154   8.451   4.969   5.471
14758TIP3    H244155   8.379   4.910   5.352
14759TIP3   OH244156   7.727   4.894   5.750
14759TIP3    H144157   7.762   4.830   5.815
14759TIP3    H244158   7.801   4.956   5.744
14760TIP3   OH244159   8.657   5.292   5.072
14760TIP3    H144160   8.663   5.227   5.144
14760TIP3    H244161   8.687   5.373   5.117
14761TIP3   OH244162   7.693   5.301   5.485
14761TIP3    H144163   7.687   5.202   5.487
14761TIP3    H244164   7.790   5.311   5.476
14762TIP3   OH244165   7.403   4.508   5.268
14762TIP3    H144166   7.352   4.590   5.278
14762TIP3    H244167   7.334   4.450   5.231
14763TIP3   OH244168   7.465   4.796   5.434
14763TIP3    H144169   7.513   4.718   5.469
14763TIP3    H244170   7.517   4.817   5.355
14764TIP3   OH244171   8.313   5.765   5.084
14764TIP3    H144172   8.365   5.690   5.048
14764TIP3    H244173   8.317   5.749   5.179
14765TIP3   OH244174   8.227   5.217   5.422
14765TIP3    H144175   8.273   5.136   5.394
14765TIP3    H244176   8.306   5.267   5.453
14766TIP3   OH244177   9.233   4.542   5.433
14766TIP3    H144178   9.260   4.625   5.478
14766TIP3    H244179   9.250   4.564   5.340
14767TIP3   OH244180   8.633   4.724   5.472
14767TIP3    H144181   8.679   4.639   5.489
14767TIP3    H244182   8.606   4.711   5.379
14768TIP3   OH244183   7.972   4.383   5.436
14768TIP3    H144184   7.949   4.455   5.374
14768TIP3    H244185   7.925   4.309   5.391
14769TIP3   OH244186   8.665   4.474   5.060
14769TIP3    H144187   8.739   4.459   5.123
14769TIP3    H244188   8.714   4.509   4.984
14770TIP3   OH244189   7.607   4.586   5.541
14770TIP3    H144190   7.689   4.564   5.587
14770TIP3    H244191   7.615   4.529   5.461
14771TIP3   OH244192   8.052   4.785   5.325
14771TIP3    H144193   8.143   4.754   5.344
14771TIP3    H244194   8.009   4.701   5.297
14772TIP3   OH244195   9.305   4.746   5.605
14772TIP3    H144196   9.225   4.798   5.585
14772TIP3    H244197   9.325   4.777   5.695
14773TIP3   OH244198   7.968   4.365   5.876
14773TIP3    H144199   7.914   4.401   5.802
14773TIP3    H244200   7.910   4.391   5.951
14774TIP3   OH244201   8.076   5.141   5.668
14774TIP3    H144202   8.009   5.202   5.709
14774TIP3    H244203   8.116   5.200   5.602
14775TIP3   OH244204   8.878   4.475   5.227
14775TIP3    H144205   8.879   4.421   5.307
14775TIP3    H244206   8.936   4.549   5.250
14776TIP3   OH244207   7.842   4.478   5.657
14776TIP3    H144208   7.902   4.554   5.676
14776TIP3    H244209   7.888   4.440   5.578
14777TIP3   OH244210   7.900   5.331   5.762
14777TIP3    H144211   7.877   5.415   5.719
14777TIP3    H244212   7.821   5.320   5.819
14778TIP3   OH244213   7.304   5.023   5.001
14778TIP3    H144214   7.260   5.045   4.916
14778TIP3    H244215   7.329   5.111   5.035
14779TIP3   OH244216   8.742   5.535   5.231
14779TIP3    H144217   8.655   5.528   5.276
14779TIP3    H244218   8.735   5.624   5.191
14780TIP3   OH244219   9.027   4.443   5.600
14780TIP3    H144220   8.940   4.475   5.570
14780TIP3    H244221   9.086   4.473   5.528
14781TIP3   OH244222   8.332   4.087   5.584
14781TIP3    H144223   8.314   3.991   5.596
14781TIP3    H244224   8.252   4.125   5.625
14782TIP3   OH244225   8.437   5.585   4.910
14782TIP3    H144226   8.488   5.504   4.886
14782TIP3    H244227   8.498   5.654   4.872
14783TIP3   OH244228   8.560   5.355   4.819
14783TIP3    H144229   8.580   5.286   4.754
14783TIP3    H244230   8.610   5.326   4.898
14784TIP3   OH244231   8.967   5.455   5.582
14784TIP3    H144232   8.955   5.379   5.522
14784TIP3    H244233   8.946   5.531   5.522
14785TIP3   OH244234   8.264   4.859   4.837
14785TIP3    H144235   8.177   4.896   4.813
14785TIP3    H244236   8.305   4.842   4.749
14786TIP3   OH244237   8.217   4.631   4.561
14786TIP3    H144238   8.290   4.681   4.601
14786TIP3    H244239   8.267   4.564   4.511
14787TIP3   OH244240   9.160   5.087   5.423
14787TIP3    H144241   9.078   5.142   5.430
14787TIP3    H244242   9.190   5.114   5.333
14788TIP3   OH244243   8.603   4.929   4.814
14788TIP3    H144244   8.554   4.943   4.898
14788TIP3    H244245   8.690   4.901   4.850
14789TIP3   OH244246   8.839   4.972   5.718
14789TIP3    H144247   8.837   5.056   5.768
14789TIP3    H244248   8.752   4.978   5.672
14790TIP3   OH244249   7.825   4.922   5.235
14790TIP3    H144250   7.789   4.874   5.158
14790TIP3    H244251   7.911   4.878   5.249
14791TIP3   OH244252   7.963   5.339   5.377
14791TIP3    H144253   7.933   5.295   5.296
14791TIP3    H244254   8.052   5.302   5.390
14792TIP3   OH244255   7.983   4.896   5.581
14792TIP3    H144256   8.004   4.886   5.486
14792TIP3    H244257   8.017   4.986   5.601
14793TIP3   OH244258   8.502   5.525   5.351
14793TIP3    H144259   8.463   5.605   5.393
14793TIP3    H244260   8.484   5.457   5.418
14794TIP3   OH244261   8.103   5.455   5.912
14794TIP3    H144262   8.044   5.521   5.954
14794TIP3    H244263   8.039   5.404   5.859
14795TIP3   OH244264   8.446   4.788   4.635
14795TIP3    H144265   8.505   4.847   4.687
14795TIP3    H244266   8.472   4.812   4.542
14796TIP3   OH244267   7.863   5.013   6.003
14796TIP3    H144268   7.868   5.099   6.049
14796TIP3    H244269   7.767   4.996   6.010
14797TIP3   OH244270   8.179   5.481   4.932
14797TIP3    H144271   8.259   5.538   4.938
14797TIP3    H244272   8.121   5.538   4.878
14798TIP3   OH244273   7.901   5.629   5.988
14798TIP3    H144274   7.867   5.624   5.897
14798TIP3    H244275   7.824   5.606   6.043
14799TIP3   OH244276   8.962   4.033   4.687
14799TIP3    H144277   8.879   4.053   4.735
14799TIP3    H244278   8.974   4.114   4.634
14800TIP3   OH244279   7.704   4.770   5.027
14800TIP3    H144280   7.639   4.820   4.972
14800TIP3    H244281   7.655   4.688   5.042
14801TIP3   OH244282   8.757   5.400   4.233
14801TIP3    H144283   8.767   5.496   4.216
14801TIP3    H244284   8.850   5.369   4.219
14802TIP3   OH244285   7.485   5.155   5.938
14802TIP3    H144286   7.420   5.134   5.867
14802TIP3    H244287   7.519   5.066   5.962
14803TIP3   OH244288   7.338   5.343   5.580
14803TIP3    H144289   7.432   5.345   5.559
14803TIP3    H244290   7.325   5.429   5.623
14804TIP3   OH244291   9.203   5.797   5.626
14804TIP3    H144292   9.200   5.701   5.638
14804TIP3    H244293   9.119   5.823   5.670
14805TIP3   OH244294   8.314   5.574   5.775
14805TIP3    H144295   8.312   5.672   5.782
14805TIP3    H244296   8.235   5.548   5.828
14806TIP3   OH244297   8.073   5.717   4.713
14806TIP3    H144298   8.019   5.692   4.636
14806TIP3    H244299   8.035   5.804   4.736
14807TIP3   OH244300   7.500   5.566   5.093
14807TIP3    H144301   7.553   5.555   5.174
14807TIP3    H244302   7.440   5.490   5.101
14808TIP3   OH244303   8.270   5.616   4.352
14808TIP3    H144304   8.330   5.547   4.316
14808TIP3    H244305   8.303   5.624   4.445
14809TIP3   OH244306   8.322   5.663   4.622
14809TIP3    H144307   8.233   5.677   4.661
14809TIP3    H244308   8.370   5.625   4.698
14810TIP3   OH244309   9.093   4.931   5.901
14810TIP3    H144310   9.015   4.947   5.847
14810TIP3    H244311   9.107   4.835   5.888
14811TIP3   OH244312   7.688   5.340   5.933
14811TIP3    H144313   7.740   5.318   6.013
14811TIP3    H244314   7.615   5.275   5.937
14812TIP3   OH244315   8.091   4.158   5.710
14812TIP3    H144316   8.002   4.125   5.684
14812TIP3    H244317   8.066   4.247   5.741
14813TIP3   OH244318   8.618   4.274   5.908
14813TIP3    H144319   8.698   4.251   5.960
14813TIP3    H244320   8.548   4.263   5.972
14814TIP3   OH244321   8.861   4.705   5.820
14814TIP3    H144322   8.814   4.702   5.906
14814TIP3    H244323   8.839   4.795   5.787
14815TIP3   OH244324   8.522   4.842   4.382
14815TIP3    H144325   8.486   4.812   4.296
14815TIP3    H244326   8.602   4.890   4.352
14816TIP3   OH244327   8.236   4.212   4.681
14816TIP3    H144328   8.201   4.210   4.771
14816TIP3    H244329   8.195   4.130   4.645
14817TIP3   OH244330   8.020   4.675   5.730
14817TIP3    H144331   7.967   4.699   5.809
14817TIP3    H244332   8.008   4.756   5.674
14818TIP3   OH244333   7.905   4.562   5.244
14818TIP3    H144334   7.811   4.541   5.259
14818TIP3    H244335   7.917   4.524   5.154
14819TIP3   OH244336   8.395   4.650   4.968
14819TIP3    H144337   8.342   4.722   4.928
14819TIP3    H244338   8.448   4.621   4.892
14820TIP3   OH244339   8.569   4.928   6.056
14820TIP3    H144340   8.548   4.856   6.119
14820TIP3    H244341   8.662   4.947   6.078
14821TIP3   OH244342   8.552   4.679   5.211
14821TIP3    H144343   8.494   4.709   5.138
14821TIP3    H244344   8.585   4.597   5.169
14822TIP3   OH244345   7.842   4.708   5.938
14822TIP3    H144346   7.856   4.776   6.005
14822TIP3    H244347   7.822   4.629   5.991
14823TIP3   OH244348   7.892   4.185   4.648
14823TIP3    H144349   7.880   4.179   4.745
14823TIP3    H244350   7.810   4.233   4.622
14824TIP3   OH244351   7.430   4.232   5.519
14824TIP3    H144352   7.510   4.260   5.568
14824TIP3    H244353   7.464   4.197   5.435
14825TIP3   OH244354   7.414   4.214   5.039
14825TIP3    H144355   7.456   4.253   4.960
14825TIP3    H244356   7.349   4.284   5.060
14826TIP3   OH244357   8.561   4.927   5.632
14826TIP3    H144358   8.593   4.852   5.577
14826TIP3    H244359   8.533   4.878   5.712
14827TIP3   OH244360   8.229   4.383   5.306
14827TIP3    H144361   8.143   4.383   5.351
14827TIP3    H244362   8.290   4.394   5.380
14828TIP3   OH244363   7.664   4.439   5.315
14828TIP3    H144364   7.570   4.450   5.288
14828TIP3    H244365   7.684   4.348   5.288
14829TIP3   OH244366   7.939   4.442   5.000
14829TIP3    H144367   8.032   4.455   4.973
14829TIP3    H244368   7.888   4.462   4.917
14830TIP3   OH244369   8.721   4.461   5.505
14830TIP3    H144370   8.686   4.473   5.596
14830TIP3    H244371   8.656   4.398   5.468
14831TIP3   OH244372   7.775   4.469   4.783
14831TIP3    H144373   7.698   4.428   4.739
14831TIP3    H244374   7.823   4.502   4.705
14832TIP3   OH244375   8.890   6.151   5.720
14832TIP3    H144376   8.887   6.173   5.625
14832TIP3    H244377   8.968   6.201   5.749
14833TIP3   OH244378   7.850   5.259   6.147
14833TIP3    H144379   7.929   5.291   6.195
14833TIP3    H244380   7.785   5.258   6.220
14834TIP3   OH244381   8.316   4.709   5.400
14834TIP3    H144382   8.389   4.673   5.348
14834TIP3    H244383   8.334   4.674   5.489
14835TIP3   OH244384   7.848   4.201   5.278
14835TIP3    H144385   7.808   4.121   5.319
14835TIP3    H244386   7.886   4.166   5.196
14836TIP3   OH244387   8.290   4.594   5.716
14836TIP3    H144388   8.203   4.638   5.710
14836TIP3    H244389   8.348   4.665   5.749
14837TIP3   OH244390   8.027   5.000   4.796
14837TIP3    H144391   7.965   4.934   4.756
14837TIP3    H244392   7.966   5.037   4.861
14838TIP3   OH244393   8.931   5.237   5.418
14838TIP3    H144394   8.955   5.287   5.336
14838TIP3    H244395   8.844   5.199   5.394
14839TIP3   OH244396   8.488   4.314   4.650
14839TIP3    H144397   8.391   4.297   4.652
14839TIP3    H244398   8.495   4.410   4.667
14840TIP3   OH244399   8.422   5.316   5.785
14840TIP3    H144400   8.445   5.303   5.877
14840TIP3    H244401   8.394   5.411   5.784
14841TIP3   OH244402   8.557   4.562   4.753
14841TIP3    H144403   8.654   4.565   4.765
14841TIP3    H244404   8.540   4.638   4.694
14842TIP3   OH244405   7.724   5.025   5.468
14842TIP3    H144406   7.753   4.995   5.379
14842TIP3    H244407   7.752   4.951   5.524
14843TIP3   OH244408   8.168   5.153   4.602
14843TIP3    H144409   8.124   5.240   4.610
14843TIP3    H244410   8.114   5.098   4.662
14844TIP3   OH244411   7.600   4.941   6.074
14844TIP3    H144412   7.617   4.930   6.170
14844TIP3    H244413   7.527   4.878   6.060
14845TIP3   OH244414   8.324   5.053   6.098
14845TIP3    H144415   8.265   4.999   6.042
14845TIP3    H244416   8.412   5.024   6.066
14846TIP3   OH244417   8.596   5.561   5.690
14846TIP3    H144418   8.505   5.585   5.667
14846TIP3    H244419   8.613   5.626   5.761
14847TIP3   OH244420   8.998   4.648   4.589
14847TIP3    H144421   8.936   4.602   4.527
14847TIP3    H244422   8.997   4.736   4.546
14848TIP3   OH244423   9.216   5.504   5.671
14848TIP3    H144424   9.118   5.502   5.662
14848TIP3    H244425   9.241   5.476   5.580
14849TIP3   OH244426   8.695   5.468   4.494
14849TIP3    H144427   8.676   5.390   4.549
14849TIP3    H244428   8.711   5.428   4.406
14850TIP3   OH244429   8.694   5.100   5.335
14850TIP3    H144430   8.601   5.075   5.350
14850TIP3    H244431   8.728   5.019   5.291
14851TIP3   OH244432   7.836   5.326   5.089
14851TIP3    H144433   7.818   5.413   5.046
14851TIP3    H244434   7.748   5.287   5.084
14852TIP3   OH244435   7.381   4.632   4.789
14852TIP3    H144436   7.427   4.715   4.810
14852TIP3    H244437   7.303   4.636   4.850
14853TIP3   OH244438   8.092   5.670   5.562
14853TIP3    H144439   8.136   5.741   5.513
14853TIP3    H244440   8.173   5.632   5.601
14854TIP3   OH244441   7.764   5.569   4.981
14854TIP3    H144442   7.667   5.563   4.983
14854TIP3    H244443   7.776   5.661   4.949
14855TIP3   OH244444   8.477   5.296   5.516
14855TIP3    H144445   8.468   5.302   5.614
14855TIP3    H244446   8.565   5.257   5.508
14856TIP3   OH244447   8.450   5.193   4.399
14856TIP3    H144448   8.500   5.172   4.481
14856TIP3    H244449   8.360   5.170   4.426
14857TIP3   OH244450   8.724   5.835   5.562
14857TIP3    H144451   8.637   5.790   5.556
14857TIP3    H244452   8.712   5.905   5.494
14858TIP3   OH244453   8.792   5.674   4.219
14858TIP3    H144454   8.831   5.744   4.163
14858TIP3    H244455   8.712   5.721   4.250
14859TIP3   OH244456   7.810   4.445   6.089
14859TIP3    H144457   7.714   4.462   6.098
14859TIP3    H244458   7.823   4.377   6.156
14860TIP3   OH244459   8.614   5.143   4.630
14860TIP3    H144460   8.604   5.065   4.689
14860TIP3    H244461   8.708   5.133   4.604
14861TIP3   OH244462   7.530   5.540   5.718
14861TIP3    H144463   7.575   5.456   5.738
14861TIP3    H244464   7.563   5.596   5.788
14862TIP3   OH244465   7.813   5.170   4.381
14862TIP3    H144466   7.840   5.077   4.384
14862TIP3    H244467   7.791   5.187   4.477
14863TIP3   OH244468   7.505   4.883   4.872
14863TIP3    H144469   7.437   4.924   4.929
14863TIP3    H244470   7.518   4.954   4.807
14864TIP3   OH244471   8.646   4.512   5.764
14864TIP3    H144472   8.725   4.554   5.802
14864TIP3    H244473   8.633   4.434   5.820
14865TIP3   OH244474   8.526   4.267   4.927
14865TIP3    H144475   8.510   4.289   4.833
14865TIP3    H244476   8.564   4.351   4.961
14866TIP3   OH244477   8.037   5.391   4.640
14866TIP3    H144478   7.943   5.367   4.656
14866TIP3    H244479   8.028   5.456   4.569
14867TIP3   OH244480   8.226   4.441   5.031
14867TIP3    H144481   8.289   4.514   5.013
14867TIP3    H244482   8.224   4.439   5.129
14868TIP3   OH244483   8.487   4.764   5.841
14868TIP3    H144484   8.502   4.822   5.919
14868TIP3    H244485   8.547   4.690   5.858
14869TIP3   OH244486   8.369   4.180   5.141
14869TIP3    H144487   8.351   4.261   5.191
14869TIP3    H244488   8.425   4.215   5.068
14870TIP3   OH244489   7.873   4.167   4.927
14870TIP3    H144490   7.871   4.259   4.957
14870TIP3    H244491   7.969   4.149   4.932
14871TIP3   OH244492   9.129   4.662   5.821
14871TIP3    H144493   9.031   4.660   5.825
14871TIP3    H244494   9.143   4.631   5.731
14872TIP3   OH244495   8.779   4.858   5.208
14872TIP3    H144496   8.704   4.797   5.220
14872TIP3    H244497   8.852   4.812   5.255
14873TIP3   OH244498   7.489   5.096   4.678
14873TIP3    H144499   7.552   5.168   4.699
14873TIP3    H244500   7.544   5.047   4.614
14874TIP3   OH244501   7.437   4.364   4.810
14874TIP3    H144502   7.433   4.461   4.803
14874TIP3    H244503   7.352   4.338   4.773
14875TIP3   OH244504   8.748   5.803   5.155
14875TIP3    H144505   8.705   5.855   5.084
14875TIP3    H244506   8.842   5.828   5.139
14876TIP3   OH244507   7.827   4.083   5.687
14876TIP3    H144508   7.792   4.053   5.600
14876TIP3    H244509   7.812   4.004   5.742
14877TIP3   OH244510   7.367   5.304   5.076
14877TIP3    H144511   7.281   5.336   5.105
14877TIP3    H244512   7.364   5.333   4.983
14878TIP3   OH244513   7.517   5.835   6.132
14878TIP3    H144514   7.601   5.820   6.177
14878TIP3    H244515   7.483   5.743   6.129
14879TIP3   OH244516   7.980   5.382   4.315
14879TIP3    H144517   7.919   5.313   4.350
14879TIP3    H244518   8.054   5.326   4.285
14880TIP3   OH244519   8.635   5.719   5.920
14880TIP3    H144520   8.628   5.644   5.983
14880TIP3    H244521   8.718   5.762   5.947
14881TIP3   OH244522   8.419   5.425   4.220
14881TIP3    H144523   8.470   5.364   4.276
14881TIP3    H244524   8.473   5.429   4.138
14882TIP3   OH244525   7.650   5.248   6.337
14882TIP3    H144526   7.665   5.151   6.342
14882TIP3    H244527   7.561   5.251   6.297
14883TIP3   OH244528   7.631   4.917   4.526
14883TIP3    H144529   7.669   4.867   4.601
14883TIP3    H244530   7.701   4.906   4.460
14884TIP3   OH244531   8.257   5.330   6.112
14884TIP3    H144532   8.216   5.347   6.025
14884TIP3    H244533   8.288   5.237   6.103
14885TIP3   OH244534   8.129   5.098   4.336
14885TIP3    H144535   8.134   5.111   4.432
14885TIP3    H244536   8.132   5.000   4.331
14886TIP3   OH244537   8.750   5.334   5.714
14886TIP3    H144538   8.823   5.382   5.672
14886TIP3    H244539   8.680   5.402   5.709
14887TIP3   OH244540   7.767   4.980   6.319
14887TIP3    H144541   7.839   4.918   6.305
14887TIP3    H244542   7.789   5.014   6.408
14888TIP3   OH244543   7.845   4.798   4.756
14888TIP3    H144544   7.805   4.759   4.835
14888TIP3    H244545   7.871   4.719   4.704
14889TIP3   OH244546   8.106   4.866   5.985
14889TIP3    H144547   8.027   4.924   5.989
14889TIP3    H244548   8.149   4.897   5.903
14890TIP3   OH244549   7.932   4.592   4.594
14890TIP3    H144550   7.905   4.590   4.500
14890TIP3    H244551   8.029   4.600   4.585
14891TIP3   OH244552   8.617   5.266   6.117
14891TIP3    H144553   8.699   5.253   6.068
14891TIP3    H244554   8.623   5.198   6.187
14892TIP3   OH244555   8.759   4.928   4.254
14892TIP3    H144556   8.738   4.880   4.172
14892TIP3    H244557   8.728   5.018   4.228
14893TIP3   OH244558   8.226   4.650   6.105
14893TIP3    H144559   8.224   4.576   6.042
14893TIP3    H244560   8.183   4.722   6.053
14894TIP3   OH244561   8.227   4.412   5.931
14894TIP3    H144562   8.267   4.462   5.856
14894TIP3    H244563   8.133   4.411   5.900
14895TIP3   OH244564   8.261   4.977   5.785
14895TIP3    H144565   8.341   4.988   5.732
14895TIP3    H244566   8.203   5.046   5.747
14896TIP3   OH244567   8.841   4.944   6.171
14896TIP3    H144568   8.894   4.863   6.181
14896TIP3    H244569   8.907   5.007   6.138
14897TIP3   OH244570   8.881   5.195   5.904
14897TIP3    H144571   8.822   5.247   5.845
14897TIP3    H244572   8.968   5.216   5.863
14898TIP3   OH244573   8.107   4.770   6.337
14898TIP3    H144574   8.034   4.707   6.351
14898TIP3    H244575   8.137   4.746   6.247
14899TIP3   OH244576   8.489   4.708   6.196
14899TIP3    H144577   8.482   4.707   6.293
14899TIP3    H244578   8.396   4.688   6.172
14900TIP3   OH244579   8.726   4.652   6.050
14900TIP3    H144580   8.652   4.663   6.114
14900TIP3    H244581   8.800   4.628   6.109
14901TIP3   OH244582   8.951   4.596   6.204
14901TIP3    H144583   8.967   4.502   6.226
14901TIP3    H244584   8.951   4.639   6.292
14902TIP3   OH244585   7.942   4.551   6.385
14902TIP3    H144586   7.946   4.460   6.350
14902TIP3    H244587   7.979   4.539   6.474
14903TIP3   OH244588   8.514   4.422   6.397
14903TIP3    H144589   8.500   4.378   6.313
14903TIP3    H244590   8.444   4.491   6.398
14904TIP3   OH244591   7.731   5.663   4.479
14904TIP3    H144592   7.827   5.649   4.481
14904TIP3    H244593   7.721   5.718   4.400
14905TIP3   OH244594   7.226   5.038   4.733
14905TIP3    H144595   7.314   5.070   4.706
14905TIP3    H244596   7.216   4.958   4.681
14906TIP3   OH244597   7.133   5.654   5.125
14906TIP3    H144598   7.066   5.591   5.090
14906TIP3    H244599   7.177   5.598   5.192
14907TIP3   OH244600   7.268   5.513   5.314
14907TIP3    H144601   7.260   5.432   5.365
14907TIP3    H244602   7.321   5.569   5.374
14908TIP3   OH244603   8.997   5.906   5.112
14908TIP3    H144604   9.021   5.941   5.199
14908TIP3    H244605   9.056   5.954   5.053
14909TIP3   OH244606   9.031   5.924   5.393
14909TIP3    H144607   8.987   5.837   5.390
14909TIP3    H244608   9.106   5.903   5.450
14910TIP3   OH244609   9.076   5.601   5.968
14910TIP3    H144610   9.001   5.610   6.030
14910TIP3    H244611   9.116   5.690   5.972
14911TIP3   OH244612   8.888   5.118   4.590
14911TIP3    H144613   8.958   5.179   4.560
14911TIP3    H244614   8.932   5.076   4.667
14912TIP3   OH244615   9.017   4.985   4.792
14912TIP3    H144616   8.954   4.941   4.852
14912TIP3    H244617   9.083   5.022   4.853
14913TIP3   OH244618   9.068   5.370   5.224
14913TIP3    H144619   9.124   5.312   5.169
14913TIP3    H244620   9.060   5.449   5.167
14914TIP3   OH244621   8.904   5.673   5.423
14914TIP3    H144622   8.832   5.719   5.471
14914TIP3    H244623   8.854   5.626   5.353
14915TIP3   OH244624   8.957   4.890   4.442
14915TIP3    H144625   8.886   4.892   4.373
14915TIP3    H244626   8.930   4.967   4.495
14916TIP3   OH244627   8.827   4.565   4.397
14916TIP3    H144628   8.790   4.604   4.317
14916TIP3    H244629   8.800   4.471   4.386
14917TIP3   OH244630   8.832   4.837   4.940
14917TIP3    H144631   8.843   4.740   4.934
14917TIP3    H244632   8.821   4.850   5.037
14918TIP3   OH244633   7.461   4.909   5.687
14918TIP3    H144634   7.458   4.883   5.592
14918TIP3    H244635   7.559   4.912   5.701
14919TIP3   OH244636   9.121   5.262   5.795
14919TIP3    H144637   9.196   5.199   5.787
14919TIP3    H244638   9.148   5.333   5.735
14920TIP3   OH244639   9.309   5.072   5.819
14920TIP3    H144640   9.235   5.020   5.859
14920TIP3    H244641   9.382   5.007   5.831
14921TIP3   OH244642   8.771   4.300   4.387
14921TIP3    H144643   8.847   4.265   4.437
14921TIP3    H244644   8.699   4.238   4.407
14922TIP3   OH244645   8.830   4.554   4.837
14922TIP3    H144646   8.870   4.465   4.852
14922TIP3    H244647   8.888   4.586   4.766
14923TIP3   OH244648   8.993   4.733   5.330
14923TIP3    H144649   9.079   4.759   5.290
14923TIP3    H244650   9.006   4.769   5.420
14924TIP3   OH244651   9.057   4.872   5.565
14924TIP3    H144652   8.979   4.908   5.611
14924TIP3    H244653   9.091   4.952   5.518
14925TIP3   OH244654   7.675   4.601   6.360
14925TIP3    H144655   7.773   4.594   6.362
14925TIP3    H244656   7.650   4.517   6.404
14926TIP3   OH244657   9.513   4.461   6.120
14926TIP3    H144658   9.569   4.394   6.076
14926TIP3    H244659   9.484   4.518   6.046
14927TIP3   OH244660   8.938   4.304   4.874
14927TIP3    H144661   8.988   4.289   4.957
14927TIP3    H244662   8.879   4.227   4.873
14928TIP3   OH244663   7.640   4.290   5.693
14928TIP3    H144664   7.702   4.215   5.701
14928TIP3    H244665   7.701   4.365   5.688
14929TIP3   OH244666   7.447   4.565   5.769
14929TIP3    H144667   7.491   4.556   5.682
14929TIP3    H244668   7.470   4.656   5.791
14930TIP3   OH244669   9.385   4.605   5.929
14930TIP3    H144670   9.297   4.643   5.949
14930TIP3    H244671   9.360   4.536   5.866
14931TIP3   OH244672   9.023   4.240   4.505
14931TIP3    H144673   9.062   4.167   4.452
14931TIP3    H244674   9.088   4.311   4.495
14932TIP3   OH244675   7.424   4.078   5.272
14932TIP3    H144676   7.329   4.068   5.290
14932TIP3    H244677   7.424   4.130   5.189
14933TIP3   OH244678   8.583   5.766   4.773
14933TIP3    H144679   8.633   5.753   4.690
14933TIP3    H244680   8.637   5.833   4.819
14934TIP3   OH244681   7.647   4.150   6.083
14934TIP3    H144682   7.593   4.142   6.163
14934TIP3    H244683   7.581   4.189   6.021
14935TIP3   OH244684   7.682   5.581   6.170
14935TIP3    H144685   7.595   5.547   6.140
14935TIP3    H244686   7.687   5.544   6.259
14936TIP3   OH244687   7.862   5.604   5.706
14936TIP3    H144688   7.813   5.677   5.664
14936TIP3    H244689   7.949   5.620   5.665
14937TIP3   OH244690   8.308   5.853   5.847
14937TIP3    H144691   8.367   5.846   5.925
14937TIP3    H244692   8.368   5.897   5.783
14938TIP3   OH244693   8.484   6.009   5.714
14938TIP3    H144694   8.531   5.955   5.648
14938TIP3    H244695   8.556   6.057   5.760
14939TIP3   OH244696   9.282   4.367   5.802
14939TIP3    H144697   9.191   4.366   5.769
14939TIP3    H244698   9.309   4.273   5.789
14940TIP3   OH244699   7.543   5.875   5.730
14940TIP3    H144700   7.456   5.906   5.698
14940TIP3    H244701   7.526   5.871   5.824
14941TIP3   OH244702   7.777   5.842   5.585
14941TIP3    H144703   7.690   5.858   5.629
14941TIP3    H244704   7.758   5.873   5.494
14942TIP3   OH244705   8.703   6.011   5.356
14942TIP3    H144706   8.669   6.090   5.308
14942TIP3    H244707   8.697   5.942   5.288
14943TIP3   OH244708   7.451   5.660   5.476
14943TIP3    H144709   7.479   5.632   5.566
14943TIP3    H244710   7.521   5.616   5.423
14944TIP3   OH244711   7.640   5.531   5.328
14944TIP3    H144712   7.660   5.446   5.373
14944TIP3    H244713   7.729   5.570   5.317
14945TIP3   OH244714   7.909   5.628   5.333
14945TIP3    H144715   7.937   5.536   5.318
14945TIP3    H244716   7.952   5.645   5.419
14946TIP3   OH244717   8.491   4.285   5.428
14946TIP3    H144718   8.440   4.215   5.473
14946TIP3    H244719   8.549   4.235   5.369
14947TIP3   OH244720   9.013   4.165   5.335
14947TIP3    H144721   9.051   4.203   5.253
14947TIP3    H244722   8.918   4.178   5.319
14948TIP3   OH244723   9.105   4.265   5.093
14948TIP3    H144724   9.175   4.211   5.050
14948TIP3    H244725   9.139   4.355   5.075
14949TIP3   OH244726   7.736   3.991   5.441
14949TIP3    H144727   7.643   3.960   5.437
14949TIP3    H244728   7.783   3.905   5.435
14950TIP3   OH244729   7.527   3.858   5.085
14950TIP3    H144730   7.551   3.916   5.010
14950TIP3    H244731   7.488   3.921   5.148
14951TIP3   OH244732   8.182   4.020   5.315
14951TIP3    H144733   8.237   4.077   5.260
14951TIP3    H244734   8.187   4.063   5.401
14952TIP3   OH244735   8.730   4.161   5.302
14952TIP3    H144736   8.710   4.145   5.209
14952TIP3    H244737   8.712   4.074   5.344
14953TIP3   OH244738   8.754   4.089   4.863
14953TIP3    H144739   8.667   4.133   4.866
14953TIP3    H244740   8.735   4.006   4.911
14954TIP3   OH244741   7.235   5.424   4.871
14954TIP3    H144742   7.149   5.393   4.833
14954TIP3    H244743   7.227   5.519   4.852
14955TIP3   OH244744   7.635   4.018   4.850
14955TIP3    H144745   7.684   3.956   4.792
14955TIP3    H244746   7.708   4.072   4.887
14956TIP3   OH244747   8.150   4.193   4.947
14956TIP3    H144748   8.208   4.143   5.006
14956TIP3    H244749   8.175   4.285   4.972
14957TIP3   OH244750   8.009   5.621   4.446
14957TIP3    H144751   8.098   5.642   4.410
14957TIP3    H244752   7.986   5.546   4.388
14958TIP3   OH244753   8.726   5.735   4.540
14958TIP3    H144754   8.718   5.638   4.525
14958TIP3    H244755   8.684   5.769   4.458
14959TIP3   OH244756   7.976   4.264   6.337
14959TIP3    H144757   7.919   4.197   6.379
14959TIP3    H244758   8.044   4.274   6.405
14960TIP3   OH244759   7.354   5.476   4.516
14960TIP3    H144760   7.300   5.505   4.592
14960TIP3    H244761   7.409   5.411   4.557
14961TIP3   OH244762   9.014   4.326   6.235
14961TIP3    H144763   9.035   4.295   6.326
14961TIP3    H244764   9.102   4.323   6.193
14962TIP3   OH244765   8.955   5.882   5.727
14962TIP3    H144766   8.877   5.848   5.678
14962TIP3    H244767   8.937   5.978   5.725
14963TIP3   OH244768   9.523   5.150   5.237
14963TIP3    H144769   9.555   5.084   5.301
14963TIP3    H244770   9.598   5.211   5.234
14964TIP3   OH244771   9.485   5.556   4.973
14964TIP3    H144772   9.482   5.458   4.974
14964TIP3    H244773   9.580   5.570   4.957
14965TIP3   OH244774   9.194   4.764   4.756
14965TIP3    H144775   9.146   4.848   4.762
14965TIP3    H244776   9.126   4.707   4.717
14966TIP3   OH244777   9.260   5.049   4.918
14966TIP3    H144778   9.307   4.971   4.955
14966TIP3    H244779   9.316   5.072   4.843
14967TIP3   OH244780  10.003   5.962   4.598
14967TIP3    H144781  10.083   5.976   4.543
14967TIP3    H244782  10.041   5.968   4.686
14968TIP3   OH244783   9.970   5.491   4.922
14968TIP3    H144784   9.977   5.430   4.848
14968TIP3    H244785  10.065   5.497   4.946
14969TIP3   OH244786   9.405   4.841   5.032
14969TIP3    H144787   9.499   4.848   5.052
14969TIP3    H244788   9.410   4.785   4.951
14970TIP3   OH244789   9.807   5.064   4.811
14970TIP3    H144790   9.902   5.043   4.816
14970TIP3    H244791   9.770   4.979   4.776
14971TIP3   OH244792   9.847   5.404   5.147
14971TIP3    H144793   9.789   5.472   5.188
14971TIP3    H244794   9.890   5.455   5.076
14972TIP3   OH244795   9.692   5.596   5.251
14972TIP3    H144796   9.668   5.682   5.211
14972TIP3    H244797   9.613   5.582   5.308
14973TIP3   OH244798   9.095   5.280   4.485
14973TIP3    H144799   9.057   5.307   4.400
14973TIP3    H244800   9.126   5.366   4.522
14974TIP3   OH244801   9.607   5.204   4.700
14974TIP3    H144802   9.570   5.141   4.634
14974TIP3    H244803   9.683   5.151   4.734
14975TIP3   OH244804   9.734   5.609   4.853
14975TIP3    H144805   9.719   5.562   4.769
14975TIP3    H244806   9.820   5.573   4.883
14976TIP3   OH244807   9.782   5.147   5.075
14976TIP3    H144808   9.792   5.137   4.978
14976TIP3    H244809   9.805   5.241   5.090
14977TIP3   OH244810   9.903   5.717   5.392
14977TIP3    H144811   9.842   5.778   5.439
14977TIP3    H244812   9.838   5.662   5.343
14978TIP3   OH244813   9.656   5.273   5.491
14978TIP3    H144814   9.661   5.359   5.536
14978TIP3    H244815   9.561   5.254   5.497
14979TIP3   OH244816   9.957   5.750   4.419
14979TIP3    H144817   9.973   5.818   4.487
14979TIP3    H244818   9.892   5.793   4.362
14980TIP3   OH244819   9.700   5.886   5.477
14980TIP3    H144820   9.665   5.882   5.386
14980TIP3    H244821   9.621   5.862   5.531
14981TIP3   OH244822   9.495   5.031   4.514
14981TIP3    H144823   9.427   5.069   4.455
14981TIP3    H244824   9.461   4.942   4.531
14982TIP3   OH244825   9.279   5.411   5.425
14982TIP3    H144826   9.216   5.388   5.354
14982TIP3    H244827   9.316   5.324   5.452
14983TIP3   OH244828   9.134   5.602   5.062
14983TIP3    H144829   9.230   5.601   5.049
14983TIP3    H244830   9.122   5.685   5.111
14984TIP3   OH244831  10.095   5.845   5.244
14984TIP3    H144832  10.097   5.935   5.280
14984TIP3    H244833  10.027   5.802   5.301
14985TIP3   OH244834   9.844   5.967   4.211
14985TIP3    H144835   9.820   5.952   4.119
14985TIP3    H244836   9.834   6.064   4.221
14986TIP3   OH244837   9.300   5.823   4.581
14986TIP3    H144838   9.351   5.813   4.665
14986TIP3    H244839   9.238   5.749   4.590
14987TIP3   OH244840   9.482   5.596   5.419
14987TIP3    H144841   9.533   5.578   5.501
14987TIP3    H244842   9.409   5.530   5.425
14988TIP3   OH244843   9.804   4.904   5.205
14988TIP3    H144844   9.754   4.931   5.285
14988TIP3    H244845   9.800   4.987   5.153
14989TIP3   OH244846   9.680   4.847   4.716
14989TIP3    H144847   9.626   4.784   4.767
14989TIP3    H244848   9.708   4.784   4.645
14990TIP3   OH244849   9.631   4.957   5.424
14990TIP3    H144850   9.663   5.022   5.489
14990TIP3    H244851   9.625   4.876   5.478
14991TIP3   OH244852   9.668   4.460   4.133
14991TIP3    H144853   9.646   4.443   4.226
14991TIP3    H244854   9.583   4.486   4.095
14992TIP3   OH244855   9.226   4.487   5.003
14992TIP3    H144856   9.304   4.517   5.054
14992TIP3    H244857   9.265   4.452   4.921
14993TIP3   OH244858   9.207   4.468   4.526
14993TIP3    H144859   9.251   4.506   4.448
14993TIP3    H244860   9.145   4.541   4.547
14994TIP3   OH244861   9.457   4.696   4.814
14994TIP3    H144862   9.368   4.702   4.774
14994TIP3    H244863   9.492   4.611   4.783
14995TIP3   OH244864   9.714   4.718   4.465
14995TIP3    H144865   9.790   4.740   4.410
14995TIP3    H244866   9.640   4.725   4.402
14996TIP3   OH244867   9.547   4.734   4.260
14996TIP3    H144868   9.482   4.686   4.206
14996TIP3    H244869   9.613   4.757   4.192
14997TIP3   OH244870   9.646   5.516   5.635
14997TIP3    H144871   9.725   5.547   5.683
14997TIP3    H244872   9.581   5.517   5.708
14998TIP3   OH244873   9.793   5.270   4.269
14998TIP3    H144874   9.734   5.193   4.273
14998TIP3    H244875   9.810   5.291   4.362
14999TIP3   OH244876  10.166   5.574   5.293
14999TIP3    H144877  10.211   5.558   5.377
14999TIP3    H244878  10.157   5.670   5.289
15000TIP3   OH244879   9.518   5.280   4.954
15000TIP3    H144880   9.545   5.253   4.864
15000TIP3    H244881   9.550   5.207   5.009
15001TIP3   OH244882   9.394   5.201   5.563
15001TIP3    H144883   9.418   5.188   5.657
15001TIP3    H244884   9.326   5.133   5.550
15002TIP3   OH244885  10.086   5.277   5.605
15002TIP3    H144886  10.009   5.234   5.563
15002TIP3    H244887  10.155   5.213   5.582
15003TIP3   OH244888   9.614   5.580   4.573
15003TIP3    H144889   9.622   5.661   4.520
15003TIP3    H244890   9.518   5.569   4.576
15004TIP3   OH244891   9.177   4.888   4.273
15004TIP3    H144892   9.226   4.970   4.293
15004TIP3    H244893   9.102   4.894   4.335
15005TIP3   OH244894   9.785   5.363   4.547
15005TIP3    H144895   9.732   5.444   4.542
15005TIP3    H244896   9.725   5.305   4.598
15006TIP3   OH244897   9.884   5.926   5.045
15006TIP3    H144898   9.922   5.998   4.992
15006TIP3    H244899   9.962   5.895   5.095
15007TIP3   OH244900   9.538   5.821   4.429
15007TIP3    H144901   9.451   5.831   4.472
15007TIP3    H244902   9.571   5.913   4.429
15008TIP3   OH244903   9.610   4.715   5.576
15008TIP3    H144904   9.513   4.713   5.590
15008TIP3    H244905   9.640   4.644   5.635
15009TIP3   OH244906   9.324   5.792   5.203
15009TIP3    H144907   9.375   5.715   5.233
15009TIP3    H244908   9.352   5.859   5.267
15010TIP3   OH244909   9.619   5.432   3.883
15010TIP3    H144910   9.637   5.340   3.857
15010TIP3    H244911   9.603   5.421   3.979
15011TIP3   OH244912   9.563   5.436   4.158
15011TIP3    H144913   9.646   5.406   4.199
15011TIP3    H244914   9.569   5.534   4.168
15012TIP3   OH244915   9.296   5.134   4.357
15012TIP3    H144916   9.232   5.180   4.415
15012TIP3    H244917   9.315   5.204   4.292
15013TIP3   OH244918   9.816   5.662   4.114
15013TIP3    H144919   9.727   5.683   4.146
15013TIP3    H244920   9.832   5.735   4.052
15014TIP3   OH244921   9.552   5.713   4.170
15014TIP3    H144922   9.526   5.785   4.107
15014TIP3    H244923   9.545   5.759   4.257
15015TIP3   OH244924   9.659   4.434   4.407
15015TIP3    H144925   9.640   4.511   4.465
15015TIP3    H244926   9.751   4.455   4.385
15016TIP3   OH244927   9.285   5.350   4.166
15016TIP3    H144928   9.350   5.421   4.178
15016TIP3    H244929   9.333   5.296   4.099
15017TIP3   OH244930   9.231   4.618   4.302
15017TIP3    H144931   9.233   4.716   4.292
15017TIP3    H244932   9.150   4.595   4.256
15018TIP3   OH244933   9.639   4.359   5.185
15018TIP3    H144934   9.603   4.331   5.096
15018TIP3    H244935   9.618   4.277   5.235
15019TIP3   OH244936   9.162   5.557   4.560
15019TIP3    H144937   9.081   5.592   4.600
15019TIP3    H244938   9.154   5.592   4.470
15020TIP3   OH244939   9.312   6.092   5.627
15020TIP3    H144940   9.399   6.091   5.672
15020TIP3    H244941   9.291   5.997   5.622
15021TIP3   OH244942   9.801   6.070   5.665
15021TIP3    H144943   9.893   6.043   5.679
15021TIP3    H244944   9.775   6.010   5.592
15022TIP3   OH244945   9.766   5.648   3.798
15022TIP3    H144946   9.714   5.572   3.834
15022TIP3    H244947   9.857   5.615   3.809
15023TIP3   OH244948   9.445   5.503   5.825
15023TIP3    H144949   9.462   5.407   5.828
15023TIP3    H244950   9.357   5.506   5.782
15024TIP3   OH244951   9.418   5.158   4.019
15024TIP3    H144952   9.474   5.125   4.092
15024TIP3    H244953   9.485   5.168   3.948
15025TIP3   OH244954  10.043   5.584   5.599
15025TIP3    H144955  10.012   5.605   5.509
15025TIP3    H244956  10.055   5.488   5.597
15026TIP3   OH244957   9.564   5.232   5.805
15026TIP3    H144958   9.641   5.176   5.789
15026TIP3    H244959   9.586   5.269   5.893
15027TIP3   OH244960   9.627   5.051   4.244
15027TIP3    H144961   9.602   5.014   4.330
15027TIP3    H244962   9.661   4.973   4.196
15028TIP3   OH244963   9.879   5.116   5.481
15028TIP3    H144964   9.800   5.174   5.488
15028TIP3    H244965   9.920   5.155   5.400
15029TIP3   OH244966   9.729   4.846   4.089
15029TIP3    H144967   9.687   4.839   4.001
15029TIP3    H244968   9.823   4.857   4.066
15030TIP3   OH244969   9.990   4.911   5.619
15030TIP3    H144970  10.019   4.831   5.571
15030TIP3    H244971   9.939   4.960   5.552
15031TIP3   OH244972  10.007   4.713   5.426
15031TIP3    H144973  10.045   4.719   5.335
15031TIP3    H244974   9.934   4.655   5.420
15032TIP3   OH244975  10.004   5.240   5.287
15032TIP3    H144976  10.041   5.202   5.206
15032TIP3    H244977   9.954   5.316   5.249
15033TIP3   OH244978   9.874   5.043   5.823
15033TIP3    H144979   9.814   4.967   5.839
15033TIP3    H244980   9.921   5.011   5.743
15034TIP3   OH244981   9.737   4.811   5.876
15034TIP3    H144982   9.750   4.726   5.830
15034TIP3    H244983   9.771   4.790   5.966
15035TIP3   OH244984   9.533   5.915   3.981
15035TIP3    H144985   9.630   5.916   3.967
15035TIP3    H244986   9.504   5.963   3.902
15036TIP3   OH244987   9.018   5.295   4.204
15036TIP3    H144988   9.112   5.320   4.189
15036TIP3    H244989   9.014   5.207   4.161
15037TIP3   OH244990   8.927   5.910   4.615
15037TIP3    H144991   8.862   5.845   4.579
15037TIP3    H244992   8.974   5.854   4.681
15038TIP3   OH244993   9.066   5.767   4.800
15038TIP3    H144994   9.059   5.689   4.857
15038TIP3    H244995   9.118   5.826   4.858
15039TIP3   OH244996   9.258   5.167   5.172
15039TIP3    H144997   9.256   5.142   5.078
15039TIP3    H244998   9.355   5.170   5.189
15040TIP3   OH244999   9.470   4.856   5.845
15040TIP3    H145000   9.568   4.850   5.845
15040TIP3    H245001   9.448   4.772   5.891
15041TIP3   OH245002   9.429   4.546   5.181
15041TIP3    H145003   9.495   4.474   5.182
15041TIP3    H245004   9.481   4.624   5.198
15042TIP3   OH245005   9.241   4.821   5.254
15042TIP3    H145006   9.288   4.814   5.168
15042TIP3    H245007   9.266   4.910   5.282
15043TIP3   OH245008   9.218   4.326   4.754
15043TIP3    H145009   9.123   4.326   4.775
15043TIP3    H245010   9.221   4.384   4.675
15044TIP3   OH245011   9.438   4.403   5.565
15044TIP3    H145012   9.391   4.401   5.651
15044TIP3    H245013   9.369   4.443   5.508
15045TIP3   OH245014   9.481   5.828   5.646
15045TIP3    H145015   9.390   5.799   5.627
15045TIP3    H245016   9.488   5.814   5.741
15046TIP3   OH245017   9.656   5.862   5.192
15046TIP3    H145018   9.607   5.937   5.152
15046TIP3    H245019   9.742   5.876   5.147
15047TIP3   OH245020  10.118   6.115   5.324
15047TIP3    H145021  10.141   6.110   5.420
15047TIP3    H245022  10.197   6.155   5.287
15048TIP3   OH245023   9.337   6.120   5.215
15048TIP3    H145024   9.249   6.155   5.189
15048TIP3    H245025   9.343   6.155   5.305
15049TIP3   OH245026   9.574   6.100   5.072
15049TIP3    H145027   9.487   6.113   5.118
15049TIP3    H245028   9.553   6.133   4.983
15050TIP3   OH245029   9.983   6.133   4.866
15050TIP3    H145030   9.913   6.152   4.800
15050TIP3    H245031   9.997   6.221   4.906
15051TIP3   OH245032  10.245   6.087   4.915
15051TIP3    H145033  10.149   6.088   4.895
15051TIP3    H245034  10.274   6.171   4.877
15052TIP3   OH245035   9.247   5.916   4.960
15052TIP3    H145036   9.273   5.892   5.052
15052TIP3    H245037   9.319   5.871   4.910
15053TIP3   OH245038   9.438   5.785   4.814
15053TIP3    H145039   9.457   5.702   4.862
15053TIP3    H245040   9.527   5.825   4.807
15054TIP3   OH245041   9.701   5.887   4.816
15054TIP3    H145042   9.729   5.795   4.800
15054TIP3    H245043   9.743   5.904   4.902
15055TIP3   OH245044   9.517   4.256   4.960
15055TIP3    H145045   9.429   4.226   4.930
15055TIP3    H245046   9.572   4.181   4.930
15056TIP3   OH245047   9.317   4.113   4.567
15056TIP3    H145048   9.348   4.173   4.497
15056TIP3    H245049   9.288   4.176   4.636
15057TIP3   OH245050   9.033   5.684   4.358
15057TIP3    H145051   8.950   5.651   4.318
15057TIP3    H245052   9.023   5.778   4.339
15058TIP3   OH245053   9.427   4.278   4.341
15058TIP3    H145054   9.472   4.216   4.280
15058TIP3    H245055   9.502   4.330   4.376
15059TIP3   OH245056   9.807   5.886   3.932
15059TIP3    H145057   9.902   5.899   3.919
15059TIP3    H245058   9.787   5.810   3.871
15060TIP3   OH245059   9.707   4.517   5.793
15060TIP3    H145060   9.675   4.455   5.861
15060TIP3    H245061   9.800   4.527   5.823
15061TIP3   OH245062   9.942   4.527   5.922
15061TIP3    H145063  10.040   4.536   5.914
15061TIP3    H245064   9.939   4.458   5.991
15062TIP3   OH245065   9.111   5.713   3.993
15062TIP3    H145066   9.110   5.746   4.084
15062TIP3    H245067   9.201   5.674   3.984
15063TIP3   OH245068   0.876   5.783   6.700
15063TIP3    H145069   0.851   5.876   6.681
15063TIP3    H245070   0.798   5.738   6.665
15064TIP3   OH245071   0.879   5.781   7.071
15064TIP3    H145072   0.905   5.752   7.160
15064TIP3    H245073   0.837   5.701   7.035
15065TIP3   OH245074   1.118   6.083   6.757
15065TIP3    H145075   1.107   6.016   6.826
15065TIP3    H245076   1.145   6.161   6.809
15066TIP3   OH245077   0.772   6.552   6.776
15066TIP3    H145078   0.816   6.481   6.723
15066TIP3    H245079   0.770   6.511   6.863
15067TIP3   OH245080   0.670   5.976   7.110
15067TIP3    H145081   0.735   5.917   7.067
15067TIP3    H245082   0.731   6.041   7.147
15068TIP3   OH245083   1.683   5.333   7.121
15068TIP3    H145084   1.714   5.413   7.168
15068TIP3    H245085   1.712   5.353   7.030
15069TIP3   OH245086   1.086   5.515   7.161
15069TIP3    H145087   1.129   5.430   7.182
15069TIP3    H245088   1.058   5.500   7.069
15070TIP3   OH245089   0.459   5.170   7.129
15070TIP3    H145090   0.421   5.248   7.083
15070TIP3    H245091   0.422   5.098   7.073
15071TIP3   OH245092   1.115   5.262   6.752
15071TIP3    H145093   1.190   5.249   6.814
15071TIP3    H245094   1.159   5.306   6.678
15072TIP3   OH245095   0.500   5.580   7.040
15072TIP3    H145096   0.593   5.548   7.039
15072TIP3    H245097   0.455   5.507   6.993
15073TIP3   OH245098   1.760   5.536   7.292
15073TIP3    H145099   1.677   5.586   7.274
15073TIP3    H245100   1.773   5.558   7.386
15074TIP3   OH245101   0.773   6.005   6.568
15074TIP3    H145102   0.731   5.982   6.484
15074TIP3    H245103   0.733   6.094   6.584
15075TIP3   OH245104   1.335   5.266   6.910
15075TIP3    H145105   1.326   5.209   6.987
15075TIP3    H245106   1.388   5.340   6.945
15076TIP3   OH245107   1.190   6.327   6.930
15076TIP3    H145108   1.099   6.320   6.967
15076TIP3    H245109   1.184   6.412   6.882
15077TIP3   OH245110   1.480   5.234   7.290
15077TIP3    H145111   1.393   5.265   7.260
15077TIP3    H245112   1.539   5.263   7.218
15078TIP3   OH245113   0.780   4.874   7.267
15078TIP3    H145114   0.778   4.778   7.285
15078TIP3    H245115   0.707   4.905   7.323
15079TIP3   OH245116   0.904   6.378   6.612
15079TIP3    H145117   0.949   6.295   6.583
15079TIP3    H245118   0.960   6.443   6.564
15080TIP3   OH245119   1.036   6.162   6.505
15080TIP3    H145120   0.996   6.084   6.463
15080TIP3    H245121   1.070   6.124   6.589
15081TIP3   OH245122   1.417   6.244   7.271
15081TIP3    H145123   1.408   6.166   7.211
15081TIP3    H245124   1.401   6.318   7.210
15082TIP3   OH245125   0.709   5.634   6.526
15082TIP3    H145126   0.629   5.686   6.502
15082TIP3    H245127   0.757   5.632   6.441
15083TIP3   OH245128   0.668   5.418   6.249
15083TIP3    H145129   0.737   5.470   6.294
15083TIP3    H245130   0.724   5.353   6.201
15084TIP3   OH245131   1.612   5.877   7.113
15084TIP3    H145132   1.531   5.931   7.120
15084TIP3    H245133   1.642   5.901   7.023
15085TIP3   OH245134   1.054   5.717   6.501
15085TIP3    H145135   0.999   5.744   6.579
15085TIP3    H245136   1.138   5.693   6.546
15086TIP3   OH245137   1.291   5.760   7.408
15086TIP3    H145138   1.290   5.843   7.459
15086TIP3    H245139   1.206   5.768   7.361
15087TIP3   OH245140   0.428   5.677   7.281
15087TIP3    H145141   0.464   5.642   7.197
15087TIP3    H245142   0.478   5.759   7.292
15088TIP3   OH245143   0.945   6.326   7.047
15088TIP3    H145144   0.939   6.405   7.105
15088TIP3    H245145   0.937   6.252   7.110
15089TIP3   OH245146   0.899   5.575   6.324
15089TIP3    H145147   0.955   5.636   6.377
15089TIP3    H245148   0.924   5.601   6.232
15090TIP3   OH245149   0.637   6.254   6.600
15090TIP3    H145150   0.708   6.315   6.624
15090TIP3    H245151   0.559   6.314   6.598
15091TIP3   OH245152   1.209   6.187   5.919
15091TIP3    H145153   1.218   6.284   5.907
15091TIP3    H245154   1.302   6.158   5.909
15092TIP3   OH245155   1.655   6.585   7.314
15092TIP3    H145156   1.653   6.488   7.328
15092TIP3    H245157   1.572   6.611   7.360
15093TIP3   OH245158   0.781   6.356   7.460
15093TIP3    H145159   0.788   6.452   7.485
15093TIP3    H245160   0.686   6.344   7.462
15094TIP3   OH245161   0.563   6.522   6.400
15094TIP3    H145162   0.509   6.476   6.334
15094TIP3    H245163   0.491   6.557   6.459
15095TIP3   OH245164   0.726   6.406   6.042
15095TIP3    H145165   0.783   6.335   6.005
15095TIP3    H245166   0.763   6.414   6.133
15096TIP3   OH245167   0.794   6.439   6.306
15096TIP3    H145168   0.708   6.461   6.350
15096TIP3    H245169   0.841   6.398   6.380
15097TIP3   OH245170   1.545   5.720   7.590
15097TIP3    H145171   1.466   5.734   7.536
15097TIP3    H245172   1.561   5.624   7.578
15098TIP3   OH245173   0.532   4.952   7.405
15098TIP3    H145174   0.458   4.913   7.356
15098TIP3    H245175   0.526   5.045   7.379
15099TIP3   OH245176   1.074   5.068   7.593
15099TIP3    H145177   1.143   5.038   7.656
15099TIP3    H245178   0.991   5.044   7.639
15100TIP3   OH245179   1.314   5.494   7.511
15100TIP3    H145180   1.267   5.489   7.597
15100TIP3    H245181   1.291   5.583   7.479
15101TIP3   OH245182   0.972   5.627   6.070
15101TIP3    H145183   0.940   5.599   5.982
15101TIP3    H245184   1.051   5.679   6.044
15102TIP3   OH245185   0.689   5.001   6.370
15102TIP3    H145186   0.656   4.998   6.461
15102TIP3    H245187   0.650   4.918   6.335
15103TIP3   OH245188   0.466   5.451   7.426
15103TIP3    H145189   0.414   5.481   7.502
15103TIP3    H245190   0.454   5.527   7.365
15104TIP3   OH245191   0.349   5.341   6.936
15104TIP3    H145192   0.254   5.346   6.923
15104TIP3    H245193   0.376   5.303   6.849
15105TIP3   OH245194   0.848   5.437   6.658
15105TIP3    H145195   0.793   5.509   6.620
15105TIP3    H245196   0.900   5.410   6.581
15106TIP3   OH245197   1.021   5.718   7.748
15106TIP3    H145198   1.000   5.645   7.809
15106TIP3    H245199   1.116   5.732   7.768
15107TIP3   OH245200   1.004   5.468   6.901
15107TIP3    H145201   0.948   5.501   6.828
15107TIP3    H245202   1.031   5.383   6.862
15108TIP3   OH245203   0.347   4.981   6.339
15108TIP3    H145204   0.336   4.969   6.435
15108TIP3    H245205   0.255   4.984   6.308
15109TIP3   OH245206   1.008   5.714   7.324
15109TIP3    H145207   1.045   5.643   7.266
15109TIP3    H245208   0.989   5.662   7.405
15110TIP3   OH245209   0.695   5.182   6.990
15110TIP3    H145210   0.612   5.178   7.041
15110TIP3    H245211   0.761   5.174   7.061
15111TIP3   OH245212   0.393   5.232   6.686
15111TIP3    H145213   0.490   5.241   6.672
15111TIP3    H245214   0.355   5.263   6.602
15112TIP3   OH245215   1.171   5.251   7.193
15112TIP3    H145216   1.138   5.261   7.285
15112TIP3    H245217   1.110   5.184   7.158
15113TIP3   OH245218   0.210   5.288   6.466
15113TIP3    H145219   0.171   5.199   6.452
15113TIP3    H245220   0.271   5.298   6.390
15114TIP3   OH245221   1.341   6.939   7.413
15114TIP3    H145222   1.341   6.961   7.317
15114TIP3    H245223   1.419   6.988   7.444
15115TIP3   OH245224   0.768   5.500   7.091
15115TIP3    H145225   0.838   5.460   7.037
15115TIP3    H245226   0.783   5.459   7.178
15116TIP3   OH245227   0.327   4.994   6.970
15116TIP3    H145228   0.261   4.923   6.986
15116TIP3    H245229   0.371   4.960   6.891
15117TIP3   OH245230   0.745   5.391   7.388
15117TIP3    H145231   0.657   5.431   7.395
15117TIP3    H245232   0.804   5.453   7.434
15118TIP3   OH245233   0.485   5.784   6.467
15118TIP3    H145234   0.408   5.724   6.464
15118TIP3    H245235   0.476   5.824   6.557
15119TIP3   OH245236   1.383   6.026   7.108
15119TIP3    H145237   1.407   6.074   7.026
15119TIP3    H245238   1.297   5.985   7.084
15120TIP3   OH245239   0.941   5.102   6.341
15120TIP3    H145240   0.844   5.083   6.342
15120TIP3    H245241   0.946   5.198   6.354
15121TIP3   OH245242   0.871   6.097   7.479
15121TIP3    H145243   0.904   6.089   7.570
15121TIP3    H245244   0.845   6.191   7.476
15122TIP3   OH245245   1.010   5.352   6.443
15122TIP3    H145246   1.107   5.354   6.444
15122TIP3    H245247   0.987   5.429   6.386
15123TIP3   OH245248   0.636   5.930   6.294
15123TIP3    H145249   0.591   6.018   6.298
15123TIP3    H245250   0.578   5.878   6.354
15124TIP3   OH245251   0.786   5.851   7.790
15124TIP3    H145252   0.732   5.778   7.753
15124TIP3    H245253   0.876   5.822   7.763
15125TIP3   OH245254   1.044   6.364   7.368
15125TIP3    H145255   0.948   6.361   7.385
15125TIP3    H245256   1.073   6.418   7.445
15126TIP3   OH245257   1.447   5.436   6.283
15126TIP3    H145258   1.388   5.392   6.218
15126TIP3    H245259   1.449   5.524   6.239
15127TIP3   OH245260   1.668   6.292   7.360
15127TIP3    H145261   1.570   6.290   7.352
15127TIP3    H245262   1.693   6.264   7.270
15128TIP3   OH245263   1.152   6.257   6.185
15128TIP3    H145264   1.124   6.187   6.246
15128TIP3    H245265   1.162   6.210   6.100
15129TIP3   OH245266   1.146   5.886   7.031
15129TIP3    H145267   1.052   5.860   7.040
15129TIP3    H245268   1.181   5.809   6.982
15130TIP3   OH245269   0.461   5.883   6.716
15130TIP3    H145270   0.443   5.978   6.718
15130TIP3    H245271   0.397   5.849   6.779
15131TIP3   OH245272   0.933   6.092   7.206
15131TIP3    H145273   0.925   6.088   7.304
15131TIP3    H245274   1.014   6.042   7.191
15132TIP3   OH245275   0.903   5.982   6.086
15132TIP3    H145276   0.953   5.959   6.168
15132TIP3    H245277   0.812   5.959   6.114
15133TIP3   OH245278   1.180   6.629   7.256
15133TIP3    H145279   1.101   6.572   7.248
15133TIP3    H245280   1.165   6.694   7.185
15134TIP3   OH245281   1.245   6.461   5.909
15134TIP3    H145282   1.283   6.533   5.855
15134TIP3    H245283   1.165   6.508   5.941
15135TIP3   OH245284   1.062   5.920   6.307
15135TIP3    H145285   1.053   5.852   6.376
15135TIP3    H245286   1.159   5.918   6.292
15136TIP3   OH245287   0.326   5.941   6.110
15136TIP3    H145288   0.341   5.851   6.072
15136TIP3    H245289   0.303   5.920   6.201
15137TIP3   OH245290   1.097   5.304   7.454
15137TIP3    H145291   1.178   5.340   7.492
15137TIP3    H245292   1.083   5.222   7.508
15138TIP3   OH245293   0.972   5.063   6.620
15138TIP3    H145294   0.959   5.079   6.525
15138TIP3    H245295   1.007   5.149   6.652
15139TIP3   OH245296   0.490   6.153   6.310
15139TIP3    H145297   0.419   6.187   6.366
15139TIP3    H245298   0.503   6.225   6.246
15140TIP3   OH245299   0.670   5.234   6.721
15140TIP3    H145300   0.737   5.303   6.701
15140TIP3    H245301   0.680   5.225   6.818
15141TIP3   OH245302   0.936   5.555   7.533
15141TIP3    H145303   0.957   5.606   7.614
15141TIP3    H245304   0.993   5.477   7.544
15142TIP3   OH245305   0.818   4.966   6.828
15142TIP3    H145306   0.811   5.045   6.886
15142TIP3    H245307   0.877   5.001   6.757
15143TIP3   OH245308   0.332   4.971   6.624
15143TIP3    H145309   0.355   5.058   6.662
15143TIP3    H245310   0.421   4.930   6.623
15144TIP3   OH245311   1.582   5.453   7.508
15144TIP3    H145312   1.484   5.449   7.516
15144TIP3    H245313   1.593   5.411   7.422
15145TIP3   OH245314   1.231   5.648   6.897
15145TIP3    H145315   1.156   5.588   6.912
15145TIP3    H245316   1.304   5.602   6.945
15146TIP3   OH245317   1.200   6.598   6.849
15146TIP3    H145318   1.157   6.645   6.774
15146TIP3    H245319   1.294   6.618   6.828
15147TIP3   OH245320   0.470   6.161   6.013
15147TIP3    H145321   0.418   6.087   6.051
15147TIP3    H245322   0.526   6.114   5.950
15148TIP3   OH245323   1.099   6.498   7.602
15148TIP3    H145324   1.091   6.427   7.671
15148TIP3    H245325   1.175   6.550   7.635
15149TIP3   OH245326   0.873   6.214   5.910
15149TIP3    H145327   0.919   6.151   5.968
15149TIP3    H245328   0.930   6.215   5.830
15150TIP3   OH245329   0.725   6.127   7.790
15150TIP3    H145330   0.661   6.106   7.721
15150TIP3    H245331   0.758   6.037   7.811
15151TIP3   OH245332   0.602   5.879   6.020
15151TIP3    H145333   0.593   5.898   6.115
15151TIP3    H245334   0.595   5.782   6.019
15152TIP3   OH245335   1.201   6.125   7.405
15152TIP3    H145336   1.277   6.170   7.362
15152TIP3    H245337   1.132   6.193   7.394
15153TIP3   OH245338   0.293   5.587   6.450
15153TIP3    H145339   0.266   5.527   6.520
15153TIP3    H245340   0.325   5.522   6.383
15154TIP3   OH245341   0.628   5.660   7.666
15154TIP3    H145342   0.548   5.714   7.672
15154TIP3    H245343   0.659   5.681   7.576
15155TIP3   OH245344   0.389   5.381   6.283
15155TIP3    H145345   0.365   5.387   6.188
15155TIP3    H245346   0.487   5.389   6.277
15156TIP3   OH245347   1.069   6.050   7.806
15156TIP3    H145348   1.153   6.039   7.760
15156TIP3    H245349   1.076   5.984   7.877
15157TIP3   OH245350   1.212   5.716   5.944
15157TIP3    H145351   1.191   5.668   5.861
15157TIP3    H245352   1.180   5.806   5.918
15158TIP3   OH245353   0.688   5.425   7.811
15158TIP3    H145354   0.678   5.351   7.750
15158TIP3    H245355   0.658   5.502   7.759
15159TIP3   OH245356   0.675   5.222   7.600
15159TIP3    H145357   0.711   5.268   7.521
15159TIP3    H245358   0.581   5.219   7.580
15160TIP3   OH245359   0.705   5.782   7.429
15160TIP3    H145360   0.797   5.761   7.405
15160TIP3    H245361   0.705   5.878   7.419
15161TIP3   OH245362   1.293   5.733   7.861
15161TIP3    H145363   1.342   5.650   7.871
15161TIP3    H245364   1.362   5.792   7.829
15162TIP3   OH245365   1.333   5.983   7.594
15162TIP3    H145366   1.275   6.036   7.534
15162TIP3    H245367   1.421   6.003   7.554
15163TIP3   OH245368   0.815   4.993   7.668
15163TIP3    H145369   0.764   5.074   7.648
15163TIP3    H245370   0.745   4.924   7.662
15164TIP3   OH245371   0.940   5.502   7.888
15164TIP3    H145372   0.933   5.491   7.985
15164TIP3    H245373   0.850   5.472   7.864
15165TIP3   OH245374   1.179   5.447   7.742
15165TIP3    H145375   1.104   5.447   7.804
15165TIP3    H245376   1.253   5.416   7.798
15166TIP3   OH245377   1.407   5.386   7.893
15166TIP3    H145378   1.420   5.290   7.914
15166TIP3    H245379   1.404   5.427   7.982
15167TIP3   OH245380   0.911   5.004   7.925
15167TIP3    H145381   0.978   4.934   7.923
15167TIP3    H245382   0.871   4.993   7.836
15168TIP3   OH245383   0.972   5.217   8.088
15168TIP3    H145384   0.951   5.146   8.023
15168TIP3    H245385   0.898   5.279   8.075
15169TIP3   OH245386   1.450   6.693   6.802
15169TIP3    H145387   1.477   6.728   6.888
15169TIP3    H245388   1.507   6.741   6.741
15170TIP3   OH245389   1.481   6.713   7.084
15170TIP3    H145390   1.441   6.624   7.079
15170TIP3    H245391   1.557   6.694   7.140
15171TIP3   OH245392   1.527   6.389   7.657
15171TIP3    H145393   1.453   6.398   7.720
15171TIP3    H245394   1.568   6.478   7.661
15172TIP3   OH245395   1.342   5.905   6.279
15172TIP3    H145396   1.412   5.968   6.251
15172TIP3    H245397   1.386   5.864   6.358
15173TIP3   OH245398   1.471   5.771   6.482
15173TIP3    H145399   1.405   5.730   6.542
15173TIP3    H245400   1.535   5.812   6.544
15174TIP3   OH245401   1.522   6.159   6.915
15174TIP3    H145402   1.576   6.099   6.861
15174TIP3    H245403   1.512   6.237   6.856
15175TIP3   OH245404   1.358   6.461   7.112
15175TIP3    H145405   1.288   6.505   7.162
15175TIP3    H245406   1.308   6.414   7.042
15176TIP3   OH245407   1.409   5.677   6.132
15176TIP3    H145408   1.339   5.679   6.063
15176TIP3    H245409   1.381   5.755   6.185
15177TIP3   OH245410   1.280   5.355   6.089
15177TIP3    H145411   1.245   5.393   6.007
15177TIP3    H245412   1.251   5.261   6.081
15178TIP3   OH245413   1.286   5.625   6.633
15178TIP3    H145414   1.299   5.530   6.641
15178TIP3    H245415   1.271   5.651   6.727
15179TIP3   OH245416   1.574   6.050   7.485
15179TIP3    H145417   1.648   5.986   7.477
15179TIP3    H245418   1.602   6.122   7.425
15180TIP3   OH245419   1.761   5.860   7.508
15180TIP3    H145420   1.687   5.808   7.548
15180TIP3    H245421   1.834   5.795   7.521
15181TIP3   OH245422   1.218   5.091   6.092
15181TIP3    H145423   1.299   5.044   6.121
15181TIP3    H245424   1.150   5.022   6.091
15182TIP3   OH245425   1.298   5.328   6.525
15182TIP3    H145426   1.377   5.315   6.579
15182TIP3    H245427   1.334   5.373   6.446
15183TIP3   OH245428   1.444   5.520   7.018
15183TIP3    H145429   1.531   5.546   6.980
15183TIP3    H245430   1.457   5.554   7.109
15184TIP3   OH245431   1.509   5.659   7.253
15184TIP3    H145432   1.432   5.695   7.300
15184TIP3    H245433   1.543   5.739   7.207
15185TIP3   OH245434   1.966   5.250   7.810
15185TIP3    H145435   2.022   5.182   7.765
15185TIP3    H245436   1.938   5.306   7.734
15186TIP3   OH245437   1.838   5.394   7.616
15186TIP3    H145438   1.750   5.430   7.639
15186TIP3    H245439   1.812   5.322   7.556
15187TIP3   OH245440   1.475   5.029   6.207
15187TIP3    H145441   1.508   4.951   6.157
15187TIP3    H245442   1.541   5.096   6.184
15188TIP3   OH245443   1.038   6.558   6.463
15188TIP3    H145444   1.084   6.542   6.378
15188TIP3    H245445   1.092   6.627   6.503
15189TIP3   OH245446   0.796   6.615   7.538
15189TIP3    H145447   0.807   6.650   7.628
15189TIP3    H245448   0.841   6.684   7.485
15190TIP3   OH245449   0.938   6.798   7.388
15190TIP3    H145450   1.006   6.741   7.347
15190TIP3    H245451   0.993   6.849   7.451
15191TIP3   OH245452   1.733   5.154   7.492
15191TIP3    H145453   1.641   5.148   7.460
15191TIP3    H245454   1.763   5.061   7.480
15192TIP3   OH245455   0.653   6.668   7.053
15192TIP3    H145456   0.595   6.713   6.989
15192TIP3    H245457   0.682   6.748   7.104
15193TIP3   OH245458   0.921   6.604   7.124
15193TIP3    H145459   0.831   6.619   7.091
15193TIP3    H245460   0.969   6.678   7.083
15194TIP3   OH245461   1.129   6.791   7.042
15194TIP3    H145462   1.118   6.878   6.996
15194TIP3    H245463   1.157   6.733   6.968
15195TIP3   OH245464   0.938   5.070   7.109
15195TIP3    H145465   0.895   5.000   7.162
15195TIP3    H245466   1.007   5.019   7.062
15196TIP3   OH245467   1.467   4.954   7.014
15196TIP3    H145468   1.498   5.004   6.937
15196TIP3    H245469   1.370   4.963   7.008
15197TIP3   OH245470   1.538   5.053   6.757
15197TIP3    H145471   1.616   4.997   6.733
15197TIP3    H245472   1.581   5.141   6.754
15198TIP3   OH245473   0.629   4.822   7.005
15198TIP3    H145474   0.694   4.865   6.948
15198TIP3    H245475   0.662   4.843   7.093
15199TIP3   OH245476   1.183   4.954   6.989
15199TIP3    H145477   1.171   4.911   6.903
15199TIP3    H245478   1.169   4.878   7.050
15200TIP3   OH245479   0.114   4.740   6.578
15200TIP3    H145480   0.122   4.716   6.484
15200TIP3    H245481   0.156   4.826   6.581
15201TIP3   OH245482   0.607   4.982   6.637
15201TIP3    H145483   0.664   4.929   6.695
15201TIP3    H245484   0.634   5.072   6.663
15202TIP3   OH245485   0.475   6.405   6.165
15202TIP3    H145486   0.561   6.415   6.121
15202TIP3    H245487   0.423   6.366   6.091
15203TIP3   OH245488   1.180   6.524   6.229
15203TIP3    H145489   1.172   6.427   6.215
15203TIP3    H245490   1.136   6.557   6.148
15204TIP3   OH245491   0.642   5.039   8.127
15204TIP3    H145492   0.727   5.022   8.085
15204TIP3    H245493   0.647   4.981   8.205
15205TIP3   OH245494   1.467   5.116   7.926
15205TIP3    H145495   1.487   5.083   8.016
15205TIP3    H245496   1.555   5.110   7.883
15206TIP3   OH245497   1.410   6.671   7.417
15206TIP3    H145498   1.331   6.638   7.371
15206TIP3    H245499   1.391   6.767   7.418
15207TIP3   OH245500   2.666   6.035   6.191
15207TIP3    H145501   2.647   6.130   6.174
15207TIP3    H245502   2.595   5.996   6.138
15208TIP3   OH245503   2.662   6.040   6.565
15208TIP3    H145504   2.702   6.011   6.649
15208TIP3    H245505   2.641   5.957   6.521
15209TIP3   OH245506   1.977   5.938   6.925
15209TIP3    H145507   2.006   5.872   6.990
15209TIP3    H245508   2.047   6.004   6.933
15210TIP3   OH245509   2.911   6.341   6.245
15210TIP3    H145510   2.907   6.271   6.312
15210TIP3    H245511   2.942   6.417   6.297
15211TIP3   OH245512   1.941   6.346   6.658
15211TIP3    H145513   1.934   6.248   6.662
15211TIP3    H245514   2.038   6.355   6.651
15212TIP3   OH245515   1.649   5.551   6.444
15212TIP3    H145516   1.601   5.636   6.455
15212TIP3    H245517   1.580   5.498   6.400
15213TIP3   OH245518   1.711   5.837   6.608
15213TIP3    H145519   1.759   5.761   6.647
15213TIP3    H245520   1.767   5.859   6.533
15214TIP3   OH245521   2.561   6.805   6.260
15214TIP3    H145522   2.610   6.735   6.213
15214TIP3    H245523   2.560   6.771   6.351
15215TIP3   OH245524   2.473   6.263   6.610
15215TIP3    H145525   2.516   6.189   6.565
15215TIP3    H245526   2.554   6.312   6.636
15216TIP3   OH245527   3.480   5.588   6.608
15216TIP3    H145528   3.511   5.670   6.651
15216TIP3    H245529   3.507   5.604   6.516
15217TIP3   OH245530   2.878   5.769   6.648
15217TIP3    H145531   2.925   5.687   6.672
15217TIP3    H245532   2.861   5.752   6.554
15218TIP3   OH245533   2.198   5.438   6.608
15218TIP3    H145534   2.148   5.492   6.546
15218TIP3    H245535   2.180   5.350   6.570
15219TIP3   OH245536   2.912   5.529   6.236
15219TIP3    H145537   2.984   5.506   6.300
15219TIP3    H245538   2.966   5.553   6.158
15220TIP3   OH245539   1.855   5.633   6.719
15220TIP3    H145540   1.937   5.611   6.768
15220TIP3    H245541   1.868   5.575   6.640
15221TIP3   OH245542   3.557   5.793   6.780
15221TIP3    H145543   3.474   5.842   6.761
15221TIP3    H245544   3.571   5.817   6.873
15222TIP3   OH245545   2.219   5.413   7.046
15222TIP3    H145546   2.157   5.447   6.979
15222TIP3    H245547   2.168   5.429   7.127
15223TIP3   OH245548   2.563   6.256   6.058
15223TIP3    H145549   2.531   6.239   5.969
15223TIP3    H245550   2.526   6.345   6.076
15224TIP3   OH245551   2.321   6.184   6.845
15224TIP3    H145552   2.257   6.249   6.884
15224TIP3    H245553   2.364   6.238   6.776
15225TIP3   OH245554   3.122   5.522   6.406
15225TIP3    H145555   3.136   5.456   6.475
15225TIP3    H245556   3.189   5.589   6.427
15226TIP3   OH245557   2.085   5.527   6.835
15226TIP3    H145558   2.150   5.597   6.857
15226TIP3    H245559   2.131   5.486   6.758
15227TIP3   OH245560   2.149   6.376   6.937
15227TIP3    H145561   2.125   6.462   6.897
15227TIP3    H245562   2.071   6.364   6.995
15228TIP3   OH245563   1.550   6.068   6.174
15228TIP3    H145564   1.508   6.094   6.090
15228TIP3    H245565   1.578   6.154   6.211
15229TIP3   OH245566   2.988   6.583   6.416
15229TIP3    H145567   2.897   6.576   6.454
15229TIP3    H245568   2.981   6.669   6.369
15230TIP3   OH245569   3.275   5.492   6.778
15230TIP3    H145570   3.188   5.518   6.744
15230TIP3    H245571   3.335   5.518   6.706
15231TIP3   OH245572   2.580   5.132   6.758
15231TIP3    H145573   2.568   5.037   6.774
15231TIP3    H245574   2.500   5.168   6.802
15232TIP3   OH245575   2.692   6.634   6.092
15232TIP3    H145576   2.740   6.551   6.068
15232TIP3    H245577   2.752   6.699   6.048
15233TIP3   OH245578   2.827   6.418   5.993
15233TIP3    H145579   2.807   6.339   5.941
15233TIP3    H245580   2.863   6.379   6.076
15234TIP3   OH245581   3.213   6.501   6.758
15234TIP3    H145582   3.204   6.423   6.699
15234TIP3    H245583   3.198   6.575   6.695
15235TIP3   OH245584   2.504   5.896   6.012
15235TIP3    H145585   2.426   5.947   5.983
15235TIP3    H245586   2.553   5.887   5.928
15236TIP3   OH245587   2.465   5.670   5.747
15236TIP3    H145588   2.539   5.726   5.777
15236TIP3    H245589   2.515   5.607   5.691
15237TIP3   OH245590   3.408   6.134   6.602
15237TIP3    H145591   3.327   6.188   6.607
15237TIP3    H245592   3.438   6.156   6.511
15238TIP3   OH245593   2.850   5.975   5.990
15238TIP3    H145594   2.800   6.002   6.070
15238TIP3    H245595   2.935   5.947   6.029
15239TIP3   OH245596   3.087   6.017   6.894
15239TIP3    H145597   3.086   6.100   6.945
15239TIP3    H245598   3.001   6.024   6.847
15240TIP3   OH245599   2.082   5.967   6.407
15240TIP3    H145600   2.026   5.925   6.337
15240TIP3    H245601   2.156   5.906   6.409
15241TIP3   OH245602   2.213   6.382   6.553
15241TIP3    H145603   2.194   6.341   6.468
15241TIP3    H245604   2.304   6.352   6.571
15242TIP3   OH245605   2.234   5.945   6.750
15242TIP3    H145606   2.274   5.957   6.663
15242TIP3    H245607   2.259   6.030   6.793
15243TIP3   OH245608   2.744   6.582   6.533
15243TIP3    H145609   2.732   6.662   6.587
15243TIP3    H245610   2.732   6.509   6.597
15244TIP3   OH245611   2.357   6.501   7.081
15244TIP3    H145612   2.299   6.564   7.128
15244TIP3    H245613   2.290   6.448   7.033
15245TIP3   OH245614   2.689   5.837   5.811
15245TIP3    H145615   2.752   5.892   5.863
15245TIP3    H245616   2.717   5.859   5.719
15246TIP3   OH245617   2.109   6.062   7.175
15246TIP3    H145618   2.115   6.146   7.224
15246TIP3    H245619   2.014   6.042   7.188
15247TIP3   OH245620   2.431   6.517   6.092
15247TIP3    H145621   2.510   6.571   6.112
15247TIP3    H245622   2.373   6.580   6.048
15248TIP3   OH245623   2.153   6.672   7.166
15248TIP3    H145624   2.117   6.668   7.076
15248TIP3    H245625   2.074   6.650   7.221
15249TIP3   OH245626   3.215   5.079   5.863
15249TIP3    H145627   3.128   5.088   5.907
15249TIP3    H245628   3.217   5.160   5.807
15250TIP3   OH245629   1.948   5.818   6.217
15250TIP3    H145630   1.889   5.863   6.152
15250TIP3    H245631   1.908   5.731   6.221
15251TIP3   OH245632   3.007   6.445   5.411
15251TIP3    H145633   3.017   6.541   5.393
15251TIP3    H245634   3.098   6.412   5.395
15252TIP3   OH245635   1.732   6.200   7.115
15252TIP3    H145636   1.669   6.177   7.044
15252TIP3    H245637   1.768   6.112   7.141
15253TIP3   OH245638   1.586   6.390   6.752
15253TIP3    H145639   1.681   6.388   6.739
15253TIP3    H245640   1.575   6.473   6.801
15254TIP3   OH245641   3.452   6.842   6.800
15254TIP3    H145642   3.451   6.745   6.814
15254TIP3    H245643   3.369   6.867   6.846
15255TIP3   OH245644   2.557   6.631   6.936
15255TIP3    H145645   2.559   6.724   6.969
15255TIP3    H245646   2.487   6.593   6.992
15256TIP3   OH245647   2.312   6.759   5.889
15256TIP3    H145648   2.270   6.739   5.803
15256TIP3    H245649   2.283   6.850   5.908
15257TIP3   OH245650   1.753   6.611   6.271
15257TIP3    H145651   1.802   6.600   6.355
15257TIP3    H245652   1.690   6.538   6.278
15258TIP3   OH245653   2.518   6.659   5.531
15258TIP3    H145654   2.578   6.591   5.493
15258TIP3    H245655   2.553   6.667   5.622
15259TIP3   OH245656   2.566   6.710   5.802
15259TIP3    H145657   2.479   6.717   5.846
15259TIP3    H245658   2.618   6.664   5.871
15260TIP3   OH245659   3.341   5.975   7.077
15260TIP3    H145660   3.264   5.990   7.020
15260TIP3    H245661   3.358   5.880   7.063
15261TIP3   OH245662   1.937   6.382   7.107
15261TIP3    H145663   1.987   6.366   7.189
15261TIP3    H245664   1.863   6.318   7.114
15262TIP3   OH245665   2.336   5.206   6.884
15262TIP3    H145666   2.246   5.174   6.861
15262TIP3    H245667   2.313   5.290   6.928
15263TIP3   OH245668   2.868   5.326   7.082
15263TIP3    H145669   2.937   5.292   7.143
15263TIP3    H245670   2.785   5.301   7.126
15264TIP3   OH245671   3.111   5.751   6.996
15264TIP3    H145672   3.062   5.748   7.081
15264TIP3    H245673   3.089   5.840   6.961
15265TIP3   OH245674   2.771   5.889   5.560
15265TIP3    H145675   2.732   5.864   5.473
15265TIP3    H245676   2.853   5.932   5.529
15266TIP3   OH245677   2.483   5.263   5.857
15266TIP3    H145678   2.449   5.243   5.946
15266TIP3    H245679   2.464   5.178   5.813
15267TIP3   OH245680   2.266   5.723   6.906
15267TIP3    H145681   2.216   5.745   6.987
15267TIP3    H245682   2.251   5.803   6.851
15268TIP3   OH245683   2.599   5.688   6.161
15268TIP3    H145684   2.575   5.765   6.102
15268TIP3    H245685   2.668   5.648   6.105
15269TIP3   OH245686   2.815   5.972   7.235
15269TIP3    H145687   2.798   5.900   7.299
15269TIP3    H245688   2.909   5.990   7.251
15270TIP3   OH245689   2.798   5.725   6.389
15270TIP3    H145690   2.760   5.765   6.310
15270TIP3    H245691   2.836   5.643   6.349
15271TIP3   OH245692   2.086   5.752   7.115
15271TIP3    H145693   2.112   5.815   7.184
15271TIP3    H245694   2.075   5.669   7.166
15272TIP3   OH245695   2.144   5.236   5.825
15272TIP3    H145696   2.129   5.214   5.919
15272TIP3    H245697   2.056   5.268   5.798
15273TIP3   OH245698   1.679   5.277   6.690
15273TIP3    H145699   1.751   5.309   6.748
15273TIP3    H245700   1.728   5.239   6.616
15274TIP3   OH245701   1.666   5.263   6.220
15274TIP3    H145702   1.707   5.295   6.137
15274TIP3    H245703   1.601   5.334   6.233
15275TIP3   OH245704   2.806   5.971   6.809
15275TIP3    H145705   2.841   5.897   6.754
15275TIP3    H245706   2.781   5.921   6.889
15276TIP3   OH245707   1.915   5.481   6.501
15276TIP3    H145708   1.824   5.491   6.466
15276TIP3    H245709   1.946   5.397   6.464
15277TIP3   OH245710   2.245   5.528   6.158
15277TIP3    H145711   2.286   5.494   6.077
15277TIP3    H245712   2.152   5.529   6.128
15278TIP3   OH245713   2.969   5.511   6.686
15278TIP3    H145714   2.927   5.516   6.774
15278TIP3    H245715   2.915   5.443   6.642
15279TIP3   OH245716   2.024   5.514   5.967
15279TIP3    H145717   1.953   5.469   5.918
15279TIP3    H245718   2.077   5.547   5.892
15280TIP3   OH245719   3.137   7.195   6.900
15280TIP3    H145720   3.137   7.217   6.805
15280TIP3    H245721   3.214   7.245   6.932
15281TIP3   OH245722   2.099   6.304   7.324
15281TIP3    H145723   2.179   6.335   7.372
15281TIP3    H245724   2.034   6.305   7.398
15282TIP3   OH245725   2.562   5.724   6.543
15282TIP3    H145726   2.659   5.716   6.528
15282TIP3    H245727   2.558   5.708   6.640
15283TIP3   OH245728   2.090   5.245   6.446
15283TIP3    H145729   2.059   5.167   6.497
15283TIP3    H245730   2.147   5.203   6.380
15284TIP3   OH245731   2.539   5.654   6.869
15284TIP3    H145732   2.450   5.691   6.885
15284TIP3    H245733   2.598   5.713   6.921
15285TIP3   OH245734   2.274   6.049   5.963
15285TIP3    H145735   2.203   5.982   5.952
15285TIP3    H245736   2.257   6.080   6.056
15286TIP3   OH245737   3.179   6.283   6.595
15286TIP3    H145738   3.204   6.331   6.513
15286TIP3    H245739   3.093   6.242   6.570
15287TIP3   OH245740   2.736   5.361   5.824
15287TIP3    H145741   2.640   5.342   5.826
15287TIP3    H245742   2.740   5.457   5.841
15288TIP3   OH245743   2.673   6.362   6.962
15288TIP3    H145744   2.697   6.342   7.053
15288TIP3    H245745   2.638   6.452   6.968
15289TIP3   OH245746   2.802   5.612   5.940
15289TIP3    H145747   2.899   5.608   5.945
15289TIP3    H245748   2.787   5.682   5.874
15290TIP3   OH245749   1.967   6.068   6.644
15290TIP3    H145750   2.003   6.037   6.559
15290TIP3    H245751   1.999   6.001   6.706
15291TIP3   OH245752   2.423   6.198   5.785
15291TIP3    H145753   2.376   6.284   5.792
15291TIP3    H245754   2.368   6.142   5.843
15292TIP3   OH245755   1.847   5.989   7.252
15292TIP3    H145756   1.870   5.976   7.347
15292TIP3    H245757   1.779   5.921   7.239
15293TIP3   OH245758   2.572   6.099   7.273
15293TIP3    H145759   2.514   6.042   7.220
15293TIP3    H245760   2.661   6.069   7.245
15294TIP3   OH245761   2.837   6.620   6.856
15294TIP3    H145762   2.740   6.623   6.867
15294TIP3    H245763   2.866   6.674   6.933
15295TIP3   OH245764   3.248   5.693   5.765
15295TIP3    H145765   3.185   5.646   5.705
15295TIP3    H245766   3.245   5.780   5.721
15296TIP3   OH245767   3.464   6.550   6.847
15296TIP3    H145768   3.366   6.547   6.839
15296TIP3    H245769   3.489   6.520   6.756
15297TIP3   OH245770   2.944   6.514   5.673
15297TIP3    H145771   2.924   6.439   5.730
15297TIP3    H245772   2.959   6.471   5.586
15298TIP3   OH245773   2.943   6.144   6.517
15298TIP3    H145774   2.850   6.119   6.527
15298TIP3    H245775   2.979   6.065   6.470
15299TIP3   OH245776   2.068   6.368   6.263
15299TIP3    H145777   2.074   6.450   6.211
15299TIP3    H245778   1.972   6.357   6.269
15300TIP3   OH245779   1.631   5.677   5.963
15300TIP3    H145780   1.678   5.760   5.984
15300TIP3    H245781   1.554   5.683   6.024
15301TIP3   OH245782   2.213   6.135   6.217
15301TIP3    H145783   2.183   6.228   6.224
15301TIP3    H245784   2.164   6.094   6.290
15302TIP3   OH245785   2.336   6.715   6.735
15302TIP3    H145786   2.377   6.788   6.683
15302TIP3    H245787   2.413   6.683   6.784
15303TIP3   OH245788   1.991   6.609   6.119
15303TIP3    H145789   1.903   6.617   6.163
15303TIP3    H245790   2.021   6.702   6.120
15304TIP3   OH245791   2.729   6.348   6.692
15304TIP3    H145792   2.721   6.346   6.790
15304TIP3    H245793   2.811   6.300   6.677
15305TIP3   OH245794   2.697   6.244   5.576
15305TIP3    H145795   2.751   6.218   5.654
15305TIP3    H245796   2.610   6.212   5.603
15306TIP3   OH245797   2.975   6.886   6.744
15306TIP3    H145798   2.897   6.829   6.734
15306TIP3    H245799   2.961   6.951   6.671
15307TIP3   OH245800   3.042   6.719   5.396
15307TIP3    H145801   3.081   6.790   5.342
15307TIP3    H245802   2.961   6.766   5.426
15308TIP3   OH245803   2.062   5.496   7.264
15308TIP3    H145804   1.966   5.499   7.278
15308TIP3    H245805   2.089   5.430   7.330
15309TIP3   OH245806   2.859   6.183   5.799
15309TIP3    H145807   2.849   6.109   5.863
15309TIP3    H245808   2.954   6.176   5.779
15310TIP3   OH245809   1.777   6.580   6.895
15310TIP3    H145810   1.827   6.502   6.922
15310TIP3    H245811   1.807   6.646   6.959
15311TIP3   OH245812   2.065   6.225   5.574
15311TIP3    H145813   2.084   6.136   5.539
15311TIP3    H245814   2.048   6.206   5.668
15312TIP3   OH245815   2.012   6.227   5.850
15312TIP3    H145816   2.088   6.202   5.905
15312TIP3    H245817   2.018   6.325   5.852
15313TIP3   OH245818   1.754   5.924   6.050
15313TIP3    H145819   1.687   5.969   6.105
15313TIP3    H245820   1.768   5.991   5.981
15314TIP3   OH245821   2.889   5.564   6.946
15314TIP3    H145822   2.977   5.595   6.975
15314TIP3    H245823   2.878   5.481   6.998
15315TIP3   OH245824   2.745   5.334   6.106
15315TIP3    H145825   2.753   5.331   6.008
15315TIP3    H245826   2.814   5.399   6.130
15316TIP3   OH245827   2.278   6.425   5.799
15316TIP3    H145828   2.191   6.458   5.830
15316TIP3    H245829   2.295   6.487   5.726
15317TIP3   OH245830   2.734   5.810   7.018
15317TIP3    H145831   2.757   5.862   7.097
15317TIP3    H245832   2.792   5.732   7.026
15318TIP3   OH245833   2.607   5.245   6.319
15318TIP3    H145834   2.655   5.285   6.394
15318TIP3    H245835   2.665   5.271   6.243
15319TIP3   OH245836   2.019   6.501   5.860
15319TIP3    H145837   1.988   6.570   5.796
15319TIP3    H245838   2.003   6.546   5.946
15320TIP3   OH245839   2.117   5.202   6.103
15320TIP3    H145840   2.117   5.294   6.130
15320TIP3    H245841   2.213   5.181   6.108
15321TIP3   OH245842   3.378   5.710   6.995
15321TIP3    H145843   3.280   5.706   7.000
15321TIP3    H245844   3.392   5.668   6.909
15322TIP3   OH245845   3.026   5.904   6.388
15322TIP3    H145846   2.957   5.837   6.399
15322TIP3    H245847   3.103   5.861   6.431
15323TIP3   OH245848   1.738   6.135   5.856
15323TIP3    H145849   1.800   6.209   5.865
15323TIP3    H245850   1.786   6.082   5.788
15324TIP3   OH245851   1.682   5.409   5.996
15324TIP3    H145852   1.680   5.506   5.981
15324TIP3    H245853   1.614   5.377   5.935
15325TIP3   OH245854   2.995   6.856   6.336
15325TIP3    H145855   2.953   6.903   6.261
15325TIP3    H245856   3.089   6.875   6.315
15326TIP3   OH245857   2.068   5.129   6.865
15326TIP3    H145858   2.040   5.094   6.778
15326TIP3    H245859   2.062   5.049   6.922
15327TIP3   OH245860   1.615   6.346   6.250
15327TIP3    H145861   1.534   6.379   6.292
15327TIP3    H245862   1.602   6.381   6.159
15328TIP3   OH245863   1.764   6.881   7.315
15328TIP3    H145864   1.851   6.881   7.361
15328TIP3    H245865   1.744   6.786   7.312
15329TIP3   OH245866   2.252   6.856   7.357
15329TIP3    H145867   2.346   6.834   7.368
15329TIP3    H245868   2.228   6.798   7.282
15330TIP3   OH245869   2.234   6.428   5.493
15330TIP3    H145870   2.177   6.354   5.525
15330TIP3    H245871   2.307   6.378   5.452
15331TIP3   OH245872   2.889   6.756   7.090
15331TIP3    H145873   2.880   6.687   7.160
15331TIP3    H245874   2.966   6.807   7.122
15332TIP3   OH245875   2.670   6.473   5.398
15332TIP3    H145876   2.714   6.407   5.454
15332TIP3    H245877   2.725   6.471   5.317
15333TIP3   OH245878   1.898   6.291   7.515
15333TIP3    H145879   1.915   6.196   7.518
15333TIP3    H245880   1.809   6.294   7.472
15334TIP3   OH245881   1.872   5.947   5.705
15334TIP3    H145882   1.928   5.908   5.774
15334TIP3    H245883   1.938   5.951   5.632
15335TIP3   OH245884   2.507   6.375   7.287
15335TIP3    H145885   2.465   6.389   7.200
15335TIP3    H245886   2.538   6.282   7.282
15336TIP3   OH245887   2.374   6.141   5.515
15336TIP3    H145888   2.384   6.153   5.612
15336TIP3    H245889   2.381   6.043   5.509
15337TIP3   OH245890   2.998   6.381   6.892
15337TIP3    H145891   3.072   6.426   6.848
15337TIP3    H245892   2.928   6.448   6.881
15338TIP3   OH245893   2.016   6.022   7.494
15338TIP3    H145894   2.089   5.962   7.480
15338TIP3    H245895   2.038   6.058   7.583
15339TIP3   OH245896   2.090   5.844   5.936
15339TIP3    H145897   2.054   5.791   6.009
15339TIP3    H245898   2.124   5.774   5.876
15340TIP3   OH245899   2.351   5.910   7.159
15340TIP3    H145900   2.275   5.971   7.163
15340TIP3    H245901   2.399   5.942   7.079
15341TIP3   OH245902   2.181   5.639   5.775
15341TIP3    H145903   2.154   5.634   5.681
15341TIP3    H245904   2.279   5.644   5.765
15342TIP3   OH245905   2.866   6.311   7.291
15342TIP3    H145906   2.951   6.301   7.246
15342TIP3    H245907   2.871   6.245   7.362
15343TIP3   OH245908   3.007   5.975   5.435
15343TIP3    H145909   2.988   5.924   5.354
15343TIP3    H245910   2.976   6.064   5.404
15344TIP3   OH245911   2.481   5.697   7.286
15344TIP3    H145912   2.477   5.616   7.231
15344TIP3    H245913   2.435   5.762   7.228
15345TIP3   OH245914   2.477   5.486   7.092
15345TIP3    H145915   2.505   5.523   7.005
15345TIP3    H245916   2.384   5.461   7.073
15346TIP3   OH245917   2.508   6.021   6.962
15346TIP3    H145918   2.591   6.027   6.912
15346TIP3    H245919   2.455   6.092   6.921
15347TIP3   OH245920   3.092   5.989   7.351
15347TIP3    H145921   3.143   5.907   7.343
15347TIP3    H245922   3.156   6.055   7.319
15348TIP3   OH245923   3.129   6.239   7.080
15348TIP3    H145924   3.071   6.292   7.021
15348TIP3    H245925   3.217   6.259   7.040
15349TIP3   OH245926   2.354   5.815   7.511
15349TIP3    H145927   2.284   5.748   7.527
15349TIP3    H245928   2.385   5.790   7.423
15350TIP3   OH245929   2.611   5.254   7.164
15350TIP3    H145930   2.561   5.334   7.137
15350TIP3    H245931   2.545   5.183   7.148
15351TIP3   OH245932   2.737   5.754   7.380
15351TIP3    H145933   2.703   5.751   7.471
15351TIP3    H245934   2.655   5.728   7.333
15352TIP3   OH245935   2.976   5.709   7.227
15352TIP3    H145936   2.899   5.701   7.286
15352TIP3    H245937   3.050   5.675   7.282
15353TIP3   OH245938   3.189   5.639   7.385
15353TIP3    H145939   3.216   5.546   7.401
15353TIP3    H245940   3.196   5.681   7.473
15354TIP3   OH245941   2.193   5.596   7.563
15354TIP3    H145942   2.197   5.505   7.528
15354TIP3    H245943   2.224   5.582   7.654
15355TIP3   OH245944   2.708   5.262   7.426
15355TIP3    H145945   2.777   5.193   7.413
15355TIP3    H245946   2.668   5.262   7.336
15356TIP3   OH245947   1.989   6.705   5.674
15356TIP3    H145948   2.084   6.702   5.655
15356TIP3    H245949   1.957   6.749   5.593
15357TIP3   OH245950   1.471   6.083   5.894
15357TIP3    H145951   1.565   6.107   5.879
15357TIP3    H245952   1.466   5.995   5.851
15358TIP3   OH245953   1.383   6.697   6.301
15358TIP3    H145954   1.315   6.635   6.268
15358TIP3    H245955   1.427   6.642   6.370
15359TIP3   OH245956   1.520   6.555   6.490
15359TIP3    H145957   1.509   6.477   6.546
15359TIP3    H245958   1.570   6.613   6.549
15360TIP3   OH245959   3.244   6.952   6.289
15360TIP3    H145960   3.275   6.986   6.375
15360TIP3    H245961   3.306   6.995   6.227
15361TIP3   OH245962   3.278   6.971   6.571
15361TIP3    H145963   3.236   6.882   6.565
15361TIP3    H245964   3.353   6.949   6.628
15362TIP3   OH245965   3.322   6.646   7.143
15362TIP3    H145966   3.250   6.654   7.208
15362TIP3    H245967   3.363   6.735   7.148
15363TIP3   OH245968   3.136   6.163   5.768
15363TIP3    H145969   3.208   6.223   5.737
15363TIP3    H245970   3.180   6.121   5.845
15364TIP3   OH245971   3.266   6.030   5.969
15364TIP3    H145972   3.202   5.985   6.028
15364TIP3    H245973   3.331   6.066   6.032
15365TIP3   OH245974   3.317   6.416   6.401
15365TIP3    H145975   3.372   6.354   6.349
15365TIP3    H245976   3.310   6.492   6.340
15366TIP3   OH245977   3.155   6.719   6.598
15366TIP3    H145978   3.083   6.761   6.649
15366TIP3    H245979   3.105   6.670   6.529
15367TIP3   OH245980   3.206   5.936   5.618
15367TIP3    H145981   3.135   5.936   5.549
15367TIP3    H245982   3.176   6.013   5.670
15368TIP3   OH245983   3.074   5.610   5.575
15368TIP3    H145984   3.040   5.647   5.492
15368TIP3    H245985   3.046   5.516   5.567
15369TIP3   OH245986   3.080   5.882   6.117
15369TIP3    H145987   3.092   5.785   6.108
15369TIP3    H245988   3.073   5.893   6.214
15370TIP3   OH245989   1.710   5.956   6.862
15370TIP3    H145990   1.708   5.929   6.768
15370TIP3    H245991   1.808   5.957   6.878
15371TIP3   OH245992   3.369   6.306   6.970
15371TIP3    H145993   3.444   6.242   6.964
15371TIP3    H245994   3.398   6.377   6.911
15372TIP3   OH245995   3.557   6.116   6.997
15372TIP3    H145996   3.483   6.065   7.036
15372TIP3    H245997   3.630   6.052   7.008
15373TIP3   OH245998   3.017   5.345   5.571
15373TIP3    H145999   3.098   5.309   5.613
15373TIP3    H246000   2.951   5.275   5.587
15374TIP3   OH246001   3.079   5.598   6.015
15374TIP3    H146002   3.118   5.509   6.030
15374TIP3    H246003   3.136   5.628   5.942
15375TIP3   OH246004   3.241   5.782   6.506
15375TIP3    H146005   3.328   5.805   6.466
15375TIP3    H246006   3.257   5.812   6.597
15376TIP3   OH246007   3.308   5.917   6.743
15376TIP3    H146008   3.228   5.953   6.787
15376TIP3    H246009   3.341   5.996   6.695
15377TIP3   OH246010   1.925   5.646   7.537
15377TIP3    H146011   2.023   5.637   7.537
15377TIP3    H246012   1.900   5.561   7.580
15378TIP3   OH246013   3.757   5.503   7.296
15378TIP3    H146014   3.818   5.438   7.253
15378TIP3    H246015   3.734   5.562   7.221
15379TIP3   OH246016   3.182   5.349   6.054
15379TIP3    H146017   3.235   5.328   6.134
15379TIP3    H246018   3.125   5.270   6.048
15380TIP3   OH246019   1.882   5.336   6.870
15380TIP3    H146020   1.943   5.259   6.878
15380TIP3    H246021   1.947   5.409   6.864
15381TIP3   OH246022   1.690   5.611   6.941
15381TIP3    H146023   1.741   5.602   6.858
15381TIP3    H246024   1.720   5.697   6.972
15382TIP3   OH246025   3.634   5.651   7.103
15382TIP3    H146026   3.544   5.686   7.121
15382TIP3    H246027   3.611   5.578   7.042
15383TIP3   OH246028   3.274   5.286   5.678
15383TIP3    H146029   3.314   5.213   5.626
15383TIP3    H246030   3.339   5.357   5.665
15384TIP3   OH246031   1.674   5.119   6.440
15384TIP3    H146032   1.584   5.150   6.441
15384TIP3    H246033   1.705   5.169   6.361
15385TIP3   OH246034   2.831   6.815   5.948
15385TIP3    H146035   2.880   6.796   5.865
15385TIP3    H246036   2.889   6.881   5.990
15386TIP3   OH246037   1.894   5.199   7.260
15386TIP3    H146038   1.842   5.187   7.341
15386TIP3    H246039   1.825   5.230   7.198
15387TIP3   OH246040   1.933   6.618   7.336
15387TIP3    H146041   1.842   6.588   7.318
15387TIP3    H246042   1.942   6.601   7.430
15388TIP3   OH246043   2.109   6.647   6.881
15388TIP3    H146044   2.061   6.723   6.843
15388TIP3    H246045   2.196   6.663   6.838
15389TIP3   OH246046   2.559   6.897   7.020
15389TIP3    H146047   2.600   6.899   7.109
15389TIP3    H246048   2.626   6.947   6.968
15390TIP3   OH246049   2.737   7.046   6.876
15390TIP3    H146050   2.810   6.996   6.835
15390TIP3    H246051   2.788   7.104   6.937
15391TIP3   OH246052   3.528   5.411   6.980
15391TIP3    H146053   3.438   5.405   6.944
15391TIP3    H246054   3.559   5.318   6.967
15392TIP3   OH246055   1.789   6.909   6.904
15392TIP3    H146056   1.701   6.945   6.879
15392TIP3    H246057   1.794   6.937   6.996
15393TIP3   OH246058   2.025   6.886   6.761
15393TIP3    H146059   1.939   6.900   6.807
15393TIP3    H246060   2.005   6.920   6.672
15394TIP3   OH246061   2.451   6.919   6.559
15394TIP3    H146062   2.382   6.940   6.493
15394TIP3    H246063   2.464   7.006   6.603
15395TIP3   OH246064   2.718   6.857   6.610
15395TIP3    H146065   2.624   6.874   6.590
15395TIP3    H246066   2.761   6.934   6.570
15396TIP3   OH246067   2.928   7.051   6.528
15396TIP3    H146068   2.914   7.135   6.480
15396TIP3    H246069   2.953   6.990   6.456
15397TIP3   OH246070   1.699   6.704   6.651
15397TIP3    H146071   1.726   6.680   6.742
15397TIP3    H246072   1.771   6.659   6.600
15398TIP3   OH246073   1.890   6.574   6.504
15398TIP3    H146074   1.908   6.490   6.553
15398TIP3    H246075   1.980   6.613   6.499
15399TIP3   OH246076   2.156   6.672   6.506
15399TIP3    H146077   2.190   6.582   6.492
15399TIP3    H246078   2.197   6.692   6.592
15400TIP3   OH246079   2.733   5.318   6.571
15400TIP3    H146080   2.689   5.262   6.638
15400TIP3    H246081   2.814   5.268   6.550
15401TIP3   OH246082   3.260   5.221   6.513
15401TIP3    H146083   3.298   5.260   6.432
15401TIP3    H246084   3.165   5.220   6.493
15402TIP3   OH246085   3.354   5.309   6.270
15402TIP3    H146086   3.425   5.255   6.227
15402TIP3    H246087   3.388   5.399   6.251
15403TIP3   OH246088   1.982   5.037   6.616
15403TIP3    H146089   1.892   5.000   6.612
15403TIP3    H246090   2.035   4.953   6.613
15404TIP3   OH246091   1.770   4.904   6.264
15404TIP3    H146092   1.803   4.953   6.186
15404TIP3    H246093   1.744   4.975   6.325
15405TIP3   OH246094   2.416   5.081   6.493
15405TIP3    H146095   2.484   5.117   6.434
15405TIP3    H246096   2.450   5.104   6.580
15406TIP3   OH246097   2.976   5.209   6.474
15406TIP3    H146098   2.980   5.170   6.385
15406TIP3    H246099   2.962   5.129   6.529
15407TIP3   OH246100   3.003   5.135   6.040
15407TIP3    H146101   2.911   5.143   6.010
15407TIP3    H246102   2.994   5.053   6.094
15408TIP3   OH246103   1.487   6.471   6.046
15408TIP3    H146104   1.403   6.438   6.008
15408TIP3    H246105   1.474   6.566   6.031
15409TIP3   OH246106   1.881   5.064   6.030
15409TIP3    H146107   1.921   4.987   5.980
15409TIP3    H246108   1.963   5.108   6.061
15410TIP3   OH246109   2.392   5.244   6.130
15410TIP3    H146110   2.447   5.174   6.169
15410TIP3    H246111   2.436   5.321   6.167
15411TIP3   OH246112   2.258   6.669   5.621
15411TIP3    H146113   2.348   6.688   5.587
15411TIP3    H246114   2.237   6.592   5.565
15412TIP3   OH246115   2.975   6.780   5.716
15412TIP3    H146116   2.968   6.682   5.703
15412TIP3    H246117   2.934   6.812   5.633
15413TIP3   OH246118   2.193   5.319   7.508
15413TIP3    H146119   2.159   5.246   7.562
15413TIP3    H246120   2.288   5.318   7.532
15414TIP3   OH246121   2.446   5.318   7.627
15414TIP3    H146122   2.520   5.283   7.573
15414TIP3    H246123   2.429   5.244   7.690
15415TIP3   OH246124   1.564   6.504   5.682
15415TIP3    H146125   1.562   6.530   5.775
15415TIP3    H246126   1.653   6.462   5.673
15416TIP3   OH246127   3.266   5.375   7.415
15416TIP3    H146128   3.288   5.337   7.503
15416TIP3    H246129   3.352   5.368   7.369
15417TIP3   OH246130   3.207   6.928   6.903
15417TIP3    H146131   3.128   6.894   6.858
15417TIP3    H246132   3.186   7.023   6.905
15418TIP3   OH246133   4.470   6.298   5.674
15418TIP3    H146134   4.442   6.390   5.652
15418TIP3    H246135   4.394   6.248   5.639
15419TIP3   OH246136   4.467   6.299   6.049
15419TIP3    H146137   4.496   6.261   6.134
15419TIP3    H246138   4.428   6.221   6.006
15420TIP3   OH246139   3.769   6.197   6.418
15420TIP3    H146140   3.803   6.129   6.479
15420TIP3    H246141   3.849   6.249   6.403
15421TIP3   OH246142   4.710   6.599   5.730
15421TIP3    H146143   4.699   6.527   5.793
15421TIP3    H246144   4.738   6.672   5.787
15422TIP3   OH246145   3.739   6.602   6.147
15422TIP3    H146146   3.731   6.504   6.149
15422TIP3    H246147   3.835   6.610   6.136
15423TIP3   OH246148   3.445   5.810   5.933
15423TIP3    H146149   3.393   5.892   5.938
15423TIP3    H246150   3.379   5.750   5.894
15424TIP3   OH246151   3.508   6.095   6.096
15424TIP3    H146152   3.555   6.017   6.133
15424TIP3    H246153   3.562   6.114   6.018
15425TIP3   OH246154   4.357   7.061   5.747
15425TIP3    H146155   4.407   6.991   5.699
15425TIP3    H246156   4.355   7.026   5.837
15426TIP3   OH246157   4.268   6.523   6.100
15426TIP3    H146158   4.301   6.446   6.051
15426TIP3    H246159   4.354   6.565   6.120
15427TIP3   OH246160   5.279   5.844   6.096
15427TIP3    H146161   5.308   5.928   6.139
15427TIP3    H246162   5.299   5.863   6.003
15428TIP3   OH246163   4.680   6.027   6.135
15428TIP3    H146164   4.722   5.941   6.153
15428TIP3    H246165   4.650   6.013   6.043
15429TIP3   OH246166   4.014   5.685   6.100
15429TIP3    H146167   3.995   5.756   6.036
15429TIP3    H246168   3.971   5.609   6.054
15430TIP3   OH246169   4.709   5.777   5.725
15430TIP3    H146170   4.784   5.758   5.786
15430TIP3    H246171   4.758   5.809   5.647
15431TIP3   OH246172   3.651   5.888   6.204
15431TIP3    H146173   3.734   5.866   6.250
15431TIP3    H246174   3.661   5.831   6.124
15432TIP3   OH246175   4.092   6.085   5.997
15432TIP3    H146176   4.186   6.059   6.008
15432TIP3    H246177   4.053   6.002   5.963
15433TIP3   OH246178   5.355   6.052   6.266
15433TIP3    H146179   5.271   6.099   6.246
15433TIP3    H246180   5.362   6.069   6.361
15434TIP3   OH246181   4.015   5.669   6.532
15434TIP3    H146182   3.953   5.704   6.464
15434TIP3    H246183   3.964   5.687   6.613
15435TIP3   OH246184   4.367   6.520   5.542
15435TIP3    H146185   4.320   6.491   5.462
15435TIP3    H246186   4.322   6.605   5.561
15436TIP3   OH246187   4.122   6.442   6.331
15436TIP3    H146188   4.057   6.505   6.369
15436TIP3    H246189   4.161   6.495   6.259
15437TIP3   OH246190   4.925   5.775   5.889
15437TIP3    H146191   4.923   5.718   5.966
15437TIP3    H246192   4.982   5.849   5.918
15438TIP3   OH246193   3.884   5.783   6.317
15438TIP3    H146194   3.948   5.854   6.339
15438TIP3    H246195   3.930   5.741   6.241
15439TIP3   OH246196   3.948   6.634   6.427
15439TIP3    H146197   3.921   6.717   6.383
15439TIP3    H246198   3.868   6.619   6.483
15440TIP3   OH246199   3.344   6.324   5.661
15440TIP3    H146200   3.305   6.347   5.575
15440TIP3    H246201   3.373   6.410   5.696
15441TIP3   OH246202   4.785   6.841   5.904
15441TIP3    H146203   4.695   6.832   5.942
15441TIP3    H246204   4.776   6.925   5.856
15442TIP3   OH246205   5.071   5.749   6.266
15442TIP3    H146206   4.983   5.773   6.233
15442TIP3    H246207   5.129   5.775   6.191
15443TIP3   OH246208   4.375   5.390   6.245
15443TIP3    H146209   4.363   5.294   6.259
15443TIP3    H246210   4.296   5.425   6.291
15444TIP3   OH246211   4.491   6.890   5.580
15444TIP3    H146212   4.538   6.807   5.556
15444TIP3    H246213   4.550   6.955   5.535
15445TIP3   OH246214   4.629   6.675   5.478
15445TIP3    H146215   4.589   6.598   5.438
15445TIP3    H246216   4.663   6.638   5.563
15446TIP3   OH246217   5.011   6.757   6.244
15446TIP3    H146218   5.000   6.679   6.186
15446TIP3    H246219   4.994   6.831   6.181
15447TIP3   OH246220   4.302   6.150   5.498
15447TIP3    H146221   4.221   6.199   5.474
15447TIP3    H246222   4.350   6.145   5.413
15448TIP3   OH246223   4.292   5.913   5.167
15448TIP3    H146224   4.340   5.964   5.236
15448TIP3    H246225   4.252   5.840   5.220
15449TIP3   OH246226   5.205   6.393   6.089
15449TIP3    H146227   5.122   6.445   6.094
15449TIP3    H246228   5.233   6.414   5.997
15450TIP3   OH246229   4.649   6.235   5.475
15450TIP3    H146230   4.594   6.258   5.554
15450TIP3    H246231   4.731   6.204   5.519
15451TIP3   OH246232   4.884   6.274   6.380
15451TIP3    H146233   4.879   6.359   6.428
15451TIP3    H246234   4.797   6.274   6.335
15452TIP3   OH246235   3.880   6.232   5.889
15452TIP3    H146236   3.836   6.175   5.823
15452TIP3    H246237   3.957   6.177   5.916
15453TIP3   OH246238   4.009   6.640   6.040
15453TIP3    H146239   3.987   6.595   5.957
15453TIP3    H246240   4.100   6.608   6.056
15454TIP3   OH246241   4.018   6.201   6.246
15454TIP3    H146242   4.049   6.179   6.155
15454TIP3    H246243   4.061   6.287   6.263
15455TIP3   OH246244   4.541   6.840   6.020
15455TIP3    H146245   4.528   6.918   6.075
15455TIP3    H246246   4.529   6.765   6.082
15456TIP3   OH246247   4.152   6.763   6.569
15456TIP3    H146248   4.088   6.822   6.613
15456TIP3    H246249   4.091   6.705   6.520
15457TIP3   OH246250   4.491   6.096   5.296
15457TIP3    H146251   4.552   6.151   5.351
15457TIP3    H246252   4.519   6.120   5.205
15458TIP3   OH246253   3.908   6.318   6.666
15458TIP3    H146254   3.909   6.402   6.715
15458TIP3    H246255   3.813   6.297   6.669
15459TIP3   OH246256   4.229   6.773   5.577
15459TIP3    H146257   4.305   6.829   5.599
15459TIP3    H246258   4.168   6.835   5.534
15460TIP3   OH246259   3.947   6.933   6.655
15460TIP3    H146260   3.915   6.928   6.563
15460TIP3    H246261   3.869   6.906   6.707
15461TIP3   OH246262   5.015   5.339   5.351
15461TIP3    H146263   4.921   5.321   5.372
15461TIP3    H246264   5.004   5.413   5.288
15462TIP3   OH246265   3.744   6.075   5.700
15462TIP3    H146266   3.681   6.118   5.638
15462TIP3    H246267   3.706   5.986   5.705
15463TIP3   OH246268   4.802   6.701   4.894
15463TIP3    H146269   4.811   6.798   4.881
15463TIP3    H246270   4.894   6.671   4.882
15464TIP3   OH246271   3.529   6.457   6.601
15464TIP3    H146272   3.466   6.433   6.530
15464TIP3    H246273   3.565   6.370   6.628
15465TIP3   OH246274   3.381   6.648   6.239
15465TIP3    H146275   3.477   6.641   6.224
15465TIP3    H246276   3.375   6.730   6.289
15466TIP3   OH246277   5.248   7.098   6.288
15466TIP3    H146278   5.246   7.001   6.300
15466TIP3    H246279   5.164   7.123   6.334
15467TIP3   OH246280   4.355   6.887   6.426
15467TIP3    H146281   4.354   6.980   6.455
15467TIP3    H246282   4.280   6.849   6.477
15468TIP3   OH246283   4.110   7.017   5.376
15468TIP3    H146284   4.066   6.995   5.291
15468TIP3    H246285   4.079   7.108   5.394
15469TIP3   OH246286   3.550   6.868   5.758
15469TIP3    H146287   3.598   6.856   5.843
15469TIP3    H246288   3.491   6.790   5.761
15470TIP3   OH246289   4.315   6.917   5.017
15470TIP3    H146290   4.374   6.848   4.981
15470TIP3    H246291   4.348   6.925   5.109
15471TIP3   OH246292   4.363   6.965   5.289
15471TIP3    H146293   4.274   6.973   5.331
15471TIP3    H246294   4.412   6.919   5.359
15472TIP3   OH246295   5.137   6.233   6.562
15472TIP3    H146296   5.058   6.246   6.507
15472TIP3    H246297   5.152   6.138   6.551
15473TIP3   OH246298   3.732   6.641   6.595
15473TIP3    H146299   3.783   6.620   6.676
15473TIP3    H246300   3.659   6.576   6.599
15474TIP3   OH246301   4.133   5.463   6.371
15474TIP3    H146302   4.044   5.431   6.346
15474TIP3    H246303   4.108   5.547   6.414
15475TIP3   OH246304   4.665   5.582   6.567
15475TIP3    H146305   4.732   5.551   6.631
15475TIP3    H246306   4.580   5.559   6.611
15476TIP3   OH246307   4.910   6.009   6.488
15476TIP3    H146308   4.859   6.004   6.571
15476TIP3    H246309   4.882   6.094   6.450
15477TIP3   OH246310   4.565   6.145   5.033
15477TIP3    H146311   4.555   6.122   4.940
15477TIP3    H246312   4.646   6.199   5.028
15478TIP3   OH246313   4.290   5.519   5.346
15478TIP3    H146314   4.251   5.520   5.436
15478TIP3    H246315   4.251   5.438   5.311
15479TIP3   OH246316   4.065   5.978   6.394
15479TIP3    H146317   4.012   6.000   6.473
15479TIP3    H246318   4.049   6.058   6.338
15480TIP3   OH246319   3.948   5.865   5.907
15480TIP3    H146320   3.855   5.838   5.922
15480TIP3    H246321   3.963   5.827   5.817
15481TIP3   OH246322   4.439   5.954   5.636
15481TIP3    H146323   4.386   6.023   5.592
15481TIP3    H246324   4.495   5.922   5.562
15482TIP3   OH246325   4.613   6.236   6.726
15482TIP3    H146326   4.591   6.159   6.784
15482TIP3    H246327   4.709   6.243   6.742
15483TIP3   OH246328   4.598   5.983   5.873
15483TIP3    H146329   4.538   6.010   5.800
15483TIP3    H246330   4.631   5.900   5.834
15484TIP3   OH246331   3.883   6.009   6.602
15484TIP3    H146332   3.910   6.070   6.672
15484TIP3    H246333   3.872   5.925   6.651
15485TIP3   OH246334   3.474   5.535   6.185
15485TIP3    H146335   3.556   5.560   6.231
15485TIP3    H246336   3.505   5.498   6.100
15486TIP3   OH246337   3.457   5.514   5.704
15486TIP3    H146338   3.502   5.550   5.625
15486TIP3    H246339   3.394   5.586   5.723
15487TIP3   OH246340   4.611   6.228   6.299
15487TIP3    H146341   4.641   6.155   6.240
15487TIP3    H246342   4.579   6.176   6.376
15488TIP3   OH246343   4.274   5.693   5.970
15488TIP3    H146344   4.190   5.684   6.019
15488TIP3    H246345   4.339   5.688   6.041
15489TIP3   OH246346   3.709   5.740   5.979
15489TIP3    H146347   3.615   5.746   5.951
15489TIP3    H246348   3.734   5.649   5.954
15490TIP3   OH246349   3.979   5.751   5.657
15490TIP3    H146350   4.076   5.754   5.643
15490TIP3    H246351   3.943   5.771   5.569
15491TIP3   OH246352   4.767   5.764   6.172
15491TIP3    H146353   4.726   5.773   6.260
15491TIP3    H246354   4.707   5.700   6.130
15492TIP3   OH246355   3.830   5.785   5.421
15492TIP3    H146356   3.748   5.734   5.416
15492TIP3    H246357   3.875   5.758   5.337
15493TIP3   OH246358   4.934   7.451   6.386
15493TIP3    H146359   4.932   7.474   6.292
15493TIP3    H246360   5.010   7.503   6.418
15494TIP3   OH246361   3.895   6.563   6.811
15494TIP3    H146362   3.973   6.595   6.860
15494TIP3    H246363   3.829   6.559   6.883
15495TIP3   OH246364   4.361   6.015   6.067
15495TIP3    H146365   4.428   5.973   6.011
15495TIP3    H246366   4.374   5.970   6.152
15496TIP3   OH246367   3.889   5.505   5.939
15496TIP3    H146368   3.856   5.423   5.980
15496TIP3    H246369   3.929   5.473   5.857
15497TIP3   OH246370   4.336   5.906   6.357
15497TIP3    H146371   4.247   5.944   6.368
15497TIP3    H246372   4.393   5.968   6.407
15498TIP3   OH246373   4.072   6.305   5.450
15498TIP3    H146374   4.004   6.235   5.440
15498TIP3    H246375   4.054   6.336   5.542
15499TIP3   OH246376   4.974   6.540   6.082
15499TIP3    H146377   4.998   6.587   5.999
15499TIP3    H246378   4.889   6.496   6.059
15500TIP3   OH246379   4.539   5.633   5.312
15500TIP3    H146380   4.449   5.595   5.306
15500TIP3    H246381   4.527   5.725   5.339
15501TIP3   OH246382   4.476   6.622   6.446
15501TIP3    H146383   4.487   6.592   6.537
15501TIP3    H246384   4.434   6.709   6.455
15502TIP3   OH246385   4.600   5.875   5.427
15502TIP3    H146386   4.697   5.863   5.431
15502TIP3    H246387   4.589   5.945   5.360
15503TIP3   OH246388   3.766   6.325   6.128
15503TIP3    H146389   3.800   6.297   6.041
15503TIP3    H246390   3.800   6.256   6.186
15504TIP3   OH246391   4.216   6.454   5.270
15504TIP3    H146392   4.170   6.541   5.279
15504TIP3    H246393   4.162   6.399   5.330
15505TIP3   OH246394   3.641   6.248   6.740
15505TIP3    H146395   3.665   6.232   6.833
15505TIP3    H246396   3.575   6.178   6.724
15506TIP3   OH246397   4.367   6.358   6.758
15506TIP3    H146398   4.309   6.299   6.706
15506TIP3    H246399   4.456   6.324   6.731
15507TIP3   OH246400   4.635   6.883   6.342
15507TIP3    H146401   4.539   6.876   6.352
15507TIP3    H246402   4.659   6.935   6.421
15508TIP3   OH246403   5.047   5.947   5.249
15508TIP3    H146404   4.984   5.899   5.190
15508TIP3    H246405   5.041   6.035   5.207
15509TIP3   OH246406   5.261   6.808   6.333
15509TIP3    H146407   5.163   6.803   6.325
15509TIP3    H246408   5.286   6.777   6.243
15510TIP3   OH246409   4.743   6.770   5.159
15510TIP3    H146410   4.718   6.699   5.220
15510TIP3    H246411   4.754   6.724   5.074
15511TIP3   OH246412   4.739   6.399   6.005
15511TIP3    H146413   4.645   6.373   6.015
15511TIP3    H246414   4.774   6.321   5.957
15512TIP3   OH246415   3.863   6.627   5.754
15512TIP3    H146416   3.867   6.708   5.698
15512TIP3    H246417   3.768   6.609   5.754
15513TIP3   OH246418   3.428   5.931   5.452
15513TIP3    H146419   3.474   6.016   5.470
15513TIP3    H246420   3.349   5.939   5.511
15514TIP3   OH246421   4.010   6.397   5.699
15514TIP3    H146422   3.972   6.485   5.717
15514TIP3    H246423   3.971   6.344   5.771
15515TIP3   OH246424   4.132   6.973   6.223
15515TIP3    H146425   4.171   7.044   6.169
15515TIP3    H246426   4.211   6.938   6.267
15516TIP3   OH246427   3.786   6.866   5.606
15516TIP3    H146428   3.699   6.874   5.650
15516TIP3    H246429   3.816   6.959   5.606
15517TIP3   OH246430   4.527   6.607   6.178
15517TIP3    H146431   4.520   6.602   6.275
15517TIP3    H246432   4.604   6.550   6.161
15518TIP3   OH246433   4.495   6.498   5.061
15518TIP3    H146434   4.546   6.473   5.141
15518TIP3    H246435   4.405   6.470   5.087
15519TIP3   OH246436   4.772   7.143   6.231
15519TIP3    H146437   4.694   7.085   6.221
15519TIP3    H246438   4.757   7.207   6.158
15520TIP3   OH246439   4.838   6.975   4.882
15520TIP3    H146440   4.874   7.046   4.827
15520TIP3    H246441   4.757   7.021   4.914
15521TIP3   OH246442   3.858   5.752   6.750
15521TIP3    H146443   3.762   5.755   6.764
15521TIP3    H246444   3.886   5.688   6.817
15522TIP3   OH246445   4.655   6.433   5.279
15522TIP3    H146446   4.645   6.367   5.351
15522TIP3    H246447   4.752   6.431   5.267
15523TIP3   OH246448   3.572   6.838   6.382
15523TIP3    H146449   3.621   6.758   6.406
15523TIP3    H246450   3.605   6.900   6.447
15524TIP3   OH246451   3.871   6.484   5.064
15524TIP3    H146452   3.847   6.404   5.011
15524TIP3    H246453   3.845   6.457   5.153
15525TIP3   OH246454   3.806   6.486   5.339
15525TIP3    H146455   3.880   6.456   5.393
15525TIP3    H246456   3.817   6.583   5.340
15526TIP3   OH246457   3.549   6.180   5.535
15526TIP3    H146458   3.482   6.226   5.590
15526TIP3    H246459   3.564   6.247   5.466
15527TIP3   OH246460   4.687   5.820   6.432
15527TIP3    H146461   4.773   5.850   6.466
15527TIP3    H246462   4.673   5.736   6.482
15528TIP3   OH246463   4.551   5.578   5.588
15528TIP3    H146464   4.555   5.587   5.491
15528TIP3    H246465   4.606   5.653   5.618
15529TIP3   OH246466   4.077   6.685   5.286
15529TIP3    H146467   3.988   6.712   5.317
15529TIP3    H246468   4.089   6.748   5.213
15530TIP3   OH246469   4.262   5.745   5.694
15530TIP3    H146470   4.331   5.811   5.675
15530TIP3    H246471   4.268   5.738   5.792
15531TIP3   OH246472   4.531   6.067   6.504
15531TIP3    H146473   4.549   6.117   6.586
15531TIP3    H246474   4.586   5.988   6.515
15532TIP3   OH246475   4.411   5.479   5.801
15532TIP3    H146476   4.404   5.559   5.857
15532TIP3    H246477   4.466   5.515   5.727
15533TIP3   OH246478   3.818   6.759   5.347
15533TIP3    H146479   3.785   6.826   5.283
15533TIP3    H246480   3.800   6.803   5.433
15534TIP3   OH246481   3.915   5.461   5.608
15534TIP3    H146482   3.915   5.558   5.615
15534TIP3    H246483   4.010   5.444   5.596
15535TIP3   OH246484   5.177   5.966   6.480
15535TIP3    H146485   5.079   5.964   6.491
15535TIP3    H246486   5.184   5.922   6.394
15536TIP3   OH246487   4.824   6.161   5.872
15536TIP3    H146488   4.748   6.100   5.881
15536TIP3    H246489   4.896   6.112   5.918
15537TIP3   OH246490   3.534   6.394   5.343
15537TIP3    H146491   3.601   6.465   5.348
15537TIP3    H246492   3.580   6.335   5.279
15538TIP3   OH246493   3.489   5.667   5.477
15538TIP3    H146494   3.475   5.763   5.470
15538TIP3    H246495   3.413   5.632   5.429
15539TIP3   OH246496   4.791   7.113   5.823
15539TIP3    H146497   4.748   7.160   5.748
15539TIP3    H246498   4.885   7.131   5.801
15540TIP3   OH246499   3.866   5.385   6.352
15540TIP3    H146500   3.837   5.352   6.264
15540TIP3    H246501   3.857   5.305   6.408
15541TIP3   OH246502   3.414   6.610   5.739
15541TIP3    H146503   3.329   6.636   5.776
15541TIP3    H246504   3.401   6.639   5.646
15542TIP3   OH246505   3.560   7.137   6.801
15542TIP3    H146506   3.646   7.135   6.847
15542TIP3    H246507   3.537   7.043   6.799
15543TIP3   OH246508   4.055   7.097   6.859
15543TIP3    H146509   4.149   7.091   6.837
15543TIP3    H246510   4.016   7.052   6.781
15544TIP3   OH246511   4.031   6.686   4.978
15544TIP3    H146512   3.973   6.613   5.013
15544TIP3    H246513   4.103   6.634   4.939
15545TIP3   OH246514   4.680   7.018   6.582
15545TIP3    H146515   4.674   6.944   6.646
15545TIP3    H246516   4.762   7.064   6.608
15546TIP3   OH246517   4.465   6.728   4.884
15546TIP3    H146518   4.511   6.664   4.941
15546TIP3    H246519   4.521   6.729   4.804
15547TIP3   OH246520   3.695   6.548   7.000
15547TIP3    H146521   3.711   6.451   7.007
15547TIP3    H246522   3.606   6.549   6.959
15548TIP3   OH246523   3.665   6.207   5.190
15548TIP3    H146524   3.733   6.160   5.240
15548TIP3    H246525   3.707   6.214   5.102
15549TIP3   OH246526   4.302   6.629   6.773
15549TIP3    H146527   4.260   6.641   6.686
15549TIP3    H246528   4.334   6.536   6.769
15550TIP3   OH246529   4.193   6.393   5.002
15550TIP3    H146530   4.184   6.416   5.096
15550TIP3    H246531   4.143   6.311   4.997
15551TIP3   OH246532   4.796   6.638   6.382
15551TIP3    H146533   4.868   6.685   6.335
15551TIP3    H246534   4.722   6.700   6.367
15552TIP3   OH246535   3.812   6.280   6.981
15552TIP3    H146536   3.884   6.217   6.966
15552TIP3    H246537   3.834   6.313   7.070
15553TIP3   OH246538   3.895   6.092   5.422
15553TIP3    H146539   3.856   6.055   5.503
15553TIP3    H246540   3.905   6.012   5.368
15554TIP3   OH246541   4.148   6.169   6.647
15554TIP3    H146542   4.069   6.228   6.650
15554TIP3    H246543   4.193   6.200   6.566
15555TIP3   OH246544   4.668   6.572   6.783
15555TIP3    H146545   4.744   6.548   6.728
15555TIP3    H246546   4.665   6.499   6.846
15556TIP3   OH246547   4.808   6.232   4.916
15556TIP3    H146548   4.780   6.181   4.838
15556TIP3    H246549   4.773   6.320   4.890
15557TIP3   OH246550   4.271   5.953   6.774
15557TIP3    H146551   4.271   5.872   6.718
15557TIP3    H246552   4.228   6.018   6.714
15558TIP3   OH246553   4.273   5.742   6.579
15558TIP3    H146554   4.301   5.781   6.494
15558TIP3    H246555   4.179   5.718   6.560
15559TIP3   OH246556   4.307   6.282   6.452
15559TIP3    H146557   4.385   6.281   6.395
15559TIP3    H246558   4.250   6.348   6.408
15560TIP3   OH246559   4.888   6.247   6.837
15560TIP3    H146560   4.932   6.161   6.842
15560TIP3    H246561   4.957   6.303   6.798
15561TIP3   OH246562   4.926   6.499   6.573
15561TIP3    H146563   4.868   6.550   6.511
15561TIP3    H246564   5.013   6.516   6.531
15562TIP3   OH246565   4.146   6.074   6.998
15562TIP3    H146566   4.078   6.005   7.013
15562TIP3    H246567   4.183   6.046   6.912
15563TIP3   OH246568   4.406   5.507   6.642
15563TIP3    H146569   4.357   5.589   6.621
15563TIP3    H246570   4.337   5.439   6.630
15564TIP3   OH246571   4.531   6.015   6.861
15564TIP3    H146572   4.521   6.001   6.957
15564TIP3    H246573   4.441   5.987   6.832
15565TIP3   OH246574   4.773   5.965   6.718
15565TIP3    H146575   4.696   5.960   6.777
15565TIP3    H246576   4.845   5.929   6.774
15566TIP3   OH246577   5.003   5.899   6.868
15566TIP3    H146578   5.013   5.804   6.888
15566TIP3    H246579   4.998   5.940   6.958
15567TIP3   OH246580   3.988   5.853   7.051
15567TIP3    H146581   3.995   5.763   7.014
15567TIP3    H246582   4.023   5.838   7.141
15568TIP3   OH246583   4.502   5.517   6.899
15568TIP3    H146584   4.569   5.446   6.895
15568TIP3    H246585   4.462   5.509   6.810
15569TIP3   OH246586   4.567   5.731   7.060
15569TIP3    H146587   4.544   5.660   6.996
15569TIP3    H246588   4.489   5.791   7.053
15570TIP3   OH246589   3.785   6.964   5.163
15570TIP3    H146590   3.881   6.960   5.142
15570TIP3    H246591   3.753   7.005   5.081
15571TIP3   OH246592   3.267   6.340   5.384
15571TIP3    H146593   3.361   6.362   5.364
15571TIP3    H246594   3.259   6.252   5.341
15572TIP3   OH246595   3.177   6.955   5.789
15572TIP3    H146596   3.111   6.891   5.755
15572TIP3    H246597   3.223   6.900   5.857
15573TIP3   OH246598   3.313   6.814   5.978
15573TIP3    H146599   3.307   6.733   6.030
15573TIP3    H246600   3.366   6.870   6.037
15574TIP3   OH246601   5.042   7.207   5.776
15574TIP3    H146602   5.070   7.242   5.862
15574TIP3    H246603   5.100   7.254   5.714
15575TIP3   OH246604   5.074   7.227   6.058
15575TIP3    H146605   5.031   7.139   6.052
15575TIP3    H246606   5.149   7.205   6.114
15576TIP3   OH246607   5.120   6.904   6.630
15576TIP3    H146608   5.046   6.911   6.693
15576TIP3    H246609   5.160   6.993   6.635
15577TIP3   OH246610   4.935   6.418   5.253
15577TIP3    H146611   5.006   6.479   5.227
15577TIP3    H246612   4.975   6.376   5.332
15578TIP3   OH246613   5.063   6.286   5.456
15578TIP3    H146614   4.997   6.240   5.513
15578TIP3    H246615   5.125   6.323   5.520
15579TIP3   OH246616   5.116   6.673   5.889
15579TIP3    H146617   5.168   6.610   5.836
15579TIP3    H246618   5.104   6.748   5.827
15580TIP3   OH246619   4.951   6.976   6.085
15580TIP3    H146620   4.879   7.017   6.136
15580TIP3    H246621   4.902   6.927   6.015
15581TIP3   OH246622   5.003   6.192   5.104
15581TIP3    H146623   4.932   6.194   5.035
15581TIP3    H246624   4.974   6.268   5.158
15582TIP3   OH246625   4.877   5.855   5.056
15582TIP3    H146626   4.827   5.896   4.985
15582TIP3    H246627   4.841   5.764   5.056
15583TIP3   OH246628   4.880   6.138   5.604
15583TIP3    H146629   4.885   6.041   5.596
15583TIP3    H246630   4.867   6.150   5.700
15584TIP3   OH246631   3.505   6.214   6.348
15584TIP3    H146632   3.504   6.185   6.255
15584TIP3    H246633   3.602   6.215   6.366
15585TIP3   OH246634   5.167   6.564   6.460
15585TIP3    H146635   5.240   6.498   6.451
15585TIP3    H246636   5.194   6.633   6.397
15586TIP3   OH246637   5.354   6.373   6.485
15586TIP3    H146638   5.279   6.321   6.521
15586TIP3    H246639   5.426   6.308   6.496
15587TIP3   OH246640   4.805   5.584   5.058
15587TIP3    H146641   4.886   5.560   5.107
15587TIP3    H246642   4.739   5.525   5.101
15588TIP3   OH246643   4.875   5.855   5.502
15588TIP3    H146644   4.912   5.765   5.518
15588TIP3    H246645   4.934   5.883   5.429
15589TIP3   OH246646   5.038   6.034   5.994
15589TIP3    H146647   5.124   6.060   5.954
15589TIP3    H246648   5.051   6.068   6.084
15590TIP3   OH246649   5.104   6.174   6.229
15590TIP3    H146650   5.024   6.207   6.274
15590TIP3    H246651   5.136   6.254   6.182
15591TIP3   OH246652   3.721   5.903   7.025
15591TIP3    H146653   3.819   5.894   7.024
15591TIP3    H246654   3.697   5.818   7.067
15592TIP3   OH246655   5.557   5.763   6.783
15592TIP3    H146656   5.614   5.696   6.740
15592TIP3    H246657   5.530   5.819   6.707
15593TIP3   OH246658   4.984   5.607   5.538
15593TIP3    H146659   5.028   5.586   5.622
15593TIP3    H246660   4.925   5.529   5.528
15594TIP3   OH246661   3.683   5.593   6.362
15594TIP3    H146662   3.744   5.516   6.366
15594TIP3    H246663   3.747   5.666   6.351
15595TIP3   OH246664   3.487   5.869   6.430
15595TIP3    H146665   3.535   5.853   6.346
15595TIP3    H246666   3.522   5.955   6.454
15596TIP3   OH246667   5.430   5.907   6.590
15596TIP3    H146668   5.341   5.943   6.609
15596TIP3    H246669   5.406   5.835   6.529
15597TIP3   OH246670   5.072   5.545   5.157
15597TIP3    H146671   5.115   5.470   5.111
15597TIP3    H246672   5.139   5.616   5.149
15598TIP3   OH246673   3.467   5.384   5.940
15598TIP3    H146674   3.372   5.368   5.950
15598TIP3    H246675   3.471   5.432   5.854
15599TIP3   OH246676   4.628   7.071   5.435
15599TIP3    H146677   4.677   7.053   5.352
15599TIP3    H246678   4.684   7.139   5.476
15600TIP3   OH246679   3.689   5.454   6.747
15600TIP3    H146680   3.637   5.445   6.828
15600TIP3    H246681   3.622   5.487   6.685
15601TIP3   OH246682   3.730   6.875   6.830
15601TIP3    H146683   3.642   6.845   6.801
15601TIP3    H246684   3.729   6.852   6.923
15602TIP3   OH246685   3.906   6.907   6.372
15602TIP3    H146686   3.857   6.981   6.330
15602TIP3    H246687   3.992   6.921   6.326
15603TIP3   OH246688   4.356   7.153   6.509
15603TIP3    H146689   4.400   7.160   6.596
15603TIP3    H246690   4.420   7.202   6.453
15604TIP3   OH246691   4.532   7.301   6.364
15604TIP3    H146692   4.603   7.252   6.320
15604TIP3    H246693   4.584   7.360   6.424
15605TIP3   OH246694   5.325   5.668   6.466
15605TIP3    H146695   5.234   5.664   6.432
15605TIP3    H246696   5.354   5.575   6.453
15606TIP3   OH246697   3.585   7.167   6.391
15606TIP3    H146698   3.498   7.202   6.365
15606TIP3    H246699   3.588   7.193   6.483
15607TIP3   OH246700   3.822   7.144   6.248
15607TIP3    H146701   3.735   7.158   6.293
15607TIP3    H246702   3.801   7.177   6.158
15608TIP3   OH246703   4.246   7.175   6.047
15608TIP3    H146704   4.179   7.195   5.980
15608TIP3    H246705   4.260   7.262   6.088
15609TIP3   OH246706   4.514   7.116   6.099
15609TIP3    H146707   4.420   7.130   6.077
15609TIP3    H246708   4.556   7.191   6.055
15610TIP3   OH246709   4.725   7.308   6.016
15610TIP3    H146710   4.711   7.392   5.967
15610TIP3    H246711   4.749   7.246   5.943
15611TIP3   OH246712   3.495   6.960   6.139
15611TIP3    H146713   3.523   6.935   6.229
15611TIP3    H246714   3.566   6.916   6.087
15612TIP3   OH246715   3.686   6.831   5.992
15612TIP3    H146716   3.705   6.746   6.038
15612TIP3    H246717   3.776   6.869   5.984
15613TIP3   OH246718   3.953   6.928   5.992
15613TIP3    H146719   3.985   6.838   5.976
15613TIP3    H246720   3.994   6.946   6.079
15614TIP3   OH246721   4.532   5.585   6.086
15614TIP3    H146722   4.487   5.514   6.136
15614TIP3    H246723   4.597   5.534   6.034
15615TIP3   OH246724   5.058   5.471   5.997
15615TIP3    H146725   5.094   5.516   5.918
15615TIP3    H246726   4.962   5.477   5.983
15616TIP3   OH246727   5.153   5.565   5.757
15616TIP3    H146728   5.224   5.514   5.711
15616TIP3    H246729   5.182   5.657   5.738
15617TIP3   OH246730   3.780   5.293   6.105
15617TIP3    H146731   3.688   5.260   6.101
15617TIP3    H246732   3.829   5.208   6.099
15618TIP3   OH246733   3.576   5.157   5.746
15618TIP3    H146734   3.599   5.218   5.672
15618TIP3    H246735   3.535   5.218   5.809
15619TIP3   OH246736   4.221   5.325   5.980
15619TIP3    H146737   4.281   5.373   5.922
15619TIP3    H246738   4.242   5.362   6.067
15620TIP3   OH246739   4.778   5.468   5.963
15620TIP3    H146740   4.768   5.436   5.872
15620TIP3    H246741   4.758   5.387   6.015
15621TIP3   OH246742   4.803   5.396   5.539
15621TIP3    H146743   4.717   5.416   5.499
15621TIP3    H246744   4.785   5.308   5.578
15622TIP3   OH246745   3.282   6.728   5.533
15622TIP3    H146746   3.200   6.692   5.495
15622TIP3    H246747   3.268   6.822   5.516
15623TIP3   OH246748   3.681   5.328   5.521
15623TIP3    H146749   3.726   5.269   5.458
15623TIP3    H246750   3.758   5.378   5.557
15624TIP3   OH246751   4.197   5.493   5.610
15624TIP3    H146752   4.257   5.447   5.671
15624TIP3    H246753   4.220   5.585   5.633
15625TIP3   OH246754   4.054   6.927   5.108
15625TIP3    H146755   4.144   6.945   5.074
15625TIP3    H246756   4.032   6.849   5.051
15626TIP3   OH246757   4.772   7.037   5.202
15626TIP3    H146758   4.765   6.939   5.189
15626TIP3    H246759   4.729   7.070   5.121
15627TIP3   OH246760   3.987   5.574   6.993
15627TIP3    H146761   3.955   5.501   7.049
15627TIP3    H246762   4.082   5.574   7.017
15628TIP3   OH246763   4.237   5.570   7.111
15628TIP3    H146764   4.321   5.543   7.070
15628TIP3    H246765   4.225   5.499   7.178
15629TIP3   OH246766   3.362   6.767   5.170
15629TIP3    H146767   3.361   6.783   5.265
15629TIP3    H246768   3.447   6.719   5.157
15630TIP3   OH246769   5.060   5.629   6.899
15630TIP3    H146770   5.080   5.597   6.990
15630TIP3    H246771   5.148   5.624   6.856
15631TIP3   OH246772   5.002   7.184   6.392
15631TIP3    H146773   4.924   7.150   6.344
15631TIP3    H246774   4.982   7.280   6.391
15632TIP3   OH246775   6.267   6.555   5.160
15632TIP3    H146776   6.239   6.646   5.140
15632TIP3    H246777   6.190   6.505   5.126
15633TIP3   OH246778   6.264   6.555   5.535
15633TIP3    H146779   6.292   6.519   5.621
15633TIP3    H246780   6.223   6.477   5.494
15634TIP3   OH246781   5.566   6.453   5.903
15634TIP3    H146782   5.598   6.385   5.965
15634TIP3    H246783   5.645   6.509   5.894
15635TIP3   OH246784   6.506   6.855   5.217
15635TIP3    H146785   6.494   6.783   5.280
15635TIP3    H246786   6.534   6.929   5.274
15636TIP3   OH246787   5.535   6.859   5.632
15636TIP3    H146788   5.526   6.761   5.635
15636TIP3    H246789   5.631   6.867   5.625
15637TIP3   OH246790   5.244   6.068   5.418
15637TIP3    H146791   5.190   6.149   5.426
15637TIP3    H246792   5.176   6.006   5.386
15638TIP3   OH246793   5.306   6.353   5.583
15638TIP3    H146794   5.351   6.275   5.621
15638TIP3    H246795   5.359   6.370   5.505
15639TIP3   OH246796   6.156   7.320   5.234
15639TIP3    H146797   6.204   7.249   5.187
15639TIP3    H246798   6.149   7.284   5.323
15640TIP3   OH246799   6.065   6.780   5.585
15640TIP3    H146800   6.099   6.703   5.537
15640TIP3    H246801   6.150   6.822   5.607
15641TIP3   OH246802   7.077   6.101   5.583
15641TIP3    H146803   7.104   6.185   5.625
15641TIP3    H246804   7.095   6.120   5.489
15642TIP3   OH246805   6.477   6.284   5.621
15642TIP3    H146806   6.518   6.198   5.641
15642TIP3    H246807   6.447   6.270   5.530
15643TIP3   OH246808   5.811   5.941   5.586
15643TIP3    H146809   5.790   6.013   5.523
15643TIP3    H246810   5.764   5.867   5.542
15644TIP3   OH246811   6.505   6.031   5.210
15644TIP3    H146812   6.579   6.014   5.273
15644TIP3    H246813   6.556   6.065   5.134
15645TIP3   OH246814   5.447   6.145   5.690
15645TIP3    H146815   5.530   6.122   5.737
15645TIP3    H246816   5.456   6.087   5.612
15646TIP3   OH246817   5.889   6.342   5.481
15646TIP3    H146818   5.982   6.315   5.496
15646TIP3    H246819   5.849   6.258   5.450
15647TIP3   OH246820   7.152   6.310   5.752
15647TIP3    H146821   7.068   6.356   5.731
15647TIP3    H246822   7.154   6.324   5.848
15648TIP3   OH246823   5.811   5.925   6.018
15648TIP3    H146824   5.749   5.961   5.952
15648TIP3    H246825   5.760   5.942   6.100
15649TIP3   OH246826   6.163   6.777   5.028
15649TIP3    H146827   6.116   6.748   4.949
15649TIP3    H246828   6.118   6.862   5.047
15650TIP3   OH246829   5.918   6.699   5.818
15650TIP3    H146830   5.852   6.761   5.857
15650TIP3    H246831   5.957   6.753   5.747
15651TIP3   OH246832   6.720   6.032   5.376
15651TIP3    H146833   6.717   5.977   5.455
15651TIP3    H246834   6.777   6.106   5.403
15652TIP3   OH246835   5.680   6.040   5.804
15652TIP3    H146836   5.744   6.111   5.826
15652TIP3    H246837   5.728   5.998   5.729
15653TIP3   OH246838   5.743   6.890   5.912
15653TIP3    H146839   5.716   6.975   5.871
15653TIP3    H246840   5.664   6.875   5.969
15654TIP3   OH246841   5.144   6.581   5.147
15654TIP3    H146842   5.099   6.606   5.065
15654TIP3    H246843   5.170   6.667   5.185
15655TIP3   OH246844   6.582   7.098   5.391
15655TIP3    H146845   6.491   7.089   5.429
15655TIP3    H246846   6.572   7.182   5.343
15656TIP3   OH246847   6.868   6.007   5.752
15656TIP3    H146848   6.779   6.031   5.721
15656TIP3    H246849   6.925   6.032   5.677
15657TIP3   OH246850   6.171   5.647   5.731
15657TIP3    H146851   6.158   5.552   5.747
15657TIP3    H246852   6.092   5.684   5.777
15658TIP3   OH246853   6.288   7.148   5.067
15658TIP3    H146854   6.335   7.065   5.043
15658TIP3    H246855   6.346   7.212   5.021
15659TIP3   OH246856   6.425   6.933   4.965
15659TIP3    H146857   6.386   6.854   4.924
15659TIP3    H246858   6.459   6.895   5.049
15660TIP3   OH246859   6.808   7.014   5.731
15660TIP3    H146860   6.796   6.935   5.673
15660TIP3    H246861   6.790   7.087   5.667
15661TIP3   OH246862   6.098   6.407   4.986
15661TIP3    H146863   6.016   6.456   4.962
15661TIP3    H246864   6.144   6.402   4.901
15662TIP3   OH246865   6.056   6.188   4.709
15662TIP3    H146866   6.125   6.238   4.755
15662TIP3    H246867   6.111   6.124   4.660
15663TIP3   OH246868   7.002   6.650   5.576
15663TIP3    H146869   6.918   6.701   5.581
15663TIP3    H246870   7.029   6.671   5.484
15664TIP3   OH246871   6.444   6.489   4.961
15664TIP3    H146872   6.389   6.513   5.039
15664TIP3    H246873   6.527   6.461   5.005
15665TIP3   OH246874   6.681   6.532   5.866
15665TIP3    H146875   6.675   6.615   5.916
15665TIP3    H246876   6.593   6.531   5.822
15666TIP3   OH246877   5.677   6.489   5.375
15666TIP3    H146878   5.634   6.431   5.309
15666TIP3    H246879   5.754   6.434   5.403
15667TIP3   OH246880   5.807   6.899   5.525
15667TIP3    H146881   5.784   6.850   5.445
15667TIP3    H246882   5.897   6.866   5.543
15668TIP3   OH246883   5.817   6.457   5.732
15668TIP3    H146884   5.846   6.438   5.640
15668TIP3    H246885   5.857   6.544   5.751
15669TIP3   OH246886   6.338   7.096   5.507
15669TIP3    H146887   6.324   7.174   5.563
15669TIP3    H246888   6.325   7.021   5.569
15670TIP3   OH246889   5.949   7.016   6.054
15670TIP3    H146890   5.889   7.078   6.101
15670TIP3    H246891   5.884   6.961   6.006
15671TIP3   OH246892   6.286   6.347   4.785
15671TIP3    H146893   6.345   6.405   4.839
15671TIP3    H246894   6.313   6.372   4.693
15672TIP3   OH246895   5.704   6.575   6.152
15672TIP3    H146896   5.706   6.659   6.201
15672TIP3    H246897   5.608   6.554   6.158
15673TIP3   OH246898   6.026   7.029   5.061
15673TIP3    H146899   6.101   7.085   5.087
15673TIP3    H246900   5.963   7.092   5.023
15674TIP3   OH246901   5.745   7.187   6.141
15674TIP3    H146902   5.710   7.182   6.050
15674TIP3    H246903   5.666   7.163   6.194
15675TIP3   OH246904   6.805   5.592   4.843
15675TIP3    H146905   6.717   5.609   4.882
15675TIP3    H246906   6.804   5.656   4.769
15676TIP3   OH246907   5.542   6.330   5.183
15676TIP3    H146908   5.478   6.374   5.123
15676TIP3    H246909   5.500   6.244   5.196
15677TIP3   OH246910   6.598   6.957   4.381
15677TIP3    H146911   6.608   7.053   4.367
15677TIP3    H246912   6.691   6.926   4.369
15678TIP3   OH246913   5.325   6.713   6.088
15678TIP3    H146914   5.261   6.690   6.018
15678TIP3    H246915   5.361   6.626   6.114
15679TIP3   OH246916   5.177   6.905   5.723
15679TIP3    H146917   5.273   6.899   5.712
15679TIP3    H246918   5.169   6.987   5.775
15680TIP3   OH246919   7.043   7.355   5.775
15680TIP3    H146920   7.042   7.258   5.785
15680TIP3    H246921   6.959   7.379   5.820
15681TIP3   OH246922   6.150   7.144   5.911
15681TIP3    H146923   6.150   7.237   5.943
15681TIP3    H246924   6.077   7.105   5.965
15682TIP3   OH246925   5.908   7.274   4.861
15682TIP3    H146926   5.861   7.252   4.778
15682TIP3    H246927   5.873   7.363   4.883
15683TIP3   OH246928   5.347   7.124   5.244
15683TIP3    H146929   5.394   7.113   5.330
15683TIP3    H246930   5.284   7.049   5.249
15684TIP3   OH246931   6.112   7.175   4.504
15684TIP3    H146932   6.171   7.105   4.467
15684TIP3    H246933   6.144   7.181   4.596
15685TIP3   OH246934   6.160   7.222   4.775
15685TIP3    H146935   6.071   7.231   4.817
15685TIP3    H246936   6.208   7.175   4.845
15686TIP3   OH246937   6.934   6.491   6.048
15686TIP3    H146938   6.853   6.504   5.996
15686TIP3    H246939   6.948   6.395   6.038
15687TIP3   OH246940   5.529   6.897   6.081
15687TIP3    H146941   5.580   6.878   6.162
15687TIP3    H246942   5.456   6.832   6.086
15688TIP3   OH246943   5.929   5.720   5.857
15688TIP3    H146944   5.840   5.689   5.834
15688TIP3    H246945   5.905   5.804   5.902
15689TIP3   OH246946   6.461   5.838   6.051
15689TIP3    H146947   6.534   5.811   6.112
15689TIP3    H246948   6.380   5.815   6.102
15690TIP3   OH246949   6.709   6.267   5.976
15690TIP3    H146950   6.656   6.260   6.059
15690TIP3    H246951   6.677   6.351   5.938
15691TIP3   OH246952   6.362   6.399   4.530
15691TIP3    H146953   6.328   6.369   4.444
15691TIP3    H246954   6.441   6.449   4.503
15692TIP3   OH246955   6.069   5.777   4.828
15692TIP3    H146956   6.045   5.778   4.923
15692TIP3    H246957   6.051   5.685   4.805
15693TIP3   OH246958   5.861   6.235   5.880
15693TIP3    H146959   5.809   6.256   5.960
15693TIP3    H246960   5.845   6.314   5.825
15694TIP3   OH246961   5.744   6.121   5.393
15694TIP3    H146962   5.651   6.095   5.409
15694TIP3    H246963   5.758   6.081   5.305
15695TIP3   OH246964   6.236   6.208   5.120
15695TIP3    H146965   6.181   6.279   5.079
15695TIP3    H246966   6.289   6.178   5.044
15696TIP3   OH246967   6.409   6.491   6.212
15696TIP3    H146968   6.386   6.416   6.270
15696TIP3    H246969   6.505   6.500   6.229
15697TIP3   OH246970   6.394   6.239   5.360
15697TIP3    H146971   6.335   6.267   5.288
15697TIP3    H246972   6.426   6.155   5.320
15698TIP3   OH246973   5.680   6.265   6.088
15698TIP3    H146974   5.704   6.327   6.158
15698TIP3    H246975   5.667   6.182   6.138
15699TIP3   OH246976   5.728   5.736   4.796
15699TIP3    H146977   5.724   5.737   4.894
15699TIP3    H246978   5.650   5.791   4.775
15700TIP3   OH246979   5.271   5.793   5.669
15700TIP3    H146980   5.352   5.816   5.718
15700TIP3    H246981   5.302   5.753   5.586
15701TIP3   OH246982   5.257   5.770   5.188
15701TIP3    H146983   5.299   5.811   5.110
15701TIP3    H246984   5.191   5.839   5.210
15702TIP3   OH246985   6.407   6.485   5.786
15702TIP3    H146986   6.437   6.411   5.727
15702TIP3    H246987   6.376   6.434   5.863
15703TIP3   OH246988   6.068   5.947   5.456
15703TIP3    H146989   5.985   5.942   5.506
15703TIP3    H246990   6.134   5.945   5.527
15704TIP3   OH246991   5.506   5.997   5.464
15704TIP3    H146992   5.411   6.005   5.438
15704TIP3    H246993   5.527   5.905   5.441
15705TIP3   OH246994   5.779   5.998   5.151
15705TIP3    H146995   5.873   6.012   5.130
15705TIP3    H246996   5.733   6.020   5.067
15706TIP3   OH246997   6.563   6.020   5.657
15706TIP3    H146998   6.526   6.030   5.747
15706TIP3    H246999   6.501   5.957   5.618
15707TIP3   OH247000   5.614   6.028   4.932
15707TIP3    H147001   5.539   5.986   4.886
15707TIP3    H247002   5.664   6.063   4.855
15708TIP3   OH247003   6.730   7.707   5.872
15708TIP3    H147004   6.726   7.728   5.777
15708TIP3    H247005   6.803   7.764   5.902
15709TIP3   OH247006   5.691   6.819   6.298
15709TIP3    H147007   5.770   6.849   6.347
15709TIP3    H247008   5.626   6.817   6.371
15710TIP3   OH247009   6.156   6.272   5.553
15710TIP3    H147010   6.226   6.229   5.500
15710TIP3    H247011   6.168   6.229   5.640
15711TIP3   OH247012   5.684   5.760   5.427
15711TIP3    H147013   5.648   5.681   5.471
15711TIP3    H247014   5.736   5.723   5.355
15712TIP3   OH247015   6.133   6.165   5.842
15712TIP3    H147016   6.043   6.201   5.855
15712TIP3    H247017   6.189   6.224   5.894
15713TIP3   OH247018   5.868   6.561   4.937
15713TIP3    H147019   5.797   6.494   4.926
15713TIP3    H247020   5.851   6.593   5.029
15714TIP3   OH247021   6.771   6.796   5.569
15714TIP3    H147022   6.794   6.844   5.486
15714TIP3    H247023   6.685   6.753   5.546
15715TIP3   OH247024   6.325   5.880   4.782
15715TIP3    H147025   6.230   5.858   4.791
15715TIP3    H247026   6.333   5.970   4.817
15716TIP3   OH247027   6.275   6.881   5.933
15716TIP3    H147028   6.283   6.849   6.024
15716TIP3    H247029   6.228   6.965   5.943
15717TIP3   OH247030   6.396   6.118   4.903
15717TIP3    H147031   6.493   6.120   4.916
15717TIP3    H247032   6.381   6.197   4.846
15718TIP3   OH247033   5.563   6.583   5.615
15718TIP3    H147034   5.597   6.552   5.529
15718TIP3    H247035   5.594   6.513   5.675
15719TIP3   OH247036   6.013   6.710   4.756
15719TIP3    H147037   5.967   6.796   4.765
15719TIP3    H247038   5.959   6.654   4.816
15720TIP3   OH247039   5.438   6.503   6.227
15720TIP3    H147040   5.460   6.487   6.321
15720TIP3    H247041   5.371   6.435   6.210
15721TIP3   OH247042   6.164   6.614   6.245
15721TIP3    H147043   6.105   6.555   6.195
15721TIP3    H247044   6.252   6.581   6.218
15722TIP3   OH247045   6.431   7.142   5.826
15722TIP3    H147046   6.335   7.132   5.838
15722TIP3    H247047   6.456   7.190   5.907
15723TIP3   OH247048   6.843   6.204   4.736
15723TIP3    H147049   6.780   6.155   4.678
15723TIP3    H247050   6.836   6.292   4.693
15724TIP3   OH247051   7.058   7.065   5.819
15724TIP3    H147052   6.960   7.060   5.812
15724TIP3    H247053   7.083   7.034   5.729
15725TIP3   OH247054   6.536   7.027   4.645
15725TIP3    H147055   6.515   6.955   4.706
15725TIP3    H247056   6.550   6.980   4.561
15726TIP3   OH247057   6.535   6.656   5.491
15726TIP3    H147058   6.442   6.630   5.502
15726TIP3    H247059   6.570   6.578   5.443
15727TIP3   OH247060   5.659   6.883   5.238
15727TIP3    H147061   5.661   6.965   5.184
15727TIP3    H247062   5.564   6.867   5.244
15728TIP3   OH247063   5.223   6.189   4.938
15728TIP3    H147064   5.269   6.272   4.959
15728TIP3    H247065   5.146   6.194   4.999
15729TIP3   OH247066   5.806   6.653   5.185
15729TIP3    H147067   5.768   6.741   5.203
15729TIP3    H247068   5.768   6.601   5.258
15730TIP3   OH247069   5.928   7.229   5.710
15730TIP3    H147070   5.969   7.300   5.657
15730TIP3    H247071   6.006   7.195   5.757
15731TIP3   OH247072   5.582   7.122   5.092
15731TIP3    H147073   5.495   7.129   5.136
15731TIP3    H247074   5.612   7.216   5.093
15732TIP3   OH247075   6.324   6.864   5.665
15732TIP3    H147076   6.315   6.860   5.763
15732TIP3    H247077   6.400   6.806   5.650
15733TIP3   OH247078   6.290   6.754   4.548
15733TIP3    H147079   6.342   6.730   4.627
15733TIP3    H247080   6.201   6.727   4.577
15734TIP3   OH247081   6.569   7.400   5.719
15734TIP3    H147082   6.492   7.340   5.711
15734TIP3    H247083   6.552   7.463   5.645
15735TIP3   OH247084   6.634   7.231   4.368
15735TIP3    H147085   6.674   7.303   4.317
15735TIP3    H247086   6.553   7.278   4.399
15736TIP3   OH247087   5.654   6.009   6.237
15736TIP3    H147088   5.558   6.012   6.250
15736TIP3    H247089   5.681   5.944   6.305
15737TIP3   OH247090   6.451   6.691   4.767
15737TIP3    H147091   6.440   6.624   4.836
15737TIP3    H247092   6.548   6.687   4.753
15738TIP3   OH247093   5.369   7.094   5.868
15738TIP3    H147094   5.417   7.014   5.894
15738TIP3    H247095   5.401   7.157   5.935
15739TIP3   OH247096   5.661   6.737   4.546
15739TIP3    H147097   5.675   6.645   4.515
15739TIP3    H247098   5.642   6.722   4.641
15740TIP3   OH247099   5.607   6.741   4.820
15740TIP3    H147100   5.675   6.712   4.882
15740TIP3    H247101   5.613   6.838   4.826
15741TIP3   OH247102   5.345   6.437   5.022
15741TIP3    H147103   5.278   6.480   5.079
15741TIP3    H247104   5.358   6.507   4.955
15742TIP3   OH247105   6.486   6.074   5.917
15742TIP3    H147106   6.569   6.105   5.956
15742TIP3    H247107   6.469   5.991   5.968
15743TIP3   OH247108   6.355   5.831   5.073
15743TIP3    H147109   6.355   5.849   4.977
15743TIP3    H247110   6.402   5.909   5.108
15744TIP3   OH247111   5.871   6.940   4.771
15744TIP3    H147112   5.784   6.968   4.805
15744TIP3    H247113   5.885   7.005   4.701
15745TIP3   OH247114   6.061   6.000   5.180
15745TIP3    H147115   6.127   6.070   5.162
15745TIP3    H247116   6.065   5.994   5.278
15746TIP3   OH247117   6.329   6.324   5.990
15746TIP3    H147118   6.344   6.375   6.072
15746TIP3    H247119   6.383   6.244   6.005
15747TIP3   OH247120   6.207   5.735   5.287
15747TIP3    H147121   6.201   5.812   5.346
15747TIP3    H247122   6.263   5.772   5.214
15748TIP3   OH247123   5.613   7.014   4.834
15748TIP3    H147124   5.581   7.083   4.771
15748TIP3    H247125   5.595   7.058   4.920
15749TIP3   OH247126   5.717   5.726   5.072
15749TIP3    H147127   5.711   5.816   5.110
15749TIP3    H247128   5.813   5.709   5.084
15750TIP3   OH247129   6.975   6.221   5.965
15750TIP3    H147130   6.877   6.221   5.979
15750TIP3    H247131   6.977   6.176   5.880
15751TIP3   OH247132   6.620   6.417   5.359
15751TIP3    H147133   6.544   6.357   5.369
15751TIP3    H247134   6.692   6.369   5.405
15752TIP3   OH247135   5.331   6.649   4.830
15752TIP3    H147136   5.392   6.723   4.838
15752TIP3    H247137   5.378   6.596   4.762
15753TIP3   OH247138   5.279   5.921   4.959
15753TIP3    H147139   5.273   6.018   4.954
15753TIP3    H247140   5.193   5.893   4.927
15754TIP3   OH247141   6.587   7.371   5.310
15754TIP3    H147142   6.545   7.417   5.235
15754TIP3    H247143   6.681   7.389   5.289
15755TIP3   OH247144   5.664   5.641   5.838
15755TIP3    H147145   5.632   5.608   5.751
15755TIP3    H247146   5.654   5.562   5.895
15756TIP3   OH247147   5.209   6.864   5.223
15756TIP3    H147148   5.127   6.892   5.266
15756TIP3    H247149   5.192   6.896   5.132
15757TIP3   OH247150   5.356   7.394   6.289
15757TIP3    H147151   5.443   7.392   6.334
15757TIP3    H247152   5.335   7.299   6.285
15758TIP3   OH247153   5.847   7.369   6.331
15758TIP3    H147154   5.940   7.343   6.338
15758TIP3    H247155   5.818   7.312   6.257
15759TIP3   OH247156   5.826   6.941   4.465
15759TIP3    H147157   5.767   6.870   4.500
15759TIP3    H247158   5.898   6.887   4.430
15760TIP3   OH247159   6.480   7.271   6.066
15760TIP3    H147160   6.470   7.200   6.133
15760TIP3    H247161   6.559   7.319   6.098
15761TIP3   OH247162   6.261   6.985   4.371
15761TIP3    H147163   6.306   6.920   4.428
15761TIP3    H247164   6.317   6.984   4.290
15762TIP3   OH247165   5.490   6.805   6.488
15762TIP3    H147166   5.508   6.709   6.492
15762TIP3    H247167   5.402   6.806   6.445
15763TIP3   OH247168   5.466   6.461   4.678
15763TIP3    H147169   5.518   6.423   4.751
15763TIP3    H247170   5.535   6.464   4.608
15764TIP3   OH247171   6.100   6.889   6.260
15764TIP3    H147172   6.055   6.900   6.174
15764TIP3    H247173   6.130   6.795   6.257
15765TIP3   OH247174   5.972   6.655   4.486
15765TIP3    H147175   5.975   6.668   4.583
15765TIP3    H247176   5.971   6.557   4.481
15766TIP3   OH247177   6.593   6.894   5.868
15766TIP3    H147178   6.663   6.943   5.822
15766TIP3    H247179   6.517   6.953   5.856
15767TIP3   OH247180   5.609   6.538   6.468
15767TIP3    H147181   5.680   6.475   6.452
15767TIP3    H247182   5.632   6.570   6.557
15768TIP3   OH247183   5.680   6.359   4.907
15768TIP3    H147184   5.650   6.316   4.988
15768TIP3    H247185   5.712   6.282   4.854
15769TIP3   OH247186   5.944   6.426   6.134
15769TIP3    H147187   5.866   6.484   6.137
15769TIP3    H247188   5.989   6.457   6.052
15770TIP3   OH247189   5.773   6.150   4.745
15770TIP3    H147190   5.747   6.152   4.650
15770TIP3    H247191   5.871   6.159   4.737
15771TIP3   OH247192   6.463   6.829   6.269
15771TIP3    H147193   6.540   6.805   6.217
15771TIP3    H247194   6.459   6.756   6.334
15772TIP3   OH247195   6.601   6.487   4.403
15772TIP3    H147196   6.578   6.438   4.321
15772TIP3    H247197   6.568   6.576   4.377
15773TIP3   OH247198   6.067   6.211   6.261
15773TIP3    H147199   6.067   6.129   6.207
15773TIP3    H247200   6.023   6.275   6.201
15774TIP3   OH247201   6.069   5.998   6.065
15774TIP3    H147202   6.096   6.037   5.980
15774TIP3    H247203   5.976   5.974   6.047
15775TIP3   OH247204   6.103   6.538   5.938
15775TIP3    H147205   6.181   6.539   5.881
15775TIP3    H247206   6.045   6.604   5.895
15776TIP3   OH247207   6.683   6.504   6.324
15776TIP3    H147208   6.727   6.417   6.329
15776TIP3    H247209   6.753   6.558   6.286
15777TIP3   OH247210   6.723   6.755   6.059
15777TIP3    H147211   6.664   6.806   5.998
15777TIP3    H247212   6.809   6.773   6.016
15778TIP3   OH247213   5.941   6.331   6.485
15778TIP3    H147214   5.874   6.261   6.499
15778TIP3    H247215   5.979   6.303   6.399
15779TIP3   OH247216   6.203   5.760   6.126
15779TIP3    H147217   6.156   5.844   6.109
15779TIP3    H247218   6.131   5.695   6.118
15780TIP3   OH247219   6.327   6.272   6.347
15780TIP3    H147220   6.318   6.257   6.443
15780TIP3    H247221   6.237   6.244   6.320
15781TIP3   OH247222   6.570   6.221   6.204
15781TIP3    H147223   6.492   6.216   6.263
15781TIP3    H247224   6.640   6.183   6.259
15782TIP3   OH247225   6.805   6.159   6.354
15782TIP3    H147226   6.811   6.062   6.372
15782TIP3    H247227   6.795   6.196   6.444
15783TIP3   OH247228   5.785   6.109   6.538
15783TIP3    H147229   5.792   6.019   6.500
15783TIP3    H247230   5.820   6.094   6.628
15784TIP3   OH247231   6.294   5.779   6.391
15784TIP3    H147232   6.364   5.713   6.416
15784TIP3    H247233   6.272   5.752   6.300
15785TIP3   OH247234   6.365   5.991   6.547
15785TIP3    H147235   6.345   5.917   6.485
15785TIP3    H247236   6.285   6.047   6.538
15786TIP3   OH247237   5.582   7.218   4.648
15786TIP3    H147238   5.677   7.217   4.626
15786TIP3    H247239   5.547   7.262   4.568
15787TIP3   OH247240   5.063   6.597   4.866
15787TIP3    H147241   5.157   6.619   4.852
15787TIP3    H247242   5.057   6.509   4.824
15788TIP3   OH247243   4.975   7.211   5.276
15788TIP3    H147244   4.907   7.148   5.241
15788TIP3    H247245   5.019   7.155   5.343
15789TIP3   OH247246   5.112   7.069   5.464
15789TIP3    H147247   5.102   6.989   5.519
15789TIP3    H247248   5.162   7.126   5.524
15790TIP3   OH247249   6.836   7.469   5.262
15790TIP3    H147250   6.870   7.500   5.348
15790TIP3    H247251   6.902   7.503   5.199
15791TIP3   OH247252   6.870   7.485   5.546
15791TIP3    H147253   6.826   7.397   5.538
15791TIP3    H247254   6.947   7.459   5.599
15792TIP3   OH247255   6.917   7.160   6.118
15792TIP3    H147256   6.842   7.166   6.180
15792TIP3    H247257   6.955   7.250   6.124
15793TIP3   OH247258   6.731   6.675   4.740
15793TIP3    H147259   6.802   6.736   4.713
15793TIP3    H247260   6.772   6.633   4.819
15794TIP3   OH247261   6.859   6.542   4.942
15794TIP3    H147262   6.793   6.497   5.000
15794TIP3    H247263   6.921   6.581   5.007
15795TIP3   OH247264   6.912   6.930   5.376
15795TIP3    H147265   6.964   6.868   5.323
15795TIP3    H247266   6.901   7.005   5.315
15796TIP3   OH247267   6.747   7.233   5.571
15796TIP3    H147268   6.674   7.273   5.623
15796TIP3    H247269   6.698   7.183   5.502
15797TIP3   OH247270   6.798   6.448   4.590
15797TIP3    H147271   6.727   6.452   4.522
15797TIP3    H247272   6.770   6.524   4.646
15798TIP3   OH247273   6.672   6.110   4.543
15798TIP3    H147274   6.629   6.160   4.473
15798TIP3    H247275   6.636   6.021   4.529
15799TIP3   OH247276   6.676   6.395   5.090
15799TIP3    H147277   6.682   6.298   5.083
15799TIP3    H247278   6.663   6.407   5.187
15800TIP3   OH247279   5.302   6.471   5.835
15800TIP3    H147280   5.300   6.442   5.741
15800TIP3    H247281   5.399   6.471   5.852
15801TIP3   OH247282   6.964   6.821   5.947
15801TIP3    H147283   7.036   6.755   5.938
15801TIP3    H247284   6.990   6.889   5.883
15802TIP3   OH247285   7.151   6.630   5.971
15802TIP3    H147286   7.075   6.579   6.007
15802TIP3    H247287   7.222   6.564   5.982
15803TIP3   OH247288   6.669   6.113   4.987
15803TIP3    H147289   6.707   6.023   5.005
15803TIP3    H247290   6.730   6.141   4.917
15804TIP3   OH247291   6.834   6.290   5.480
15804TIP3    H147292   6.921   6.317   5.441
15804TIP3    H247293   6.847   6.325   5.571
15805TIP3   OH247294   6.901   6.430   5.715
15805TIP3    H147295   6.821   6.463   5.761
15805TIP3    H247296   6.932   6.510   5.669
15806TIP3   OH247297   5.518   6.160   6.514
15806TIP3    H147298   5.616   6.150   6.512
15806TIP3    H247299   5.493   6.075   6.554
15807TIP3   OH247300   7.362   6.025   6.270
15807TIP3    H147301   7.409   5.953   6.223
15807TIP3    H247302   7.327   6.078   6.195
15808TIP3   OH247303   6.776   5.866   5.029
15808TIP3    H147304   6.825   5.844   5.110
15808TIP3    H247305   6.721   5.785   5.017
15809TIP3   OH247306   5.480   5.849   5.844
15809TIP3    H147307   5.542   5.773   5.852
15809TIP3    H247308   5.543   5.923   5.838
15810TIP3   OH247309   5.285   6.125   5.918
15810TIP3    H147310   5.331   6.111   5.832
15810TIP3    H247311   5.317   6.212   5.942
15811TIP3   OH247312   7.226   6.162   6.078
15811TIP3    H147313   7.139   6.200   6.099
15811TIP3    H247314   7.198   6.091   6.016
15812TIP3   OH247315   6.887   5.797   4.666
15812TIP3    H147316   6.864   5.736   4.593
15812TIP3    H247317   6.939   5.866   4.625
15813TIP3   OH247318   5.264   5.639   5.425
15813TIP3    H147319   5.169   5.622   5.441
15813TIP3    H247320   5.263   5.687   5.340
15814TIP3   OH247321   6.423   7.330   4.921
15814TIP3    H147322   6.473   7.309   4.839
15814TIP3    H247323   6.483   7.392   4.965
15815TIP3   OH247324   5.486   5.708   6.232
15815TIP3    H147325   5.434   5.701   6.314
15815TIP3    H247326   5.418   5.745   6.171
15816TIP3   OH247327   5.525   7.134   6.311
15816TIP3    H147328   5.436   7.101   6.290
15816TIP3    H247329   5.532   7.111   6.404
15817TIP3   OH247330   5.701   7.162   5.857
15817TIP3    H147331   5.652   7.236   5.817
15817TIP3    H247332   5.787   7.177   5.812
15818TIP3   OH247333   6.152   7.410   5.995
15818TIP3    H147334   6.194   7.413   6.083
15818TIP3    H247335   6.217   7.460   5.941
15819TIP3   OH247336   6.329   7.559   5.850
15819TIP3    H147337   6.400   7.508   5.808
15819TIP3    H247338   6.381   7.616   5.910
15820TIP3   OH247339   7.122   5.925   5.951
15820TIP3    H147340   7.029   5.922   5.921
15820TIP3    H247341   7.148   5.831   5.940
15821TIP3   OH247342   5.382   7.424   5.877
15821TIP3    H147343   5.294   7.459   5.852
15821TIP3    H247344   5.384   7.449   5.970
15822TIP3   OH247345   5.618   7.401   5.735
15822TIP3    H147346   5.532   7.414   5.781
15822TIP3    H247347   5.597   7.434   5.645
15823TIP3   OH247348   6.044   7.432   5.532
15823TIP3    H147349   5.974   7.452   5.467
15823TIP3    H247350   6.056   7.520   5.575
15824TIP3   OH247351   6.311   7.373   5.585
15824TIP3    H147352   6.216   7.386   5.564
15824TIP3    H247353   6.351   7.450   5.542
15825TIP3   OH247354   6.524   7.565   5.503
15825TIP3    H147355   6.507   7.648   5.453
15825TIP3    H247356   6.546   7.502   5.430
15826TIP3   OH247357   5.292   7.218   5.625
15826TIP3    H147358   5.319   7.192   5.716
15826TIP3    H247359   5.363   7.172   5.574
15827TIP3   OH247360   5.483   7.087   5.479
15827TIP3    H147361   5.500   7.003   5.526
15827TIP3    H247362   5.573   7.125   5.472
15828TIP3   OH247363   5.751   7.185   5.478
15828TIP3    H147364   5.781   7.093   5.465
15828TIP3    H247365   5.790   7.203   5.566
15829TIP3   OH247366   6.327   5.840   5.569
15829TIP3    H147367   6.283   5.772   5.623
15829TIP3    H247368   6.396   5.789   5.523
15830TIP3   OH247369   6.855   5.725   5.483
15830TIP3    H147370   6.891   5.772   5.405
15830TIP3    H247371   6.758   5.734   5.470
15831TIP3   OH247372   6.949   5.822   5.244
15831TIP3    H147373   7.019   5.771   5.199
15831TIP3    H247374   6.979   5.914   5.225
15832TIP3   OH247375   5.577   5.549   5.589
15832TIP3    H147376   5.484   5.517   5.588
15832TIP3    H247377   5.625   5.464   5.584
15833TIP3   OH247378   5.374   5.415   5.233
15833TIP3    H147379   5.388   5.478   5.161
15833TIP3    H247380   5.328   5.469   5.299
15834TIP3   OH247381   6.017   5.582   5.466
15834TIP3    H147382   6.079   5.632   5.410
15834TIP3    H247383   6.034   5.618   5.553
15835TIP3   OH247384   6.573   5.725   5.451
15835TIP3    H147385   6.564   5.693   5.360
15835TIP3    H247386   6.554   5.644   5.503
15836TIP3   OH247387   6.597   5.649   5.020
15836TIP3    H147388   6.507   5.679   5.005
15836TIP3    H247389   6.582   5.567   5.072
15837TIP3   OH247390   5.080   6.985   5.018
15837TIP3    H147391   4.996   6.950   4.982
15837TIP3    H247392   5.066   7.079   5.003
15838TIP3   OH247393   5.475   5.584   4.997
15838TIP3    H147394   5.528   5.520   4.948
15838TIP3    H247395   5.544   5.638   5.040
15839TIP3   OH247396   5.994   5.749   5.098
15839TIP3    H147397   6.054   5.704   5.159
15839TIP3    H247398   6.015   5.842   5.122
15840TIP3   OH247399   5.851   7.183   4.594
15840TIP3    H147400   5.941   7.200   4.560
15840TIP3    H247401   5.828   7.105   4.538
15841TIP3   OH247402   6.568   7.292   4.689
15841TIP3    H147403   6.561   7.194   4.677
15841TIP3    H247404   6.526   7.324   4.607
15842TIP3   OH247405   5.784   5.830   6.479
15842TIP3    H147406   5.751   5.759   6.536
15842TIP3    H247407   5.879   5.830   6.504
15843TIP3   OH247408   6.033   5.827   6.598
15843TIP3    H147409   6.117   5.801   6.556
15843TIP3    H247410   6.023   5.755   6.664
15844TIP3   OH247411   5.156   7.018   4.656
15844TIP3    H147412   5.152   7.045   4.748
15844TIP3    H247413   5.245   6.976   4.649
15845TIP3   OH247414   6.855   5.890   6.389
15845TIP3    H147415   6.872   5.854   6.479
15845TIP3    H247416   6.940   5.875   6.344
15846TIP3   OH247417   6.798   7.440   5.880
15846TIP3    H147418   6.721   7.404   5.832
15846TIP3    H247419   6.776   7.535   5.878
15847TIP3   OH247420   8.062   6.809   4.641
15847TIP3    H147421   8.030   6.900   4.649
15847TIP3    H247422   7.983   6.763   4.606
15848TIP3   OH247423   8.064   6.805   5.018
15848TIP3    H147424   8.089   6.782   5.109
15848TIP3    H247425   8.016   6.726   4.991
15849TIP3   OH247426   7.363   6.709   5.389
15849TIP3    H147427   7.396   6.642   5.451
15849TIP3    H247428   7.440   6.768   5.382
15850TIP3   OH247429   8.299   7.110   4.716
15850TIP3    H147430   8.298   7.045   4.786
15850TIP3    H247431   8.334   7.189   4.762
15851TIP3   OH247432   7.331   7.115   5.125
15851TIP3    H147433   7.325   7.017   5.124
15851TIP3    H247434   7.427   7.125   5.110
15852TIP3   OH247435   7.041   6.325   4.905
15852TIP3    H147436   6.986   6.406   4.913
15852TIP3    H247437   6.974   6.262   4.873
15853TIP3   OH247438   7.102   6.610   5.070
15853TIP3    H147439   7.148   6.531   5.108
15853TIP3    H247440   7.154   6.627   4.991
15854TIP3   OH247441   7.975   7.487   4.699
15854TIP3    H147442   8.064   7.526   4.699
15854TIP3    H247443   7.932   7.539   4.769
15855TIP3   OH247444   7.865   7.035   5.068
15855TIP3    H147445   7.900   6.956   5.025
15855TIP3    H247446   7.949   7.079   5.093
15856TIP3   OH247447   8.861   6.359   5.062
15856TIP3    H147448   8.891   6.432   5.121
15856TIP3    H247449   8.905   6.381   4.978
15857TIP3   OH247450   8.285   6.548   5.100
15857TIP3    H147451   8.313   6.459   5.129
15857TIP3    H247452   8.236   6.525   5.019
15858TIP3   OH247453   7.607   6.198   5.072
15858TIP3    H147454   7.585   6.269   5.009
15858TIP3    H247455   7.562   6.122   5.029
15859TIP3   OH247456   8.307   6.300   4.695
15859TIP3    H147457   8.366   6.251   4.754
15859TIP3    H247458   8.339   6.272   4.607
15860TIP3   OH247459   7.244   6.402   5.177
15860TIP3    H147460   7.326   6.378   5.224
15860TIP3    H247461   7.252   6.344   5.099
15861TIP3   OH247462   7.686   6.598   4.966
15861TIP3    H147463   7.778   6.569   4.984
15861TIP3    H247464   7.644   6.514   4.936
15862TIP3   OH247465   8.929   6.552   5.251
15862TIP3    H147466   8.859   6.612   5.220
15862TIP3    H247467   8.979   6.618   5.304
15863TIP3   OH247468   7.607   6.184   5.507
15863TIP3    H147469   7.546   6.217   5.438
15863TIP3    H247470   7.554   6.202   5.587
15864TIP3   OH247471   7.715   6.957   5.305
15864TIP3    H147472   7.647   7.016   5.345
15864TIP3    H247473   7.751   7.013   5.234
15865TIP3   OH247474   8.537   6.315   4.857
15865TIP3    H147475   8.508   6.238   4.906
15865TIP3    H247476   8.594   6.360   4.925
15866TIP3   OH247477   7.477   6.296   5.291
15866TIP3    H147478   7.540   6.368   5.313
15866TIP3    H247479   7.524   6.254   5.215
15867TIP3   OH247480   7.539   7.147   5.401
15867TIP3    H147481   7.514   7.229   5.355
15867TIP3    H247482   7.459   7.134   5.456
15868TIP3   OH247483   6.939   6.838   4.635
15868TIP3    H147484   6.896   6.864   4.552
15868TIP3    H247485   6.968   6.924   4.672
15869TIP3   OH247486   8.376   7.351   4.873
15869TIP3    H147487   8.286   7.346   4.912
15869TIP3    H247488   8.372   7.438   4.828
15870TIP3   OH247489   8.660   6.257   5.235
15870TIP3    H147490   8.576   6.294   5.208
15870TIP3    H247491   8.723   6.289   5.167
15871TIP3   OH247492   7.954   5.908   5.197
15871TIP3    H147493   7.967   5.818   5.231
15871TIP3    H247494   7.881   5.939   5.256
15872TIP3   OH247495   8.149   7.167   4.475
15872TIP3    H147496   8.182   7.117   4.399
15872TIP3    H247497   8.221   7.155   4.540
15873TIP3   OH247498   8.603   7.270   5.220
15873TIP3    H147499   8.592   7.193   5.160
15873TIP3    H247500   8.585   7.344   5.159
15874TIP3   OH247501   7.895   6.665   4.473
15874TIP3    H147502   7.811   6.713   4.453
15874TIP3    H247503   7.934   6.658   4.384
15875TIP3   OH247504   7.854   6.443   4.197
15875TIP3    H147505   7.925   6.497   4.238
15875TIP3    H247506   7.909   6.379   4.148
15876TIP3   OH247507   8.789   6.900   5.049
15876TIP3    H147508   8.713   6.960   5.061
15876TIP3    H247509   8.824   6.930   4.962
15877TIP3   OH247510   8.239   6.743   4.449
15877TIP3    H147511   8.172   6.772   4.516
15877TIP3    H247512   8.312   6.720   4.508
15878TIP3   OH247513   8.475   6.789   5.351
15878TIP3    H147514   8.473   6.869   5.407
15878TIP3    H247515   8.386   6.792   5.311
15879TIP3   OH247516   7.474   6.745   4.860
15879TIP3    H147517   7.429   6.688   4.794
15879TIP3    H247518   7.550   6.690   4.887
15880TIP3   OH247519   7.600   7.140   5.019
15880TIP3    H147520   7.579   7.103   4.932
15880TIP3    H247521   7.694   7.115   5.030
15881TIP3   OH247522   7.616   6.712   5.219
15881TIP3    H147523   7.642   6.697   5.126
15881TIP3    H247524   7.653   6.802   5.237
15882TIP3   OH247525   8.133   7.350   4.989
15882TIP3    H147526   8.117   7.432   5.038
15882TIP3    H247527   8.120   7.280   5.056
15883TIP3   OH247528   7.745   7.272   5.542
15883TIP3    H147529   7.685   7.335   5.587
15883TIP3    H247530   7.680   7.218   5.493
15884TIP3   OH247531   8.086   6.595   4.271
15884TIP3    H147532   8.142   6.657   4.322
15884TIP3    H247533   8.109   6.620   4.179
15885TIP3   OH247534   7.500   6.830   5.639
15885TIP3    H147535   7.503   6.915   5.687
15885TIP3    H247536   7.404   6.810   5.645
15886TIP3   OH247537   7.542   7.444   5.627
15886TIP3    H147538   7.509   7.441   5.535
15886TIP3    H247539   7.462   7.419   5.679
15887TIP3   OH247540   8.598   5.847   4.321
15887TIP3    H147541   8.516   5.865   4.370
15887TIP3    H247542   8.609   5.929   4.268
15888TIP3   OH247543   7.338   6.586   4.670
15888TIP3    H147544   7.275   6.631   4.611
15888TIP3    H247545   7.295   6.501   4.682
15889TIP3   OH247546   8.394   7.215   3.872
15889TIP3    H147547   8.403   7.311   3.852
15889TIP3    H247548   8.486   7.184   3.857
15890TIP3   OH247549   7.122   6.970   5.575
15890TIP3    H147550   7.057   6.948   5.505
15890TIP3    H247551   7.156   6.881   5.600
15891TIP3   OH247552   6.974   7.161   5.211
15891TIP3    H147553   7.070   7.155   5.196
15891TIP3    H247554   6.968   7.243   5.262
15892TIP3   OH247555   8.839   7.611   5.264
15892TIP3    H147556   8.837   7.514   5.275
15892TIP3    H247557   8.754   7.635   5.307
15893TIP3   OH247558   7.949   7.399   5.400
15893TIP3    H147559   7.948   7.492   5.430
15893TIP3    H247560   7.874   7.362   5.451
15894TIP3   OH247561   7.126   7.382   4.735
15894TIP3    H147562   7.196   7.374   4.802
15894TIP3    H247563   7.079   7.298   4.748
15895TIP3   OH247564   7.908   7.430   3.988
15895TIP3    H147565   7.967   7.361   3.951
15895TIP3    H247566   7.940   7.437   4.080
15896TIP3   OH247567   7.955   7.478   4.260
15896TIP3    H147568   7.875   7.486   4.313
15896TIP3    H247569   8.027   7.476   4.326
15897TIP3   OH247570   8.710   6.742   5.563
15897TIP3    H147571   8.675   6.776   5.480
15897TIP3    H247572   8.760   6.664   5.531
15898TIP3   OH247573   7.325   7.154   5.569
15898TIP3    H147574   7.376   7.132   5.650
15898TIP3    H247575   7.252   7.089   5.573
15899TIP3   OH247576   7.725   5.977   5.348
15899TIP3    H147577   7.637   5.944   5.321
15899TIP3    H247578   7.698   6.061   5.390
15900TIP3   OH247579   8.256   6.120   5.568
15900TIP3    H147580   8.326   6.054   5.584
15900TIP3    H247581   8.176   6.066   5.574
15901TIP3   OH247582   8.494   6.518   5.453
15901TIP3    H147583   8.453   6.521   5.541
15901TIP3    H247584   8.483   6.610   5.422
15902TIP3   OH247585   8.158   6.654   4.018
15902TIP3    H147586   8.123   6.626   3.932
15902TIP3    H247587   8.238   6.703   3.989
15903TIP3   OH247588   7.876   6.026   4.317
15903TIP3    H147589   7.841   6.024   4.409
15903TIP3    H247590   7.834   5.945   4.282
15904TIP3   OH247591   7.659   6.491   5.368
15904TIP3    H147592   7.604   6.512   5.447
15904TIP3    H247593   7.642   6.571   5.312
15905TIP3   OH247594   7.540   6.378   4.880
15905TIP3    H147595   7.447   6.352   4.897
15905TIP3    H247596   7.553   6.338   4.791
15906TIP3   OH247597   8.033   6.467   4.607
15906TIP3    H147598   7.976   6.536   4.566
15906TIP3    H247599   8.089   6.442   4.532
15907TIP3   OH247600   8.203   6.744   5.697
15907TIP3    H147601   8.183   6.670   5.759
15907TIP3    H247602   8.298   6.756   5.713
15908TIP3   OH247603   8.180   6.497   4.849
15908TIP3    H147604   8.120   6.525   4.777
15908TIP3    H247605   8.214   6.415   4.807
15909TIP3   OH247606   7.478   6.522   5.575
15909TIP3    H147607   7.496   6.586   5.645
15909TIP3    H247608   7.462   6.440   5.625
15910TIP3   OH247609   7.526   5.997   4.284
15910TIP3    H147610   7.518   5.994   4.382
15910TIP3    H247611   7.446   6.047   4.261
15911TIP3   OH247612   7.066   6.050   5.157
15911TIP3    H147613   7.149   6.072   5.204
15911TIP3    H247614   7.095   6.010   5.073
15912TIP3   OH247615   7.060   6.033   4.675
15912TIP3    H147616   7.098   6.075   4.595
15912TIP3    H247617   6.991   6.098   4.699
15913TIP3   OH247618   8.199   6.742   5.269
15913TIP3    H147619   8.234   6.668   5.213
15913TIP3    H247620   8.170   6.692   5.348
15914TIP3   OH247621   7.867   6.211   4.943
15914TIP3    H147622   7.782   6.198   4.990
15914TIP3    H247623   7.930   6.194   5.015
15915TIP3   OH247624   7.303   6.254   4.951
15915TIP3    H147625   7.208   6.262   4.924
15915TIP3    H247626   7.324   6.161   4.928
15916TIP3   OH247627   7.576   6.257   4.637
15916TIP3    H147628   7.669   6.269   4.611
15916TIP3    H247629   7.527   6.276   4.554
15917TIP3   OH247630   8.350   6.279   5.136
15917TIP3    H147631   8.323   6.287   5.230
15917TIP3    H247632   8.290   6.208   5.107
15918TIP3   OH247633   7.410   6.285   4.420
15918TIP3    H147634   7.335   6.242   4.375
15918TIP3    H247635   7.459   6.319   4.342
15919TIP3   OH247636   8.526   7.964   5.360
15919TIP3    H147637   8.520   7.985   5.265
15919TIP3    H247638   8.602   8.018   5.387
15920TIP3   OH247639   7.487   7.076   5.785
15920TIP3    H147640   7.566   7.105   5.833
15920TIP3    H247641   7.422   7.072   5.858
15921TIP3   OH247642   7.955   6.532   5.045
15921TIP3    H147643   8.014   6.477   4.991
15921TIP3    H247644   7.958   6.487   5.132
15922TIP3   OH247645   7.481   6.017   4.914
15922TIP3    H147646   7.444   5.938   4.960
15922TIP3    H247647   7.534   5.976   4.844
15923TIP3   OH247648   7.929   6.424   5.324
15923TIP3    H147649   7.839   6.458   5.341
15923TIP3    H247650   7.985   6.482   5.380
15924TIP3   OH247651   7.667   6.815   4.429
15924TIP3    H147652   7.594   6.751   4.413
15924TIP3    H247653   7.645   6.850   4.518
15925TIP3   OH247654   8.565   7.056   5.055
15925TIP3    H147655   8.591   7.104   4.972
15925TIP3    H247656   8.478   7.018   5.031
15926TIP3   OH247657   8.123   6.131   4.291
15926TIP3    H147658   8.027   6.109   4.290
15926TIP3    H247659   8.122   6.229   4.288
15927TIP3   OH247660   8.068   7.136   5.419
15927TIP3    H147661   8.079   7.108   5.511
15927TIP3    H247662   8.026   7.223   5.428
15928TIP3   OH247663   8.220   6.385   4.391
15928TIP3    H147664   8.300   6.369   4.339
15928TIP3    H247665   8.176   6.457   4.340
15929TIP3   OH247666   7.360   6.839   5.102
15929TIP3    H147667   7.393   6.809   5.015
15929TIP3    H247668   7.389   6.767   5.161
15930TIP3   OH247669   7.805   6.964   4.235
15930TIP3    H147670   7.765   7.053   4.248
15930TIP3    H247671   7.759   6.913   4.305
15931TIP3   OH247672   7.236   6.758   5.713
15931TIP3    H147673   7.255   6.743   5.808
15931TIP3    H247674   7.166   6.692   5.696
15932TIP3   OH247675   7.959   6.870   5.733
15932TIP3    H147676   7.900   6.813   5.681
15932TIP3    H247677   8.047   6.837   5.704
15933TIP3   OH247678   8.227   7.391   5.316
15933TIP3    H147679   8.130   7.390   5.327
15933TIP3    H247680   8.253   7.445   5.393
15934TIP3   OH247681   8.648   6.469   4.215
15934TIP3    H147682   8.578   6.419   4.167
15934TIP3    H247683   8.636   6.555   4.171
15935TIP3   OH247684   8.854   7.319   5.308
15935TIP3    H147685   8.756   7.313   5.301
15935TIP3    H247686   8.879   7.285   5.219
15936TIP3   OH247687   8.334   7.279   4.134
15936TIP3    H147688   8.313   7.196   4.179
15936TIP3    H247689   8.350   7.249   4.042
15937TIP3   OH247690   8.327   6.917   4.970
15937TIP3    H147691   8.235   6.890   4.988
15937TIP3    H247692   8.365   6.836   4.936
15938TIP3   OH247693   7.458   7.140   4.720
15938TIP3    H147694   7.489   7.226   4.682
15938TIP3    H247695   7.363   7.152   4.721
15939TIP3   OH247696   7.019   6.446   4.425
15939TIP3    H147697   7.066   6.529   4.445
15939TIP3    H247698   6.942   6.452   4.486
15940TIP3   OH247699   7.610   6.915   4.677
15940TIP3    H147700   7.562   7.000   4.688
15940TIP3    H247701   7.567   6.862   4.746
15941TIP3   OH247702   7.726   7.485   5.196
15941TIP3    H147703   7.760   7.559   5.142
15941TIP3    H247704   7.806   7.457   5.242
15942TIP3   OH247705   8.119   7.117   5.151
15942TIP3    H147706   8.109   7.119   5.249
15942TIP3    H247707   8.201   7.068   5.142
15943TIP3   OH247708   8.086   7.006   4.037
15943TIP3    H147709   8.134   6.987   4.120
15943TIP3    H247710   7.995   6.986   4.062
15944TIP3   OH247711   8.365   7.656   5.202
15944TIP3    H147712   8.286   7.601   5.191
15944TIP3    H247713   8.352   7.721   5.130
15945TIP3   OH247714   8.429   7.487   3.857
15945TIP3    H147715   8.466   7.554   3.797
15945TIP3    H247716   8.350   7.537   3.888
15946TIP3   OH247717   7.447   6.266   5.724
15946TIP3    H147718   7.350   6.274   5.734
15946TIP3    H247719   7.468   6.198   5.789
15947TIP3   OH247720   8.252   6.963   4.267
15947TIP3    H147721   8.240   6.885   4.324
15947TIP3    H247722   8.345   6.951   4.240
15948TIP3   OH247723   7.162   7.351   5.357
15948TIP3    H147724   7.213   7.272   5.378
15948TIP3    H247725   7.201   7.415   5.418
15949TIP3   OH247726   7.457   6.991   4.032
15949TIP3    H147727   7.471   6.900   4.003
15949TIP3    H247728   7.439   6.979   4.128
15950TIP3   OH247729   7.403   6.999   4.306
15950TIP3    H147730   7.469   6.975   4.372
15950TIP3    H247731   7.405   7.097   4.312
15951TIP3   OH247732   7.141   6.694   4.509
15951TIP3    H147733   7.075   6.737   4.567
15951TIP3    H247734   7.154   6.763   4.442
15952TIP3   OH247735   8.282   6.331   5.399
15952TIP3    H147736   8.367   6.365   5.433
15952TIP3    H247737   8.265   6.255   5.459
15953TIP3   OH247738   8.163   6.083   4.563
15953TIP3    H147739   8.145   6.097   4.468
15953TIP3    H247740   8.181   6.173   4.593
15954TIP3   OH247741   7.674   7.204   4.264
15954TIP3    H147742   7.590   7.231   4.304
15954TIP3    H247743   7.682   7.270   4.193
15955TIP3   OH247744   7.863   6.256   4.669
15955TIP3    H147745   7.924   6.331   4.654
15955TIP3    H247746   7.860   6.252   4.767
15956TIP3   OH247747   8.125   6.580   5.475
15956TIP3    H147748   8.142   6.632   5.557
15956TIP3    H247749   8.180   6.501   5.487
15957TIP3   OH247750   8.004   5.990   4.777
15957TIP3    H147751   7.997   6.068   4.836
15957TIP3    H247752   8.058   6.027   4.704
15958TIP3   OH247753   7.404   7.272   4.325
15958TIP3    H147754   7.377   7.337   4.255
15958TIP3    H247755   7.418   7.331   4.401
15959TIP3   OH247756   7.511   5.982   4.560
15959TIP3    H147757   7.508   6.072   4.598
15959TIP3    H247758   7.606   5.962   4.571
15960TIP3   OH247759   8.766   6.477   5.473
15960TIP3    H147760   8.669   6.473   5.460
15960TIP3    H247761   8.798   6.464   5.382
15961TIP3   OH247762   8.433   6.616   4.803
15961TIP3    H147763   8.342   6.611   4.839
15961TIP3    H247764   8.485   6.629   4.885
15962TIP3   OH247765   7.126   6.905   4.317
15962TIP3    H147766   7.185   6.982   4.325
15962TIP3    H247767   7.175   6.855   4.249
15963TIP3   OH247768   7.076   6.179   4.444
15963TIP3    H147769   7.070   6.276   4.440
15963TIP3    H247770   6.989   6.152   4.414
15964TIP3   OH247771   8.384   7.619   4.794
15964TIP3    H147772   8.344   7.671   4.720
15964TIP3    H247773   8.479   7.640   4.775
15965TIP3   OH247774   7.460   5.898   5.325
15965TIP3    H147775   7.429   5.866   5.237
15965TIP3    H247776   7.449   5.818   5.381
15966TIP3   OH247777   7.004   7.116   4.713
15966TIP3    H147778   6.920   7.148   4.748
15966TIP3    H247779   6.998   7.151   4.622
15967TIP3   OH247780   7.151   7.648   5.780
15967TIP3    H147781   7.241   7.642   5.819
15967TIP3    H247782   7.129   7.554   5.770
15968TIP3   OH247783   7.639   7.624   5.820
15968TIP3    H147784   7.733   7.602   5.826
15968TIP3    H247785   7.613   7.569   5.744
15969TIP3   OH247786   7.621   7.195   3.948
15969TIP3    H147787   7.564   7.123   3.984
15969TIP3    H247788   7.695   7.143   3.911
15970TIP3   OH247789   8.277   7.527   5.552
15970TIP3    H147790   8.266   7.456   5.620
15970TIP3    H247791   8.354   7.576   5.584
15971TIP3   OH247792   8.057   7.239   3.858
15971TIP3    H147793   8.111   7.179   3.911
15971TIP3    H247794   8.106   7.244   3.773
15972TIP3   OH247795   7.286   7.062   5.975
15972TIP3    H147796   7.304   6.967   5.979
15972TIP3    H247797   7.198   7.064   5.932
15973TIP3   OH247798   7.261   6.716   4.164
15973TIP3    H147799   7.315   6.680   4.237
15973TIP3    H247800   7.329   6.721   4.094
15974TIP3   OH247801   7.895   7.145   5.748
15974TIP3    H147802   7.851   7.159   5.662
15974TIP3    H247803   7.925   7.052   5.742
15975TIP3   OH247804   7.768   6.910   3.971
15975TIP3    H147805   7.771   6.926   4.067
15975TIP3    H247806   7.767   6.813   3.968
15976TIP3   OH247807   8.388   7.150   5.352
15976TIP3    H147808   8.460   7.199   5.308
15976TIP3    H247809   8.314   7.213   5.344
15977TIP3   OH247810   7.405   6.796   5.955
15977TIP3    H147811   7.474   6.731   5.940
15977TIP3    H247812   7.427   6.828   6.045
15978TIP3   OH247813   7.478   6.614   4.395
15978TIP3    H147814   7.444   6.571   4.474
15978TIP3    H247815   7.509   6.538   4.341
15979TIP3   OH247816   7.742   6.683   5.623
15979TIP3    H147817   7.662   6.740   5.626
15979TIP3    H247818   7.785   6.712   5.540
15980TIP3   OH247819   7.569   6.406   4.232
15980TIP3    H147820   7.541   6.408   4.137
15980TIP3    H247821   7.666   6.417   4.223
15981TIP3   OH247822   8.257   7.084   5.754
15981TIP3    H147823   8.338   7.065   5.704
15981TIP3    H247824   8.257   7.014   5.821
15982TIP3   OH247825   8.394   6.739   3.895
15982TIP3    H147826   8.378   6.694   3.809
15982TIP3    H247827   8.368   6.831   3.867
15983TIP3   OH247828   7.867   6.466   5.744
15983TIP3    H147829   7.863   6.387   5.686
15983TIP3    H247830   7.821   6.533   5.688
15984TIP3   OH247831   7.866   6.257   5.551
15984TIP3    H147832   7.893   6.292   5.465
15984TIP3    H247833   7.772   6.232   5.533
15985TIP3   OH247834   7.899   6.795   5.426
15985TIP3    H147835   7.976   6.796   5.368
15985TIP3    H247836   7.841   6.861   5.383
15986TIP3   OH247837   8.497   6.756   5.822
15986TIP3    H147838   8.526   6.671   5.783
15986TIP3    H247839   8.554   6.818   5.774
15987TIP3   OH247840   8.521   7.014   5.545
15987TIP3    H147841   8.466   7.064   5.481
15987TIP3    H247842   8.610   7.024   5.506
15988TIP3   OH247843   7.746   6.583   5.973
15988TIP3    H147844   7.673   6.519   5.988
15988TIP3    H247845   7.775   6.560   5.883
15989TIP3   OH247846   7.993   6.021   5.630
15989TIP3    H147847   7.950   6.103   5.596
15989TIP3    H247848   7.928   5.952   5.606
15990TIP3   OH247849   8.124   6.521   5.834
15990TIP3    H147850   8.104   6.522   5.930
15990TIP3    H247851   8.034   6.499   5.800
15991TIP3   OH247852   8.370   6.489   5.694
15991TIP3    H147853   8.286   6.480   5.743
15991TIP3    H247854   8.429   6.430   5.745
15992TIP3   OH247855   8.592   6.421   5.890
15992TIP3    H147856   8.618   6.327   5.876
15992TIP3    H247857   8.519   6.413   5.954
15993TIP3   OH247858   7.581   6.367   6.023
15993TIP3    H147859   7.581   6.274   5.993
15993TIP3    H247860   7.611   6.356   6.115
15994TIP3   OH247861   8.089   5.996   5.878
15994TIP3    H147862   8.166   5.941   5.852
15994TIP3    H247863   8.049   6.012   5.791
15995TIP3   OH247864   8.115   6.210   6.052
15995TIP3    H147865   8.138   6.209   5.956
15995TIP3    H247866   8.073   6.297   6.058
15996TIP3   OH247867   7.377   7.469   4.132
15996TIP3    H147868   7.474   7.469   4.123
15996TIP3    H247869   7.353   7.516   4.050
15997TIP3   OH247870   6.859   6.854   4.353
15997TIP3    H147871   6.953   6.876   4.339
15997TIP3    H247872   6.854   6.765   4.311
15998TIP3   OH247873   6.766   7.469   4.764
15998TIP3    H147874   6.702   7.403   4.730
15998TIP3    H247875   6.815   7.415   4.830
15999TIP3   OH247876   6.902   7.327   4.952
15999TIP3    H147877   6.899   7.246   5.006
15999TIP3    H247878   6.961   7.382   5.006
16000TIP3   OH247879   8.636   7.713   4.753
16000TIP3    H147880   8.662   7.759   4.834
16000TIP3    H247881   8.681   7.766   4.685
16001TIP3   OH247882   8.664   7.741   5.036
16001TIP3    H147883   8.625   7.652   5.024
16001TIP3    H247884   8.744   7.719   5.086
16002TIP3   OH247885   8.712   7.419   5.602
16002TIP3    H147886   8.639   7.423   5.666
16002TIP3    H247887   8.751   7.508   5.610
16003TIP3   OH247888   8.525   6.932   4.228
16003TIP3    H147889   8.593   6.995   4.195
16003TIP3    H247890   8.572   6.892   4.304
16004TIP3   OH247891   8.654   6.805   4.437
16004TIP3    H147892   8.604   6.787   4.517
16004TIP3    H247893   8.737   6.843   4.474
16005TIP3   OH247894   8.705   7.185   4.861
16005TIP3    H147895   8.763   7.125   4.809
16005TIP3    H247896   8.701   7.264   4.803
16006TIP3   OH247897   8.543   7.486   5.060
16006TIP3    H147898   8.472   7.533   5.107
16006TIP3    H247899   8.493   7.440   4.989
16007TIP3   OH247900   8.592   6.705   4.079
16007TIP3    H147901   8.522   6.704   4.009
16007TIP3    H247902   8.564   6.785   4.128
16008TIP3   OH247903   8.458   6.380   4.042
16008TIP3    H147904   8.432   6.423   3.959
16008TIP3    H247905   8.434   6.287   4.024
16009TIP3   OH247906   7.098   6.726   5.322
16009TIP3    H147907   7.096   6.698   5.228
16009TIP3    H247908   7.195   6.727   5.338
16010TIP3   OH247909   8.780   7.053   5.437
16010TIP3    H147910   8.845   6.986   5.406
16010TIP3    H247911   8.796   7.125   5.374
16011TIP3   OH247912   8.408   6.114   4.026
16011TIP3    H147913   8.486   6.080   4.074
16011TIP3    H247914   8.338   6.050   4.045
16012TIP3   OH247915   8.636   6.547   4.960
16012TIP3    H147916   8.726   6.576   4.932
16012TIP3    H247917   8.641   6.578   5.053
16013TIP3   OH247918   8.686   6.686   5.192
16013TIP3    H147919   8.613   6.725   5.244
16013TIP3    H247920   8.730   6.767   5.157
16014TIP3   OH247921   7.314   6.417   6.002
16014TIP3    H147922   7.411   6.407   5.998
16014TIP3    H247923   7.288   6.331   6.041
16015TIP3   OH247924   9.153   6.274   5.762
16015TIP3    H147925   9.209   6.209   5.714
16015TIP3    H247926   9.117   6.328   5.689
16016TIP3   OH247927   8.558   6.127   4.525
16016TIP3    H147928   8.622   6.102   4.595
16016TIP3    H247929   8.509   6.044   4.512
16017TIP3   OH247930   7.276   6.106   5.332
16017TIP3    H147931   7.337   6.029   5.338
16017TIP3    H247932   7.340   6.179   5.325
16018TIP3   OH247933   7.082   6.381   5.405
16018TIP3    H147934   7.127   6.367   5.320
16018TIP3    H247935   7.112   6.470   5.428
16019TIP3   OH247936   9.010   6.411   5.581
16019TIP3    H147937   8.927   6.461   5.562
16019TIP3    H247938   9.008   6.352   5.504
16020TIP3   OH247939   8.660   6.054   4.142
16020TIP3    H147940   8.700   5.982   4.089
16020TIP3    H247941   8.725   6.126   4.130
16021TIP3   OH247942   7.060   5.902   4.914
16021TIP3    H147943   6.966   5.877   4.922
16021TIP3    H247944   7.061   5.943   4.825
16022TIP3   OH247945   8.213   7.558   4.412
16022TIP3    H147946   8.269   7.554   4.332
16022TIP3    H247947   8.245   7.639   4.453
16023TIP3   OH247948   7.283   5.967   5.721
16023TIP3    H147949   7.228   5.957   5.801
16023TIP3    H247950   7.216   6.002   5.658
16024TIP3   OH247951   7.320   7.394   5.800
16024TIP3    H147952   7.233   7.358   5.775
16024TIP3    H247953   7.328   7.365   5.891
16025TIP3   OH247954   7.498   7.420   5.345
16025TIP3    H147955   7.450   7.493   5.302
16025TIP3    H247956   7.583   7.431   5.298
16026TIP3   OH247957   7.948   7.665   5.482
16026TIP3    H147958   7.990   7.671   5.570
16026TIP3    H247959   8.012   7.715   5.427
16027TIP3   OH247960   8.126   7.812   5.339
16027TIP3    H147961   8.198   7.767   5.293
16027TIP3    H247962   8.176   7.873   5.397
16028TIP3   OH247963   8.920   6.179   5.436
16028TIP3    H147964   8.828   6.175   5.405
16028TIP3    H247965   8.946   6.084   5.424
16029TIP3   OH247966   7.176   7.679   5.365
16029TIP3    H147967   7.090   7.716   5.337
16029TIP3    H247968   7.177   7.705   5.457
16030TIP3   OH247969   7.416   7.657   5.224
16030TIP3    H147970   7.328   7.671   5.265
16030TIP3    H247971   7.399   7.686   5.132
16031TIP3   OH247972   7.844   7.687   5.018
16031TIP3    H147973   7.767   7.703   4.959
16031TIP3    H247974   7.855   7.777   5.055
16032TIP3   OH247975   8.109   7.625   5.066
16032TIP3    H147976   8.014   7.642   5.051
16032TIP3    H247977   8.149   7.706   5.029
16033TIP3   OH247978   8.318   7.821   4.988
16033TIP3    H147979   8.301   7.907   4.944
16033TIP3    H247980   8.340   7.764   4.911
16034TIP3   OH247981   7.086   7.473   5.112
16034TIP3    H147982   7.117   7.448   5.202
16034TIP3    H247983   7.156   7.429   5.058
16035TIP3   OH247984   7.273   7.342   4.964
16035TIP3    H147985   7.296   7.260   5.012
16035TIP3    H247986   7.362   7.385   4.959
16036TIP3   OH247987   7.528   7.436   4.984
16036TIP3    H147988   7.573   7.362   4.943
16036TIP3    H247989   7.588   7.458   5.058
16037TIP3   OH247990   8.122   6.096   5.054
16037TIP3    H147991   8.075   6.034   5.114
16037TIP3    H247992   8.187   6.038   5.013
16038TIP3   OH247993   8.652   5.971   4.963
16038TIP3    H147994   8.688   6.024   4.889
16038TIP3    H247995   8.556   5.988   4.958
16039TIP3   OH247996   8.742   6.080   4.727
16039TIP3    H147997   8.813   6.024   4.687
16039TIP3    H247998   8.780   6.169   4.710
16040TIP3   OH247999   7.373   5.808   5.077
16040TIP3    H148000   7.280   5.776   5.073
16040TIP3    H248001   7.421   5.723   5.072
16041TIP3   OH248002   7.167   5.668   4.714
16041TIP3    H148003   7.187   5.736   4.648
16041TIP3    H248004   7.113   5.719   4.777
16042TIP3   OH248005   7.809   5.851   4.948
16042TIP3    H148006   7.880   5.897   4.901
16042TIP3    H248007   7.834   5.867   5.041
16043TIP3   OH248008   8.371   5.983   4.932
16043TIP3    H148009   8.354   5.938   4.848
16043TIP3    H248010   8.354   5.909   4.995
16044TIP3   OH248011   8.392   5.903   4.499
16044TIP3    H148012   8.302   5.940   4.505
16044TIP3    H248013   8.379   5.817   4.546
16045TIP3   OH248014   6.874   7.237   4.507
16045TIP3    H148015   6.790   7.207   4.468
16045TIP3    H248016   6.865   7.333   4.494
16046TIP3   OH248017   7.272   5.839   4.480
16046TIP3    H148018   7.324   5.772   4.433
16046TIP3    H248019   7.341   5.892   4.524
16047TIP3   OH248020   7.789   6.007   4.582
16047TIP3    H148021   7.840   5.956   4.646
16047TIP3    H248022   7.812   6.099   4.610
16048TIP3   OH248023   7.646   7.434   4.079
16048TIP3    H148024   7.735   7.458   4.047
16048TIP3    H248025   7.628   7.357   4.020
16049TIP3   OH248026   8.362   7.550   4.178
16049TIP3    H148027   8.354   7.454   4.161
16049TIP3    H248028   8.321   7.587   4.096
16050TIP3   OH248029   7.590   6.093   5.982
16050TIP3    H148030   7.556   6.017   6.032
16050TIP3    H248031   7.677   6.061   5.954
16051TIP3   OH248032   6.953   7.273   4.144
16051TIP3    H148033   6.955   7.299   4.237
16051TIP3    H248034   7.041   7.231   4.131
16052TIP3   OH248035   8.660   6.155   5.874
16052TIP3    H148036   8.676   6.113   5.961
16052TIP3    H248037   8.745   6.141   5.828
16053TIP3   OH248038   8.592   7.696   5.370
16053TIP3    H148039   8.516   7.663   5.317
16053TIP3    H248040   8.575   7.792   5.365
16054TIP3   OH248041   9.860   7.063   4.130
16054TIP3    H148042   9.838   7.155   4.108
16054TIP3    H248043   9.783   7.017   4.094
16055TIP3   OH248044   9.815   7.071   4.522
16055TIP3    H148045   9.881   7.046   4.589
16055TIP3    H248046   9.813   6.992   4.465
16056TIP3   OH248047   9.157   6.967   4.885
16056TIP3    H148048   9.192   6.897   4.943
16056TIP3    H248049   9.238   7.018   4.867
16057TIP3   OH248050   9.127   7.369   4.606
16057TIP3    H148051   9.118   7.272   4.608
16057TIP3    H248052   9.224   7.378   4.601
16058TIP3   OH248053   8.824   6.569   4.400
16058TIP3    H148054   8.782   6.656   4.399
16058TIP3    H248055   8.763   6.520   4.342
16059TIP3   OH248056   8.895   6.862   4.549
16059TIP3    H148057   8.944   6.787   4.590
16059TIP3    H248058   8.960   6.894   4.485
16060TIP3   OH248059   9.655   7.297   4.556
16060TIP3    H148060   9.690   7.211   4.524
16060TIP3    H248061   9.741   7.338   4.579
16061TIP3   OH248062  10.073   6.821   4.592
16061TIP3    H148063  10.064   6.726   4.618
16061TIP3    H248064  10.055   6.812   4.497
16062TIP3   OH248065   9.400   6.454   4.562
16062TIP3    H148066   9.385   6.527   4.497
16062TIP3    H248067   9.355   6.381   4.514
16063TIP3   OH248068  10.090   6.541   4.200
16063TIP3    H148069  10.166   6.511   4.250
16063TIP3    H248070  10.132   6.596   4.132
16064TIP3   OH248071   9.041   6.658   4.663
16064TIP3    H148072   9.124   6.638   4.710
16064TIP3    H248073   9.053   6.603   4.583
16065TIP3   OH248074   9.481   6.854   4.458
16065TIP3    H148075   9.576   6.830   4.469
16065TIP3    H248076   9.444   6.770   4.424
16066TIP3   OH248077   9.404   6.437   4.990
16066TIP3    H148078   9.342   6.475   4.925
16066TIP3    H248079   9.353   6.452   5.073
16067TIP3   OH248080   9.755   7.293   4.001
16067TIP3    H148081   9.713   7.258   3.921
16067TIP3    H248082   9.708   7.378   4.011
16068TIP3   OH248083   9.510   7.212   4.792
16068TIP3    H148084   9.445   7.274   4.830
16068TIP3    H248085   9.551   7.266   4.722
16069TIP3   OH248086   9.271   6.554   4.779
16069TIP3    H148087   9.335   6.625   4.802
16069TIP3    H248088   9.318   6.512   4.703
16070TIP3   OH248089   9.335   7.404   4.886
16070TIP3    H148090   9.309   7.489   4.845
16070TIP3    H248091   9.256   7.389   4.942
16071TIP3   OH248092   8.730   7.094   4.123
16071TIP3    H148093   8.695   7.116   4.034
16071TIP3    H248094   8.760   7.181   4.155
16072TIP3   OH248095   9.759   6.160   4.704
16072TIP3    H148096   9.750   6.064   4.715
16072TIP3    H248097   9.679   6.192   4.752
16073TIP3   OH248098   9.687   6.919   3.956
16073TIP3    H148099   9.603   6.969   3.944
16073TIP3    H248100   9.722   6.919   3.866
16074TIP3   OH248101   9.648   6.701   3.682
16074TIP3    H148102   9.715   6.742   3.739
16074TIP3    H248103   9.702   6.635   3.635
16075TIP3   OH248104   9.270   7.002   4.350
16075TIP3    H148105   9.227   6.945   4.283
16075TIP3    H248106   9.347   6.948   4.377
16076TIP3   OH248107   9.402   7.415   4.497
16076TIP3    H148108   9.377   7.365   4.418
16076TIP3    H248109   9.491   7.378   4.516
16077TIP3   OH248110   9.402   6.972   4.704
16077TIP3    H148111   9.439   6.948   4.616
16077TIP3    H248112   9.450   7.055   4.725
16078TIP3   OH248113   9.884   7.616   4.475
16078TIP3    H148114   9.939   7.670   4.535
16078TIP3    H248115   9.896   7.529   4.511
16079TIP3   OH248116   9.542   7.529   5.029
16079TIP3    H148117   9.480   7.591   5.074
16079TIP3    H248118   9.477   7.474   4.980
16080TIP3   OH248119   9.893   6.861   3.765
16080TIP3    H148120   9.934   6.925   3.824
16080TIP3    H248121   9.903   6.904   3.678
16081TIP3   OH248122   9.303   7.094   5.120
16081TIP3    H148123   9.301   7.176   5.174
16081TIP3    H248124   9.211   7.066   5.125
16082TIP3   OH248125   9.632   7.546   4.019
16082TIP3    H148126   9.660   7.617   4.076
16082TIP3    H248127   9.555   7.583   3.974
16083TIP3   OH248128   9.337   7.699   5.113
16083TIP3    H148129   9.302   7.696   5.022
16083TIP3    H248130   9.258   7.677   5.167
16084TIP3   OH248131   9.132   6.843   4.161
16084TIP3    H148132   9.072   6.890   4.099
16084TIP3    H248133   9.093   6.755   4.161
16085TIP3   OH248134   8.920   7.207   5.068
16085TIP3    H148135   8.856   7.210   4.994
16085TIP3    H248136   8.938   7.112   5.074
16086TIP3   OH248137   8.770   7.414   4.707
16086TIP3    H148138   8.864   7.416   4.684
16086TIP3    H248139   8.757   7.502   4.746
16087TIP3   OH248140   9.739   7.658   4.882
16087TIP3    H148141   9.742   7.750   4.917
16087TIP3    H248142   9.669   7.619   4.939
16088TIP3   OH248143   9.499   7.786   3.838
16088TIP3    H148144   9.455   7.760   3.754
16088TIP3    H248145   9.463   7.874   3.855
16089TIP3   OH248146   8.940   7.637   4.217
16089TIP3    H148147   8.985   7.624   4.303
16089TIP3    H248148   8.872   7.567   4.222
16090TIP3   OH248149   9.710   7.686   3.491
16090TIP3    H148150   9.773   7.623   3.457
16090TIP3    H248151   9.745   7.706   3.580
16091TIP3   OH248152   9.752   7.741   3.756
16091TIP3    H148153   9.661   7.750   3.791
16091TIP3    H248154   9.787   7.675   3.817
16092TIP3   OH248155   9.119   7.407   5.056
16092TIP3    H148156   9.173   7.392   5.136
16092TIP3    H248157   9.050   7.339   5.064
16093TIP3   OH248158   9.521   6.232   4.833
16093TIP3    H148159   9.431   6.203   4.808
16093TIP3    H248160   9.499   6.317   4.875
16094TIP3   OH248161  10.047   6.353   5.032
16094TIP3    H148162  10.096   6.329   5.111
16094TIP3    H248163   9.955   6.331   5.058
16095TIP3   OH248164   9.676   6.284   3.806
16095TIP3    H148165   9.643   6.284   3.898
16095TIP3    H248166   9.631   6.204   3.773
16096TIP3   OH248167   9.450   6.749   4.854
16096TIP3    H148168   9.403   6.773   4.937
16096TIP3    H248169   9.434   6.829   4.799
16097TIP3   OH248170   9.337   6.633   4.368
16097TIP3    H148171   9.243   6.609   4.381
16097TIP3    H248172   9.352   6.594   4.279
16098TIP3   OH248173   9.821   6.716   4.086
16098TIP3    H148174   9.770   6.792   4.052
16098TIP3    H248175   9.881   6.696   4.013
16099TIP3   OH248176  10.002   7.003   5.185
16099TIP3    H148177   9.975   6.930   5.245
16099TIP3    H248178  10.097   7.008   5.204
16100TIP3   OH248179   9.964   6.747   4.349
16100TIP3    H148180   9.937   6.797   4.271
16100TIP3    H248181  10.004   6.669   4.306
16101TIP3   OH248182   9.272   6.784   5.067
16101TIP3    H148183   9.269   6.839   5.147
16101TIP3    H248184   9.252   6.697   5.107
16102TIP3   OH248185   9.323   6.253   3.771
16102TIP3    H148186   9.315   6.252   3.868
16102TIP3    H248187   9.244   6.305   3.747
16103TIP3   OH248188   8.857   6.310   4.646
16103TIP3    H148189   8.938   6.336   4.695
16103TIP3    H248190   8.892   6.275   4.562
16104TIP3   OH248191   8.846   6.281   4.164
16104TIP3    H148192   8.888   6.319   4.084
16104TIP3    H248193   8.783   6.354   4.183
16105TIP3   OH248194   9.976   7.007   4.757
16105TIP3    H148195  10.027   6.946   4.699
16105TIP3    H248196   9.962   6.947   4.834
16106TIP3   OH248197   9.656   6.456   4.428
16106TIP3    H148198   9.577   6.457   4.485
16106TIP3    H248199   9.728   6.466   4.493
16107TIP3   OH248200   9.095   6.510   4.439
16107TIP3    H148201   9.000   6.510   4.413
16107TIP3    H248202   9.125   6.420   4.414
16108TIP3   OH248203   9.369   6.510   4.125
16108TIP3    H148204   9.465   6.524   4.108
16108TIP3    H248205   9.326   6.534   4.040
16109TIP3   OH248206  10.047   6.558   4.636
16109TIP3    H148207  10.055   6.554   4.733
16109TIP3    H248208  10.025   6.467   4.610
16110TIP3   OH248209   9.205   6.542   3.905
16110TIP3    H148210   9.133   6.498   3.856
16110TIP3    H248211   9.257   6.577   3.830
16111TIP3   OH248212   9.281   7.332   5.274
16111TIP3    H148213   9.362   7.359   5.320
16111TIP3    H248214   9.217   7.332   5.348
16112TIP3   OH248215   9.743   6.771   4.522
16112TIP3    H148216   9.822   6.750   4.467
16112TIP3    H248217   9.770   6.737   4.609
16113TIP3   OH248218   9.272   6.276   4.399
16113TIP3    H148219   9.244   6.193   4.443
16113TIP3    H248220   9.331   6.244   4.329
16114TIP3   OH248221   9.724   6.673   4.828
16114TIP3    H148222   9.636   6.714   4.827
16114TIP3    H248223   9.781   6.741   4.869
16115TIP3   OH248224   9.461   7.072   3.915
16115TIP3    H148225   9.389   7.007   3.900
16115TIP3    H248226   9.440   7.105   4.005
16116TIP3   OH248227   9.919   6.399   3.756
16116TIP3    H148228   9.828   6.374   3.784
16116TIP3    H248229   9.932   6.486   3.801
16117TIP3   OH248230   9.863   7.390   4.907
16117TIP3    H148231   9.868   7.362   4.999
16117TIP3    H248232   9.823   7.478   4.913
16118TIP3   OH248233  10.011   6.636   3.862
16118TIP3    H148234  10.099   6.669   3.883
16118TIP3    H248235   9.973   6.711   3.812
16119TIP3   OH248236   9.149   7.088   4.588
16119TIP3    H148237   9.188   7.065   4.501
16119TIP3    H248238   9.198   7.028   4.647
16120TIP3   OH248239   9.606   7.224   3.741
16120TIP3    H148240   9.560   7.311   3.744
16120TIP3    H248241   9.546   7.169   3.795
16121TIP3   OH248242   9.755   7.128   5.219
16121TIP3    H148243   9.694   7.068   5.173
16121TIP3    H248244   9.841   7.094   5.188
16122TIP3   OH248245  10.016   7.665   4.792
16122TIP3    H148246   9.923   7.645   4.811
16122TIP3    H248247  10.046   7.703   4.877
16123TIP3   OH248248   9.250   7.398   4.212
16123TIP3    H148249   9.249   7.480   4.157
16123TIP3    H248250   9.156   7.378   4.216
16124TIP3   OH248251   8.819   6.702   3.911
16124TIP3    H148252   8.864   6.787   3.926
16124TIP3    H248253   8.739   6.712   3.967
16125TIP3   OH248254   9.397   7.168   4.160
16125TIP3    H148255   9.357   7.256   4.177
16125TIP3    H248256   9.361   7.115   4.232
16126TIP3   OH248257   9.521   7.737   4.685
16126TIP3    H148258   9.554   7.820   4.647
16126TIP3    H248259   9.598   7.705   4.735
16127TIP3   OH248260   9.179   7.634   4.070
16127TIP3    H148261   9.090   7.643   4.110
16127TIP3    H248262   9.208   7.728   4.068
16128TIP3   OH248263   9.915   7.385   4.633
16128TIP3    H148264   9.908   7.383   4.731
16128TIP3    H248265   9.982   7.317   4.619
16129TIP3   OH248266   9.249   6.513   5.208
16129TIP3    H148267   9.169   6.553   5.244
16129TIP3    H248268   9.277   6.456   5.282
16130TIP3   OH248269   8.962   7.607   4.843
16130TIP3    H148270   9.013   7.529   4.869
16130TIP3    H248271   8.995   7.673   4.905
16131TIP3   OH248272   9.257   7.247   3.522
16131TIP3    H148273   9.260   7.157   3.484
16131TIP3    H248274   9.232   7.227   3.615
16132TIP3   OH248275   9.198   7.257   3.798
16132TIP3    H148276   9.267   7.228   3.859
16132TIP3    H248277   9.206   7.355   3.801
16133TIP3   OH248278   8.938   6.951   3.997
16133TIP3    H148279   8.871   6.998   4.050
16133TIP3    H248280   8.953   7.015   3.925
16134TIP3   OH248281  10.099   6.592   4.913
16134TIP3    H148282  10.151   6.631   4.985
16134TIP3    H248283  10.066   6.510   4.955
16135TIP3   OH248284   9.928   6.358   4.052
16135TIP3    H148285   9.952   6.361   3.959
16135TIP3    H248286   9.994   6.418   4.093
16136TIP3   OH248287   9.468   7.459   3.750
16136TIP3    H148288   9.377   7.483   3.776
16136TIP3    H248289   9.475   7.507   3.666
16137TIP3   OH248290   9.647   6.515   4.155
16137TIP3    H148291   9.717   6.581   4.136
16137TIP3    H248292   9.655   6.505   4.252
16138TIP3   OH248293   9.919   6.833   4.963
16138TIP3    H148294   9.934   6.889   5.042
16138TIP3    H248295   9.981   6.760   4.976
16139TIP3   OH248296   9.795   6.246   4.261
16139TIP3    H148297   9.793   6.322   4.322
16139TIP3    H248298   9.849   6.284   4.188
16140TIP3   OH248299   9.208   7.528   3.808
16140TIP3    H148300   9.176   7.594   3.742
16140TIP3    H248301   9.187   7.574   3.892
16141TIP3   OH248302   9.307   6.239   4.048
16141TIP3    H148303   9.305   6.330   4.083
16141TIP3    H248304   9.403   6.220   4.058
16142TIP3   OH248305   8.921   7.163   3.806
16142TIP3    H148306   8.982   7.238   3.807
16142TIP3    H248307   8.970   7.106   3.742
16143TIP3   OH248308   8.868   6.432   3.939
16143TIP3    H148309   8.870   6.530   3.930
16143TIP3    H248310   8.792   6.411   3.883
16144TIP3   OH248311   9.254   6.155   4.812
16144TIP3    H148312   9.225   6.121   4.725
16144TIP3    H248313   9.246   6.076   4.869
16145TIP3   OH248314   8.799   7.372   4.198
16145TIP3    H148315   8.718   7.407   4.236
16145TIP3    H248316   8.790   7.405   4.106
16146TIP3   OH248317   8.949   7.906   5.265
16146TIP3    H148318   9.038   7.903   5.307
16146TIP3    H248319   8.930   7.811   5.257
16147TIP3   OH248320   9.434   7.878   5.310
16147TIP3    H148321   9.530   7.871   5.309
16147TIP3    H248322   9.410   7.823   5.232
16148TIP3   OH248323   9.421   7.454   3.449
16148TIP3    H148324   9.362   7.380   3.475
16148TIP3    H248325   9.488   7.406   3.397
16149TIP3   OH248326  10.082   7.775   5.039
16149TIP3    H148327  10.059   7.708   5.106
16149TIP3    H248328  10.151   7.825   5.084
16150TIP3   OH248329   9.082   7.323   5.466
16150TIP3    H148330   9.098   7.232   5.495
16150TIP3    H248331   8.996   7.316   5.420
16151TIP3   OH248332   9.072   6.995   3.665
16151TIP3    H148333   9.125   6.931   3.715
16151TIP3    H248334   9.113   6.987   3.577
16152TIP3   OH248335   9.692   7.402   5.233
16152TIP3    H148336   9.648   7.414   5.147
16152TIP3    H248337   9.721   7.308   5.230
16153TIP3   OH248338   9.570   7.169   3.459
16153TIP3    H148339   9.573   7.184   3.555
16153TIP3    H248340   9.557   7.072   3.456
16154TIP3   OH248341   9.280   6.868   3.885
16154TIP3    H148342   9.242   6.823   3.962
16154TIP3    H248343   9.306   6.794   3.828
16155TIP3   OH248344   9.544   6.941   5.110
16155TIP3    H148345   9.460   6.992   5.113
16155TIP3    H248346   9.584   6.972   5.026
16156TIP3   OH248347   9.364   6.661   3.719
16156TIP3    H148348   9.335   6.664   3.626
16156TIP3    H248349   9.460   6.677   3.709
16157TIP3   OH248350  10.050   7.343   5.246
16157TIP3    H148351  10.125   7.320   5.191
16157TIP3    H248352  10.046   7.270   5.310
16158TIP3   OH248353   9.668   6.725   5.229
16158TIP3    H148354   9.657   6.643   5.178
16158TIP3    H248355   9.619   6.791   5.175
16159TIP3   OH248356   9.662   6.506   5.039
16159TIP3    H148357   9.687   6.554   4.957
16159TIP3    H248358   9.567   6.486   5.021
16160TIP3   OH248359   9.700   7.051   4.908
16160TIP3    H148360   9.777   7.051   4.850
16160TIP3    H248361   9.642   7.117   4.865
16161TIP3   OH248362  10.285   7.017   5.301
16161TIP3    H148363  10.316   6.926   5.292
16161TIP3    H248364  10.364   7.067   5.278
16162TIP3   OH248365   9.547   6.845   5.460
16162TIP3    H148366   9.472   6.784   5.474
16162TIP3    H248367   9.575   6.819   5.370
16163TIP3   OH248368   9.795   6.276   5.099
16163TIP3    H148369   9.744   6.358   5.080
16163TIP3    H248370   9.726   6.208   5.089
16164TIP3   OH248371   9.923   6.783   5.321
16164TIP3    H148372   9.905   6.771   5.416
16164TIP3    H248373   9.833   6.759   5.286
16165TIP3   OH248374  10.160   6.711   5.173
16165TIP3    H148375  10.078   6.727   5.224
16165TIP3    H248376  10.224   6.695   5.245
16166TIP3   OH248377  10.363   6.665   5.356
16166TIP3    H148378  10.418   6.589   5.381
16166TIP3    H248379  10.373   6.723   5.435
16167TIP3   OH248380   9.399   6.620   5.511
16167TIP3    H148381   9.377   6.533   5.474
16167TIP3    H248382   9.409   6.600   5.605
16168TIP3   OH248383   9.893   6.288   5.356
16168TIP3    H148384   9.956   6.214   5.352
16168TIP3    H248385   9.849   6.279   5.269
16169TIP3   OH248386   9.958   6.504   5.517
16169TIP3    H148387   9.931   6.433   5.455
16169TIP3    H248388   9.880   6.563   5.515
16170TIP3   OH248389   9.175   7.729   3.624
16170TIP3    H148390   9.269   7.731   3.600
16170TIP3    H248391   9.138   7.772   3.544
16171TIP3   OH248392   8.656   7.108   3.849
16171TIP3    H148393   8.749   7.131   3.826
16171TIP3    H248394   8.647   7.021   3.804
16172TIP3   OH248395   8.572   7.721   4.243
16172TIP3    H148396   8.499   7.663   4.213
16172TIP3    H248397   8.611   7.666   4.314
16173TIP3   OH248398   8.706   7.581   4.436
16173TIP3    H148399   8.693   7.504   4.493
16173TIP3    H248400   8.755   7.641   4.495
16174TIP3   OH248401   8.895   6.988   4.805
16174TIP3    H148402   8.897   6.960   4.711
16174TIP3    H248403   8.992   6.986   4.825
16175TIP3   OH248404   9.069   6.363   4.818
16175TIP3    H148405   9.130   6.287   4.826
16175TIP3    H248406   9.133   6.436   4.810
16176TIP3   OH248407   8.873   6.640   4.882
16176TIP3    H148408   8.930   6.637   4.803
16176TIP3    H248409   8.907   6.718   4.928
16177TIP3   OH248410   8.853   6.148   4.396
16177TIP3    H148411   8.757   6.145   4.409
16177TIP3    H248412   8.860   6.201   4.314
16178TIP3   OH248413   9.075   6.213   5.203
16178TIP3    H148414   9.028   6.211   5.288
16178TIP3    H248415   9.009   6.256   5.146
16179TIP3   OH248416   9.117   7.647   5.283
16179TIP3    H148417   9.028   7.613   5.264
16179TIP3    H248418   9.127   7.624   5.376
16180TIP3   OH248419   9.292   7.675   4.830
16180TIP3    H148420   9.245   7.750   4.790
16180TIP3    H248421   9.379   7.688   4.786
16181TIP3   OH248422   9.744   7.922   4.969
16181TIP3    H148423   9.782   7.929   5.059
16181TIP3    H248424   9.810   7.973   4.917
16182TIP3   OH248425   9.927   8.066   4.823
16182TIP3    H148426   9.998   8.021   4.775
16182TIP3    H248427   9.978   8.143   4.852
16183TIP3   OH248428   8.975   7.934   4.853
16183TIP3    H148429   8.888   7.969   4.823
16183TIP3    H248430   8.975   7.966   4.944
16184TIP3   OH248431   9.208   7.911   4.706
16184TIP3    H148432   9.123   7.925   4.753
16184TIP3    H248433   9.188   7.948   4.618
16185TIP3   OH248434   9.636   7.942   4.475
16185TIP3    H148435   9.553   7.967   4.429
16185TIP3    H248436   9.649   8.022   4.530
16186TIP3   OH248437   9.895   7.888   4.514
16186TIP3    H148438   9.816   7.929   4.553
16186TIP3    H248439   9.959   7.962   4.520
16187TIP3   OH248440   8.884   7.730   4.598
16187TIP3    H148441   8.910   7.706   4.689
16187TIP3    H248442   8.956   7.686   4.547
16188TIP3   OH248443   9.076   7.601   4.453
16188TIP3    H148444   9.094   7.515   4.499
16188TIP3    H248445   9.166   7.637   4.443
16189TIP3   OH248446   9.347   7.695   4.451
16189TIP3    H148447   9.374   7.601   4.442
16189TIP3    H248448   9.383   7.714   4.540
16190TIP3   OH248449   9.913   6.324   4.531
16190TIP3    H148450   9.860   6.263   4.587
16190TIP3    H248451   9.952   6.263   4.467
16191TIP3   OH248452   9.169   6.062   4.564
16191TIP3    H148453   9.077   6.028   4.561
16191TIP3    H248454   9.219   5.977   4.559
16192TIP3   OH248455   8.954   5.928   4.206
16192TIP3    H148456   8.986   5.986   4.134
16192TIP3    H248457   8.924   5.993   4.272
16193TIP3   OH248458   9.605   6.096   4.441
16193TIP3    H148459   9.664   6.142   4.379
16193TIP3    H248460   9.631   6.134   4.526
16194TIP3   OH248461   8.671   7.500   3.995
16194TIP3    H148462   8.589   7.465   3.955
16194TIP3    H248463   8.658   7.594   3.976
16195TIP3   OH248464   9.069   6.088   3.976
16195TIP3    H148465   9.120   6.029   3.917
16195TIP3    H248466   9.140   6.145   4.011
16196TIP3   OH248467   9.585   6.263   4.071
16196TIP3    H148468   9.647   6.218   4.130
16196TIP3    H248469   9.606   6.356   4.096
16197TIP3   OH248470   9.444   7.699   3.570
16197TIP3    H148471   9.530   7.721   3.528
16197TIP3    H248472   9.420   7.622   3.514
16198TIP3   OH248473   9.374   6.340   5.450
16198TIP3    H148474   9.344   6.270   5.511
16198TIP3    H248475   9.468   6.347   5.476
16199TIP3   OH248476   9.624   6.339   5.573
16199TIP3    H148477   9.708   6.312   5.533
16199TIP3    H248478   9.611   6.268   5.639
16200TIP3   OH248479   8.750   7.533   3.629
16200TIP3    H148480   8.748   7.560   3.722
16200TIP3    H248481   8.835   7.485   3.622
16201TIP3   OH248482   0.818   7.896   6.379
16201TIP3    H148483   0.867   7.842   6.444
16201TIP3    H248484   0.839   7.986   6.408
16202TIP3   OH248485   1.324   7.147   6.759
16202TIP3    H148486   1.353   7.229   6.803
16202TIP3    H248487   1.343   7.167   6.666
16203TIP3   OH248488   0.803   7.326   6.787
16203TIP3    H148489   0.831   7.234   6.805
16203TIP3    H248490   0.773   7.314   6.695
16204TIP3   OH248491   0.751   7.077   6.391
16204TIP3    H148492   0.828   7.059   6.449
16204TIP3    H248493   0.797   7.107   6.311
16205TIP3   OH248494   1.402   7.352   6.929
16205TIP3    H148495   1.319   7.400   6.906
16205TIP3    H248496   1.409   7.373   7.023
16206TIP3   OH248497   0.973   7.075   6.550
16206TIP3    H148498   0.957   7.030   6.634
16206TIP3    H248499   1.027   7.151   6.577
16207TIP3   OH248500   1.124   7.043   6.928
16207TIP3    H148501   1.037   7.084   6.913
16207TIP3    H248502   1.176   7.076   6.853
16208TIP3   OH248503   0.685   7.976   6.126
16208TIP3    H148504   0.629   7.903   6.095
16208TIP3    H248505   0.732   7.935   6.200
16209TIP3   OH248506   1.072   8.061   6.916
16209TIP3    H148507   1.039   7.982   6.870
16209TIP3    H248508   1.047   8.131   6.852
16210TIP3   OH248509   1.267   7.682   6.750
16210TIP3    H148510   1.183   7.732   6.759
16210TIP3    H248511   1.292   7.711   6.660
16211TIP3   OH248512   0.706   7.537   6.125
16211TIP3    H148513   0.640   7.558   6.196
16211TIP3    H248514   0.781   7.503   6.177
16212TIP3   OH248515   0.948   7.595   7.025
16212TIP3    H148516   0.933   7.664   7.092
16212TIP3    H248517   0.860   7.588   6.985
16213TIP3   OH248518   0.600   7.355   5.946
16213TIP3    H148519   0.605   7.424   6.015
16213TIP3    H248520   0.564   7.406   5.873
16214TIP3   OH248521   1.050   6.634   6.008
16214TIP3    H148522   0.969   6.651   6.062
16214TIP3    H248523   1.061   6.719   5.962
16215TIP3   OH248524   0.847   8.002   5.554
16215TIP3    H148525   0.859   8.099   5.547
16215TIP3    H248526   0.940   7.971   5.544
16216TIP3   OH248527   1.309   8.399   6.954
16216TIP3    H148528   1.304   8.302   6.955
16216TIP3    H248529   1.216   8.422   6.973
16217TIP3   OH248530   1.185   7.536   7.221
16217TIP3    H148531   1.103   7.547   7.171
16217TIP3    H248532   1.194   7.440   7.221
16218TIP3   OH248533   0.721   6.867   7.225
16218TIP3    H148534   0.791   6.838   7.288
16218TIP3    H248535   0.643   6.874   7.281
16219TIP3   OH248536   0.986   7.329   7.131
16219TIP3    H148537   0.947   7.314   7.220
16219TIP3    H248538   0.923   7.394   7.096
16220TIP3   OH248539   0.598   7.467   5.684
16220TIP3    H148540   0.588   7.407   5.608
16220TIP3    H248541   0.693   7.488   5.680
16221TIP3   OH248542   0.655   7.287   6.544
16221TIP3    H148543   0.577   7.311   6.492
16221TIP3    H248544   0.678   7.202   6.500
16222TIP3   OH248545   0.818   7.053   6.807
16222TIP3    H148546   0.822   7.055   6.906
16222TIP3    H248547   0.749   6.985   6.794
16223TIP3   OH248548   1.043   7.826   6.745
16223TIP3    H148549   1.062   7.879   6.664
16223TIP3    H248550   0.946   7.828   6.747
16224TIP3   OH248551   0.537   6.925   5.961
16224TIP3    H148552   0.457   6.972   5.987
16224TIP3    H248553   0.604   6.993   5.985
16225TIP3   OH248554   0.680   7.125   6.059
16225TIP3    H148555   0.762   7.163   6.095
16225TIP3    H248556   0.635   7.207   6.027
16226TIP3   OH248557   1.090   7.249   5.914
16226TIP3    H148558   1.027   7.204   5.853
16226TIP3    H248559   1.086   7.338   5.874
16227TIP3   OH248560   1.316   8.110   7.003
16227TIP3    H148561   1.218   8.106   6.994
16227TIP3    H248562   1.341   8.078   6.913
16228TIP3   OH248563   0.790   8.075   5.823
16228TIP3    H148564   0.761   8.012   5.891
16228TIP3    H248565   0.802   8.020   5.744
16229TIP3   OH248566   0.782   7.704   6.644
16229TIP3    H148567   0.705   7.664   6.685
16229TIP3    H248568   0.828   7.626   6.607
16230TIP3   OH248569   0.878   8.280   5.546
16230TIP3    H148570   0.928   8.348   5.495
16230TIP3    H248571   0.790   8.318   5.540
16231TIP3   OH248572   0.697   7.736   5.930
16231TIP3    H148573   0.684   7.666   5.998
16231TIP3    H248574   0.794   7.734   5.925
16232TIP3   OH248575   0.835   7.080   7.071
16232TIP3    H148576   0.859   7.165   7.114
16232TIP3    H248577   0.801   7.028   7.146
16233TIP3   OH248578   0.632   6.864   6.237
16233TIP3    H148579   0.603   6.910   6.157
16233TIP3    H248580   0.649   6.939   6.297
16234TIP3   OH248581   1.239   7.254   7.144
16234TIP3    H148582   1.142   7.269   7.148
16234TIP3    H248583   1.246   7.222   7.053
16235TIP3   OH248584   0.872   7.465   6.532
16235TIP3    H148585   0.798   7.402   6.534
16235TIP3    H248586   0.943   7.417   6.580
16236TIP3   OH248587   0.874   8.332   6.467
16236TIP3    H148588   0.814   8.401   6.437
16236TIP3    H248589   0.961   8.375   6.466
16237TIP3   OH248590   0.849   7.534   5.578
16237TIP3    H148591   0.829   7.482   5.498
16237TIP3    H248592   0.822   7.623   5.547
16238TIP3   OH248593   0.948   7.543   7.472
16238TIP3    H148594   0.992   7.469   7.515
16238TIP3    H248595   1.011   7.615   7.484
16239TIP3   OH248596   0.973   7.799   7.217
16239TIP3    H148597   0.918   7.856   7.163
16239TIP3    H248598   1.063   7.816   7.180
16240TIP3   OH248599   0.864   7.275   7.357
16240TIP3    H148600   0.782   7.269   7.408
16240TIP3    H248601   0.932   7.251   7.424
16241TIP3   OH248602   1.037   7.193   7.541
16241TIP3    H148603   1.060   7.100   7.561
16241TIP3    H248604   1.037   7.238   7.628
16242TIP3   OH248605   1.137   8.619   6.447
16242TIP3    H148606   1.147   8.555   6.519
16242TIP3    H248607   1.172   8.569   6.372
16243TIP3   OH248608   1.111   8.523   6.719
16243TIP3    H148609   1.104   8.431   6.688
16243TIP3    H248610   1.197   8.518   6.761
16244TIP3   OH248611   1.160   8.210   7.284
16244TIP3    H148612   1.105   8.207   7.363
16244TIP3    H248613   1.206   8.296   7.293
16245TIP3   OH248614   0.981   7.720   5.914
16245TIP3    H148615   1.054   7.780   5.892
16245TIP3    H248616   1.017   7.677   5.995
16246TIP3   OH248617   1.107   7.587   6.117
16246TIP3    H148618   1.042   7.541   6.176
16246TIP3    H248619   1.171   7.624   6.181
16247TIP3   OH248620   1.139   7.978   6.540
16247TIP3    H148621   1.208   7.925   6.495
16247TIP3    H248622   1.166   8.071   6.521
16248TIP3   OH248623   0.960   8.251   6.754
16248TIP3    H148624   0.909   8.328   6.782
16248TIP3    H248625   0.955   8.258   6.657
16249TIP3   OH248626   1.048   7.493   5.767
16249TIP3    H148627   0.975   7.496   5.701
16249TIP3    H248628   1.021   7.567   5.825
16250TIP3   OH248629   0.925   7.164   5.716
16250TIP3    H148630   0.876   7.205   5.644
16250TIP3    H248631   0.893   7.071   5.711
16251TIP3   OH248632   0.930   7.436   6.267
16251TIP3    H148633   0.935   7.339   6.260
16251TIP3    H248634   0.917   7.450   6.364
16252TIP3   OH248635   1.215   7.867   7.123
16252TIP3    H148636   1.287   7.800   7.113
16252TIP3    H248637   1.240   7.934   7.057
16253TIP3   OH248638   1.401   7.676   7.149
16253TIP3    H148639   1.325   7.624   7.182
16253TIP3    H248640   1.473   7.610   7.159
16254TIP3   OH248641   0.861   6.900   5.712
16254TIP3    H148642   0.943   6.874   5.760
16254TIP3    H248643   0.795   6.837   5.744
16255TIP3   OH248644   0.931   7.162   6.175
16255TIP3    H148645   0.966   7.070   6.186
16255TIP3    H248646   0.982   7.189   6.097
16256TIP3   OH248647   1.083   7.333   6.652
16256TIP3    H148648   1.171   7.361   6.616
16256TIP3    H248649   1.092   7.368   6.743
16257TIP3   OH248650   1.155   7.470   6.887
16257TIP3    H148651   1.078   7.507   6.936
16257TIP3    H248652   1.188   7.549   6.841
16258TIP3   OH248653   1.601   7.061   7.448
16258TIP3    H148654   1.660   6.996   7.403
16258TIP3    H248655   1.574   7.119   7.374
16259TIP3   OH248656   1.030   6.905   6.198
16259TIP3    H148657   1.076   6.890   6.283
16259TIP3    H248658   0.967   6.830   6.197
16260TIP3   OH248659   1.481   7.207   7.257
16260TIP3    H148660   1.391   7.245   7.270
16260TIP3    H248661   1.458   7.137   7.193
16261TIP3   OH248662   1.110   6.846   5.827
16261TIP3    H148663   1.152   6.770   5.781
16261TIP3    H248664   1.180   6.914   5.821
16262TIP3   OH248665   1.372   6.968   7.130
16262TIP3    H148666   1.281   6.970   7.095
16262TIP3    H248667   1.397   6.874   7.115
16263TIP3   OH248668   0.621   6.851   6.778
16263TIP3    H148669   0.570   6.770   6.786
16263TIP3    H248670   0.692   6.822   6.716
16264TIP3   OH248671   1.105   6.764   6.656
16264TIP3    H148672   1.141   6.817   6.581
16264TIP3    H248673   1.009   6.781   6.646
16265TIP3   OH248674   1.196   6.865   6.417
16265TIP3    H148675   1.269   6.816   6.374
16265TIP3    H248676   1.227   6.958   6.402
16266TIP3   OH248677   0.827   6.764   6.619
16266TIP3    H148678   0.820   6.730   6.529
16266TIP3    H248679   0.812   6.682   6.672
16267TIP3   OH248680   0.846   6.692   6.187
16267TIP3    H148681   0.760   6.738   6.203
16267TIP3    H248682   0.831   6.608   6.235
16268TIP3   OH248683   0.817   8.344   5.850
16268TIP3    H148684   0.813   8.246   5.863
16268TIP3    H248685   0.774   8.350   5.765
16269TIP3   OH248686   1.107   6.928   7.564
16269TIP3    H148687   1.128   6.896   7.654
16269TIP3    H248688   1.194   6.924   7.520
16270TIP3   OH248689   1.055   8.475   7.007
16270TIP3    H148690   0.969   8.434   7.019
16270TIP3    H248691   1.043   8.558   7.055
16271TIP3   OH248692   2.311   7.855   5.823
16271TIP3    H148693   2.285   7.947   5.804
16271TIP3    H248694   2.233   7.808   5.791
16272TIP3   OH248695   2.307   7.855   6.199
16272TIP3    H148696   2.338   7.822   6.285
16272TIP3    H248697   2.267   7.776   6.160
16273TIP3   OH248698   1.611   7.753   6.565
16273TIP3    H148699   1.644   7.687   6.629
16273TIP3    H248700   1.685   7.814   6.562
16274TIP3   OH248701   2.549   8.157   5.881
16274TIP3    H148702   2.541   8.085   5.945
16274TIP3    H248703   2.581   8.230   5.937
16275TIP3   OH248704   1.589   8.163   6.276
16275TIP3    H148705   1.564   8.071   6.298
16275TIP3    H248706   1.685   8.160   6.290
16276TIP3   OH248707   1.289   7.367   6.080
16276TIP3    H148708   1.239   7.450   6.092
16276TIP3    H248709   1.217   7.309   6.049
16277TIP3   OH248710   1.348   7.653   6.245
16277TIP3    H148711   1.395   7.576   6.285
16277TIP3    H248712   1.407   7.677   6.173
16278TIP3   OH248713   2.198   8.618   5.899
16278TIP3    H148714   2.248   8.549   5.849
16278TIP3    H248715   2.199   8.581   5.988
16279TIP3   OH248716   2.110   8.080   6.248
16279TIP3    H148717   2.145   8.003   6.201
16279TIP3    H248718   2.195   8.123   6.271
16280TIP3   OH248719   3.118   7.403   6.246
16280TIP3    H148720   3.148   7.484   6.290
16280TIP3    H248721   3.142   7.422   6.153
16281TIP3   OH248722   2.520   7.585   6.285
16281TIP3    H148723   2.563   7.500   6.305
16281TIP3    H248724   2.492   7.570   6.193
16282TIP3   OH248725   1.855   7.242   6.249
16282TIP3    H148726   1.835   7.315   6.187
16282TIP3    H248727   1.808   7.168   6.204
16283TIP3   OH248728   2.550   7.333   5.872
16283TIP3    H148729   2.622   7.316   5.937
16283TIP3    H248730   2.602   7.368   5.798
16284TIP3   OH248731   1.492   7.446   6.354
16284TIP3    H148732   1.575   7.425   6.401
16284TIP3    H248733   1.503   7.389   6.275
16285TIP3   OH248734   1.935   7.643   6.143
16285TIP3    H148735   2.028   7.616   6.159
16285TIP3    H248736   1.894   7.559   6.113
16286TIP3   OH248737   3.194   7.607   6.417
16286TIP3    H148738   3.111   7.657   6.398
16286TIP3    H248739   3.207   7.631   6.510
16287TIP3   OH248740   1.855   7.226   6.682
16287TIP3    H148741   1.794   7.263   6.615
16287TIP3    H248742   1.805   7.244   6.764
16288TIP3   OH248743   2.208   8.078   5.690
16288TIP3    H148744   2.160   8.050   5.611
16288TIP3    H248745   2.164   8.162   5.710
16289TIP3   OH248746   1.963   7.999   6.482
16289TIP3    H148747   1.896   8.061   6.520
16289TIP3    H248748   2.002   8.055   6.411
16290TIP3   OH248749   2.764   7.333   6.039
16290TIP3    H148750   2.762   7.279   6.119
16290TIP3    H248751   2.821   7.407   6.066
16291TIP3   OH248752   1.725   7.341   6.468
16291TIP3    H148753   1.788   7.413   6.490
16291TIP3    H248754   1.773   7.299   6.393
16292TIP3   OH248755   1.787   8.189   6.571
16292TIP3    H148756   1.759   8.276   6.534
16292TIP3    H248757   1.711   8.175   6.632
16293TIP3   OH248758   1.190   7.883   5.811
16293TIP3    H148759   1.144   7.911   5.731
16293TIP3    H248760   1.217   7.968   5.851
16294TIP3   OH248761   2.624   8.398   6.053
16294TIP3    H148762   2.533   8.390   6.091
16294TIP3    H248763   2.617   8.483   6.007
16295TIP3   OH248764   2.913   7.304   6.414
16295TIP3    H148765   2.825   7.334   6.384
16295TIP3    H248766   2.972   7.333   6.342
16296TIP3   OH248767   2.215   6.948   6.394
16296TIP3    H148768   2.204   6.853   6.410
16296TIP3    H248769   2.137   6.984   6.441
16297TIP3   OH248770   2.331   8.449   5.729
16297TIP3    H148771   2.379   8.366   5.707
16297TIP3    H248772   2.391   8.514   5.685
16298TIP3   OH248773   2.471   8.233   5.628
16298TIP3    H148774   2.427   8.155   5.591
16298TIP3    H248775   2.504   8.197   5.714
16299TIP3   OH248776   2.850   8.316   6.395
16299TIP3    H148777   2.841   8.237   6.336
16299TIP3    H248778   2.837   8.389   6.331
16300TIP3   OH248779   2.141   7.707   5.649
16300TIP3    H148780   2.061   7.758   5.626
16300TIP3    H248781   2.189   7.704   5.564
16301TIP3   OH248782   2.099   7.492   5.371
16301TIP3    H148783   2.169   7.539   5.419
16301TIP3    H248784   2.154   7.426   5.323
16302TIP3   OH248785   3.045   7.948   6.238
16302TIP3    H148786   2.964   8.002   6.244
16302TIP3    H248787   3.075   7.972   6.147
16303TIP3   OH248788   2.488   7.790   5.624
16303TIP3    H148789   2.434   7.815   5.703
16303TIP3    H248790   2.572   7.763   5.667
16304TIP3   OH248791   2.725   7.832   6.531
16304TIP3    H148792   2.722   7.915   6.581
16304TIP3    H248793   2.638   7.834   6.486
16305TIP3   OH248794   1.723   7.790   6.038
16305TIP3    H148795   1.680   7.731   5.972
16305TIP3    H248796   1.799   7.735   6.066
16306TIP3   OH248797   1.863   8.209   6.182
16306TIP3    H148798   1.831   8.153   6.111
16306TIP3    H248799   1.950   8.168   6.202
16307TIP3   OH248800   1.863   7.757   6.394
16307TIP3    H148801   1.893   7.741   6.302
16307TIP3    H248802   1.902   7.845   6.415
16308TIP3   OH248803   2.380   8.398   6.170
16308TIP3    H148804   2.371   8.475   6.229
16308TIP3    H248805   2.370   8.322   6.231
16309TIP3   OH248806   1.992   8.318   6.717
16309TIP3    H148807   1.931   8.379   6.763
16309TIP3    H248808   1.927   8.264   6.668
16310TIP3   OH248809   2.332   7.648   5.449
16310TIP3    H148810   2.390   7.706   5.503
16310TIP3    H248811   2.358   7.676   5.358
16311TIP3   OH248812   1.749   7.875   6.813
16311TIP3    H148813   1.752   7.959   6.863
16311TIP3    H248814   1.653   7.854   6.822
16312TIP3   OH248815   2.070   8.330   5.719
16312TIP3    H148816   2.146   8.383   5.749
16312TIP3    H248817   2.007   8.398   5.690
16313TIP3   OH248818   1.789   8.492   6.805
16313TIP3    H148819   1.755   8.480   6.714
16313TIP3    H248820   1.712   8.464   6.859
16314TIP3   OH248821   2.847   6.892   5.496
16314TIP3    H148822   2.765   6.908   5.548
16314TIP3    H248823   2.855   6.976   5.447
16315TIP3   OH248824   1.588   7.630   5.845
16315TIP3    H148825   1.523   7.674   5.786
16315TIP3    H248826   1.545   7.545   5.860
16316TIP3   OH248827   2.643   8.256   5.043
16316TIP3    H148828   2.652   8.353   5.031
16316TIP3    H248829   2.737   8.228   5.032
16317TIP3   OH248830   1.375   8.015   6.760
16317TIP3    H148831   1.325   8.008   6.678
16317TIP3    H248832   1.406   7.924   6.776
16318TIP3   OH248833   3.087   8.655   6.439
16318TIP3    H148834   3.087   8.558   6.451
16318TIP3    H248835   3.004   8.680   6.485
16319TIP3   OH248836   2.193   8.446   6.574
16319TIP3    H148837   2.193   8.538   6.608
16319TIP3    H248838   2.120   8.407   6.628
16320TIP3   OH248839   1.950   8.575   5.526
16320TIP3    H148840   1.906   8.558   5.441
16320TIP3    H248841   1.922   8.666   5.547
16321TIP3   OH248842   1.391   8.425   5.907
16321TIP3    H148843   1.443   8.412   5.990
16321TIP3    H248844   1.330   8.350   5.914
16322TIP3   OH248845   2.155   8.470   5.168
16322TIP3    H148846   2.216   8.403   5.132
16322TIP3    H248847   2.190   8.483   5.259
16323TIP3   OH248848   2.202   8.521   5.438
16323TIP3    H148849   2.116   8.531   5.484
16323TIP3    H248850   2.256   8.480   5.508
16324TIP3   OH248851   2.977   7.790   6.714
16324TIP3    H148852   2.899   7.804   6.658
16324TIP3    H248853   2.993   7.694   6.703
16325TIP3   OH248854   1.586   8.195   6.751
16325TIP3    H148855   1.625   8.163   6.835
16325TIP3    H248856   1.501   8.146   6.747
16326TIP3   OH248857   1.974   7.021   6.521
16326TIP3    H148858   1.884   6.990   6.498
16326TIP3    H248859   1.950   7.105   6.565
16327TIP3   OH248860   2.506   7.138   6.717
16327TIP3    H148861   2.574   7.110   6.782
16327TIP3    H248862   2.422   7.117   6.762
16328TIP3   OH248863   2.749   7.565   6.636
16328TIP3    H148864   2.700   7.561   6.721
16328TIP3    H248865   2.723   7.653   6.601
16329TIP3   OH248866   2.403   7.704   5.192
16329TIP3    H148867   2.377   7.667   5.105
16329TIP3    H248868   2.487   7.748   5.169
16330TIP3   OH248869   2.120   7.074   5.494
16330TIP3    H148870   2.088   7.070   5.586
16330TIP3    H248871   2.083   6.989   5.461
16331TIP3   OH248872   1.905   7.536   6.543
16331TIP3    H148873   1.853   7.558   6.623
16331TIP3    H248874   1.890   7.616   6.488
16332TIP3   OH248875   1.789   7.422   6.057
16332TIP3    H148876   1.696   7.396   6.073
16332TIP3    H248877   1.803   7.382   5.968
16333TIP3   OH248878   2.280   7.509   5.783
16333TIP3    H148879   2.225   7.580   5.743
16333TIP3    H248880   2.334   7.481   5.706
16334TIP3   OH248881   2.454   7.792   6.875
16334TIP3    H148882   2.432   7.717   6.934
16334TIP3    H248883   2.549   7.802   6.892
16335TIP3   OH248884   2.439   7.540   6.024
16335TIP3    H148885   2.380   7.569   5.952
16335TIP3    H248886   2.470   7.456   5.984
16336TIP3   OH248887   1.726   7.566   6.751
16336TIP3    H148888   1.745   7.631   6.821
16336TIP3    H248889   1.712   7.484   6.803
16337TIP3   OH248890   1.774   7.043   5.460
16337TIP3    H148891   1.770   7.038   5.558
16337TIP3    H248892   1.692   7.091   5.441
16338TIP3   OH248893   1.317   7.090   6.331
16338TIP3    H148894   1.394   7.119   6.384
16338TIP3    H248895   1.357   7.054   6.250
16339TIP3   OH248896   1.297   7.070   5.851
16339TIP3    H148897   1.343   7.109   5.774
16339TIP3    H248898   1.235   7.142   5.873
16340TIP3   OH248899   2.449   7.786   6.448
16340TIP3    H148900   2.481   7.713   6.391
16340TIP3    H248901   2.420   7.735   6.527
16341TIP3   OH248902   2.113   7.249   6.119
16341TIP3    H148903   2.030   7.243   6.170
16341TIP3    H248904   2.180   7.247   6.190
16342TIP3   OH248905   1.551   7.299   6.127
16342TIP3    H148906   1.456   7.307   6.101
16342TIP3    H248907   1.573   7.207   6.104
16343TIP3   OH248908   1.823   7.299   5.814
16343TIP3    H148909   1.918   7.312   5.794
16343TIP3    H248910   1.778   7.322   5.730
16344TIP3   OH248911   2.607   7.322   6.319
16344TIP3    H148912   2.570   7.332   6.410
16344TIP3    H248913   2.545   7.257   6.281
16345TIP3   OH248914   1.657   7.330   5.594
16345TIP3    H148915   1.582   7.288   5.548
16345TIP3    H248916   1.708   7.364   5.518
16346TIP3   OH248917   2.773   9.012   6.537
16346TIP3    H148918   2.775   9.030   6.441
16346TIP3    H248919   2.855   9.056   6.567
16347TIP3   OH248920   1.739   8.113   6.969
16347TIP3    H148921   1.817   8.149   7.016
16347TIP3    H248922   1.673   8.116   7.042
16348TIP3   OH248923   2.201   7.572   6.216
16348TIP3    H148924   2.272   7.531   6.164
16348TIP3    H248925   2.213   7.531   6.303
16349TIP3   OH248926   1.727   7.062   6.090
16349TIP3    H148927   1.695   6.981   6.134
16349TIP3    H248928   1.782   7.026   6.019
16350TIP3   OH248929   2.177   7.465   6.507
16350TIP3    H148930   2.088   7.503   6.519
16350TIP3    H248931   2.235   7.526   6.558
16351TIP3   OH248932   1.913   7.862   5.598
16351TIP3    H148933   1.842   7.796   5.589
16351TIP3    H248934   1.898   7.896   5.690
16352TIP3   OH248935   2.816   8.098   6.232
16352TIP3    H148936   2.840   8.145   6.149
16352TIP3    H248937   2.731   8.056   6.208
16353TIP3   OH248938   2.371   7.177   5.455
16353TIP3    H148939   2.275   7.159   5.466
16353TIP3    H248940   2.382   7.269   5.484
16354TIP3   OH248941   2.318   8.181   6.596
16354TIP3    H148942   2.329   8.149   6.687
16354TIP3    H248943   2.273   8.266   6.607
16355TIP3   OH248944   2.443   7.419   5.563
16355TIP3    H148945   2.539   7.424   5.581
16355TIP3    H248946   2.427   7.499   5.510
16356TIP3   OH248947   1.605   7.878   6.280
16356TIP3    H148948   1.642   7.851   6.194
16356TIP3    H248949   1.642   7.811   6.340
16357TIP3   OH248950   2.072   8.018   5.420
16357TIP3    H148951   2.017   8.099   5.424
16357TIP3    H248952   2.015   7.954   5.466
16358TIP3   OH248953   1.490   7.795   6.890
16358TIP3    H148954   1.506   7.783   6.986
16358TIP3    H248955   1.418   7.731   6.873
16359TIP3   OH248956   2.209   7.916   6.909
16359TIP3    H148957   2.150   7.857   6.858
16359TIP3    H248958   2.297   7.882   6.882
16360TIP3   OH248959   2.475   8.444   6.490
16360TIP3    H148960   2.379   8.434   6.503
16360TIP3    H248961   2.500   8.493   6.570
16361TIP3   OH248962   2.885   7.506   5.402
16361TIP3    H148963   2.822   7.461   5.342
16361TIP3    H248964   2.883   7.595   5.360
16362TIP3   OH248965   3.101   8.364   6.484
16362TIP3    H148966   3.003   8.360   6.475
16362TIP3    H248967   3.127   8.335   6.394
16363TIP3   OH248968   2.571   8.328   5.305
16363TIP3    H148969   2.564   8.259   5.372
16363TIP3    H248970   2.598   8.279   5.225
16364TIP3   OH248971   2.579   7.958   6.153
16364TIP3    H148972   2.486   7.931   6.165
16364TIP3    H248973   2.615   7.880   6.107
16365TIP3   OH248974   1.704   8.182   5.896
16365TIP3    H148975   1.704   8.266   5.846
16365TIP3    H248976   1.611   8.171   5.916
16366TIP3   OH248977   1.267   7.490   5.600
16366TIP3    H148978   1.315   7.573   5.623
16366TIP3    H248979   1.191   7.495   5.663
16367TIP3   OH248980   1.851   7.953   5.846
16367TIP3    H148981   1.813   8.041   5.864
16367TIP3    H248982   1.814   7.901   5.920
16368TIP3   OH248983   1.974   8.535   6.371
16368TIP3    H148984   2.021   8.600   6.315
16368TIP3    H248985   2.048   8.495   6.419
16369TIP3   OH248986   1.626   8.424   5.754
16369TIP3    H148987   1.540   8.430   5.800
16369TIP3    H248988   1.655   8.518   5.755
16370TIP3   OH248989   2.368   8.165   6.328
16370TIP3    H148990   2.360   8.161   6.426
16370TIP3    H248991   2.446   8.109   6.313
16371TIP3   OH248992   2.319   8.040   5.216
16371TIP3    H148993   2.385   8.024   5.287
16371TIP3    H248994   2.238   8.028   5.270
16372TIP3   OH248995   2.611   8.703   6.383
16372TIP3    H148996   2.536   8.642   6.374
16372TIP3    H248997   2.597   8.765   6.309
16373TIP3   OH248998   2.677   8.531   5.033
16373TIP3    H148999   2.719   8.602   4.980
16373TIP3    H249000   2.598   8.581   5.063
16374TIP3   OH249001   1.699   7.309   6.900
16374TIP3    H149002   1.603   7.315   6.914
16374TIP3    H249003   1.725   7.246   6.970
16375TIP3   OH249004   2.496   7.989   5.423
16375TIP3    H149005   2.484   7.926   5.497
16375TIP3    H249006   2.594   7.988   5.416
16376TIP3   OH249007   1.718   8.030   5.209
16376TIP3    H149008   1.716   7.936   5.184
16376TIP3    H249009   1.695   8.024   5.304
16377TIP3   OH249010   1.652   8.042   5.478
16377TIP3    H149011   1.718   8.011   5.542
16377TIP3    H249012   1.657   8.140   5.490
16378TIP3   OH249013   1.389   7.737   5.685
16378TIP3    H149014   1.323   7.780   5.744
16378TIP3    H249015   1.403   7.808   5.620
16379TIP3   OH249016   2.530   7.374   6.579
16379TIP3    H149017   2.612   7.410   6.617
16379TIP3    H249018   2.516   7.293   6.632
16380TIP3   OH249019   2.409   7.129   5.740
16380TIP3    H149020   2.399   7.152   5.646
16380TIP3    H249021   2.450   7.210   5.777
16381TIP3   OH249022   1.913   8.241   5.421
16381TIP3    H149023   1.830   8.264   5.466
16381TIP3    H249024   1.934   8.327   5.381
16382TIP3   OH249025   2.106   7.302   5.844
16382TIP3    H149026   2.172   7.373   5.827
16382TIP3    H249027   2.109   7.296   5.942
16383TIP3   OH249028   2.373   7.625   6.654
16383TIP3    H149029   2.389   7.677   6.735
16383TIP3    H249030   2.429   7.546   6.669
16384TIP3   OH249031   2.251   7.036   5.950
16384TIP3    H149032   2.246   7.112   6.011
16384TIP3    H249033   2.309   7.073   5.880
16385TIP3   OH249034   1.657   8.315   5.498
16385TIP3    H149035   1.626   8.384   5.435
16385TIP3    H249036   1.640   8.358   5.585
16386TIP3   OH249037   1.760   7.027   5.737
16386TIP3    H149038   1.758   7.117   5.774
16386TIP3    H249039   1.855   7.006   5.746
16387TIP3   OH249040   3.016   7.523   6.633
16387TIP3    H149041   2.918   7.521   6.640
16387TIP3    H249042   3.027   7.484   6.545
16388TIP3   OH249043   2.665   7.719   6.022
16388TIP3    H149044   2.590   7.657   6.034
16388TIP3    H249045   2.738   7.672   6.068
16389TIP3   OH249046   1.375   7.950   5.493
16389TIP3    H149047   1.436   8.025   5.503
16389TIP3    H249048   1.424   7.898   5.426
16390TIP3   OH249049   1.324   7.222   5.623
16390TIP3    H149050   1.319   7.320   5.618
16390TIP3    H249051   1.237   7.196   5.592
16391TIP3   OH249052   2.632   8.671   5.974
16391TIP3    H149053   2.590   8.719   5.898
16391TIP3    H249054   2.726   8.690   5.954
16392TIP3   OH249055   1.709   6.942   6.502
16392TIP3    H149056   1.677   6.909   6.415
16392TIP3    H249057   1.698   6.863   6.558
16393TIP3   OH249058   1.252   8.164   5.887
16393TIP3    H149059   1.170   8.193   5.929
16393TIP3    H249060   1.237   8.198   5.796
16394TIP3   OH249061   1.398   8.691   6.955
16394TIP3    H149062   1.488   8.687   6.994
16394TIP3    H249063   1.378   8.596   6.944
16395TIP3   OH249064   1.895   8.670   6.992
16395TIP3    H149065   1.986   8.638   6.997
16395TIP3    H249066   1.860   8.613   6.921
16396TIP3   OH249067   1.870   8.240   5.122
16396TIP3    H149068   1.804   8.177   5.160
16396TIP3    H249069   1.951   8.206   5.162
16397TIP3   OH249070   2.520   8.575   6.732
16397TIP3    H149071   2.515   8.502   6.797
16397TIP3    H249072   2.603   8.620   6.757
16398TIP3   OH249073   2.298   8.278   5.029
16398TIP3    H149074   2.354   8.229   5.091
16398TIP3    H249075   2.356   8.289   4.952
16399TIP3   OH249076   1.537   8.106   7.157
16399TIP3    H149077   1.554   8.010   7.156
16399TIP3    H249078   1.451   8.110   7.108
16400TIP3   OH249079   1.512   7.761   5.341
16400TIP3    H149080   1.562   7.724   5.416
16400TIP3    H249081   1.582   7.763   5.273
16401TIP3   OH249082   2.143   8.190   6.924
16401TIP3    H149083   2.099   8.201   6.838
16401TIP3    H249084   2.174   8.097   6.920
16402TIP3   OH249085   2.637   8.195   6.531
16402TIP3    H149086   2.709   8.242   6.486
16402TIP3    H249087   2.563   8.257   6.518
16403TIP3   OH249088   1.653   7.839   7.133
16403TIP3    H149089   1.725   7.778   7.115
16403TIP3    H249090   1.677   7.871   7.222
16404TIP3   OH249091   1.722   7.661   5.569
16404TIP3    H149092   1.694   7.619   5.652
16404TIP3    H249093   1.756   7.584   5.518
16405TIP3   OH249094   1.990   7.727   6.798
16405TIP3    H149095   1.910   7.785   6.801
16405TIP3    H249096   2.034   7.758   6.716
16406TIP3   OH249097   1.818   7.453   5.409
16406TIP3    H149098   1.793   7.450   5.315
16406TIP3    H249099   1.916   7.460   5.402
16407TIP3   OH249100   2.508   8.130   6.932
16407TIP3    H149101   2.586   8.107   6.880
16407TIP3    H249102   2.505   8.057   6.997
16408TIP3   OH249103   2.640   7.790   5.067
16408TIP3    H149104   2.622   7.739   4.985
16408TIP3    H249105   2.613   7.879   5.038
16409TIP3   OH249106   2.112   7.512   6.924
16409TIP3    H149107   2.111   7.431   6.869
16409TIP3    H249108   2.068   7.577   6.865
16410TIP3   OH249109   2.114   7.298   6.728
16410TIP3    H149110   2.141   7.339   6.643
16410TIP3    H249111   2.020   7.276   6.710
16411TIP3   OH249112   2.148   7.839   6.601
16411TIP3    H149113   2.226   7.841   6.544
16411TIP3    H249114   2.090   7.905   6.558
16412TIP3   OH249115   2.728   7.805   6.985
16412TIP3    H149116   2.774   7.720   6.995
16412TIP3    H249117   2.798   7.861   6.950
16413TIP3   OH249118   2.767   8.056   6.721
16413TIP3    H149119   2.709   8.107   6.660
16413TIP3    H249120   2.854   8.074   6.680
16414TIP3   OH249121   1.988   7.631   7.149
16414TIP3    H149122   1.919   7.563   7.163
16414TIP3    H249123   2.024   7.604   7.063
16415TIP3   OH249124   2.247   7.064   6.792
16415TIP3    H149125   2.198   7.147   6.771
16415TIP3    H249126   2.177   6.997   6.781
16416TIP3   OH249127   2.372   7.572   7.011
16416TIP3    H149128   2.364   7.559   7.107
16416TIP3    H249129   2.282   7.545   6.983
16417TIP3   OH249130   2.613   7.520   6.866
16417TIP3    H149131   2.537   7.519   6.927
16417TIP3    H249132   2.686   7.487   6.923
16418TIP3   OH249133   2.841   7.456   7.018
16418TIP3    H149134   2.853   7.361   7.039
16418TIP3    H249135   2.838   7.498   7.107
16419TIP3   OH249136   1.829   7.410   7.201
16419TIP3    H149137   1.837   7.320   7.164
16419TIP3    H249138   1.864   7.396   7.291
16420TIP3   OH249139   2.343   7.074   7.049
16420TIP3    H149140   2.411   7.004   7.045
16420TIP3    H249141   2.303   7.066   6.960
16421TIP3   OH249142   2.407   7.288   7.210
16421TIP3    H149143   2.384   7.218   7.146
16421TIP3    H249144   2.330   7.349   7.203
16422TIP3   OH249145   1.625   8.516   5.310
16422TIP3    H149146   1.720   8.520   5.292
16422TIP3    H249147   1.591   8.563   5.231
16423TIP3   OH249148   1.106   7.899   5.527
16423TIP3    H149149   1.201   7.922   5.516
16423TIP3    H249150   1.103   7.810   5.487
16424TIP3   OH249151   1.027   8.508   5.933
16424TIP3    H149152   0.956   8.448   5.903
16424TIP3    H249153   1.066   8.456   6.007
16425TIP3   OH249154   1.155   8.369   6.128
16425TIP3    H149155   1.151   8.291   6.184
16425TIP3    H249156   1.216   8.424   6.182
16426TIP3   OH249157   2.880   8.769   5.926
16426TIP3    H149158   2.914   8.802   6.011
16426TIP3    H249159   2.943   8.807   5.863
16427TIP3   OH249160   2.912   8.786   6.211
16427TIP3    H149161   2.874   8.696   6.204
16427TIP3    H249162   2.992   8.766   6.262
16428TIP3   OH249163   2.960   8.462   6.780
16428TIP3    H149164   2.887   8.470   6.845
16428TIP3    H249165   3.002   8.551   6.786
16429TIP3   OH249166   2.776   7.976   5.403
16429TIP3    H149167   2.847   8.038   5.376
16429TIP3    H249168   2.816   7.935   5.482
16430TIP3   OH249169   2.902   7.843   5.605
16430TIP3    H149170   2.839   7.799   5.666
16430TIP3    H249171   2.969   7.881   5.666
16431TIP3   OH249172   2.954   8.230   6.037
16431TIP3    H149173   3.010   8.169   5.986
16431TIP3    H249174   2.947   8.307   5.977
16432TIP3   OH249175   2.792   8.533   6.234
16432TIP3    H149176   2.720   8.572   6.287
16432TIP3    H249177   2.743   8.483   6.165
16433TIP3   OH249178   2.842   7.749   5.254
16433TIP3    H149179   2.770   7.754   5.188
16433TIP3    H249180   2.818   7.825   5.311
16434TIP3   OH249181   2.712   7.423   5.210
16434TIP3    H149182   2.673   7.460   5.130
16434TIP3    H249183   2.686   7.328   5.202
16435TIP3   OH249184   2.719   7.696   5.754
16435TIP3    H149185   2.728   7.599   5.750
16435TIP3    H249186   2.707   7.711   5.851
16436TIP3   OH249187   1.346   7.775   6.500
16436TIP3    H149188   1.342   7.747   6.406
16436TIP3    H249189   1.443   7.774   6.515
16437TIP3   OH249190   3.008   8.122   6.609
16437TIP3    H149191   3.081   8.056   6.602
16437TIP3    H249192   3.037   8.192   6.548
16438TIP3   OH249193   3.194   7.931   6.635
16438TIP3    H149194   3.120   7.878   6.672
16438TIP3    H249195   3.267   7.867   6.646
16439TIP3   OH249196   2.657   7.157   5.196
16439TIP3    H149197   2.735   7.127   5.247
16439TIP3    H249198   2.587   7.097   5.224
16440TIP3   OH249199   2.714   7.412   5.650
16440TIP3    H149200   2.753   7.323   5.666
16440TIP3    H249201   2.775   7.444   5.581
16441TIP3   OH249202   2.878   7.592   6.143
16441TIP3    H149203   2.965   7.618   6.104
16441TIP3    H249204   2.892   7.626   6.234
16442TIP3   OH249205   2.944   7.731   6.378
16442TIP3    H149206   2.865   7.766   6.424
16442TIP3    H249207   2.977   7.810   6.332
16443TIP3   OH249208   1.562   7.460   7.176
16443TIP3    H149209   1.660   7.452   7.175
16443TIP3    H249210   1.538   7.376   7.218
16444TIP3   OH249211   3.398   7.320   6.933
16444TIP3    H149212   3.455   7.254   6.889
16444TIP3    H249213   3.371   7.377   6.859
16445TIP3   OH249214   2.823   7.163   5.687
16445TIP3    H149215   2.873   7.147   5.770
16445TIP3    H249216   2.764   7.084   5.686
16446TIP3   OH249217   1.524   7.149   6.505
16446TIP3    H149218   1.587   7.075   6.516
16446TIP3    H249219   1.586   7.224   6.501
16447TIP3   OH249220   1.331   7.424   6.580
16447TIP3    H149221   1.379   7.417   6.495
16447TIP3    H249222   1.358   7.511   6.610
16448TIP3   OH249223   3.271   7.465   6.741
16448TIP3    H149224   3.183   7.501   6.761
16448TIP3    H249225   3.246   7.393   6.680
16449TIP3   OH249226   2.907   7.103   5.314
16449TIP3    H149227   2.947   7.026   5.269
16449TIP3    H249228   2.978   7.169   5.308
16450TIP3   OH249229   1.309   6.930   6.081
16450TIP3    H149230   1.215   6.927   6.105
16450TIP3    H249231   1.308   6.987   6.001
16451TIP3   OH249232   2.467   8.631   5.584
16451TIP3    H149233   2.517   8.612   5.502
16451TIP3    H249234   2.525   8.696   5.627
16452TIP3   OH249235   1.530   7.008   6.895
16452TIP3    H149236   1.479   7.002   6.978
16452TIP3    H249237   1.463   7.046   6.835
16453TIP3   OH249238   1.579   8.438   6.981
16453TIP3    H149239   1.492   8.407   6.947
16453TIP3    H249240   1.574   8.408   7.073
16454TIP3   OH249241   1.753   8.462   6.524
16454TIP3    H149242   1.692   8.527   6.487
16454TIP3    H249243   1.834   8.484   6.474
16455TIP3   OH249244   2.198   8.714   6.661
16455TIP3    H149245   2.242   8.715   6.748
16455TIP3    H249246   2.263   8.761   6.606
16456TIP3   OH249247   2.373   8.863   6.511
16456TIP3    H149248   2.443   8.810   6.469
16456TIP3    H249249   2.426   8.918   6.572
16457TIP3   OH249250   3.167   7.226   6.616
16457TIP3    H149251   3.075   7.222   6.582
16457TIP3    H249252   3.195   7.132   6.603
16458TIP3   OH249253   1.431   8.737   6.530
16458TIP3    H149254   1.339   8.755   6.504
16458TIP3    H249255   1.420   8.723   6.625
16459TIP3   OH249256   1.666   8.711   6.399
16459TIP3    H149257   1.582   8.720   6.449
16459TIP3    H249258   1.636   8.732   6.309
16460TIP3   OH249259   2.089   8.733   6.197
16460TIP3    H149260   2.021   8.753   6.130
16460TIP3    H249261   2.103   8.821   6.237
16461TIP3   OH249262   2.356   8.674   6.250
16461TIP3    H149263   2.262   8.688   6.225
16461TIP3    H249264   2.401   8.746   6.204
16462TIP3   OH249265   2.562   8.865   6.164
16462TIP3    H149266   2.551   8.949   6.115
16462TIP3    H249267   2.591   8.804   6.093
16463TIP3   OH249268   1.343   8.507   6.278
16463TIP3    H149269   1.341   8.459   6.363
16463TIP3    H249270   1.415   8.458   6.232
16464TIP3   OH249271   1.536   8.381   6.131
16464TIP3    H149272   1.549   8.297   6.183
16464TIP3    H249273   1.627   8.417   6.132
16465TIP3   OH249274   1.800   8.488   6.143
16465TIP3    H149275   1.829   8.396   6.127
16465TIP3    H249276   1.840   8.502   6.231
16466TIP3   OH249277   2.370   7.141   6.231
16466TIP3    H149278   2.327   7.073   6.286
16466TIP3    H249279   2.442   7.091   6.187
16467TIP3   OH249280   2.898   7.023   6.143
16467TIP3    H149281   2.935   7.073   6.066
16467TIP3    H249282   2.802   7.037   6.133
16468TIP3   OH249283   2.991   7.124   5.904
16468TIP3    H149284   3.063   7.071   5.863
16468TIP3    H249285   3.025   7.215   5.888
16469TIP3   OH249286   1.622   6.850   6.253
16469TIP3    H149287   1.529   6.817   6.252
16469TIP3    H249288   1.671   6.765   6.248
16470TIP3   OH249289   1.404   6.717   5.896
16470TIP3    H149290   1.436   6.776   5.826
16470TIP3    H249291   1.375   6.781   5.964
16471TIP3   OH249292   2.061   6.884   6.130
16471TIP3    H149293   2.122   6.933   6.073
16471TIP3    H249294   2.082   6.919   6.218
16472TIP3   OH249295   2.615   7.027   6.115
16472TIP3    H149296   2.610   6.992   6.025
16472TIP3    H249297   2.599   6.946   6.169
16473TIP3   OH249298   2.641   6.948   5.676
16473TIP3    H149299   2.551   6.986   5.683
16473TIP3    H249300   2.628   6.864   5.725
16474TIP3   OH249301   1.126   8.285   5.680
16474TIP3    H149302   1.040   8.253   5.646
16474TIP3    H249303   1.114   8.380   5.669
16475TIP3   OH249304   1.522   6.880   5.661
16475TIP3    H149305   1.571   6.816   5.607
16475TIP3    H249306   1.594   6.933   5.699
16476TIP3   OH249307   2.036   7.052   5.761
16476TIP3    H149308   2.096   7.003   5.820
16476TIP3    H249309   2.060   7.144   5.787
16477TIP3   OH249310   1.896   8.483   5.261
16477TIP3    H149311   1.986   8.503   5.226
16477TIP3    H249312   1.870   8.411   5.200
16478TIP3   OH249313   2.610   8.593   5.352
16478TIP3    H149314   2.600   8.496   5.337
16478TIP3    H249315   2.571   8.629   5.270
16479TIP3   OH249316   1.829   7.130   7.141
16479TIP3    H149317   1.796   7.060   7.199
16479TIP3    H249318   1.923   7.131   7.168
16480TIP3   OH249319   2.077   7.127   7.261
16480TIP3    H149320   2.162   7.102   7.221
16480TIP3    H249321   2.066   7.057   7.328
16481TIP3   OH249322   1.200   8.316   5.321
16481TIP3    H149323   1.198   8.347   5.412
16481TIP3    H249324   1.289   8.277   5.312
16482TIP3   OH249325   2.901   7.186   7.050
16482TIP3    H149326   2.921   7.154   7.140
16482TIP3    H249327   2.989   7.182   7.007
16483TIP3   OH249328   2.841   8.742   6.544
16483TIP3    H149329   2.763   8.710   6.495
16483TIP3    H249330   2.824   8.838   6.542
16484TIP3   OH249331   4.107   8.111   5.311
16484TIP3    H149332   4.080   8.203   5.292
16484TIP3    H249333   4.029   8.064   5.276
16485TIP3   OH249334   4.105   8.112   5.684
16485TIP3    H149335   4.133   8.080   5.772
16485TIP3    H249336   4.064   8.033   5.646
16486TIP3   OH249337   3.406   8.011   6.054
16486TIP3    H149338   3.440   7.944   6.117
16486TIP3    H249339   3.485   8.067   6.044
16487TIP3   OH249340   4.348   8.411   5.368
16487TIP3    H149341   4.336   8.341   5.433
16487TIP3    H249342   4.374   8.487   5.423
16488TIP3   OH249343   3.374   8.415   5.782
16488TIP3    H149344   3.368   8.317   5.785
16488TIP3    H249345   3.470   8.426   5.776
16489TIP3   OH249346   3.084   7.623   5.567
16489TIP3    H149347   3.035   7.707   5.578
16489TIP3    H249348   3.013   7.565   5.534
16490TIP3   OH249349   3.144   7.908   5.731
16490TIP3    H149350   3.192   7.832   5.771
16490TIP3    H249351   3.204   7.934   5.660
16491TIP3   OH249352   3.992   8.876   5.383
16491TIP3    H149353   4.043   8.805   5.339
16491TIP3    H249354   3.990   8.846   5.474
16492TIP3   OH249355   3.906   8.336   5.735
16492TIP3    H149356   3.943   8.261   5.687
16492TIP3    H249357   3.990   8.381   5.759
16493TIP3   OH249358   4.916   7.659   5.733
16493TIP3    H149359   4.944   7.741   5.777
16493TIP3    H249360   4.936   7.679   5.640
16494TIP3   OH249361   4.316   7.841   5.772
16494TIP3    H149362   4.360   7.755   5.791
16494TIP3    H249363   4.288   7.827   5.680
16495TIP3   OH249364   3.651   7.498   5.737
16495TIP3    H149365   3.632   7.571   5.673
16495TIP3    H249366   3.605   7.425   5.691
16496TIP3   OH249367   4.346   7.590   5.360
16496TIP3    H149368   4.420   7.573   5.423
16496TIP3    H249369   4.397   7.625   5.285
16497TIP3   OH249370   3.288   7.702   5.841
16497TIP3    H149371   3.371   7.682   5.888
16497TIP3    H249372   3.300   7.646   5.761
16498TIP3   OH249373   3.730   7.900   5.632
16498TIP3    H149374   3.824   7.874   5.645
16498TIP3    H249375   3.691   7.815   5.600
16499TIP3   OH249376   4.990   7.865   5.904
16499TIP3    H149377   4.908   7.914   5.884
16499TIP3    H249378   5.002   7.888   5.997
16500TIP3   OH249379   3.652   7.483   6.168
16500TIP3    H149380   3.591   7.520   6.102
16500TIP3    H249381   3.601   7.501   6.250
16501TIP3   OH249382   4.000   8.331   5.181
16501TIP3    H149383   3.960   8.309   5.096
16501TIP3    H249384   3.960   8.419   5.199
16502TIP3   OH249385   3.758   8.256   5.968
16502TIP3    H149386   3.693   8.320   6.007
16502TIP3    H249387   3.800   8.310   5.899
16503TIP3   OH249388   4.562   7.589   5.526
16503TIP3    H149389   4.557   7.537   5.607
16503TIP3    H249390   4.617   7.664   5.553
16504TIP3   OH249391   3.520   7.597   5.955
16504TIP3    H149392   3.583   7.669   5.977
16504TIP3    H249393   3.568   7.556   5.879
16505TIP3   OH249394   3.582   8.448   6.061
16505TIP3    H149395   3.558   8.534   6.021
16505TIP3    H249396   3.503   8.435   6.119
16506TIP3   OH249397   2.983   8.140   5.299
16506TIP3    H149398   2.944   8.168   5.214
16506TIP3    H249399   3.013   8.225   5.337
16507TIP3   OH249400   4.421   8.653   5.540
16507TIP3    H149401   4.332   8.642   5.581
16507TIP3    H249402   4.407   8.738   5.494
16508TIP3   OH249403   4.709   7.561   5.901
16508TIP3    H149404   4.621   7.590   5.871
16508TIP3    H249405   4.767   7.590   5.828
16509TIP3   OH249406   4.012   7.204   5.881
16509TIP3    H149407   4.000   7.109   5.897
16509TIP3    H249408   3.933   7.240   5.927
16510TIP3   OH249409   4.128   8.704   5.218
16510TIP3    H149410   4.175   8.622   5.193
16510TIP3    H249411   4.187   8.770   5.173
16511TIP3   OH249412   4.264   8.490   5.117
16511TIP3    H149413   4.235   8.411   5.069
16511TIP3    H249414   4.298   8.450   5.200
16512TIP3   OH249415   4.648   8.572   5.881
16512TIP3    H149416   4.637   8.494   5.822
16512TIP3    H249417   4.631   8.646   5.819
16513TIP3   OH249418   3.938   7.963   5.136
16513TIP3    H149419   3.858   8.015   5.112
16513TIP3    H249420   3.986   7.961   5.052
16514TIP3   OH249421   3.897   7.746   4.858
16514TIP3    H149422   3.966   7.797   4.905
16514TIP3    H249423   3.954   7.682   4.811
16515TIP3   OH249424   4.842   8.205   5.725
16515TIP3    H149425   4.760   8.258   5.732
16515TIP3    H249426   4.871   8.229   5.634
16516TIP3   OH249427   4.284   8.044   5.112
16516TIP3    H149428   4.231   8.071   5.191
16516TIP3    H249429   4.368   8.019   5.155
16517TIP3   OH249430   4.521   8.088   6.018
16517TIP3    H149431   4.518   8.172   6.068
16517TIP3    H249432   4.434   8.092   5.973
16518TIP3   OH249433   3.517   8.046   5.527
16518TIP3    H149434   3.476   7.988   5.460
16518TIP3    H249435   3.595   7.993   5.554
16519TIP3   OH249436   3.646   8.453   5.677
16519TIP3    H149437   3.627   8.408   5.594
16519TIP3    H249438   3.737   8.424   5.696
16520TIP3   OH249439   3.655   8.016   5.881
16520TIP3    H149440   3.688   7.997   5.791
16520TIP3    H249441   3.698   8.101   5.902
16521TIP3   OH249442   4.180   8.651   5.657
16521TIP3    H149443   4.165   8.733   5.709
16521TIP3    H249444   4.165   8.580   5.722
16522TIP3   OH249445   3.791   8.571   6.205
16522TIP3    H149446   3.734   8.635   6.252
16522TIP3    H249447   3.724   8.519   6.157
16523TIP3   OH249448   4.127   7.904   4.935
16523TIP3    H149449   4.186   7.963   4.988
16523TIP3    H249450   4.155   7.929   4.843
16524TIP3   OH249451   3.545   8.131   6.303
16524TIP3    H149452   3.549   8.217   6.350
16524TIP3    H249453   3.449   8.113   6.308
16525TIP3   OH249454   3.866   8.588   5.211
16525TIP3    H149455   3.942   8.642   5.238
16525TIP3    H249456   3.805   8.653   5.173
16526TIP3   OH249457   3.587   8.741   6.288
16526TIP3    H149458   3.550   8.739   6.198
16526TIP3    H249459   3.508   8.721   6.343
16527TIP3   OH249460   4.643   7.147   4.983
16527TIP3    H149461   4.561   7.165   5.035
16527TIP3    H249462   4.653   7.231   4.934
16528TIP3   OH249463   3.383   7.887   5.334
16528TIP3    H149464   3.320   7.931   5.273
16528TIP3    H249465   3.341   7.801   5.345
16529TIP3   OH249466   4.444   8.512   4.530
16529TIP3    H149467   4.457   8.607   4.515
16529TIP3    H249468   4.531   8.476   4.502
16530TIP3   OH249469   3.164   8.271   6.239
16530TIP3    H149470   3.104   8.246   6.167
16530TIP3    H249471   3.202   8.184   6.267
16531TIP3   OH249472   3.019   8.463   5.875
16531TIP3    H149473   3.114   8.454   5.861
16531TIP3    H249474   3.014   8.544   5.927
16532TIP3   OH249475   4.887   8.912   5.927
16532TIP3    H149476   4.882   8.816   5.940
16532TIP3    H249477   4.803   8.940   5.969
16533TIP3   OH249478   3.991   8.702   6.060
16533TIP3    H149479   3.993   8.795   6.092
16533TIP3    H249480   3.921   8.665   6.117
16534TIP3   OH249481   3.746   8.830   5.013
16534TIP3    H149482   3.704   8.813   4.927
16534TIP3    H249483   3.718   8.921   5.034
16535TIP3   OH249484   3.186   8.681   5.395
16535TIP3    H149485   3.238   8.672   5.478
16535TIP3    H249486   3.123   8.607   5.406
16536TIP3   OH249487   3.952   8.730   4.655
16536TIP3    H149488   4.012   8.662   4.617
16536TIP3    H249489   3.987   8.739   4.746
16537TIP3   OH249490   4.000   8.780   4.926
16537TIP3    H149491   3.912   8.789   4.970
16537TIP3    H249492   4.050   8.734   4.995
16538TIP3   OH249493   4.775   8.047   6.200
16538TIP3    H149494   4.696   8.063   6.148
16538TIP3    H249495   4.788   7.951   6.188
16539TIP3   OH249496   3.369   8.454   6.231
16539TIP3    H149497   3.421   8.437   6.312
16539TIP3    H249498   3.297   8.389   6.239
16540TIP3   OH249499   3.770   7.278   6.008
16540TIP3    H149500   3.680   7.247   5.984
16540TIP3    H249501   3.747   7.362   6.052
16541TIP3   OH249502   4.302   7.395   6.204
16541TIP3    H149503   4.369   7.366   6.269
16541TIP3    H249504   4.217   7.373   6.248
16542TIP3   OH249505   4.546   7.823   6.123
16542TIP3    H149506   4.496   7.818   6.208
16542TIP3    H249507   4.520   7.910   6.088
16543TIP3   OH249508   4.202   7.955   4.679
16543TIP3    H149509   4.171   7.927   4.591
16543TIP3    H249510   4.281   8.006   4.654
16544TIP3   OH249511   3.915   7.330   4.980
16544TIP3    H149512   3.884   7.327   5.073
16544TIP3    H249513   3.879   7.245   4.948
16545TIP3   OH249514   3.700   7.793   6.029
16545TIP3    H149515   3.651   7.816   6.110
16545TIP3    H249516   3.686   7.873   5.974
16546TIP3   OH249517   3.586   7.678   5.544
16546TIP3    H149518   3.492   7.653   5.559
16546TIP3    H249519   3.600   7.639   5.455
16547TIP3   OH249520   4.076   7.765   5.269
16547TIP3    H149521   4.022   7.837   5.229
16547TIP3    H249522   4.130   7.738   5.192
16548TIP3   OH249523   4.250   8.046   6.358
16548TIP3    H149524   4.229   7.972   6.420
16548TIP3    H249525   4.343   8.062   6.379
16549TIP3   OH249526   4.234   7.796   5.511
16549TIP3    H149527   4.177   7.827   5.439
16549TIP3    H249528   4.266   7.713   5.470
16550TIP3   OH249529   3.519   7.823   6.239
16550TIP3    H149530   3.548   7.886   6.306
16550TIP3    H249531   3.509   7.741   6.290
16551TIP3   OH249532   3.569   7.299   4.947
16551TIP3    H149533   3.567   7.294   5.045
16551TIP3    H249534   3.487   7.347   4.929
16552TIP3   OH249535   3.113   7.348   5.818
16552TIP3    H149536   3.191   7.376   5.870
16552TIP3    H249537   3.152   7.311   5.737
16553TIP3   OH249538   3.092   7.326   5.338
16553TIP3    H149539   3.140   7.364   5.261
16553TIP3    H249540   3.032   7.399   5.360
16554TIP3   OH249541   4.245   8.042   5.935
16554TIP3    H149542   4.277   7.969   5.878
16554TIP3    H249543   4.216   7.991   6.014
16555TIP3   OH249544   3.909   7.504   5.606
16555TIP3    H149545   3.827   7.499   5.658
16555TIP3    H249546   3.976   7.505   5.677
16556TIP3   OH249547   3.347   7.555   5.615
16556TIP3    H149548   3.253   7.561   5.588
16556TIP3    H249549   3.371   7.464   5.591
16557TIP3   OH249550   3.619   7.557   5.300
16557TIP3    H149551   3.715   7.568   5.281
16557TIP3    H249552   3.576   7.579   5.215
16558TIP3   OH249553   4.404   7.577   5.806
16558TIP3    H149554   4.367   7.588   5.896
16558TIP3    H249555   4.341   7.514   5.768
16559TIP3   OH249556   3.452   7.587   5.080
16559TIP3    H149557   3.379   7.544   5.031
16559TIP3    H249558   3.505   7.622   5.006
16560TIP3   OH249559   4.573   9.264   6.023
16560TIP3    H149560   4.571   9.294   5.930
16560TIP3    H249561   4.641   9.323   6.060
16561TIP3   OH249562   3.531   8.376   6.449
16561TIP3    H149563   3.612   8.405   6.494
16561TIP3    H249564   3.468   8.377   6.523
16562TIP3   OH249565   3.996   7.827   5.702
16562TIP3    H149566   4.068   7.789   5.649
16562TIP3    H249567   4.011   7.787   5.789
16563TIP3   OH249568   3.522   7.319   5.576
16563TIP3    H149569   3.491   7.238   5.621
16563TIP3    H249570   3.578   7.284   5.506
16564TIP3   OH249571   3.973   7.720   5.997
16564TIP3    H149572   3.885   7.761   6.006
16564TIP3    H249573   4.031   7.783   6.045
16565TIP3   OH249574   3.708   8.118   5.087
16565TIP3    H149575   3.636   8.053   5.077
16565TIP3    H249576   3.693   8.151   5.179
16566TIP3   OH249577   4.612   8.353   5.719
16566TIP3    H149578   4.635   8.402   5.636
16566TIP3    H249579   4.526   8.312   5.696
16567TIP3   OH249580   4.169   7.431   4.946
16567TIP3    H149581   4.072   7.417   4.952
16567TIP3    H249582   4.180   7.526   4.969
16568TIP3   OH249583   4.109   8.434   6.085
16568TIP3    H149584   4.129   8.412   6.176
16568TIP3    H249585   4.072   8.524   6.091
16569TIP3   OH249586   4.239   7.676   5.050
16569TIP3    H149587   4.335   7.682   5.066
16569TIP3    H249588   4.222   7.756   4.995
16570TIP3   OH249589   3.399   8.136   5.765
16570TIP3    H149590   3.437   8.110   5.679
16570TIP3    H249591   3.441   8.072   5.826
16571TIP3   OH249592   3.854   8.266   4.905
16571TIP3    H149593   3.808   8.353   4.913
16571TIP3    H249594   3.801   8.212   4.966
16572TIP3   OH249595   3.278   8.062   6.378
16572TIP3    H149596   3.304   8.047   6.471
16572TIP3    H249597   3.213   7.992   6.363
16573TIP3   OH249598   4.005   8.169   6.397
16573TIP3    H149599   3.949   8.113   6.342
16573TIP3    H249600   4.095   8.140   6.369
16574TIP3   OH249601   4.270   8.691   5.978
16574TIP3    H149602   4.174   8.694   5.991
16574TIP3    H249603   4.300   8.743   6.055
16575TIP3   OH249604   4.683   7.764   4.888
16575TIP3    H149605   4.619   7.719   4.828
16575TIP3    H249606   4.679   7.852   4.846
16576TIP3   OH249607   4.898   8.619   5.971
16576TIP3    H149608   4.800   8.618   5.963
16576TIP3    H249609   4.922   8.591   5.880
16577TIP3   OH249610   4.376   8.585   4.793
16577TIP3    H149611   4.359   8.510   4.852
16577TIP3    H249612   4.398   8.542   4.708
16578TIP3   OH249613   4.376   8.214   5.641
16578TIP3    H149614   4.282   8.189   5.652
16578TIP3    H249615   4.410   8.136   5.593
16579TIP3   OH249616   3.500   8.440   5.387
16579TIP3    H149617   3.507   8.522   5.335
16579TIP3    H249618   3.405   8.429   5.394
16580TIP3   OH249619   3.061   7.748   5.085
16580TIP3    H149620   3.112   7.829   5.107
16580TIP3    H249621   2.988   7.753   5.150
16581TIP3   OH249622   3.645   8.209   5.334
16581TIP3    H149623   3.610   8.299   5.351
16581TIP3    H249624   3.608   8.159   5.409
16582TIP3   OH249625   3.769   8.786   5.859
16582TIP3    H149626   3.809   8.859   5.808
16582TIP3    H249627   3.846   8.755   5.909
16583TIP3   OH249628   3.424   8.680   5.242
16583TIP3    H149629   3.337   8.690   5.286
16583TIP3    H249630   3.456   8.773   5.244
16584TIP3   OH249631   4.162   8.419   5.815
16584TIP3    H149632   4.154   8.418   5.914
16584TIP3    H249633   4.243   8.368   5.802
16585TIP3   OH249634   4.129   8.310   4.702
16585TIP3    H149635   4.184   8.287   4.779
16585TIP3    H249636   4.041   8.286   4.735
16586TIP3   OH249637   4.411   8.953   5.865
16586TIP3    H149638   4.330   8.899   5.857
16586TIP3    H249639   4.395   9.022   5.797
16587TIP3   OH249640   4.474   8.789   4.519
16587TIP3    H149641   4.512   8.859   4.463
16587TIP3    H249642   4.394   8.836   4.550
16588TIP3   OH249643   3.496   7.566   6.388
16588TIP3    H149644   3.399   7.570   6.402
16588TIP3    H249645   3.523   7.502   6.456
16589TIP3   OH249646   4.291   8.251   4.920
16589TIP3    H149647   4.283   8.180   4.988
16589TIP3    H249648   4.387   8.247   4.902
16590TIP3   OH249649   3.206   8.651   6.021
16590TIP3    H149650   3.261   8.574   6.045
16590TIP3    H249651   3.244   8.718   6.080
16591TIP3   OH249652   3.499   8.294   4.697
16591TIP3    H149653   3.519   8.204   4.667
16591TIP3    H249654   3.483   8.280   4.792
16592TIP3   OH249655   3.446   8.297   4.972
16592TIP3    H149656   3.519   8.272   5.030
16592TIP3    H249657   3.451   8.395   4.976
16593TIP3   OH249658   3.183   7.992   5.172
16593TIP3    H149659   3.119   8.038   5.230
16593TIP3    H249660   3.201   8.062   5.107
16594TIP3   OH249661   4.327   7.630   6.065
16594TIP3    H149662   4.408   7.667   6.104
16594TIP3    H249663   4.312   7.550   6.119
16595TIP3   OH249664   4.206   7.385   5.227
16595TIP3    H149665   4.194   7.408   5.133
16595TIP3    H249666   4.246   7.467   5.263
16596TIP3   OH249667   3.710   8.495   4.919
16596TIP3    H149668   3.625   8.528   4.954
16596TIP3    H249669   3.730   8.565   4.855
16597TIP3   OH249670   3.902   7.559   5.331
16597TIP3    H149671   3.967   7.629   5.312
16597TIP3    H249672   3.906   7.553   5.429
16598TIP3   OH249673   4.168   7.881   6.141
16598TIP3    H149674   4.185   7.935   6.221
16598TIP3    H249675   4.225   7.803   6.157
16599TIP3   OH249676   4.047   7.294   5.437
16599TIP3    H149677   4.041   7.371   5.497
16599TIP3    H249678   4.106   7.329   5.367
16600TIP3   OH249679   3.450   8.571   4.984
16600TIP3    H149680   3.422   8.640   4.920
16600TIP3    H249681   3.437   8.616   5.070
16601TIP3   OH249682   3.555   7.284   5.224
16601TIP3    H149683   3.556   7.375   5.260
16601TIP3    H249684   3.650   7.262   5.233
16602TIP3   OH249685   4.813   7.778   6.119
16602TIP3    H149686   4.715   7.777   6.128
16602TIP3    H249687   4.822   7.741   6.030
16603TIP3   OH249688   4.461   7.974   5.509
16603TIP3    H149689   4.386   7.914   5.521
16603TIP3    H249690   4.533   7.927   5.556
16604TIP3   OH249691   3.170   8.208   4.979
16604TIP3    H149692   3.232   8.282   4.989
16604TIP3    H249693   3.219   8.155   4.912
16605TIP3   OH249694   3.120   7.479   5.112
16605TIP3    H149695   3.117   7.576   5.104
16605TIP3    H249696   3.034   7.454   5.077
16606TIP3   OH249697   4.426   8.927   5.464
16606TIP3    H149698   4.389   8.975   5.386
16606TIP3    H249699   4.520   8.926   5.443
16607TIP3   OH249700   3.504   7.199   5.989
16607TIP3    H149701   3.474   7.166   5.901
16607TIP3    H249702   3.495   7.120   6.045
16608TIP3   OH249703   3.047   8.414   5.374
16608TIP3    H149704   2.967   8.451   5.414
16608TIP3    H249705   3.040   8.451   5.284
16609TIP3   OH249706   3.197   8.953   6.442
16609TIP3    H149707   3.285   8.953   6.486
16609TIP3    H249708   3.181   8.857   6.436
16610TIP3   OH249709   3.679   8.925   6.484
16610TIP3    H149710   3.775   8.917   6.495
16610TIP3    H249711   3.664   8.868   6.406
16611TIP3   OH249712   3.665   8.499   4.613
16611TIP3    H149713   3.609   8.427   4.649
16611TIP3    H249714   3.740   8.448   4.579
16612TIP3   OH249715   4.328   8.822   6.211
16612TIP3    H149716   4.316   8.757   6.284
16612TIP3    H249717   4.400   8.879   6.245
16613TIP3   OH249718   4.101   8.541   4.522
16613TIP3    H149719   4.152   8.480   4.577
16613TIP3    H249720   4.154   8.544   4.439
16614TIP3   OH249721   3.330   8.362   6.640
16614TIP3    H149722   3.349   8.266   6.641
16614TIP3    H249723   3.243   8.364   6.595
16615TIP3   OH249724   3.305   8.015   4.829
16615TIP3    H149725   3.361   7.982   4.902
16615TIP3    H249726   3.373   8.022   4.758
16616TIP3   OH249727   3.940   8.445   6.412
16616TIP3    H149728   3.899   8.461   6.325
16616TIP3    H249729   3.971   8.353   6.406
16617TIP3   OH249730   3.807   8.211   4.637
16617TIP3    H149731   3.817   8.225   4.733
16617TIP3    H249732   3.810   8.113   4.633
16618TIP3   OH249733   4.432   8.451   6.016
16618TIP3    H149734   4.505   8.500   5.973
16618TIP3    H249735   4.360   8.516   6.007
16619TIP3   OH249736   3.448   8.093   6.619
16619TIP3    H149737   3.524   8.036   6.601
16619TIP3    H249738   3.472   8.128   6.707
16620TIP3   OH249739   3.516   7.916   5.055
16620TIP3    H149740   3.493   7.873   5.138
16620TIP3    H249741   3.553   7.842   5.003
16621TIP3   OH249742   3.783   7.980   6.281
16621TIP3    H149743   3.708   8.042   6.287
16621TIP3    H249744   3.831   8.013   6.202
16622TIP3   OH249745   3.615   7.709   4.896
16622TIP3    H149746   3.589   7.709   4.802
16622TIP3    H249747   3.712   7.716   4.890
16623TIP3   OH249748   4.299   8.383   6.417
16623TIP3    H149749   4.382   8.369   6.370
16623TIP3    H249750   4.303   8.315   6.486
16624TIP3   OH249751   4.440   8.044   4.554
16624TIP3    H149752   4.424   7.998   4.469
16624TIP3    H249753   4.419   8.136   4.526
16625TIP3   OH249754   3.908   7.768   6.410
16625TIP3    H149755   3.908   7.688   6.355
16625TIP3    H249756   3.865   7.834   6.352
16626TIP3   OH249757   3.910   7.554   6.215
16626TIP3    H149758   3.938   7.597   6.131
16626TIP3    H249759   3.816   7.532   6.196
16627TIP3   OH249760   3.942   8.093   6.087
16627TIP3    H149761   4.023   8.099   6.035
16627TIP3    H249762   3.886   8.162   6.046
16628TIP3   OH249763   4.523   8.060   6.473
16628TIP3    H149764   4.574   7.978   6.478
16628TIP3    H249765   4.589   8.122   6.439
16629TIP3   OH249766   4.563   8.310   6.205
16629TIP3    H149767   4.504   8.363   6.146
16629TIP3    H249768   4.650   8.331   6.164
16630TIP3   OH249769   3.783   7.887   6.636
16630TIP3    H149770   3.715   7.818   6.649
16630TIP3    H249771   3.820   7.861   6.549
16631TIP3   OH249772   4.043   7.322   6.281
16631TIP3    H149773   3.995   7.404   6.258
16631TIP3    H249774   3.974   7.254   6.268
16632TIP3   OH249775   4.170   7.826   6.498
16632TIP3    H149776   4.159   7.818   6.594
16632TIP3    H249777   4.079   7.801   6.470
16633TIP3   OH249778   4.409   7.773   6.352
16633TIP3    H149779   4.333   7.777   6.413
16633TIP3    H249780   4.481   7.743   6.411
16634TIP3   OH249781   4.639   7.714   6.505
16634TIP3    H149782   4.649   7.618   6.526
16634TIP3    H249783   4.634   7.755   6.594
16635TIP3   OH249784   3.624   7.667   6.688
16635TIP3    H149785   3.633   7.577   6.651
16635TIP3    H249786   3.659   7.653   6.778
16636TIP3   OH249787   4.137   7.327   6.539
16636TIP3    H149788   4.207   7.260   6.530
16636TIP3    H249789   4.097   7.323   6.449
16637TIP3   OH249790   4.201   7.541   6.704
16637TIP3    H149791   4.180   7.473   6.636
16637TIP3    H249792   4.127   7.604   6.694
16638TIP3   OH249793   3.421   8.771   4.796
16638TIP3    H149794   3.517   8.772   4.779
16638TIP3    H249795   3.391   8.821   4.718
16639TIP3   OH249796   2.903   8.155   5.017
16639TIP3    H149797   2.997   8.180   5.003
16639TIP3    H249798   2.901   8.066   4.975
16640TIP3   OH249799   2.813   8.767   5.428
16640TIP3    H149800   2.748   8.703   5.393
16640TIP3    H249801   2.860   8.713   5.495
16641TIP3   OH249802   2.952   8.625   5.614
16641TIP3    H149803   2.946   8.547   5.671
16641TIP3    H249804   3.005   8.684   5.670
16642TIP3   OH249805   4.709   9.040   5.687
16642TIP3    H149806   4.671   8.950   5.689
16642TIP3    H249807   4.784   9.029   5.747
16643TIP3   OH249808   4.758   8.715   6.269
16643TIP3    H149809   4.682   8.725   6.330
16643TIP3    H249810   4.797   8.805   6.271
16644TIP3   OH249811   4.569   8.232   4.892
16644TIP3    H149812   4.637   8.294   4.857
16644TIP3    H249813   4.616   8.193   4.968
16645TIP3   OH249814   4.702   8.098   5.092
16645TIP3    H149815   4.634   8.056   5.150
16645TIP3    H249816   4.763   8.139   5.156
16646TIP3   OH249817   4.753   8.488   5.526
16646TIP3    H149818   4.806   8.425   5.473
16646TIP3    H249819   4.737   8.561   5.463
16647TIP3   OH249820   4.587   8.789   5.720
16647TIP3    H149821   4.519   8.833   5.775
16647TIP3    H249822   4.533   8.739   5.656
16648TIP3   OH249823   4.636   8.004   4.742
16648TIP3    H149824   4.567   8.009   4.672
16648TIP3    H249825   4.611   8.083   4.794
16649TIP3   OH249826   4.510   7.678   4.699
16649TIP3    H149827   4.474   7.723   4.622
16649TIP3    H249828   4.480   7.585   4.683
16650TIP3   OH249829   4.516   7.953   5.241
16650TIP3    H149830   4.524   7.856   5.236
16650TIP3    H249831   4.503   7.967   5.338
16651TIP3   OH249832   3.142   8.029   5.985
16651TIP3    H149833   3.142   8.001   5.891
16651TIP3    H249834   3.239   8.030   6.003
16652TIP3   OH249835   4.803   8.378   6.095
16652TIP3    H149836   4.878   8.314   6.088
16652TIP3    H249837   4.831   8.450   6.036
16653TIP3   OH249838   4.991   8.187   6.119
16653TIP3    H149839   4.916   8.137   6.158
16653TIP3    H249840   5.064   8.122   6.131
16654TIP3   OH249841   4.455   7.411   4.683
16654TIP3    H149842   4.530   7.383   4.738
16654TIP3    H249843   4.382   7.353   4.711
16655TIP3   OH249844   4.511   7.669   5.138
16655TIP3    H149845   4.551   7.580   5.153
16655TIP3    H249846   4.569   7.702   5.067
16656TIP3   OH249847   4.675   7.847   5.631
16656TIP3    H149848   4.761   7.874   5.591
16656TIP3    H249849   4.688   7.883   5.721
16657TIP3   OH249850   4.740   7.987   5.865
16657TIP3    H149851   4.661   8.022   5.911
16657TIP3    H249852   4.773   8.068   5.819
16658TIP3   OH249853   3.357   7.716   6.661
16658TIP3    H149854   3.455   7.709   6.661
16658TIP3    H249855   3.333   7.632   6.704
16659TIP3   OH249856   5.195   7.577   6.421
16659TIP3    H149857   5.251   7.511   6.376
16659TIP3    H249858   5.166   7.633   6.346
16660TIP3   OH249859   4.620   7.419   5.174
16660TIP3    H149860   4.668   7.403   5.257
16660TIP3    H249861   4.560   7.341   5.172
16661TIP3   OH249862   3.319   7.407   5.994
16661TIP3    H149863   3.381   7.331   6.003
16661TIP3    H249864   3.382   7.481   5.988
16662TIP3   OH249865   3.125   7.682   6.066
16662TIP3    H149866   3.173   7.671   5.982
16662TIP3    H249867   3.157   7.769   6.095
16663TIP3   OH249868   5.067   7.721   6.229
16663TIP3    H149869   4.979   7.759   6.249
16663TIP3    H249870   5.041   7.650   6.166
16664TIP3   OH249871   4.705   7.357   4.805
16664TIP3    H149872   4.743   7.283   4.753
16664TIP3    H249873   4.771   7.428   4.793
16665TIP3   OH249874   3.106   7.190   5.570
16665TIP3    H149875   3.011   7.184   5.591
16665TIP3    H249876   3.105   7.244   5.488
16666TIP3   OH249877   4.268   8.884   5.073
16666TIP3    H149878   4.312   8.863   4.988
16666TIP3    H249879   4.323   8.956   5.105
16667TIP3   OH249880   3.326   7.266   6.383
16667TIP3    H149881   3.275   7.259   6.465
16667TIP3    H249882   3.259   7.302   6.322
16668TIP3   OH249883   3.365   8.690   6.458
16668TIP3    H149884   3.275   8.658   6.443
16668TIP3    H249885   3.377   8.673   6.552
16669TIP3   OH249886   3.541   8.718   6.004
16669TIP3    H149887   3.496   8.796   5.965
16669TIP3    H249888   3.628   8.732   5.962
16670TIP3   OH249889   3.990   8.969   6.140
16670TIP3    H149890   4.031   8.969   6.229
16670TIP3    H249891   4.057   9.020   6.089
16671TIP3   OH249892   4.173   9.115   5.999
16671TIP3    H149893   4.249   9.066   5.965
16671TIP3    H249894   4.218   9.177   6.061
16672TIP3   OH249895   4.963   7.483   6.103
16672TIP3    H149896   4.872   7.481   6.069
16672TIP3    H249897   4.990   7.389   6.089
16673TIP3   OH249898   3.220   8.977   6.029
16673TIP3    H149899   3.134   9.016   6.004
16673TIP3    H249900   3.230   9.011   6.118
16674TIP3   OH249901   3.457   8.955   5.884
16674TIP3    H149902   3.371   8.971   5.930
16674TIP3    H249903   3.439   8.992   5.795
16675TIP3   OH249904   3.883   8.987   5.682
16675TIP3    H149905   3.816   9.013   5.616
16675TIP3    H249906   3.898   9.073   5.728
16676TIP3   OH249907   4.151   8.928   5.729
16676TIP3    H149908   4.055   8.943   5.713
16676TIP3    H249909   4.189   9.012   5.701
16677TIP3   OH249910   4.360   9.125   5.653
16677TIP3    H149911   4.350   9.207   5.600
16677TIP3    H249912   4.378   9.059   5.584
16678TIP3   OH249913   3.130   8.772   5.775
16678TIP3    H149914   3.160   8.751   5.866
16678TIP3    H249915   3.204   8.730   5.724
16679TIP3   OH249916   3.323   8.645   5.628
16679TIP3    H149917   3.342   8.561   5.676
16679TIP3    H249918   3.413   8.684   5.622
16680TIP3   OH249919   3.588   8.741   5.631
16680TIP3    H149920   3.623   8.651   5.617
16680TIP3    H249921   3.631   8.763   5.715
16681TIP3   OH249922   4.168   7.398   5.720
16681TIP3    H149923   4.123   7.329   5.773
16681TIP3    H249924   4.237   7.347   5.674
16682TIP3   OH249925   4.695   7.279   5.630
16682TIP3    H149926   4.731   7.329   5.553
16682TIP3    H249927   4.599   7.293   5.620
16683TIP3   OH249928   4.788   7.379   5.391
16683TIP3    H149929   4.860   7.328   5.349
16683TIP3    H249930   4.820   7.471   5.376
16684TIP3   OH249931   3.417   7.107   5.740
16684TIP3    H149932   3.325   7.073   5.739
16684TIP3    H249933   3.467   7.022   5.736
16685TIP3   OH249934   3.198   6.974   5.383
16685TIP3    H149935   3.233   7.031   5.313
16685TIP3    H249936   3.173   7.039   5.452
16686TIP3   OH249937   3.856   7.142   5.617
16686TIP3    H149938   3.918   7.191   5.560
16686TIP3    H249939   3.879   7.176   5.704
16687TIP3   OH249940   4.413   7.283   5.602
16687TIP3    H149941   4.404   7.250   5.512
16687TIP3    H249942   4.395   7.202   5.655
16688TIP3   OH249943   4.437   7.205   5.163
16688TIP3    H149944   4.349   7.244   5.169
16688TIP3    H249945   4.423   7.120   5.212
16689TIP3   OH249946   2.918   8.542   5.171
16689TIP3    H149947   2.834   8.512   5.131
16689TIP3    H249948   2.909   8.638   5.155
16690TIP3   OH249949   3.318   7.139   5.147
16690TIP3    H149950   3.366   7.072   5.094
16690TIP3    H249951   3.392   7.190   5.185
16691TIP3   OH249952   3.832   7.309   5.248
16691TIP3    H149953   3.892   7.259   5.306
16691TIP3    H249954   3.857   7.401   5.274
16692TIP3   OH249955   3.692   8.739   4.747
16692TIP3    H149956   3.782   8.759   4.712
16692TIP3    H249957   3.670   8.663   4.689
16693TIP3   OH249958   4.407   8.851   4.839
16693TIP3    H149959   4.401   8.753   4.825
16693TIP3    H249960   4.366   8.883   4.756
16694TIP3   OH249961   3.624   7.387   6.628
16694TIP3    H149962   3.591   7.316   6.686
16694TIP3    H249963   3.718   7.389   6.654
16695TIP3   OH249964   3.873   7.387   6.747
16695TIP3    H149965   3.956   7.361   6.705
16695TIP3    H249966   3.860   7.315   6.813
16696TIP3   OH249967   2.995   8.568   4.807
16696TIP3    H149968   2.998   8.606   4.896
16696TIP3    H249969   3.085   8.531   4.796
16697TIP3   OH249970   4.697   7.442   6.536
16697TIP3    H149971   4.718   7.411   6.627
16697TIP3    H249972   4.784   7.439   6.492
16698TIP3   OH249973   4.642   8.998   6.026
16698TIP3    H149974   4.560   8.966   5.982
16698TIP3    H249975   4.624   9.094   6.027
16699TIP3   OH249976   5.903   8.369   4.795
16699TIP3    H149977   5.878   8.462   4.776
16699TIP3    H249978   5.823   8.323   4.763
16700TIP3   OH249979   5.909   8.364   5.168
16700TIP3    H149980   5.930   8.337   5.259
16700TIP3    H249981   5.857   8.289   5.136
16701TIP3   OH249982   5.204   8.266   5.538
16701TIP3    H149983   5.237   8.200   5.602
16701TIP3    H249984   5.279   8.327   5.533
16702TIP3   OH249985   6.150   8.663   4.855
16702TIP3    H149986   6.126   8.600   4.925
16702TIP3    H249987   6.167   8.744   4.906
16703TIP3   OH249988   5.170   8.672   5.269
16703TIP3    H149989   5.164   8.574   5.272
16703TIP3    H249990   5.266   8.683   5.262
16704TIP3   OH249991   4.880   7.879   5.056
16704TIP3    H149992   4.830   7.963   5.065
16704TIP3    H249993   4.811   7.822   5.018
16705TIP3   OH249994   4.943   8.168   5.221
16705TIP3    H149995   4.990   8.090   5.257
16705TIP3    H249996   4.995   8.187   5.142
16706TIP3   OH249997   5.781   9.123   4.868
16706TIP3    H149998   5.839   9.057   4.826
16706TIP3    H249999   5.801   9.112   4.962
16707TIP3   OH250000   5.702   8.593   5.223
16707TIP3    H150001   5.737   8.520   5.170
16707TIP3    H250002   5.787   8.636   5.247
16708TIP3   OH250003   6.709   7.914   5.219
16708TIP3    H150004   6.740   7.995   5.265
16708TIP3    H250005   6.744   7.927   5.129
16709TIP3   OH250006   6.118   8.100   5.258
16709TIP3    H150007   6.156   8.012   5.278
16709TIP3    H250008   6.083   8.085   5.168
16710TIP3   OH250009   5.450   7.755   5.222
16710TIP3    H150010   5.427   7.828   5.160
16710TIP3    H250011   5.402   7.681   5.179
16711TIP3   OH250012   6.139   7.838   4.851
16711TIP3    H150013   6.207   7.818   4.919
16711TIP3    H250014   6.192   7.888   4.788
16712TIP3   OH250015   5.084   7.959   5.328
16712TIP3    H150016   5.167   7.937   5.375
16712TIP3    H250017   5.094   7.902   5.249
16713TIP3   OH250018   5.527   8.156   5.116
16713TIP3    H150019   5.619   8.128   5.134
16713TIP3    H250020   5.485   8.072   5.086
16714TIP3   OH250021   6.783   8.123   5.387
16714TIP3    H150022   6.698   8.169   5.374
16714TIP3    H250023   6.801   8.144   5.480
16715TIP3   OH250024   5.448   7.739   5.656
16715TIP3    H150025   5.387   7.776   5.589
16715TIP3    H250026   5.397   7.757   5.737
16716TIP3   OH250027   5.803   8.593   4.662
16716TIP3    H150028   5.751   8.567   4.585
16716TIP3    H250029   5.759   8.677   4.686
16717TIP3   OH250030   5.555   8.513   5.456
16717TIP3    H150031   5.489   8.575   5.494
16717TIP3    H250032   5.594   8.567   5.385
16718TIP3   OH250033   6.357   7.850   5.011
16718TIP3    H150034   6.350   7.791   5.087
16718TIP3    H250035   6.413   7.922   5.045
16719TIP3   OH250036   5.318   7.854   5.441
16719TIP3    H150037   5.380   7.926   5.463
16719TIP3    H250038   5.366   7.812   5.366
16720TIP3   OH250039   5.380   8.704   5.548
16720TIP3    H150040   5.355   8.789   5.508
16720TIP3    H250041   5.301   8.691   5.606
16721TIP3   OH250042   4.775   8.392   4.783
16721TIP3    H150043   4.751   8.407   4.688
16721TIP3    H250044   4.804   8.480   4.811
16722TIP3   OH250045   6.221   8.911   5.024
16722TIP3    H150046   6.133   8.904   5.069
16722TIP3    H250047   6.204   8.988   4.967
16723TIP3   OH250048   6.505   7.819   5.390
16723TIP3    H150049   6.416   7.846   5.359
16723TIP3    H250050   6.562   7.847   5.315
16724TIP3   OH250051   5.809   7.462   5.369
16724TIP3    H150052   5.796   7.366   5.384
16724TIP3    H250053   5.729   7.497   5.414
16725TIP3   OH250054   5.932   8.960   4.706
16725TIP3    H150055   5.979   8.880   4.674
16725TIP3    H250056   5.987   9.029   4.662
16726TIP3   OH250057   6.067   8.743   4.601
16726TIP3    H150058   6.013   8.671   4.566
16726TIP3    H250059   6.099   8.704   4.686
16727TIP3   OH250060   6.446   8.827   5.370
16727TIP3    H150061   6.430   8.750   5.310
16727TIP3    H250062   6.424   8.903   5.312
16728TIP3   OH250063   5.733   8.220   4.625
16728TIP3    H150064   5.650   8.270   4.608
16728TIP3    H250065   5.773   8.219   4.536
16729TIP3   OH250066   5.698   8.005   4.344
16729TIP3    H150067   5.768   8.053   4.392
16729TIP3    H250068   5.751   7.936   4.302
16730TIP3   OH250069   6.634   8.460   5.220
16730TIP3    H150070   6.554   8.516   5.230
16730TIP3    H250071   6.647   8.464   5.124
16731TIP3   OH250072   6.082   8.301   4.600
16731TIP3    H150073   6.022   8.330   4.673
16731TIP3    H250074   6.161   8.274   4.649
16732TIP3   OH250075   6.318   8.346   5.504
16732TIP3    H150076   6.314   8.429   5.555
16732TIP3    H250077   6.230   8.348   5.461
16733TIP3   OH250078   5.313   8.303   5.013
16733TIP3    H150079   5.269   8.246   4.946
16733TIP3    H250080   5.390   8.248   5.038
16734TIP3   OH250081   5.441   8.710   5.164
16734TIP3    H150082   5.420   8.666   5.080
16734TIP3    H250083   5.532   8.679   5.181
16735TIP3   OH250084   5.457   8.270   5.368
16735TIP3    H150085   5.483   8.256   5.275
16735TIP3    H250086   5.494   8.359   5.389
16736TIP3   OH250087   5.983   8.909   5.147
16736TIP3    H150088   5.960   8.991   5.196
16736TIP3    H250089   5.962   8.839   5.211
16737TIP3   OH250090   5.587   8.828   5.693
16737TIP3    H150091   5.527   8.892   5.739
16737TIP3    H250092   5.520   8.775   5.644
16738TIP3   OH250093   5.932   8.141   4.429
16738TIP3    H150094   5.986   8.204   4.482
16738TIP3    H250095   5.956   8.168   4.338
16739TIP3   OH250096   5.341   8.387   5.789
16739TIP3    H150097   5.345   8.473   5.836
16739TIP3    H250098   5.245   8.369   5.796
16740TIP3   OH250099   5.666   8.843   4.700
16740TIP3    H150100   5.733   8.905   4.732
16740TIP3    H250101   5.601   8.902   4.659
16741TIP3   OH250102   5.383   8.999   5.777
16741TIP3    H150103   5.346   8.996   5.687
16741TIP3    H250104   5.305   8.977   5.832
16742TIP3   OH250105   6.438   7.404   4.469
16742TIP3    H150106   6.357   7.419   4.522
16742TIP3    H250107   6.447   7.488   4.421
16743TIP3   OH250108   5.180   8.143   4.822
16743TIP3    H150109   5.119   8.194   4.763
16743TIP3    H250110   5.132   8.060   4.829
16744TIP3   OH250111   6.233   8.772   4.017
16744TIP3    H150112   6.241   8.869   4.004
16744TIP3    H250113   6.326   8.743   4.007
16745TIP3   OH250114   4.962   8.527   5.726
16745TIP3    H150115   4.898   8.504   5.656
16745TIP3    H250116   4.998   8.440   5.752
16746TIP3   OH250117   4.818   8.728   5.361
16746TIP3    H150118   4.909   8.702   5.341
16746TIP3    H250119   4.832   8.796   5.429
16747TIP3   OH250120   6.682   9.169   5.414
16747TIP3    H150121   6.678   9.073   5.427
16747TIP3    H250122   6.597   9.197   5.456
16748TIP3   OH250123   5.788   8.957   5.548
16748TIP3    H150124   5.789   9.050   5.579
16748TIP3    H250125   5.716   8.920   5.603
16749TIP3   OH250126   5.545   9.088   4.498
16749TIP3    H150127   5.497   9.068   4.415
16749TIP3    H250128   5.513   9.178   4.520
16750TIP3   OH250129   4.984   8.940   4.881
16750TIP3    H150130   5.031   8.926   4.966
16750TIP3    H250131   4.927   8.860   4.879
16751TIP3   OH250132   5.748   8.989   4.141
16751TIP3    H150133   5.808   8.919   4.105
16751TIP3    H250134   5.780   8.997   4.233
16752TIP3   OH250135   5.797   9.035   4.413
16752TIP3    H150136   5.708   9.046   4.453
16752TIP3    H250137   5.845   8.995   4.487
16753TIP3   OH250138   6.571   8.302   5.688
16753TIP3    H150139   6.490   8.320   5.637
16753TIP3    H250140   6.583   8.207   5.674
16754TIP3   OH250141   5.167   8.709   5.716
16754TIP3    H150142   5.216   8.695   5.799
16754TIP3    H250143   5.093   8.646   5.725
16755TIP3   OH250144   5.567   7.535   5.494
16755TIP3    H150145   5.477   7.503   5.470
16755TIP3    H250146   5.542   7.618   5.539
16756TIP3   OH250147   6.098   7.652   5.691
16756TIP3    H150148   6.164   7.622   5.756
16756TIP3    H250149   6.013   7.630   5.735
16757TIP3   OH250150   6.345   8.082   5.612
16757TIP3    H150151   6.293   8.074   5.695
16757TIP3    H250152   6.314   8.166   5.575
16758TIP3   OH250153   6.003   8.202   4.171
16758TIP3    H150154   5.966   8.181   4.083
16758TIP3    H250155   6.071   8.268   4.146
16759TIP3   OH250156   5.733   7.579   4.467
16759TIP3    H150157   5.690   7.583   4.556
16759TIP3    H250158   5.683   7.502   4.431
16760TIP3   OH250159   5.499   8.048   5.517
16760TIP3    H150160   5.446   8.071   5.597
16760TIP3    H250161   5.484   8.128   5.462
16761TIP3   OH250162   5.382   7.935   5.030
16761TIP3    H150163   5.288   7.912   5.046
16761TIP3    H250164   5.395   7.896   4.941
16762TIP3   OH250165   5.874   8.026   4.750
16762TIP3    H150166   5.808   8.096   4.731
16762TIP3    H250167   5.915   8.021   4.663
16763TIP3   OH250168   6.046   8.302   5.845
16763TIP3    H150169   6.024   8.230   5.907
16763TIP3    H250170   6.140   8.317   5.867
16764TIP3   OH250171   6.032   8.054   4.998
16764TIP3    H150172   5.972   8.086   4.928
16764TIP3    H250173   6.056   7.967   4.959
16765TIP3   OH250174   5.318   8.079   5.725
16765TIP3    H150175   5.339   8.144   5.794
16765TIP3    H250176   5.304   7.998   5.777
16766TIP3   OH250177   5.369   7.558   4.435
16766TIP3    H150178   5.359   7.553   4.532
16766TIP3    H250179   5.288   7.607   4.411
16767TIP3   OH250180   4.909   7.604   5.306
16767TIP3    H150181   4.987   7.632   5.357
16767TIP3    H250182   4.946   7.569   5.223
16768TIP3   OH250183   4.890   7.585   4.826
16768TIP3    H150184   4.933   7.624   4.747
16768TIP3    H250185   4.827   7.656   4.847
16769TIP3   OH250186   6.045   8.300   5.423
16769TIP3    H150187   6.075   8.226   5.365
16769TIP3    H250188   6.012   8.249   5.500
16770TIP3   OH250189   5.707   7.762   5.093
16770TIP3    H150190   5.621   7.757   5.140
16770TIP3    H250191   5.769   7.760   5.167
16771TIP3   OH250192   5.143   7.812   5.102
16771TIP3    H150193   5.048   7.821   5.075
16771TIP3    H250194   5.164   7.721   5.077
16772TIP3   OH250195   5.417   7.812   4.787
16772TIP3    H150196   5.509   7.829   4.761
16772TIP3    H250197   5.366   7.833   4.705
16773TIP3   OH250198   6.198   7.833   5.290
16773TIP3    H150199   6.165   7.845   5.382
16773TIP3    H250200   6.134   7.768   5.256
16774TIP3   OH250201   5.253   7.839   4.571
16774TIP3    H150202   5.176   7.800   4.526
16774TIP3    H250203   5.302   7.875   4.494
16775TIP3   OH250204   6.367   9.521   5.509
16775TIP3    H150205   6.364   9.543   5.414
16775TIP3    H250206   6.445   9.572   5.539
16776TIP3   OH250207   5.328   8.631   5.935
16776TIP3    H150208   5.407   8.664   5.983
16776TIP3    H250209   5.263   8.633   6.007
16777TIP3   OH250210   5.794   8.085   5.192
16777TIP3    H150211   5.862   8.038   5.142
16777TIP3    H250212   5.802   8.046   5.281
16778TIP3   OH250213   5.321   7.575   5.065
16778TIP3    H150214   5.286   7.494   5.108
16778TIP3    H250215   5.369   7.538   4.989
16779TIP3   OH250216   5.770   7.980   5.478
16779TIP3    H150217   5.680   8.016   5.492
16779TIP3    H250218   5.826   8.041   5.531
16780TIP3   OH250219   5.511   8.372   4.579
16780TIP3    H150220   5.438   8.309   4.563
16780TIP3    H250221   5.488   8.408   4.668
16781TIP3   OH250222   6.408   8.610   5.204
16781TIP3    H150223   6.427   8.654   5.119
16781TIP3    H250224   6.320   8.569   5.186
16782TIP3   OH250225   5.960   7.731   4.448
16782TIP3    H150226   5.878   7.677   4.453
16782TIP3    H250227   5.933   7.797   4.382
16783TIP3   OH250228   5.908   8.692   5.571
16783TIP3    H150229   5.921   8.668   5.663
16783TIP3    H250230   5.868   8.781   5.577
16784TIP3   OH250231   5.200   8.396   5.253
16784TIP3    H150232   5.233   8.367   5.166
16784TIP3    H250233   5.231   8.326   5.312
16785TIP3   OH250234   5.652   8.525   4.397
16785TIP3    H150235   5.605   8.611   4.403
16785TIP3    H250236   5.595   8.470   4.455
16786TIP3   OH250237   5.077   8.316   5.863
16786TIP3    H150238   5.098   8.304   5.957
16786TIP3    H250239   5.007   8.250   5.849
16787TIP3   OH250240   5.801   8.427   5.884
16787TIP3    H150241   5.742   8.370   5.832
16787TIP3    H250242   5.889   8.396   5.854
16788TIP3   OH250243   6.069   8.944   5.469
16788TIP3    H150244   5.972   8.949   5.476
16788TIP3    H250245   6.095   9.000   5.545
16789TIP3   OH250246   6.696   8.876   5.459
16789TIP3    H150247   6.598   8.874   5.451
16789TIP3    H250248   6.721   8.851   5.368
16790TIP3   OH250249   6.180   8.840   4.284
16790TIP3    H150250   6.147   8.772   4.344
16790TIP3    H250251   6.187   8.794   4.198
16791TIP3   OH250252   6.173   8.470   5.127
16791TIP3    H150253   6.079   8.446   5.141
16791TIP3    H250254   6.204   8.391   5.080
16792TIP3   OH250255   5.297   8.697   4.875
16792TIP3    H150256   5.300   8.779   4.823
16792TIP3    H250257   5.202   8.680   4.877
16793TIP3   OH250258   4.861   8.002   4.572
16793TIP3    H150259   4.902   8.090   4.582
16793TIP3    H250260   4.781   8.012   4.629
16794TIP3   OH250261   5.445   8.468   4.824
16794TIP3    H150262   5.407   8.556   4.840
16794TIP3    H250263   5.402   8.417   4.896
16795TIP3   OH250264   5.566   9.043   5.345
16795TIP3    H150265   5.605   9.116   5.292
16795TIP3    H250266   5.644   9.012   5.394
16796TIP3   OH250267   5.221   8.937   4.731
16796TIP3    H150268   5.133   8.946   4.773
16796TIP3    H250269   5.251   9.030   4.731
16797TIP3   OH250270   5.958   8.674   5.303
16797TIP3    H150271   5.949   8.676   5.401
16797TIP3    H250272   6.040   8.624   5.292
16798TIP3   OH250273   5.926   8.564   4.183
16798TIP3    H150274   5.975   8.541   4.265
16798TIP3    H250275   5.835   8.544   4.210
16799TIP3   OH250276   6.205   9.213   5.342
16799TIP3    H150277   6.124   9.159   5.343
16799TIP3    H250278   6.187   9.272   5.265
16800TIP3   OH250279   6.271   9.046   4.006
16800TIP3    H150280   6.307   9.117   3.951
16800TIP3    H250281   6.190   9.092   4.039
16801TIP3   OH250282   5.292   7.822   5.874
16801TIP3    H150283   5.195   7.827   5.888
16801TIP3    H250284   5.318   7.758   5.943
16802TIP3   OH250285   6.086   8.501   4.401
16802TIP3    H150286   6.077   8.436   4.473
16802TIP3    H250287   6.183   8.503   4.389
16803TIP3   OH250288   5.003   8.904   5.506
16803TIP3    H150289   5.060   8.830   5.533
16803TIP3    H250290   5.030   8.972   5.569
16804TIP3   OH250291   5.301   8.549   4.178
16804TIP3    H150292   5.310   8.456   4.151
16804TIP3    H250293   5.285   8.539   4.275
16805TIP3   OH250294   5.264   8.551   4.448
16805TIP3    H150295   5.303   8.528   4.533
16805TIP3    H250296   5.247   8.647   4.459
16806TIP3   OH250297   4.989   8.257   4.657
16806TIP3    H150298   4.915   8.296   4.707
16806TIP3    H250299   4.978   8.305   4.573
16807TIP3   OH250300   6.126   7.885   5.549
16807TIP3    H150301   6.204   7.922   5.594
16807TIP3    H250302   6.107   7.805   5.604
16808TIP3   OH250303   6.005   7.635   4.714
16808TIP3    H150304   5.984   7.670   4.625
16808TIP3    H250305   6.042   7.715   4.759
16809TIP3   OH250306   5.513   8.756   4.408
16809TIP3    H150307   5.423   8.776   4.441
16809TIP3    H250308   5.522   8.824   4.339
16810TIP3   OH250309   5.704   7.814   4.818
16810TIP3    H150310   5.766   7.887   4.803
16810TIP3    H250311   5.701   7.809   4.916
16811TIP3   OH250312   5.966   8.138   5.627
16811TIP3    H150313   5.979   8.193   5.707
16811TIP3    H250314   6.021   8.060   5.647
16812TIP3   OH250315   5.842   7.549   4.928
16812TIP3    H150316   5.833   7.628   4.985
16812TIP3    H250317   5.900   7.584   4.856
16813TIP3   OH250318   5.250   8.827   4.471
16813TIP3    H150319   5.219   8.895   4.407
16813TIP3    H250320   5.233   8.872   4.556
16814TIP3   OH250321   5.352   7.539   4.712
16814TIP3    H150322   5.348   7.631   4.745
16814TIP3    H250323   5.448   7.521   4.720
16815TIP3   OH250324   6.611   8.034   5.605
16815TIP3    H150325   6.513   8.035   5.616
16815TIP3    H250326   6.617   7.992   5.518
16816TIP3   OH250327   6.258   8.232   4.993
16816TIP3    H150328   6.180   8.175   5.009
16816TIP3    H250329   6.328   8.184   5.043
16817TIP3   OH250330   4.915   7.735   4.598
16817TIP3    H150331   4.913   7.833   4.592
16817TIP3    H250332   4.832   7.713   4.556
16818TIP3   OH250333   5.302   7.455   5.475
16818TIP3    H150334   5.270   7.423   5.388
16818TIP3    H250335   5.291   7.376   5.532
16819TIP3   OH250336   4.849   8.689   4.866
16819TIP3    H150337   4.758   8.706   4.893
16819TIP3    H250338   4.841   8.708   4.771
16820TIP3   OH250339   4.995   9.207   5.921
16820TIP3    H150340   5.079   9.209   5.971
16820TIP3    H250341   4.973   9.113   5.924
16821TIP3   OH250342   5.483   9.182   5.969
16821TIP3    H150343   5.578   9.161   5.976
16821TIP3    H250344   5.457   9.126   5.894
16822TIP3   OH250345   5.462   8.756   4.101
16822TIP3    H150346   5.403   8.686   4.136
16822TIP3    H250347   5.534   8.701   4.066
16823TIP3   OH250348   6.120   9.083   5.701
16823TIP3    H150349   6.110   9.015   5.771
16823TIP3    H250350   6.195   9.136   5.734
16824TIP3   OH250351   5.898   8.799   4.008
16824TIP3    H150352   5.946   8.735   4.063
16824TIP3    H250353   5.951   8.801   3.926
16825TIP3   OH250354   5.128   8.619   6.125
16825TIP3    H150355   5.144   8.522   6.128
16825TIP3    H250356   5.039   8.622   6.084
16826TIP3   OH250357   5.108   8.247   4.301
16826TIP3    H150358   5.153   8.246   4.387
16826TIP3    H250359   5.182   8.269   4.241
16827TIP3   OH250360   5.738   8.703   5.897
16827TIP3    H150361   5.693   8.718   5.812
16827TIP3    H250362   5.766   8.609   5.892
16828TIP3   OH250363   5.616   8.471   4.124
16828TIP3    H150364   5.609   8.484   4.220
16828TIP3    H250365   5.606   8.374   4.118
16829TIP3   OH250366   6.229   8.706   5.502
16829TIP3    H150367   6.300   8.758   5.461
16829TIP3    H250368   6.155   8.770   5.495
16830TIP3   OH250369   5.245   8.350   6.106
16830TIP3    H150370   5.319   8.290   6.091
16830TIP3    H250371   5.268   8.386   6.194
16831TIP3   OH250372   5.326   8.171   4.548
16831TIP3    H150373   5.282   8.131   4.625
16831TIP3    H250374   5.348   8.094   4.493
16832TIP3   OH250375   5.582   8.239   5.771
16832TIP3    H150376   5.503   8.298   5.775
16832TIP3    H250377   5.626   8.271   5.689
16833TIP3   OH250378   5.410   7.961   4.382
16833TIP3    H150379   5.380   7.966   4.289
16833TIP3    H250380   5.505   7.977   4.373
16834TIP3   OH250381   6.096   8.640   5.904
16834TIP3    H150382   6.178   8.624   5.857
16834TIP3    H250383   6.097   8.571   5.973
16835TIP3   OH250384   6.241   8.300   4.037
16835TIP3    H150385   6.214   8.254   3.955
16835TIP3    H250386   6.207   8.390   4.016
16836TIP3   OH250387   5.706   8.025   5.896
16836TIP3    H150388   5.703   7.945   5.841
16836TIP3    H250389   5.661   8.091   5.839
16837TIP3   OH250390   5.707   7.812   5.701
16837TIP3    H150391   5.732   7.853   5.616
16837TIP3    H250392   5.612   7.789   5.684
16838TIP3   OH250393   5.740   8.351   5.574
16838TIP3    H150394   5.819   8.358   5.518
16838TIP3    H250395   5.681   8.418   5.534
16839TIP3   OH250396   6.320   8.317   5.960
16839TIP3    H150397   6.369   8.234   5.964
16839TIP3    H250398   6.386   8.379   5.926
16840TIP3   OH250399   6.360   8.567   5.692
16840TIP3    H150400   6.300   8.619   5.633
16840TIP3    H250401   6.446   8.589   5.650
16841TIP3   OH250402   5.582   8.143   6.124
16841TIP3    H150403   5.512   8.076   6.137
16841TIP3    H250404   5.616   8.118   6.036
16842TIP3   OH250405   5.839   7.578   5.766
16842TIP3    H150406   5.790   7.660   5.745
16842TIP3    H250407   5.770   7.510   5.755
16843TIP3   OH250408   5.966   8.083   5.984
16843TIP3    H150409   5.954   8.074   6.081
16843TIP3    H250410   5.876   8.059   5.955
16844TIP3   OH250411   6.205   8.029   5.839
16844TIP3    H150412   6.128   8.033   5.898
16844TIP3    H250413   6.276   7.998   5.898
16845TIP3   OH250414   6.443   7.972   5.992
16845TIP3    H150415   6.447   7.876   6.012
16845TIP3    H250416   6.432   8.012   6.081
16846TIP3   OH250417   5.422   7.923   6.174
16846TIP3    H150418   5.428   7.833   6.138
16846TIP3    H250419   5.455   7.909   6.265
16847TIP3   OH250420   5.936   7.588   6.023
16847TIP3    H150421   6.002   7.516   6.018
16847TIP3    H250422   5.894   7.580   5.934
16848TIP3   OH250423   6.000   7.802   6.184
16848TIP3    H150424   5.977   7.731   6.120
16848TIP3    H250425   5.923   7.862   6.178
16849TIP3   OH250426   5.219   9.033   4.286
16849TIP3    H150427   5.314   9.032   4.264
16849TIP3    H250428   5.184   9.075   4.206
16850TIP3   OH250429   4.610   9.024   4.913
16850TIP3    H150430   4.545   8.960   4.876
16850TIP3    H250431   4.654   8.968   4.981
16851TIP3   OH250432   4.740   8.891   5.112
16851TIP3    H150433   4.744   8.803   5.151
16851TIP3    H250434   4.805   8.939   5.168
16852TIP3   OH250435   6.499   9.251   4.896
16852TIP3    H150436   6.472   9.297   4.977
16852TIP3    H250437   6.519   9.327   4.839
16853TIP3   OH250438   6.503   9.301   5.187
16853TIP3    H150439   6.464   9.213   5.171
16853TIP3    H250440   6.581   9.277   5.238
16854TIP3   OH250441   6.555   8.972   5.756
16854TIP3    H150442   6.479   8.981   5.817
16854TIP3    H250443   6.593   9.062   5.758
16855TIP3   OH250444   6.367   8.490   4.376
16855TIP3    H150445   6.436   8.554   4.348
16855TIP3    H250446   6.412   8.447   4.452
16856TIP3   OH250447   6.490   8.352   4.582
16856TIP3    H150448   6.420   8.306   4.632
16856TIP3    H250449   6.526   8.413   4.648
16857TIP3   OH250450   6.558   8.733   5.003
16857TIP3    H150451   6.607   8.726   4.921
16857TIP3    H250452   6.515   8.819   4.987
16858TIP3   OH250453   6.382   9.041   5.211
16858TIP3    H150454   6.316   9.095   5.258
16858TIP3    H250455   6.328   8.999   5.142
16859TIP3   OH250456   6.433   8.268   4.223
16859TIP3    H150457   6.363   8.271   4.154
16859TIP3    H250458   6.404   8.343   4.279
16860TIP3   OH250459   6.284   7.946   4.204
16860TIP3    H150460   6.285   8.008   4.138
16860TIP3    H250461   6.272   7.860   4.157
16861TIP3   OH250462   6.315   8.197   4.732
16861TIP3    H150463   6.349   8.111   4.758
16861TIP3    H250464   6.291   8.233   4.821
16862TIP3   OH250465   4.939   8.285   5.472
16862TIP3    H150466   4.937   8.256   5.378
16862TIP3    H250467   5.036   8.286   5.489
16863TIP3   OH250468   6.600   8.634   5.582
16863TIP3    H150469   6.675   8.571   5.574
16863TIP3    H250470   6.628   8.707   5.524
16864TIP3   OH250471   6.786   8.443   5.607
16864TIP3    H150472   6.712   8.392   5.646
16864TIP3    H250473   6.859   8.379   5.618
16865TIP3   OH250474   6.242   7.680   4.220
16865TIP3    H150475   6.326   7.629   4.220
16865TIP3    H250476   6.176   7.612   4.197
16866TIP3   OH250477   6.473   8.107   5.114
16866TIP3    H150478   6.556   8.141   5.074
16866TIP3    H250479   6.484   8.138   5.206
16867TIP3   OH250480   6.534   8.242   5.352
16867TIP3    H150481   6.455   8.274   5.401
16867TIP3    H250482   6.567   8.325   5.311
16868TIP3   OH250483   5.154   7.972   6.148
16868TIP3    H150484   5.252   7.964   6.148
16868TIP3    H250485   5.130   7.888   6.191
16869TIP3   OH250486   7.004   7.838   5.909
16869TIP3    H150487   7.052   7.767   5.861
16869TIP3    H250488   6.965   7.888   5.834
16870TIP3   OH250489   6.412   7.678   4.648
16870TIP3    H150490   6.460   7.671   4.733
16870TIP3    H250491   6.352   7.600   4.656
16871TIP3   OH250492   5.117   7.663   5.480
16871TIP3    H150493   5.179   7.588   5.489
16871TIP3    H250494   5.179   7.738   5.475
16872TIP3   OH250495   4.922   7.938   5.554
16872TIP3    H150496   4.969   7.928   5.469
16872TIP3    H250497   4.950   8.026   5.581
16873TIP3   OH250498   6.862   7.974   5.721
16873TIP3    H150499   6.774   8.014   5.735
16873TIP3    H250500   6.838   7.907   5.654
16874TIP3   OH250501   6.501   7.616   4.287
16874TIP3    H150502   6.541   7.537   4.243
16874TIP3    H250503   6.573   7.682   4.278
16875TIP3   OH250504   4.902   7.446   5.056
16875TIP3    H150505   4.807   7.441   5.077
16875TIP3    H250506   4.902   7.502   4.975
16876TIP3   OH250507   6.064   9.146   4.562
16876TIP3    H150508   6.111   9.127   4.478
16876TIP3    H250509   6.113   9.224   4.593
16877TIP3   OH250510   5.123   7.522   5.869
16877TIP3    H150511   5.071   7.515   5.952
16877TIP3    H250512   5.056   7.559   5.809
16878TIP3   OH250513   5.164   8.941   5.946
16878TIP3    H150514   5.072   8.916   5.928
16878TIP3    H250515   5.169   8.931   6.042
16879TIP3   OH250516   5.339   8.975   5.492
16879TIP3    H150517   5.291   9.051   5.453
16879TIP3    H250518   5.426   8.989   5.448
16880TIP3   OH250519   5.788   9.222   5.631
16880TIP3    H150520   5.829   9.227   5.720
16880TIP3    H250521   5.852   9.275   5.578
16881TIP3   OH250522   5.962   9.375   5.490
16881TIP3    H150523   6.029   9.328   5.439
16881TIP3    H250524   6.018   9.431   5.549
16882TIP3   OH250525   6.758   7.738   5.590
16882TIP3    H150526   6.667   7.734   5.556
16882TIP3    H250527   6.787   7.644   5.577
16883TIP3   OH250528   5.025   9.232   5.524
16883TIP3    H150529   4.960   9.297   5.497
16883TIP3    H250530   5.041   9.259   5.616
16884TIP3   OH250531   5.257   9.213   5.371
16884TIP3    H150532   5.172   9.225   5.418
16884TIP3    H250533   5.236   9.249   5.282
16885TIP3   OH250534   5.678   9.245   5.173
16885TIP3    H150535   5.613   9.267   5.104
16885TIP3    H250536   5.696   9.333   5.212
16886TIP3   OH250537   5.944   9.175   5.227
16886TIP3    H150538   5.853   9.204   5.210
16886TIP3    H250539   5.993   9.229   5.161
16887TIP3   OH250540   4.929   9.031   5.266
16887TIP3    H150541   4.951   9.004   5.358
16887TIP3    H250542   5.000   8.983   5.217
16888TIP3   OH250543   5.117   8.903   5.118
16888TIP3    H150544   5.136   8.818   5.164
16888TIP3    H250545   5.207   8.942   5.110
16889TIP3   OH250546   5.383   8.999   5.118
16889TIP3    H150547   5.418   8.909   5.102
16889TIP3    H250548   5.427   9.019   5.202
16890TIP3   OH250549   5.966   7.655   5.208
16890TIP3    H150550   5.919   7.588   5.261
16890TIP3    H250551   6.032   7.601   5.160
16891TIP3   OH250552   6.492   7.538   5.115
16891TIP3    H150553   6.526   7.587   5.037
16891TIP3    H250554   6.395   7.548   5.105
16892TIP3   OH250555   6.580   7.641   4.873
16892TIP3    H150556   6.651   7.585   4.836
16892TIP3    H250557   6.619   7.731   4.859
16893TIP3   OH250558   5.214   7.363   5.226
16893TIP3    H150559   5.121   7.331   5.225
16893TIP3    H250560   5.262   7.278   5.222
16894TIP3   OH250561   5.000   7.230   4.870
16894TIP3    H150562   5.029   7.289   4.798
16894TIP3    H250563   4.968   7.294   4.937
16895TIP3   OH250564   5.655   7.396   5.103
16895TIP3    H150565   5.717   7.448   5.049
16895TIP3    H250566   5.670   7.432   5.191
16896TIP3   OH250567   6.211   7.540   5.086
16896TIP3    H150568   6.200   7.501   4.998
16896TIP3    H250569   6.194   7.461   5.143
16897TIP3   OH250570   6.231   7.461   4.648
16897TIP3    H150571   6.141   7.498   4.661
16897TIP3    H250572   6.222   7.377   4.698
16898TIP3   OH250573   4.714   8.804   4.662
16898TIP3    H150574   4.637   8.759   4.621
16898TIP3    H250575   4.696   8.895   4.634
16899TIP3   OH250576   5.113   7.391   4.637
16899TIP3    H150577   5.163   7.329   4.580
16899TIP3    H250578   5.185   7.446   4.674
16900TIP3   OH250579   5.630   7.566   4.731
16900TIP3    H150580   5.684   7.515   4.794
16900TIP3    H250581   5.652   7.657   4.760
16901TIP3   OH250582   5.488   8.997   4.232
16901TIP3    H150583   5.577   9.016   4.197
16901TIP3    H250584   5.465   8.920   4.175
16902TIP3   OH250585   6.206   9.109   4.327
16902TIP3    H150586   6.199   9.011   4.313
16902TIP3    H250587   6.162   9.142   4.246
16903TIP3   OH250588   5.421   7.645   6.116
16903TIP3    H150589   5.388   7.573   6.173
16903TIP3    H250590   5.516   7.645   6.142
16904TIP3   OH250591   5.670   7.641   6.236
16904TIP3    H150592   5.754   7.613   6.194
16904TIP3    H250593   5.657   7.571   6.302
16905TIP3   OH250594   4.794   8.835   4.293
16905TIP3    H150595   4.788   8.853   4.388
16905TIP3    H250596   4.880   8.787   4.287
16906TIP3   OH250597   6.493   7.699   6.023
16906TIP3    H150598   6.513   7.667   6.114
16906TIP3    H250599   6.580   7.693   5.979
16907TIP3   OH250600   6.435   9.254   5.515
16907TIP3    H150601   6.357   9.222   5.466
16907TIP3    H250602   6.417   9.350   5.515
16908TIP3   OH250603   7.703   8.627   4.284
16908TIP3    H150604   7.672   8.718   4.265
16908TIP3    H250605   7.626   8.575   4.255
16909TIP3   OH250606   7.693   8.627   4.660
16909TIP3    H150607   7.719   8.598   4.749
16909TIP3    H250608   7.662   8.545   4.620
16910TIP3   OH250609   7.000   8.508   4.991
16910TIP3    H150610   7.005   8.453   5.072
16910TIP3    H250611   7.060   8.581   5.018
16911TIP3   OH250612   7.937   8.928   4.341
16911TIP3    H150613   7.929   8.854   4.403
16911TIP3    H250614   7.968   9.000   4.398
16912TIP3   OH250615   6.974   8.935   4.752
16912TIP3    H150616   6.973   8.841   4.768
16912TIP3    H250617   7.070   8.953   4.747
16913TIP3   OH250618   6.675   8.142   4.541
16913TIP3    H150619   6.621   8.223   4.539
16913TIP3    H250620   6.609   8.074   4.558
16914TIP3   OH250621   7.585   9.388   4.356
16914TIP3    H150622   7.636   9.317   4.311
16914TIP3    H250623   7.585   9.358   4.447
16915TIP3   OH250624   7.501   8.852   4.690
16915TIP3    H150625   7.541   8.770   4.658
16915TIP3    H250626   7.580   8.896   4.725
16916TIP3   OH250627   8.514   8.169   4.710
16916TIP3    H150628   8.539   8.256   4.747
16916TIP3    H250629   8.520   8.187   4.614
16917TIP3   OH250630   7.903   8.348   4.745
16917TIP3    H150631   7.949   8.263   4.761
16917TIP3    H250632   7.880   8.339   4.651
16918TIP3   OH250633   7.230   8.013   4.716
16918TIP3    H150634   7.227   8.083   4.648
16918TIP3    H250635   7.191   7.939   4.665
16919TIP3   OH250636   7.324   8.411   4.607
16919TIP3    H150637   7.420   8.389   4.615
16919TIP3    H250638   7.289   8.327   4.569
16920TIP3   OH250639   8.585   8.380   4.879
16920TIP3    H150640   8.502   8.427   4.854
16920TIP3    H250641   8.590   8.403   4.973
16921TIP3   OH250642   7.243   7.998   5.143
16921TIP3    H150643   7.183   8.033   5.075
16921TIP3    H250644   7.192   8.018   5.224
16922TIP3   OH250645   7.595   8.849   4.156
16922TIP3    H150646   7.549   8.819   4.077
16922TIP3    H250647   7.553   8.935   4.172
16923TIP3   OH250648   7.312   8.761   4.921
16923TIP3    H150649   7.272   8.832   4.975
16923TIP3    H250650   7.407   8.783   4.929
16924TIP3   OH250651   8.201   8.090   4.512
16924TIP3    H150652   8.129   8.063   4.569
16924TIP3    H250653   8.214   8.183   4.536
16925TIP3   OH250654   7.105   8.111   4.934
16925TIP3    H150655   7.171   8.181   4.955
16925TIP3    H250656   7.147   8.073   4.854
16926TIP3   OH250657   7.171   8.966   5.039
16926TIP3    H150658   7.152   9.054   5.000
16926TIP3    H250659   7.093   8.957   5.098
16927TIP3   OH250660   6.575   8.653   4.274
16927TIP3    H150661   6.530   8.678   4.191
16927TIP3    H250662   6.602   8.740   4.310
16928TIP3   OH250663   8.013   9.166   4.515
16928TIP3    H150664   7.923   9.157   4.554
16928TIP3    H250665   8.002   9.251   4.468
16929TIP3   OH250666   8.301   8.074   4.877
16929TIP3    H150667   8.212   8.096   4.844
16929TIP3    H250668   8.356   8.099   4.800
16930TIP3   OH250669   7.613   7.714   4.864
16930TIP3    H150670   7.586   7.628   4.827
16930TIP3    H250671   7.528   7.746   4.901
16931TIP3   OH250672   7.717   9.217   4.186
16931TIP3    H150673   7.768   9.135   4.165
16931TIP3    H250674   7.778   9.283   4.145
16932TIP3   OH250675   7.858   9.002   4.089
16932TIP3    H150676   7.823   8.921   4.049
16932TIP3    H250677   7.893   8.968   4.175
16933TIP3   OH250678   8.238   9.086   4.855
16933TIP3    H150679   8.230   9.007   4.796
16933TIP3    H250680   8.224   9.159   4.791
16934TIP3   OH250681   7.529   8.482   4.107
16934TIP3    H150682   7.448   8.528   4.075
16934TIP3    H250683   7.581   8.472   4.025
16935TIP3   OH250684   7.487   8.253   3.846
16935TIP3    H150685   7.559   8.303   3.886
16935TIP3    H250686   7.538   8.195   3.787
16936TIP3   OH250687   8.435   8.720   4.700
16936TIP3    H150688   8.352   8.772   4.705
16936TIP3    H250689   8.463   8.742   4.608
16937TIP3   OH250690   7.877   8.559   4.084
16937TIP3    H150691   7.825   8.583   4.164
16937TIP3    H250692   7.960   8.529   4.127
16938TIP3   OH250693   8.120   8.603   4.993
16938TIP3    H150694   8.108   8.688   5.038
16938TIP3    H250695   8.031   8.595   4.950
16939TIP3   OH250696   7.098   8.546   4.517
16939TIP3    H150697   7.063   8.498   4.439
16939TIP3    H250698   7.185   8.503   4.531
16940TIP3   OH250699   7.238   8.967   4.650
16940TIP3    H150700   7.229   8.918   4.567
16940TIP3    H250701   7.326   8.937   4.680
16941TIP3   OH250702   7.227   8.525   4.832
16941TIP3    H150703   7.286   8.505   4.755
16941TIP3    H250704   7.270   8.610   4.866
16942TIP3   OH250705   7.770   9.167   4.631
16942TIP3    H150706   7.756   9.246   4.686
16942TIP3    H250707   7.757   9.093   4.694
16943TIP3   OH250708   7.384   9.094   5.181
16943TIP3    H150709   7.319   9.154   5.222
16943TIP3    H250710   7.325   9.032   5.134
16944TIP3   OH250711   7.714   8.426   3.909
16944TIP3    H150712   7.777   8.477   3.966
16944TIP3    H250713   7.746   8.450   3.819
16945TIP3   OH250714   7.122   8.646   5.268
16945TIP3    H150715   7.140   8.731   5.313
16945TIP3    H250716   7.029   8.631   5.294
16946TIP3   OH250717   7.456   9.102   4.176
16946TIP3    H150718   7.535   9.149   4.208
16946TIP3    H250719   7.396   9.174   4.153
16947TIP3   OH250720   7.175   9.261   5.265
16947TIP3    H150721   7.142   9.256   5.173
16947TIP3    H250722   7.097   9.235   5.317
16948TIP3   OH250723   8.236   7.660   3.956
16948TIP3    H150724   8.156   7.680   4.009
16948TIP3    H250725   8.248   7.745   3.908
16949TIP3   OH250726   6.976   8.401   4.302
16949TIP3    H150727   6.907   8.442   4.246
16949TIP3    H250728   6.941   8.312   4.315
16950TIP3   OH250729   8.033   9.025   3.506
16950TIP3    H150730   8.034   9.122   3.484
16950TIP3    H250731   8.125   9.000   3.486
16951TIP3   OH250732   6.757   8.784   5.212
16951TIP3    H150733   6.687   8.760   5.149
16951TIP3    H250734   6.790   8.698   5.245
16952TIP3   OH250735   6.617   8.973   4.855
16952TIP3    H150736   6.710   8.997   4.843
16952TIP3    H250737   6.582   9.056   4.891
16953TIP3   OH250738   8.467   9.420   4.894
16953TIP3    H150739   8.475   9.324   4.910
16953TIP3    H250740   8.385   9.442   4.941
16954TIP3   OH250741   7.576   9.229   5.015
16954TIP3    H150742   7.574   9.314   5.063
16954TIP3    H250743   7.527   9.171   5.077
16955TIP3   OH250744   7.337   9.343   3.986
16955TIP3    H150745   7.295   9.331   3.899
16955TIP3    H250746   7.310   9.433   4.010
16956TIP3   OH250747   6.779   9.193   4.367
16956TIP3    H150748   6.830   9.184   4.451
16956TIP3    H250749   6.707   9.132   4.385
16957TIP3   OH250750   7.544   9.240   3.629
16957TIP3    H150751   7.606   9.174   3.592
16957TIP3    H250752   7.579   9.253   3.719
16958TIP3   OH250753   7.591   9.289   3.900
16958TIP3    H150754   7.505   9.300   3.947
16958TIP3    H250755   7.646   9.252   3.971
16959TIP3   OH250756   8.366   8.560   5.173
16959TIP3    H150757   8.287   8.578   5.118
16959TIP3    H250758   8.377   8.464   5.159
16960TIP3   OH250759   6.960   8.970   5.207
16960TIP3    H150760   7.013   8.951   5.287
16960TIP3    H250761   6.888   8.904   5.214
16961TIP3   OH250762   7.360   7.789   4.984
16961TIP3    H150763   7.269   7.760   4.960
16961TIP3    H250764   7.339   7.875   5.023
16962TIP3   OH250765   7.895   7.909   5.178
16962TIP3    H150766   7.959   7.879   5.246
16962TIP3    H250767   7.808   7.887   5.219
16963TIP3   OH250768   8.144   8.339   5.101
16963TIP3    H150769   8.088   8.333   5.182
16963TIP3    H250770   8.112   8.421   5.060
16964TIP3   OH250771   7.792   8.477   3.653
16964TIP3    H150772   7.763   8.443   3.569
16964TIP3    H250773   7.877   8.519   3.629
16965TIP3   OH250774   7.506   7.843   3.955
16965TIP3    H150775   7.477   7.844   4.048
16965TIP3    H250776   7.471   7.756   3.927
16966TIP3   OH250777   7.283   8.308   4.998
16966TIP3    H150778   7.265   8.342   5.088
16966TIP3    H250779   7.284   8.391   4.947
16967TIP3   OH250780   7.179   8.196   4.517
16967TIP3    H150781   7.088   8.162   4.532
16967TIP3    H250782   7.198   8.154   4.430
16968TIP3   OH250783   7.675   8.292   4.247
16968TIP3    H150784   7.618   8.354   4.198
16968TIP3    H250785   7.724   8.247   4.175
16969TIP3   OH250786   7.863   8.561   5.343
16969TIP3    H150787   7.825   8.486   5.393
16969TIP3    H250788   7.956   8.557   5.367
16970TIP3   OH250789   7.834   8.303   4.479
16970TIP3    H150790   7.777   8.326   4.402
16970TIP3    H250791   7.843   8.206   4.461
16971TIP3   OH250792   7.089   8.341   5.213
16971TIP3    H150793   7.147   8.403   5.260
16971TIP3    H250794   7.099   8.260   5.265
16972TIP3   OH250795   7.162   7.811   3.920
16972TIP3    H150796   7.161   7.810   4.018
16972TIP3    H250797   7.079   7.857   3.901
16973TIP3   OH250798   6.707   7.869   4.788
16973TIP3    H150799   6.786   7.890   4.841
16973TIP3    H250800   6.743   7.821   4.711
16974TIP3   OH250801   6.672   7.846   4.314
16974TIP3    H150802   6.725   7.863   4.232
16974TIP3    H250803   6.650   7.938   4.333
16975TIP3   OH250804   7.861   8.562   4.908
16975TIP3    H150805   7.872   8.477   4.859
16975TIP3    H250806   7.794   8.539   4.975
16976TIP3   OH250807   7.479   8.030   4.580
16976TIP3    H150808   7.419   8.012   4.655
16976TIP3    H250809   7.567   8.016   4.618
16977TIP3   OH250810   6.948   8.071   4.579
16977TIP3    H150811   6.851   8.076   4.571
16977TIP3    H250812   6.969   7.977   4.566
16978TIP3   OH250813   7.212   8.067   4.276
16978TIP3    H150814   7.309   8.078   4.267
16978TIP3    H250815   7.176   8.096   4.190
16979TIP3   OH250816   8.001   8.087   4.780
16979TIP3    H150817   7.960   8.100   4.868
16979TIP3    H250818   7.939   8.022   4.741
16980TIP3   OH250819   7.039   8.106   4.051
16980TIP3    H150820   6.971   8.057   4.001
16980TIP3    H250821   7.096   8.137   3.978
16981TIP3   OH250822   8.161   9.776   4.992
16981TIP3    H150823   8.157   9.792   4.895
16981TIP3    H250824   8.223   9.843   5.018
16982TIP3   OH250825   7.122   8.888   5.421
16982TIP3    H150826   7.204   8.919   5.464
16982TIP3    H250827   7.060   8.893   5.497
16983TIP3   OH250828   7.589   8.343   4.673
16983TIP3    H150829   7.650   8.298   4.614
16983TIP3    H250830   7.610   8.301   4.758
16984TIP3   OH250831   7.113   7.833   4.549
16984TIP3    H150832   7.086   7.749   4.592
16984TIP3    H250833   7.172   7.803   4.478
16985TIP3   OH250834   7.563   8.229   4.976
16985TIP3    H150835   7.479   8.277   4.980
16985TIP3    H250836   7.626   8.290   5.022
16986TIP3   OH250837   7.297   8.637   4.055
16986TIP3    H150838   7.229   8.566   4.052
16986TIP3    H250839   7.286   8.668   4.148
16987TIP3   OH250840   8.204   8.867   4.693
16987TIP3    H150841   8.227   8.914   4.610
16987TIP3    H250842   8.119   8.824   4.669
16988TIP3   OH250843   7.755   7.954   3.895
16988TIP3    H150844   7.668   7.929   3.932
16988TIP3    H250845   7.782   8.028   3.954
16989TIP3   OH250846   7.831   8.188   4.023
16989TIP3    H150847   7.925   8.188   4.053
16989TIP3    H250848   7.827   8.269   3.969
16990TIP3   OH250849   7.441   8.780   3.868
16990TIP3    H150850   7.399   8.867   3.882
16990TIP3    H250851   7.394   8.726   3.936
16991TIP3   OH250852   6.867   8.577   5.353
16991TIP3    H150853   6.898   8.565   5.446
16991TIP3    H250854   6.803   8.505   5.345
16992TIP3   OH250855   7.860   9.202   4.956
16992TIP3    H150856   7.763   9.201   4.963
16992TIP3    H250857   7.884   9.259   5.032
16993TIP3   OH250858   8.277   8.275   3.860
16993TIP3    H150859   8.210   8.231   3.802
16993TIP3    H250860   8.273   8.364   3.819
16994TIP3   OH250861   8.487   9.132   4.946
16994TIP3    H150862   8.389   9.129   4.934
16994TIP3    H250863   8.515   9.105   4.856
16995TIP3   OH250864   7.956   9.096   3.764
16995TIP3    H150865   7.956   9.028   3.833
16995TIP3    H250866   7.985   9.048   3.684
16996TIP3   OH250867   7.968   8.728   4.613
16996TIP3    H150868   7.876   8.699   4.626
16996TIP3    H250869   8.004   8.649   4.567
16997TIP3   OH250870   7.090   8.951   4.357
16997TIP3    H150871   7.100   9.036   4.310
16997TIP3    H250872   6.994   8.948   4.368
16998TIP3   OH250873   6.655   8.261   4.062
16998TIP3    H150874   6.702   8.343   4.086
16998TIP3    H250875   6.578   8.265   4.123
16999TIP3   OH250876   7.234   8.720   4.306
16999TIP3    H150877   7.199   8.810   4.322
16999TIP3    H250878   7.204   8.673   4.385
17000TIP3   OH250879   7.361   9.299   4.832
17000TIP3    H150880   7.405   9.370   4.782
17000TIP3    H250881   7.436   9.264   4.884
17001TIP3   OH250882   7.016   9.193   4.213
17001TIP3    H150883   6.930   9.201   4.259
17001TIP3    H250884   7.048   9.286   4.216
17002TIP3   OH250885   7.758   8.933   4.793
17002TIP3    H150886   7.754   8.917   4.888
17002TIP3    H250887   7.832   8.877   4.766
17003TIP3   OH250888   7.717   8.814   3.675
17003TIP3    H150889   7.782   8.795   3.747
17003TIP3    H250890   7.635   8.803   3.726
17004TIP3   OH250891   8.002   9.471   4.842
17004TIP3    H150892   7.923   9.414   4.832
17004TIP3    H250893   7.987   9.535   4.769
17005TIP3   OH250894   8.049   9.300   3.478
17005TIP3    H150895   8.094   9.369   3.428
17005TIP3    H250896   7.975   9.352   3.517
17006TIP3   OH250897   7.089   8.081   5.363
17006TIP3    H150898   6.993   8.085   5.376
17006TIP3    H250899   7.115   8.013   5.427
17007TIP3   OH250900   7.884   8.759   3.889
17007TIP3    H150901   7.874   8.693   3.960
17007TIP3    H250902   7.981   8.758   3.878
17008TIP3   OH250903   6.810   9.161   4.989
17008TIP3    H150904   6.860   9.088   5.029
17008TIP3    H250905   6.831   9.233   5.050
17009TIP3   OH250906   7.039   8.802   3.927
17009TIP3    H150907   7.107   8.777   3.993
17009TIP3    H250908   7.040   8.900   3.935
17010TIP3   OH250909   6.773   8.507   4.146
17010TIP3    H150910   6.708   8.550   4.205
17010TIP3    H250911   6.793   8.582   4.086
17011TIP3   OH250912   7.920   8.145   5.038
17011TIP3    H150913   8.002   8.178   5.078
17011TIP3    H250914   7.902   8.064   5.090
17012TIP3   OH250915   7.297   9.009   3.874
17012TIP3    H150916   7.218   9.036   3.925
17012TIP3    H250917   7.327   9.096   3.843
17013TIP3   OH250918   7.490   8.072   4.305
17013TIP3    H150919   7.573   8.121   4.288
17013TIP3    H250920   7.501   8.056   4.402
17014TIP3   OH250921   7.740   8.390   5.120
17014TIP3    H150922   7.755   8.464   5.182
17014TIP3    H250923   7.816   8.333   5.134
17015TIP3   OH250924   7.041   9.080   3.958
17015TIP3    H150925   7.013   9.151   3.896
17015TIP3    H250926   7.027   9.124   4.045
17016TIP3   OH250927   7.148   7.799   4.198
17016TIP3    H150928   7.150   7.889   4.234
17016TIP3    H250929   7.243   7.776   4.207
17017TIP3   OH250930   8.408   8.289   5.093
17017TIP3    H150931   8.310   8.291   5.103
17017TIP3    H250932   8.413   8.255   5.002
17018TIP3   OH250933   8.053   8.488   4.484
17018TIP3    H150934   7.978   8.425   4.486
17018TIP3    H250935   8.124   8.438   4.529
17019TIP3   OH250936   6.762   8.726   3.961
17019TIP3    H150937   6.801   8.810   3.990
17019TIP3    H250938   6.816   8.712   3.883
17020TIP3   OH250939   6.709   7.992   4.088
17020TIP3    H150940   6.709   8.090   4.080
17020TIP3    H250941   6.635   7.967   4.032
17021TIP3   OH250942   7.995   9.432   4.435
17021TIP3    H150943   7.956   9.481   4.360
17021TIP3    H250944   8.090   9.451   4.415
17022TIP3   OH250945   7.087   7.715   4.964
17022TIP3    H150946   7.065   7.680   4.875
17022TIP3    H250947   7.085   7.634   5.018
17023TIP3   OH250948   6.636   8.920   4.347
17023TIP3    H150949   6.561   8.961   4.392
17023TIP3    H250950   6.629   8.964   4.260
17024TIP3   OH250951   6.790   9.467   5.412
17024TIP3    H150952   6.877   9.464   5.458
17024TIP3    H250953   6.768   9.372   5.409
17025TIP3   OH250954   7.283   9.439   5.456
17025TIP3    H150955   7.375   9.410   5.459
17025TIP3    H250956   7.251   9.385   5.381
17026TIP3   OH250957   7.253   9.010   3.586
17026TIP3    H150958   7.244   8.958   3.667
17026TIP3    H250959   7.330   8.970   3.541
17027TIP3   OH250960   7.912   9.346   5.187
17027TIP3    H150961   7.898   9.272   5.251
17027TIP3    H250962   7.991   9.390   5.222
17028TIP3   OH250963   7.693   9.052   3.493
17028TIP3    H150964   7.752   9.001   3.552
17028TIP3    H250965   7.747   9.059   3.411
17029TIP3   OH250966   6.924   8.875   5.615
17029TIP3    H150967   6.941   8.779   5.614
17029TIP3    H250968   6.836   8.879   5.572
17030TIP3   OH250969   7.532   8.949   5.380
17030TIP3    H150970   7.491   8.972   5.295
17030TIP3    H250971   7.580   8.869   5.348
17031TIP3   OH250972   7.383   8.694   3.618
17031TIP3    H150973   7.399   8.745   3.700
17031TIP3    H250974   7.424   8.610   3.644
17032TIP3   OH250975   8.025   8.968   4.995
17032TIP3    H150976   8.099   9.009   4.947
17032TIP3    H250977   7.955   9.035   4.978
17033TIP3   OH250978   7.039   8.606   5.592
17033TIP3    H150979   7.117   8.553   5.571
17033TIP3    H250980   7.063   8.641   5.680
17034TIP3   OH250981   7.116   8.431   4.028
17034TIP3    H150982   7.086   8.392   4.112
17034TIP3    H250983   7.148   8.352   3.980
17035TIP3   OH250984   7.364   8.481   5.236
17035TIP3    H150985   7.308   8.556   5.262
17035TIP3    H250986   7.440   8.534   5.201
17036TIP3   OH250987   7.209   8.226   3.869
17036TIP3    H150988   7.190   8.208   3.775
17036TIP3    H250989   7.308   8.227   3.869
17037TIP3   OH250990   7.913   8.904   5.407
17037TIP3    H150991   7.962   8.875   5.329
17037TIP3    H250992   7.883   8.820   5.443
17038TIP3   OH250993   8.030   8.558   3.530
17038TIP3    H150994   8.017   8.510   3.446
17038TIP3    H250995   8.001   8.648   3.502
17039TIP3   OH250996   7.497   8.283   5.384
17039TIP3    H150997   7.503   8.202   5.328
17039TIP3    H250998   7.461   8.348   5.320
17040TIP3   OH250999   7.502   8.067   5.193
17040TIP3    H151000   7.533   8.110   5.110
17040TIP3    H251001   7.410   8.044   5.170
17041TIP3   OH251002   8.124   8.575   5.455
17041TIP3    H151003   8.170   8.490   5.444
17041TIP3    H251004   8.182   8.635   5.407
17042TIP3   OH251005   8.156   8.828   5.186
17042TIP3    H151006   8.096   8.877   5.125
17042TIP3    H251007   8.242   8.845   5.141
17043TIP3   OH251008   7.378   8.399   5.612
17043TIP3    H151009   7.308   8.331   5.622
17043TIP3    H251010   7.413   8.376   5.523
17044TIP3   OH251011   7.637   7.835   5.256
17044TIP3    H151012   7.589   7.917   5.231
17044TIP3    H251013   7.568   7.767   5.239
17045TIP3   OH251014   7.764   8.337   5.471
17045TIP3    H151015   7.746   8.329   5.567
17045TIP3    H251016   7.675   8.316   5.436
17046TIP3   OH251017   8.004   8.289   5.327
17046TIP3    H151018   7.923   8.292   5.383
17046TIP3    H251019   8.072   8.255   5.388
17047TIP3   OH251020   8.238   8.227   5.482
17047TIP3    H151021   8.242   8.131   5.503
17047TIP3    H251022   8.229   8.268   5.571
17048TIP3   OH251023   7.216   8.181   5.663
17048TIP3    H151024   7.225   8.093   5.621
17048TIP3    H251025   7.250   8.163   5.752
17049TIP3   OH251026   7.730   7.842   5.512
17049TIP3    H151027   7.798   7.771   5.503
17049TIP3    H251028   7.690   7.838   5.423
17050TIP3   OH251029   7.794   8.055   5.674
17050TIP3    H151030   7.772   7.986   5.608
17050TIP3    H251031   7.720   8.119   5.663
17051TIP3   OH251032   7.012   9.278   3.765
17051TIP3    H151033   7.108   9.286   3.751
17051TIP3    H251034   6.980   9.332   3.690
17052TIP3   OH251035   6.494   8.666   3.993
17052TIP3    H151036   6.589   8.689   3.980
17052TIP3    H251037   6.489   8.579   3.949
17053TIP3   OH251038   6.412   9.280   4.398
17053TIP3    H151039   6.342   9.220   4.365
17053TIP3    H251040   6.454   9.225   4.467
17054TIP3   OH251041   6.550   9.138   4.585
17054TIP3    H151042   6.528   9.067   4.647
17054TIP3    H251043   6.596   9.200   4.644
17055TIP3   OH251044   8.234   9.536   4.381
17055TIP3    H151045   8.277   9.560   4.465
17055TIP3    H251046   8.291   9.584   4.320
17056TIP3   OH251047   8.311   9.552   4.668
17056TIP3    H151048   8.267   9.465   4.664
17056TIP3    H251049   8.390   9.527   4.719
17057TIP3   OH251050   8.354   9.235   5.246
17057TIP3    H151051   8.275   9.239   5.303
17057TIP3    H251052   8.380   9.327   5.236
17058TIP3   OH251053   8.163   8.747   3.864
17058TIP3    H151054   8.236   8.806   3.838
17058TIP3    H251055   8.203   8.704   3.943
17059TIP3   OH251056   8.290   8.612   4.065
17059TIP3    H151057   8.227   8.566   4.125
17059TIP3    H251058   8.355   8.650   4.127
17060TIP3   OH251059   8.344   9.000   4.498
17060TIP3    H151060   8.397   8.939   4.444
17060TIP3    H251061   8.334   9.077   4.438
17061TIP3   OH251062   8.179   9.303   4.694
17061TIP3    H151063   8.107   9.345   4.745
17061TIP3    H251064   8.130   9.253   4.626
17062TIP3   OH251065   8.232   8.519   3.715
17062TIP3    H151066   8.159   8.523   3.649
17062TIP3    H251067   8.206   8.594   3.772
17063TIP3   OH251068   8.100   8.194   3.670
17063TIP3    H151069   8.068   8.229   3.586
17063TIP3    H251070   8.075   8.099   3.662
17064TIP3   OH251071   8.107   8.464   4.214
17064TIP3    H151072   8.107   8.367   4.203
17064TIP3    H251073   8.095   8.475   4.311
17065TIP3   OH251074   8.396   8.890   5.068
17065TIP3    H151075   8.471   8.827   5.060
17065TIP3    H251076   8.423   8.962   5.007
17066TIP3   OH251077   8.583   8.701   5.099
17066TIP3    H151078   8.507   8.650   5.133
17066TIP3    H251079   8.654   8.633   5.107
17067TIP3   OH251080   8.047   7.928   3.657
17067TIP3    H151081   8.123   7.897   3.710
17067TIP3    H251082   7.975   7.871   3.685
17068TIP3   OH251083   8.104   8.193   4.095
17068TIP3    H151084   8.131   8.106   4.131
17068TIP3    H251085   8.175   8.208   4.030
17069TIP3   OH251086   8.267   8.361   4.606
17069TIP3    H151087   8.353   8.386   4.565
17069TIP3    H251088   8.280   8.398   4.696
17070TIP3   OH251089   8.336   8.501   4.840
17070TIP3    H151090   8.255   8.535   4.886
17070TIP3    H251091   8.366   8.581   4.792
17071TIP3   OH251092   6.948   8.227   5.634
17071TIP3    H151093   7.046   8.221   5.632
17071TIP3    H251094   6.925   8.143   5.679
17072TIP3   OH251095   8.790   8.088   5.394
17072TIP3    H151096   8.845   8.022   5.347
17072TIP3    H251097   8.758   8.143   5.318
17073TIP3   OH251098   8.220   7.932   4.143
17073TIP3    H151099   8.257   7.924   4.233
17073TIP3    H251100   8.154   7.859   4.144
17074TIP3   OH251101   6.907   7.928   4.974
17074TIP3    H151102   6.964   7.849   4.979
17074TIP3    H251103   6.976   7.996   4.957
17075TIP3   OH251104   6.719   8.213   5.021
17075TIP3    H151105   6.776   8.152   4.973
17075TIP3    H251106   6.781   8.261   5.076
17076TIP3   OH251107   8.658   8.232   5.207
17076TIP3    H151108   8.569   8.272   5.219
17076TIP3    H251109   8.635   8.165   5.140
17077TIP3   OH251110   8.297   7.871   3.776
17077TIP3    H151111   8.336   7.796   3.726
17077TIP3    H251112   8.365   7.940   3.768
17078TIP3   OH251113   6.697   7.709   4.546
17078TIP3    H151114   6.603   7.691   4.563
17078TIP3    H251115   6.694   7.758   4.461
17079TIP3   OH251116   7.855   9.401   4.045
17079TIP3    H151117   7.905   9.381   3.963
17079TIP3    H251118   7.915   9.463   4.090
17080TIP3   OH251119   6.919   7.784   5.359
17080TIP3    H151120   6.866   7.771   5.440
17080TIP3    H251121   6.850   7.813   5.297
17081TIP3   OH251122   6.959   9.201   5.435
17081TIP3    H151123   6.867   9.173   5.415
17081TIP3    H251124   6.964   9.186   5.530
17082TIP3   OH251125   7.135   9.234   4.980
17082TIP3    H151126   7.088   9.309   4.940
17082TIP3    H251127   7.222   9.247   4.937
17083TIP3   OH251128   7.584   9.486   5.124
17083TIP3    H151129   7.630   9.487   5.210
17083TIP3    H251130   7.650   9.532   5.067
17084TIP3   OH251131   7.762   9.630   4.974
17084TIP3    H151132   7.832   9.580   4.930
17084TIP3    H251133   7.814   9.689   5.032
17085TIP3   OH251134   8.554   7.997   5.078
17085TIP3    H151135   8.465   8.000   5.039
17085TIP3    H251136   8.579   7.903   5.062
17086TIP3   OH251137   6.815   9.493   5.002
17086TIP3    H151138   6.727   9.528   4.976
17086TIP3    H251139   6.816   9.520   5.095
17087TIP3   OH251140   7.050   9.471   4.858
17087TIP3    H151141   6.964   9.484   4.904
17087TIP3    H251142   7.030   9.505   4.769
17088TIP3   OH251143   7.478   9.504   4.655
17088TIP3    H151144   7.408   9.525   4.590
17088TIP3    H251145   7.490   9.590   4.699
17089TIP3   OH251146   7.744   9.444   4.710
17089TIP3    H151147   7.650   9.458   4.689
17089TIP3    H251148   7.786   9.519   4.665
17090TIP3   OH251149   7.952   9.636   4.625
17090TIP3    H151150   7.943   9.721   4.576
17090TIP3    H251151   7.973   9.573   4.553
17091TIP3   OH251152   6.735   9.293   4.740
17091TIP3    H151153   6.749   9.267   4.834
17091TIP3    H251154   6.808   9.243   4.697
17092TIP3   OH251155   6.921   9.156   4.596
17092TIP3    H151156   6.939   9.075   4.648
17092TIP3    H251157   7.009   9.198   4.594
17093TIP3   OH251158   7.183   9.254   4.605
17093TIP3    H151159   7.217   9.164   4.593
17093TIP3    H251160   7.224   9.278   4.690
17094TIP3   OH251161   7.790   7.901   4.724
17094TIP3    H151162   7.718   7.839   4.744
17094TIP3    H251163   7.782   7.916   4.627
17095TIP3   OH251164   8.297   7.789   4.607
17095TIP3    H151165   8.330   7.844   4.532
17095TIP3    H251166   8.200   7.800   4.595
17096TIP3   OH251167   8.386   7.887   4.366
17096TIP3    H151168   8.459   7.846   4.316
17096TIP3    H251169   8.407   7.983   4.355
17097TIP3   OH251170   7.008   7.623   4.713
17097TIP3    H151171   6.918   7.585   4.713
17097TIP3    H251172   7.060   7.539   4.710
17098TIP3   OH251173   6.787   7.487   4.352
17098TIP3    H151174   6.829   7.543   4.284
17098TIP3    H251175   6.770   7.550   4.424
17099TIP3   OH251176   8.027   7.769   4.567
17099TIP3    H151177   7.980   7.833   4.509
17099TIP3    H251178   7.952   7.720   4.603
17100TIP3   OH251179   8.032   7.718   4.133
17100TIP3    H151180   7.949   7.767   4.144
17100TIP3    H251181   8.010   7.635   4.179
17101TIP3   OH251182   6.514   9.055   4.142
17101TIP3    H151183   6.429   9.023   4.106
17101TIP3    H251184   6.502   9.150   4.130
17102TIP3   OH251185   6.911   7.651   4.126
17102TIP3    H151186   6.958   7.586   4.069
17102TIP3    H251187   6.986   7.704   4.160
17103TIP3   OH251188   7.426   7.821   4.225
17103TIP3    H151189   7.487   7.767   4.276
17103TIP3    H251190   7.454   7.912   4.252
17104TIP3   OH251191   7.285   9.253   3.720
17104TIP3    H151192   7.375   9.272   3.686
17104TIP3    H251193   7.260   9.181   3.659
17105TIP3   OH251194   7.994   9.360   3.813
17105TIP3    H151195   7.985   9.263   3.797
17105TIP3    H251196   7.958   9.395   3.730
17106TIP3   OH251197   7.215   7.901   5.604
17106TIP3    H151198   7.186   7.828   5.660
17106TIP3    H251199   7.311   7.902   5.626
17107TIP3   OH251200   7.466   7.900   5.723
17107TIP3    H151201   7.549   7.877   5.677
17107TIP3    H251202   7.458   7.827   5.787
17108TIP3   OH251203   6.587   9.085   3.781
17108TIP3    H151204   6.583   9.120   3.871
17108TIP3    H251205   6.677   9.046   3.776
17109TIP3   OH251206   8.289   7.955   5.510
17109TIP3    H151207   8.312   7.925   5.600
17109TIP3    H251208   8.376   7.953   5.464
17110TIP3   OH251209   8.224   9.507   5.013
17110TIP3    H151210   8.151   9.474   4.957
17110TIP3    H251211   8.212   9.603   5.001
17111TIP3   OH251212   8.795   8.776   4.514
17111TIP3    H151213   8.832   8.714   4.580
17111TIP3    H251214   8.864   8.843   4.508
17112TIP3   OH251215   8.754   9.160   4.236
17112TIP3    H151216   8.764   9.063   4.238
17112TIP3    H251217   8.841   9.191   4.265
17113TIP3   OH251218   8.474   8.394   4.028
17113TIP3    H151219   8.424   8.477   4.039
17113TIP3    H251220   8.403   8.335   3.997
17114TIP3   OH251221   8.533   8.679   4.191
17114TIP3    H151222   8.582   8.603   4.229
17114TIP3    H251223   8.594   8.707   4.121
17115TIP3   OH251224   9.042   8.269   4.197
17115TIP3    H151225   9.020   8.342   4.135
17115TIP3    H251226   8.995   8.195   4.152
17116TIP3   OH251227   8.676   8.472   4.302
17116TIP3    H151228   8.759   8.450   4.348
17116TIP3    H251229   8.685   8.416   4.222
17117TIP3   OH251230   9.111   8.668   4.108
17117TIP3    H151231   9.206   8.656   4.084
17117TIP3    H251232   9.070   8.591   4.064
17118TIP3   OH251233   9.038   8.251   4.630
17118TIP3    H151234   8.979   8.288   4.561
17118TIP3    H251235   8.986   8.272   4.710
17119TIP3   OH251236   8.910   8.366   4.415
17119TIP3    H151237   8.973   8.440   4.435
17119TIP3    H251238   8.956   8.325   4.338
17120TIP3   OH251239   8.371   8.905   3.757
17120TIP3    H151240   8.321   8.941   3.683
17120TIP3    H251241   8.393   8.987   3.807
17121TIP3   OH251242   9.389   7.961   4.347
17121TIP3    H151243   9.369   7.867   4.366
17121TIP3    H251244   9.312   8.004   4.390
17122TIP3   OH251245   8.875   8.778   4.008
17122TIP3    H151246   8.852   8.751   3.917
17122TIP3    H251247   8.972   8.774   4.005
17123TIP3   OH251248   9.048   8.801   4.340
17123TIP3    H151249   9.048   8.763   4.249
17123TIP3    H251250   9.043   8.896   4.321
17124TIP3   OH251251   8.935   8.896   4.762
17124TIP3    H151252   8.938   8.981   4.811
17124TIP3    H251253   8.839   8.881   4.763
17125TIP3   OH251254   8.776   8.652   3.775
17125TIP3    H151255   8.711   8.702   3.722
17125TIP3    H251256   8.725   8.575   3.801
17126TIP3   OH251257   8.545   9.036   4.701
17126TIP3    H151258   8.484   9.014   4.628
17126TIP3    H251259   8.584   8.949   4.723
17127TIP3   OH251260   8.410   9.233   4.334
17127TIP3    H151261   8.503   9.219   4.312
17127TIP3    H251262   8.413   9.309   4.394
17128TIP3   OH251263   8.751   9.211   4.686
17128TIP3    H151264   8.788   9.205   4.776
17128TIP3    H251265   8.682   9.142   4.687
17129TIP3   OH251266   9.160   8.048   4.468
17129TIP3    H151267   9.069   8.017   4.444
17129TIP3    H251268   9.137   8.133   4.509
17130TIP3   OH251269   9.696   8.129   4.656
17130TIP3    H151270   9.758   8.148   4.729
17130TIP3    H251271   9.609   8.142   4.698
17131TIP3   OH251272   9.292   8.085   3.443
17131TIP3    H151273   9.254   8.093   3.532
17131TIP3    H251274   9.246   8.004   3.411
17132TIP3   OH251275   9.086   8.567   4.487
17132TIP3    H151276   9.032   8.584   4.567
17132TIP3    H251277   9.069   8.648   4.433
17133TIP3   OH251278   8.978   8.446   4.003
17133TIP3    H151279   8.883   8.427   4.017
17133TIP3    H251280   8.990   8.410   3.912
17134TIP3   OH251281   8.913   8.593   4.699
17134TIP3    H151282   8.928   8.658   4.770
17134TIP3    H251283   8.898   8.511   4.750
17135TIP3   OH251284   8.954   8.063   3.415
17135TIP3    H151285   8.944   8.062   3.512
17135TIP3    H251286   8.875   8.114   3.388
17136TIP3   OH251287   8.502   8.118   4.277
17136TIP3    H151288   8.580   8.144   4.330
17136TIP3    H251289   8.539   8.080   4.196
17137TIP3   OH251290   8.483   8.096   3.799
17137TIP3    H151291   8.528   8.136   3.722
17137TIP3    H251292   8.420   8.168   3.821
17138TIP3   OH251293   9.300   8.253   4.077
17138TIP3    H151294   9.211   8.261   4.115
17138TIP3    H251295   9.354   8.296   4.145
17139TIP3   OH251296   8.734   8.325   4.077
17139TIP3    H151297   8.640   8.336   4.049
17139TIP3    H251298   8.755   8.234   4.050
17140TIP3   OH251299   9.009   8.322   3.759
17140TIP3    H151300   9.099   8.351   3.738
17140TIP3    H251301   8.959   8.345   3.678
17141TIP3   OH251302   8.841   8.341   3.542
17141TIP3    H151303   8.760   8.304   3.505
17141TIP3    H251304   8.874   8.390   3.465
17142TIP3   OH251305   8.917   9.127   4.914
17142TIP3    H151306   8.979   9.201   4.923
17142TIP3    H251307   8.853   9.147   4.985
17143TIP3   OH251308   8.919   8.086   4.039
17143TIP3    H151309   8.880   8.005   4.078
17143TIP3    H251310   8.952   8.056   3.954
17144TIP3   OH251311   9.358   8.475   4.473
17144TIP3    H151312   9.274   8.522   4.457
17144TIP3    H251313   9.422   8.548   4.477
17145TIP3   OH251314   8.790   8.891   4.234
17145TIP3    H151315   8.814   8.860   4.143
17145TIP3    H251316   8.821   8.817   4.288
17146TIP3   OH251317   8.669   8.827   4.835
17146TIP3    H151318   8.690   8.812   4.929
17146TIP3    H251319   8.597   8.762   4.819
17147TIP3   OH251320   8.451   8.517   3.547
17147TIP3    H151321   8.499   8.600   3.566
17147TIP3    H251322   8.377   8.523   3.611
17148TIP3   OH251323   8.882   8.336   4.849
17148TIP3    H151324   8.785   8.341   4.859
17148TIP3    H251325   8.906   8.270   4.915
17149TIP3   OH251326   8.586   9.406   4.547
17149TIP3    H151327   8.613   9.322   4.588
17149TIP3    H251328   8.649   9.465   4.594
17150TIP3   OH251329   8.572   8.764   3.625
17150TIP3    H151330   8.514   8.818   3.682
17150TIP3    H251331   8.638   8.829   3.594
17151TIP3   OH251332   9.297   8.314   3.796
17151TIP3    H151333   9.360   8.379   3.761
17151TIP3    H251334   9.300   8.331   3.892
17152TIP3   OH251335   9.437   8.073   3.919
17152TIP3    H151336   9.388   8.148   3.960
17152TIP3    H251337   9.496   8.123   3.860
17153TIP3   OH251338   8.942   8.053   3.693
17153TIP3    H151339   8.945   8.147   3.719
17153TIP3    H251340   9.038   8.033   3.695
17154TIP3   OH251341   8.510   8.249   3.573
17154TIP3    H151342   8.504   8.347   3.566
17154TIP3    H251343   8.426   8.222   3.534
17155TIP3   OH251344   8.897   7.968   4.448
17155TIP3    H151345   8.862   7.938   4.361
17155TIP3    H251346   8.882   7.889   4.504
17156TIP3   OH251347   8.402   9.159   3.849
17156TIP3    H151348   8.335   9.224   3.873
17156TIP3    H251349   8.430   9.192   3.762
17157TIP3   OH251350   8.717   9.117   5.102
17157TIP3    H151351   8.730   9.024   5.079
17157TIP3    H251352   8.632   9.137   5.059
17158TIP3   OH251353   8.834   8.852   5.078
17158TIP3    H151354   8.920   8.809   5.062
17158TIP3    H251355   8.843   8.888   5.167
17159TIP3   OH251356   8.878   8.642   3.485
17159TIP3    H151357   8.862   8.637   3.580
17159TIP3    H251358   8.959   8.588   3.472
17160TIP3   OH251359   9.171   8.749   4.741
17160TIP3    H151360   9.096   8.810   4.757
17160TIP3    H251361   9.181   8.756   4.645
17161TIP3   OH251362   9.289   8.534   4.874
17161TIP3    H151363   9.294   8.456   4.815
17161TIP3    H251364   9.256   8.604   4.813
17162TIP3   OH251365   9.295   8.317   4.684
17162TIP3    H151366   9.324   8.367   4.604
17162TIP3    H251367   9.201   8.298   4.662
17163TIP3   OH251368   9.172   8.654   5.096
17163TIP3    H151369   9.103   8.586   5.105
17163TIP3    H251370   9.208   8.633   5.008
17164TIP3   OH251371   9.429   8.087   4.737
17164TIP3    H151372   9.383   8.172   4.719
17164TIP3    H251373   9.356   8.023   4.728
17165TIP3   OH251374   9.553   8.600   4.951
17165TIP3    H151375   9.542   8.602   5.047
17165TIP3    H251376   9.463   8.581   4.922
17166TIP3   OH251377   9.012   8.435   5.147
17166TIP3    H151378   9.021   8.348   5.104
17166TIP3    H251379   9.043   8.415   5.237
17167TIP3   OH251380   9.525   8.094   4.992
17167TIP3    H151381   9.595   8.027   4.987
17167TIP3    H251382   9.487   8.088   4.902
17168TIP3   OH251383   9.562   8.297   5.170
17168TIP3    H151384   9.555   8.238   5.091
17168TIP3    H251385   9.525   8.381   5.138
17169TIP3   OH251386   8.291   8.927   3.460
17169TIP3    H151387   8.386   8.940   3.476
17169TIP3    H251388   8.288   8.834   3.429
17170TIP3   OH251389   8.187   9.537   3.893
17170TIP3    H151390   8.130   9.465   3.858
17170TIP3    H251391   8.249   9.486   3.949
17171TIP3   OH251392   8.333   9.387   4.070
17171TIP3    H151393   8.336   9.312   4.131
17171TIP3    H251394   8.378   9.456   4.120
17172TIP3   OH251395   8.530   8.795   4.446
17172TIP3    H151396   8.528   8.770   4.351
17172TIP3    H251397   8.627   8.797   4.461
17173TIP3   OH251398   8.746   8.486   5.127
17173TIP3    H151399   8.843   8.477   5.120
17173TIP3    H251400   8.722   8.400   5.166
17174TIP3   OH251401   8.711   8.175   4.454
17174TIP3    H151402   8.775   8.101   4.462
17174TIP3    H251403   8.771   8.251   4.447
17175TIP3   OH251404   8.517   8.452   4.532
17175TIP3    H151405   8.560   8.439   4.445
17175TIP3    H251406   8.542   8.543   4.551
17176TIP3   OH251407   8.495   7.957   4.030
17176TIP3    H151408   8.401   7.951   4.056
17176TIP3    H251409   8.491   8.013   3.950
17177TIP3   OH251410   8.715   8.032   4.844
17177TIP3    H151411   8.661   8.031   4.925
17177TIP3    H251412   8.652   8.073   4.781
17178TIP3   OH251413   8.745   9.411   4.936
17178TIP3    H151414   8.658   9.435   4.902
17178TIP3    H251415   8.746   9.450   5.023
17179TIP3   OH251416   9.554   8.144   4.211
17179TIP3    H151417   9.484   8.087   4.249
17179TIP3    H251418   9.536   8.138   4.116
17180TIP3   OH251419   8.806   7.876   4.201
17180TIP3    H151420   8.713   7.844   4.198
17180TIP3    H251421   8.854   7.791   4.194
17181TIP3   OH251422   8.594   7.743   3.847
17181TIP3    H151423   8.622   7.800   3.773
17181TIP3    H251424   8.560   7.808   3.911
17182TIP3   OH251425   9.252   7.903   4.078
17182TIP3    H151426   9.304   7.964   4.024
17182TIP3    H251427   9.248   7.949   4.163
17183TIP3   OH251428   9.825   7.934   4.059
17183TIP3    H151429   9.847   8.001   3.993
17183TIP3    H251430   9.748   7.975   4.100
17184TIP3   OH251431   8.273   9.305   3.637
17184TIP3    H151432   8.203   9.253   3.594
17184TIP3    H251433   8.254   9.392   3.598
17185TIP3   OH251434   8.706   7.905   3.611
17185TIP3    H151435   8.755   7.843   3.553
17185TIP3    H251436   8.778   7.957   3.649
17186TIP3   OH251437   9.216   8.072   3.712
17186TIP3    H151438   9.275   8.025   3.772
17186TIP3    H251439   9.240   8.165   3.734
17187TIP3   OH251440   9.013   8.156   5.090
17187TIP3    H151441   8.982   8.084   5.148
17187TIP3    H251442   9.108   8.158   5.113
17188TIP3   OH251443   9.262   8.157   5.213
17188TIP3    H151444   9.347   8.141   5.169
17188TIP3    H251445   9.255   8.080   5.272
17189TIP3   OH251446   0.981   8.973   6.393
17189TIP3    H151447   0.943   9.056   6.424
17189TIP3    H251448   0.974   8.984   6.297
17190TIP3   OH251449   1.246   8.882   7.089
17190TIP3    H151450   1.297   8.811   7.043
17190TIP3    H251451   1.207   8.930   7.013
17191TIP3   OH251452   1.108   9.022   6.895
17191TIP3    H151453   1.015   9.045   6.901
17191TIP3    H251454   1.104   8.949   6.830
17192TIP3   OH251455   0.751   8.663   5.474
17192TIP3    H151456   0.783   8.586   5.424
17192TIP3    H251457   0.818   8.730   5.454
17193TIP3   OH251458   1.007   8.782   6.769
17193TIP3    H151459   0.919   8.778   6.730
17193TIP3    H251460   1.037   8.688   6.757
17194TIP3   OH251461   0.826   8.672   6.031
17194TIP3    H151462   0.911   8.631   6.006
17194TIP3    H251463   0.850   8.765   6.042
17195TIP3   OH251464   0.913   9.186   5.708
17195TIP3    H151465   0.886   9.272   5.744
17195TIP3    H251466   0.853   9.126   5.754
17196TIP3   OH251467   2.752   9.215   5.881
17196TIP3    H151468   2.784   9.296   5.925
17196TIP3    H251469   2.782   9.231   5.790
17197TIP3   OH251470   2.147   9.401   5.925
17197TIP3    H151471   2.197   9.319   5.941
17197TIP3    H251472   2.124   9.389   5.831
17198TIP3   OH251473   1.498   9.058   5.889
17198TIP3    H151474   1.476   9.128   5.824
17198TIP3    H251475   1.451   8.983   5.846
17199TIP3   OH251476   2.187   9.146   5.511
17199TIP3    H151477   2.262   9.131   5.574
17199TIP3    H251478   2.236   9.182   5.435
17200TIP3   OH251479   1.120   9.247   5.995
17200TIP3    H151480   1.202   9.227   6.043
17200TIP3    H251481   1.138   9.205   5.909
17201TIP3   OH251482   1.582   9.456   5.791
17201TIP3    H151483   1.669   9.414   5.802
17201TIP3    H251484   1.530   9.388   5.744
17202TIP3   OH251485   2.833   9.414   6.059
17202TIP3    H151486   2.758   9.469   6.029
17202TIP3    H251487   2.852   9.452   6.146
17203TIP3   OH251488   2.400   9.149   5.678
17203TIP3    H151489   2.412   9.091   5.754
17203TIP3    H251490   2.459   9.224   5.699
17204TIP3   OH251491   1.358   9.140   6.107
17204TIP3    H151492   1.408   9.224   6.119
17204TIP3    H251493   1.403   9.104   6.029
17205TIP3   OH251494   2.549   9.118   6.050
17205TIP3    H151495   2.464   9.150   6.015
17205TIP3    H251496   2.612   9.148   5.981
17206TIP3   OH251497   1.851   8.761   6.035
17206TIP3    H151498   1.845   8.665   6.049
17206TIP3    H251499   1.770   8.792   6.080
17207TIP3   OH251500   1.754   9.270   5.053
17207TIP3    H151501   1.803   9.350   5.076
17207TIP3    H251502   1.801   9.242   4.972
17208TIP3   OH251503   2.377   9.656   6.178
17208TIP3    H151504   2.356   9.725   6.242
17208TIP3    H251505   2.289   9.617   6.158
17209TIP3   OH251506   2.482   8.705   5.132
17209TIP3    H151507   2.403   8.725   5.185
17209TIP3    H251508   2.496   8.789   5.084
17210TIP3   OH251509   2.607   9.606   6.348
17210TIP3    H151510   2.545   9.606   6.273
17210TIP3    H251511   2.635   9.512   6.349
17211TIP3   OH251512   1.606   8.850   6.154
17211TIP3    H151513   1.528   8.792   6.139
17211TIP3    H251514   1.560   8.934   6.148
17212TIP3   OH251515   2.143   8.952   6.358
17212TIP3    H151516   2.218   8.924   6.415
17212TIP3    H251517   2.065   8.921   6.408
17213TIP3   OH251518   2.377   9.368   6.271
17213TIP3    H151519   2.338   9.360   6.361
17213TIP3    H251520   2.368   9.462   6.252
17214TIP3   OH251521   1.760   8.883   5.130
17214TIP3    H151522   1.726   8.886   5.222
17214TIP3    H251523   1.718   8.800   5.100
17215TIP3   OH251524   1.517   9.345   6.172
17215TIP3    H151525   1.447   9.382   6.232
17215TIP3    H251526   1.534   9.422   6.114
17216TIP3   OH251527   1.429   9.235   5.695
17216TIP3    H151528   1.335   9.210   5.708
17216TIP3    H251529   1.444   9.199   5.604
17217TIP3   OH251530   1.930   9.324   5.422
17217TIP3    H151531   1.849   9.374   5.396
17217TIP3    H251532   1.972   9.307   5.336
17218TIP3   OH251533   2.112   9.585   6.485
17218TIP3    H151534   2.091   9.515   6.551
17218TIP3    H251535   2.194   9.620   6.524
17219TIP3   OH251536   2.066   9.345   5.664
17219TIP3    H151537   2.012   9.365   5.583
17219TIP3    H251538   2.109   9.264   5.628
17220TIP3   OH251539   1.370   9.379   6.415
17220TIP3    H151540   1.306   9.425   6.471
17220TIP3    H251541   1.346   9.286   6.435
17221TIP3   OH251542   1.414   8.858   5.102
17221TIP3    H151543   1.406   8.856   5.199
17221TIP3    H251544   1.330   8.901   5.077
17222TIP3   OH251545   0.957   8.914   5.950
17222TIP3    H151546   1.025   8.938   6.017
17222TIP3    H251547   1.005   8.856   5.891
17223TIP3   OH251548   0.931   8.896   5.495
17223TIP3    H151549   0.974   8.920   5.410
17223TIP3    H251550   0.890   8.981   5.515
17224TIP3   OH251551   2.129   9.614   6.088
17224TIP3    H151552   2.135   9.540   6.023
17224TIP3    H251553   2.061   9.574   6.146
17225TIP3   OH251554   1.752   9.055   5.751
17225TIP3    H151555   1.667   9.056   5.800
17225TIP3    H251556   1.817   9.064   5.823
17226TIP3   OH251557   1.187   9.117   5.759
17226TIP3    H151558   1.093   9.117   5.732
17226TIP3    H251559   1.214   9.024   5.743
17227TIP3   OH251560   1.465   9.115   5.452
17227TIP3    H151561   1.557   9.134   5.425
17227TIP3    H251562   1.413   9.139   5.373
17228TIP3   OH251563   2.243   9.141   5.961
17228TIP3    H151564   2.201   9.143   6.049
17228TIP3    H251565   2.191   9.073   5.916
17229TIP3   OH251566   1.285   9.125   5.238
17229TIP3    H151567   1.221   9.093   5.171
17229TIP3    H251568   1.326   9.198   5.190
17230TIP3   OH251569   1.837   9.358   5.849
17230TIP3    H151570   1.910   9.349   5.784
17230TIP3    H251571   1.885   9.378   5.930
17231TIP3   OH251572   1.368   8.878   5.731
17231TIP3    H151573   1.333   8.796   5.772
17231TIP3    H251574   1.413   8.844   5.653
17232TIP3   OH251575   2.009   8.996   5.097
17232TIP3    H151576   1.912   8.979   5.103
17232TIP3    H251577   2.016   9.092   5.117
17233TIP3   OH251578   2.079   9.252   5.187
17233TIP3    H151579   2.172   9.241   5.218
17233TIP3    H251580   2.086   9.333   5.135
17234TIP3   OH251581   1.811   9.646   6.592
17234TIP3    H151582   1.800   9.614   6.501
17234TIP3    H251583   1.897   9.607   6.615
17235TIP3   OH251584   2.517   9.315   5.046
17235TIP3    H151585   2.454   9.275   4.982
17235TIP3    H251586   2.530   9.400   5.003
17236TIP3   OH251587   1.346   9.131   6.551
17236TIP3    H151588   1.251   9.116   6.553
17236TIP3    H251589   1.374   9.047   6.589
17237TIP3   OH251590   2.155   9.193   6.225
17237TIP3    H151591   2.243   9.228   6.245
17237TIP3    H251592   2.154   9.108   6.275
17238TIP3   OH251593   2.049   8.941   5.376
17238TIP3    H151594   2.035   8.965   5.283
17238TIP3    H251595   2.088   9.023   5.413
17239TIP3   OH251596   1.750   9.115   5.479
17239TIP3    H151597   1.817   9.184   5.463
17239TIP3    H251598   1.749   9.111   5.577
17240TIP3   OH251599   2.001   9.433   6.286
17240TIP3    H151600   2.042   9.478   6.362
17240TIP3    H251601   2.055   9.352   6.278
17241TIP3   OH251602   1.890   8.851   5.588
17241TIP3    H151603   1.875   8.931   5.642
17241TIP3    H251604   1.948   8.887   5.517
17242TIP3   OH251605   1.397   8.841   5.377
17242TIP3    H151606   1.393   8.935   5.405
17242TIP3    H251607   1.493   8.825   5.386
17243TIP3   OH251608   2.650   9.343   6.274
17243TIP3    H151609   2.554   9.329   6.272
17243TIP3    H251610   2.675   9.308   6.188
17244TIP3   OH251611   2.291   9.520   5.650
17244TIP3    H151612   2.226   9.452   5.671
17244TIP3    H251613   2.370   9.491   5.701
17245TIP3   OH251614   0.951   9.037   5.265
17245TIP3    H151615   0.965   9.130   5.246
17245TIP3    H251616   0.879   9.011   5.206
17246TIP3   OH251617   1.355   8.751   6.139
17246TIP3    H151618   1.314   8.724   6.054
17246TIP3    H251619   1.339   8.672   6.195
17247TIP3   OH251620   1.326   9.645   6.764
17247TIP3    H151621   1.331   9.549   6.771
17247TIP3    H251622   1.289   9.670   6.850
17248TIP3   OH251623   1.636   9.439   6.395
17248TIP3    H151624   1.541   9.440   6.424
17248TIP3    H251625   1.641   9.530   6.355
17249TIP3   OH251626   1.473   9.258   5.074
17249TIP3    H151627   1.461   9.176   5.024
17249TIP3    H251628   1.570   9.262   5.087
17250TIP3   OH251629   1.770   9.311   6.586
17250TIP3    H151630   1.732   9.222   6.586
17250TIP3    H251631   1.715   9.362   6.525
17251TIP3   OH251632   2.374   9.626   6.617
17251TIP3    H151633   2.399   9.534   6.637
17251TIP3    H251634   2.461   9.662   6.594
17252TIP3   OH251635   1.607   9.455   6.777
17252TIP3    H151636   1.552   9.376   6.796
17252TIP3    H251637   1.669   9.420   6.711
17253TIP3   OH251638   1.880   8.877   6.431
17253TIP3    H151639   1.832   8.939   6.375
17253TIP3    H251640   1.819   8.800   6.427
17254TIP3   OH251641   2.015   9.402   6.659
17254TIP3    H151642   2.019   9.382   6.754
17254TIP3    H251643   1.927   9.362   6.638
17255TIP3   OH251644   2.253   9.325   6.507
17255TIP3    H151645   2.181   9.324   6.571
17255TIP3    H251646   2.329   9.294   6.561
17256TIP3   OH251647   2.474   9.271   6.657
17256TIP3    H151648   2.491   9.176   6.675
17256TIP3    H251649   2.476   9.310   6.747
17257TIP3   OH251650   1.477   9.224   6.839
17257TIP3    H151651   1.465   9.134   6.801
17257TIP3    H251652   1.504   9.202   6.930
17258TIP3   OH251653   1.982   8.891   6.686
17258TIP3    H151654   2.050   8.821   6.686
17258TIP3    H251655   1.939   8.874   6.600
17259TIP3   OH251656   2.046   9.104   6.848
17259TIP3    H151657   2.024   9.031   6.786
17259TIP3    H251658   1.966   9.160   6.844
17260TIP3   OH251659   2.344   9.242   4.846
17260TIP3    H151660   2.330   9.270   4.755
17260TIP3    H251661   2.321   9.146   4.840
17261TIP3   OH251662   2.380   9.491   5.396
17261TIP3    H151663   2.385   9.395   5.406
17261TIP3    H251664   2.363   9.519   5.489
17262TIP3   OH251665   2.818   9.766   6.287
17262TIP3    H151666   2.749   9.701   6.308
17262TIP3    H251667   2.897   9.708   6.279
17263TIP3   OH251668   2.294   8.976   4.838
17263TIP3    H151669   2.374   8.943   4.885
17263TIP3    H251670   2.225   8.912   4.863
17264TIP3   OH251671   2.344   9.219   5.287
17264TIP3    H151672   2.389   9.132   5.299
17264TIP3    H251673   2.403   9.259   5.222
17265TIP3   OH251674   2.511   9.406   5.775
17265TIP3    H151675   2.596   9.433   5.733
17265TIP3    H251676   2.529   9.441   5.865
17266TIP3   OH251677   2.575   9.536   6.011
17266TIP3    H151678   2.501   9.582   6.055
17266TIP3    H251679   2.633   9.613   5.990
17267TIP3   OH251680   1.207   9.284   6.814
17267TIP3    H151681   1.302   9.264   6.811
17267TIP3    H251682   1.171   9.198   6.841
17268TIP3   OH251683   3.026   9.128   6.569
17268TIP3    H151684   3.091   9.066   6.529
17268TIP3    H251685   3.010   9.191   6.496
17269TIP3   OH251686   2.461   8.975   5.325
17269TIP3    H151687   2.512   8.960   5.407
17269TIP3    H251688   2.401   8.897   5.325
17270TIP3   OH251689   1.159   8.956   6.129
17270TIP3    H151690   1.220   8.884   6.155
17270TIP3    H251691   1.217   9.033   6.142
17271TIP3   OH251692   0.991   9.245   6.242
17271TIP3    H151693   1.020   9.228   6.150
17271TIP3    H251694   0.968   9.338   6.236
17272TIP3   OH251695   2.908   9.283   6.377
17272TIP3    H151696   2.817   9.313   6.393
17272TIP3    H251697   2.891   9.208   6.317
17273TIP3   OH251698   2.544   8.915   4.952
17273TIP3    H151699   2.588   8.842   4.905
17273TIP3    H251700   2.612   8.986   4.948
17274TIP3   OH251701   0.954   8.738   5.709
17274TIP3    H151702   0.865   8.754   5.744
17274TIP3    H251703   0.955   8.797   5.631
17275TIP3   OH251704   1.180   8.894   6.570
17275TIP3    H151705   1.127   8.834   6.624
17275TIP3    H251706   1.122   8.898   6.491
17276TIP3   OH251707   2.802   9.040   6.255
17276TIP3    H151708   2.712   9.033   6.218
17276TIP3    H251709   2.835   8.947   6.241
17277TIP3   OH251710   2.009   8.956   5.879
17277TIP3    H151711   1.965   8.881   5.922
17277TIP3    H251712   2.076   8.912   5.824
17278TIP3   OH251713   2.534   8.837   5.780
17278TIP3    H151714   2.573   8.886   5.704
17278TIP3    H251715   2.439   8.853   5.768
17279TIP3   OH251716   2.627   8.936   5.542
17279TIP3    H151717   2.699   8.884   5.501
17279TIP3    H251718   2.662   9.027   5.526
17280TIP3   OH251719   1.258   8.664   5.889
17280TIP3    H151720   1.167   8.629   5.889
17280TIP3    H251721   1.309   8.580   5.887
17281TIP3   OH251722   1.045   8.529   5.534
17281TIP3    H151723   1.073   8.586   5.460
17281TIP3    H251724   1.015   8.595   5.600
17282TIP3   OH251725   1.699   8.697   5.765
17282TIP3    H151726   1.759   8.749   5.709
17282TIP3    H251727   1.720   8.731   5.853
17283TIP3   OH251728   2.249   8.843   5.754
17283TIP3    H151729   2.247   8.809   5.663
17283TIP3    H251730   2.234   8.761   5.806
17284TIP3   OH251731   2.277   8.761   5.313
17284TIP3    H151732   2.190   8.804   5.322
17284TIP3    H251733   2.262   8.678   5.363
17285TIP3   OH251734   1.159   8.692   5.304
17285TIP3    H151735   1.207   8.631   5.245
17285TIP3    H251736   1.231   8.748   5.339
17286TIP3   OH251737   1.674   8.865   5.398
17286TIP3    H151738   1.734   8.820   5.459
17286TIP3    H251739   1.695   8.959   5.421
17287TIP3   OH251740   1.469   8.955   6.788
17287TIP3    H151741   1.429   8.877   6.829
17287TIP3    H251742   1.562   8.945   6.815
17288TIP3   OH251743   1.719   8.942   6.899
17288TIP3    H151744   1.803   8.908   6.862
17288TIP3    H251745   1.701   8.873   6.967
17289TIP3   OH251746   2.538   9.002   6.686
17289TIP3    H151747   2.560   8.968   6.775
17289TIP3    H251748   2.626   8.998   6.641
17290TIP3   OH251749   2.719   9.444   5.205
17290TIP3    H151750   2.678   9.527   5.234
17290TIP3    H251751   2.642   9.390   5.180
17291TIP3   OH251752   3.953   9.653   5.401
17291TIP3    H151753   3.995   9.569   5.425
17291TIP3    H251754   3.918   9.632   5.312
17292TIP3   OH251755   3.289   9.312   5.373
17292TIP3    H151756   3.271   9.386   5.311
17292TIP3    H251757   3.241   9.240   5.326
17293TIP3   OH251758   3.986   9.400   5.000
17293TIP3    H151759   4.062   9.384   5.060
17293TIP3    H251760   4.032   9.440   4.924
17294TIP3   OH251761   2.913   9.492   5.492
17294TIP3    H151762   3.004   9.491   5.526
17294TIP3    H251763   2.929   9.468   5.399
17295TIP3   OH251764   3.377   9.715   5.263
17295TIP3    H151765   3.464   9.678   5.289
17295TIP3    H251766   3.329   9.638   5.229
17296TIP3   OH251767   4.627   9.652   5.547
17296TIP3    H151768   4.559   9.711   5.508
17296TIP3    H251769   4.659   9.706   5.622
17297TIP3   OH251770   3.288   9.296   5.807
17297TIP3    H151771   3.229   9.331   5.737
17297TIP3    H251772   3.236   9.317   5.887
17298TIP3   OH251773   4.205   9.400   5.164
17298TIP3    H151774   4.183   9.361   5.250
17298TIP3    H251775   4.247   9.485   5.190
17299TIP3   OH251776   3.159   9.405   5.593
17299TIP3    H151777   3.217   9.483   5.610
17299TIP3    H251778   3.207   9.366   5.516
17300TIP3   OH251779   4.346   9.372   5.513
17300TIP3    H151780   4.252   9.393   5.528
17300TIP3    H251781   4.372   9.445   5.455
17301TIP3   OH251782   3.648   9.019   5.517
17301TIP3    H151783   3.637   8.924   5.534
17301TIP3    H251784   3.571   9.056   5.564
17302TIP3   OH251785   3.546   9.529   4.530
17302TIP3    H151786   3.596   9.607   4.560
17302TIP3    H251787   3.597   9.500   4.453
17303TIP3   OH251788   4.183   9.894   5.649
17303TIP3    H151789   4.201   9.985   5.621
17303TIP3    H251790   4.091   9.881   5.617
17304TIP3   OH251791   4.280   8.964   4.620
17304TIP3    H151792   4.198   8.981   4.672
17304TIP3    H251793   4.289   9.047   4.570
17305TIP3   OH251794   4.396   9.866   5.841
17305TIP3    H151795   4.334   9.848   5.769
17305TIP3    H251796   4.436   9.778   5.856
17306TIP3   OH251797   3.408   9.091   5.645
17306TIP3    H151798   3.317   9.062   5.623
17306TIP3    H251799   3.388   9.177   5.686
17307TIP3   OH251800   3.939   9.205   5.838
17307TIP3    H151801   4.007   9.190   5.906
17307TIP3    H251802   3.856   9.188   5.886
17308TIP3   OH251803   4.180   9.623   5.755
17308TIP3    H151804   4.141   9.613   5.844
17308TIP3    H251805   4.159   9.716   5.733
17309TIP3   OH251806   3.557   9.140   4.618
17309TIP3    H151807   3.522   9.143   4.709
17309TIP3    H251808   3.516   9.057   4.587
17310TIP3   OH251809   3.326   9.611   5.648
17310TIP3    H151810   3.287   9.630   5.736
17310TIP3    H251811   3.325   9.698   5.606
17311TIP3   OH251812   3.225   9.490   5.181
17311TIP3    H151813   3.131   9.465   5.195
17311TIP3    H251814   3.239   9.456   5.090
17312TIP3   OH251815   3.726   9.581   4.908
17312TIP3    H151816   3.644   9.630   4.886
17312TIP3    H251817   3.765   9.565   4.820
17313TIP3   OH251818   3.973   9.768   5.987
17313TIP3    H151819   3.908   9.750   6.058
17313TIP3    H251820   4.019   9.848   6.019
17314TIP3   OH251821   3.861   9.600   5.150
17314TIP3    H151822   3.805   9.621   5.072
17314TIP3    H251823   3.903   9.519   5.112
17315TIP3   OH251824   3.153   9.640   5.899
17315TIP3    H151825   3.122   9.681   5.980
17315TIP3    H251826   3.142   9.545   5.920
17316TIP3   OH251827   3.204   9.110   4.587
17316TIP3    H151828   3.201   9.112   4.684
17316TIP3    H251829   3.130   9.170   4.566
17317TIP3   OH251830   2.750   9.158   5.457
17317TIP3    H151831   2.824   9.196   5.509
17317TIP3    H251832   2.793   9.130   5.375
17318TIP3   OH251833   2.729   9.138   4.978
17318TIP3    H151834   2.773   9.177   4.899
17318TIP3    H251835   2.670   9.212   5.001
17319TIP3   OH251836   3.922   9.843   5.588
17319TIP3    H151837   3.926   9.773   5.519
17319TIP3    H251838   3.855   9.803   5.648
17320TIP3   OH251839   3.547   9.308   5.243
17320TIP3    H151840   3.462   9.313   5.292
17320TIP3    H251841   3.610   9.331   5.313
17321TIP3   OH251842   2.984   9.374   5.247
17321TIP3    H151843   2.888   9.378   5.223
17321TIP3    H251844   3.009   9.282   5.225
17322TIP3   OH251845   3.261   9.369   4.936
17322TIP3    H151846   3.352   9.392   4.912
17322TIP3    H251847   3.209   9.396   4.858
17323TIP3   OH251848   4.039   9.390   5.440
17323TIP3    H151849   4.008   9.402   5.533
17323TIP3    H251850   3.972   9.327   5.408
17324TIP3   OH251851   3.084   9.379   4.720
17324TIP3    H151852   3.021   9.353   4.650
17324TIP3    H251853   3.137   9.446   4.672
17325TIP3   OH251854   3.627   9.618   5.331
17325TIP3    H151855   3.712   9.604   5.286
17325TIP3    H251856   3.652   9.616   5.425
17326TIP3   OH251857   3.158   9.135   5.213
17326TIP3    H151858   3.132   9.050   5.255
17326TIP3    H251859   3.212   9.106   5.138
17327TIP3   OH251860   3.608   9.529   5.642
17327TIP3    H151861   3.524   9.575   5.633
17327TIP3    H251862   3.666   9.597   5.683
17328TIP3   OH251863   3.805   9.254   4.583
17328TIP3    H151864   3.709   9.234   4.591
17328TIP3    H251865   3.811   9.349   4.605
17329TIP3   OH251866   3.875   9.510   4.672
17329TIP3    H151867   3.966   9.498   4.704
17329TIP3    H251868   3.882   9.594   4.624
17330TIP3   OH251869   5.522   0.667   8.030
17330TIP3    H151870   5.474   0.589   8.061
17330TIP3    H251871   5.606   0.660   8.077
17331TIP3   OH251872   4.316   9.570   4.530
17331TIP3    H151873   4.252   9.529   4.467
17331TIP3    H251874   4.319   9.659   4.494
17332TIP3   OH251875   3.131   9.379   6.024
17332TIP3    H151876   3.035   9.377   6.039
17332TIP3    H251877   3.163   9.318   6.093
17333TIP3   OH251878   3.965   9.442   5.699
17333TIP3    H151879   4.039   9.483   5.748
17333TIP3    H251880   3.948   9.363   5.755
17334TIP3   OH251881   3.847   9.197   4.863
17334TIP3    H151882   3.831   9.222   4.770
17334TIP3    H251883   3.884   9.280   4.901
17335TIP3   OH251884   3.547   9.370   4.968
17335TIP3    H151885   3.612   9.442   4.953
17335TIP3    H251886   3.544   9.367   5.066
17336TIP3   OH251887   3.796   9.691   5.780
17336TIP3    H151888   3.838   9.741   5.853
17336TIP3    H251889   3.851   9.611   5.779
17337TIP3   OH251890   3.686   9.107   5.075
17337TIP3    H151891   3.670   9.185   5.132
17337TIP3    H251892   3.743   9.146   5.005
17338TIP3   OH251893   3.192   9.098   4.864
17338TIP3    H151894   3.190   9.192   4.891
17338TIP3    H251895   3.288   9.081   4.873
17339TIP3   OH251896   4.450   9.589   5.765
17339TIP3    H151897   4.352   9.583   5.760
17339TIP3    H251898   4.477   9.584   5.672
17340TIP3   OH251899   4.092   9.769   5.127
17340TIP3    H151900   4.021   9.715   5.165
17340TIP3    H251901   4.166   9.754   5.189
17341TIP3   OH251902   2.744   9.296   4.758
17341TIP3    H151903   2.774   9.385   4.734
17341TIP3    H251904   2.673   9.280   4.694
17342TIP3   OH251905   3.141   9.013   5.626
17342TIP3    H151906   3.111   8.981   5.539
17342TIP3    H251907   3.131   8.933   5.682
17343TIP3   OH251908   3.118   9.889   6.233
17343TIP3    H151909   3.168   9.815   6.269
17343TIP3    H251910   3.116   9.953   6.308
17344TIP3   OH251911   3.426   9.702   5.895
17344TIP3    H151912   3.335   9.727   5.917
17344TIP3    H251913   3.441   9.755   5.815
17345TIP3   OH251914   3.260   9.521   4.573
17345TIP3    H151915   3.227   9.479   4.490
17345TIP3    H251916   3.357   9.522   4.558
17346TIP3   OH251917   3.552   9.548   6.066
17346TIP3    H151918   3.559   9.468   6.010
17346TIP3    H251919   3.509   9.608   6.000
17347TIP3   OH251920   3.547   9.363   5.855
17347TIP3    H151921   3.575   9.413   5.775
17347TIP3    H251922   3.453   9.346   5.835
17348TIP3   OH251923   4.191   9.895   6.116
17348TIP3    H151924   4.212   9.802   6.135
17348TIP3    H251925   4.274   9.922   6.072
17349TIP3   OH251926   3.411   9.705   6.257
17349TIP3    H151927   3.347   9.636   6.283
17349TIP3    H251928   3.458   9.660   6.184
17350TIP3   OH251929   3.681   9.133   5.916
17350TIP3    H151930   3.633   9.217   5.894
17350TIP3    H251931   3.610   9.067   5.904
17351TIP3   OH251932   3.775   9.687   6.156
17351TIP3    H151933   3.796   9.641   6.239
17351TIP3    H251934   3.706   9.627   6.120
17352TIP3   OH251935   4.058   9.513   5.980
17352TIP3    H151936   4.011   9.593   6.009
17352TIP3    H251937   4.134   9.511   6.042
17353TIP3   OH251938   4.272   9.525   6.146
17353TIP3    H151939   4.286   9.431   6.170
17353TIP3    H251940   4.269   9.570   6.233
17354TIP3   OH251941   3.260   9.484   6.326
17354TIP3    H151942   3.274   9.396   6.286
17354TIP3    H251943   3.297   9.470   6.415
17355TIP3   OH251944   3.772   9.142   6.174
17355TIP3    H151945   3.843   9.076   6.170
17355TIP3    H251946   3.736   9.135   6.083
17356TIP3   OH251947   3.840   9.358   6.334
17356TIP3    H151948   3.817   9.287   6.270
17356TIP3    H251949   3.761   9.416   6.330
17357TIP3   OH251950   4.144   9.499   4.330
17357TIP3    H151951   4.120   9.522   4.240
17357TIP3    H251952   4.120   9.403   4.331
17358TIP3   OH251953   4.183   9.747   4.877
17358TIP3    H151954   4.179   9.651   4.890
17358TIP3    H251955   4.162   9.777   4.968
17359TIP3   OH251956   4.608  10.020   5.743
17359TIP3    H151957   4.548   9.969   5.801
17359TIP3    H251958   4.694   9.997   5.784
17360TIP3   OH251959   4.090   9.234   4.326
17360TIP3    H151960   4.168   9.198   4.373
17360TIP3    H251961   4.019   9.170   4.347
17361TIP3   OH251962   4.139   9.474   4.774
17361TIP3    H151963   4.184   9.387   4.786
17361TIP3    H251964   4.200   9.515   4.710
17362TIP3   OH251965   4.317   9.642   5.263
17362TIP3    H151966   4.397   9.679   5.219
17362TIP3    H251967   4.326   9.691   5.348
17363TIP3   OH251968   4.380   9.783   5.486
17363TIP3    H151969   4.306   9.818   5.539
17363TIP3    H251970   4.433   9.865   5.473
17364TIP3   OH251971   2.989   9.538   6.298
17364TIP3    H151972   3.087   9.532   6.298
17364TIP3    H251973   2.968   9.452   6.340
17365TIP3   OH251974   4.842   9.394   6.062
17365TIP3    H151975   4.890   9.325   6.011
17365TIP3    H251976   4.800   9.446   5.990
17366TIP3   OH251977   4.261   9.231   4.813
17366TIP3    H151978   4.303   9.215   4.899
17366TIP3    H251979   4.198   9.156   4.808
17367TIP3   OH251980   2.954   9.218   5.640
17367TIP3    H151981   3.021   9.147   5.643
17367TIP3    H251982   3.010   9.296   5.623
17368TIP3   OH251983   2.758   9.504   5.713
17368TIP3    H151984   2.806   9.486   5.629
17368TIP3    H251985   2.786   9.596   5.727
17369TIP3   OH251986   4.702   9.523   5.876
17369TIP3    H151987   4.621   9.570   5.905
17369TIP3    H251988   4.667   9.470   5.803
17370TIP3   OH251989   4.341   9.172   4.439
17370TIP3    H151990   4.380   9.097   4.390
17370TIP3    H251991   4.411   9.240   4.430
17371TIP3   OH251992   2.742   8.995   5.204
17371TIP3    H151993   2.648   9.000   5.227
17371TIP3    H251994   2.746   9.055   5.125
17372TIP3   OH251995   2.963   9.080   6.020
17372TIP3    H151996   2.911   9.075   6.102
17372TIP3    H251997   2.897   9.116   5.958
17373TIP3   OH251998   4.602   9.297   5.739
17373TIP3    H151999   4.510   9.297   5.709
17373TIP3    H252000   4.631   9.206   5.718
17374TIP3   OH252001   3.813   9.213   5.362
17374TIP3    H152002   3.760   9.149   5.412
17374TIP3    H252003   3.871   9.157   5.309
17375TIP3   OH252004   4.343   9.101   5.272
17375TIP3    H152005   4.366   9.146   5.188
17375TIP3    H252006   4.245   9.107   5.270
17376TIP3   OH252007   4.432   9.192   5.034
17376TIP3    H152008   4.498   9.140   4.984
17376TIP3    H252009   4.459   9.283   5.008
17377TIP3   OH252010   3.055   8.920   5.378
17377TIP3    H152011   2.962   8.887   5.376
17377TIP3    H252012   3.104   8.835   5.373
17378TIP3   OH252013   2.835   8.788   5.018
17378TIP3    H152014   2.871   8.846   4.948
17378TIP3    H252015   2.809   8.853   5.087
17379TIP3   OH252016   3.496   8.952   5.256
17379TIP3    H152017   3.553   9.005   5.198
17379TIP3    H252018   3.514   8.992   5.342
17380TIP3   OH252019   4.063   9.094   5.240
17380TIP3    H152020   4.040   9.066   5.150
17380TIP3    H252021   4.037   9.014   5.292
17381TIP3   OH252022   4.074   9.020   4.801
17381TIP3    H152023   3.986   9.061   4.809
17381TIP3    H252024   4.059   8.936   4.848
17382TIP3   OH252025   2.955   8.947   4.790
17382TIP3    H152026   3.007   8.890   4.731
17382TIP3    H252027   3.025   9.006   4.825
17383TIP3   OH252028   3.470   9.122   4.886
17383TIP3    H152029   3.531   9.077   4.946
17383TIP3    H252030   3.489   9.215   4.909
17384TIP3   OH252031   3.260   9.199   6.265
17384TIP3    H152032   3.231   9.129   6.325
17384TIP3    H252033   3.355   9.203   6.289
17385TIP3   OH252034   3.509   9.197   6.383
17385TIP3    H152035   3.596   9.180   6.345
17385TIP3    H252036   3.503   9.125   6.450
17386TIP3   OH252037   4.334   9.255   6.174
17386TIP3    H152038   4.353   9.227   6.266
17386TIP3    H252039   4.423   9.253   6.133
17387TIP3   OH252040   4.517   9.703   4.691
17387TIP3    H152041   4.474   9.781   4.728
17387TIP3    H252042   4.442   9.646   4.669
17388TIP3   OH252043   6.363   9.727   4.847
17388TIP3    H152044   6.380   9.809   4.897
17388TIP3    H252045   6.383   9.755   4.756
17389TIP3   OH252046   5.087   9.568   4.859
17389TIP3    H152047   5.067   9.641   4.797
17389TIP3    H252048   5.040   9.495   4.813
17390TIP3   OH252049   5.781   9.655   4.480
17390TIP3    H152050   5.851   9.638   4.548
17390TIP3    H252051   5.834   9.691   4.407
17391TIP3   OH252052   4.710   9.734   4.978
17391TIP3    H152053   4.799   9.755   5.013
17391TIP3    H252054   4.730   9.722   4.884
17392TIP3   OH252055   5.193   9.970   4.716
17392TIP3    H152056   5.250   9.941   4.788
17392TIP3    H252057   5.127   9.899   4.709
17393TIP3   OH252058   6.435   9.933   5.027
17393TIP3    H152059   6.353   9.977   4.997
17393TIP3    H252060   6.427   9.946   5.122
17394TIP3   OH252061   5.082   9.549   5.296
17394TIP3    H152062   5.026   9.591   5.227
17394TIP3    H252063   5.031   9.572   5.377
17395TIP3   OH252064   5.981   9.666   4.665
17395TIP3    H152065   6.011   9.582   4.703
17395TIP3    H252066   6.059   9.724   4.680
17396TIP3   OH252067   4.957   9.659   5.082
17396TIP3    H152068   5.010   9.741   5.099
17396TIP3    H252069   5.005   9.624   5.003
17397TIP3   OH252070   6.151   9.684   5.037
17397TIP3    H152071   6.085   9.613   5.032
17397TIP3    H252072   6.210   9.661   4.963
17398TIP3   OH252073   5.444   9.276   5.003
17398TIP3    H152074   5.435   9.181   5.020
17398TIP3    H252075   5.365   9.310   5.052
17399TIP3   OH252076   5.344   9.796   3.999
17399TIP3    H152077   5.397   9.856   4.053
17399TIP3    H252078   5.412   9.744   3.951
17400TIP3   OH252079   5.982  10.151   5.136
17400TIP3    H152080   5.992  10.242   5.105
17400TIP3    H252081   5.890  10.132   5.106
17401TIP3   OH252082   6.076   9.218   4.107
17401TIP3    H152083   5.994   9.235   4.159
17401TIP3    H252084   6.086   9.302   4.059
17402TIP3   OH252085   6.203  10.119   5.319
17402TIP3    H152086   6.127  10.110   5.259
17402TIP3    H252087   6.233  10.026   5.323
17403TIP3   OH252088   5.203   9.348   5.132
17403TIP3    H152089   5.112   9.319   5.108
17403TIP3    H252090   5.182   9.433   5.175
17404TIP3   OH252091   5.734   9.468   5.326
17404TIP3    H152092   5.802   9.439   5.389
17404TIP3    H252093   5.650   9.445   5.372
17405TIP3   OH252094   5.979   9.887   5.253
17405TIP3    H152095   5.927   9.878   5.336
17405TIP3    H252096   5.953   9.974   5.220
17406TIP3   OH252097   5.354   9.398   4.106
17406TIP3    H152098   5.318   9.398   4.197
17406TIP3    H252099   5.313   9.316   4.072
17407TIP3   OH252100   5.123   9.869   5.139
17407TIP3    H152101   5.083   9.879   5.228
17407TIP3    H252102   5.109   9.958   5.102
17408TIP3   OH252103   5.020   9.749   4.670
17408TIP3    H152104   4.926   9.723   4.683
17408TIP3    H252105   5.035   9.714   4.579
17409TIP3   OH252106   5.524   9.839   4.400
17409TIP3    H152107   5.442   9.888   4.378
17409TIP3    H252108   5.563   9.822   4.312
17410TIP3   OH252109   5.695  10.100   5.464
17410TIP3    H152110   5.672  10.027   5.526
17410TIP3    H252111   5.778  10.133   5.503
17411TIP3   OH252112   5.688   9.844   4.648
17411TIP3    H152113   5.618   9.881   4.589
17411TIP3    H252114   5.707   9.765   4.592
17412TIP3   OH252115   4.957   9.888   5.380
17412TIP3    H152116   4.896   9.953   5.418
17412TIP3    H252117   4.923   9.805   5.417
17413TIP3   OH252118   5.008   9.373   4.076
17413TIP3    H152119   4.999   9.369   4.173
17413TIP3    H252120   4.924   9.414   4.050
17414TIP3   OH252121   4.552   9.411   4.946
17414TIP3    H152122   4.622   9.470   4.979
17414TIP3    H252123   4.582   9.387   4.857
17415TIP3   OH252124   4.529   9.395   4.464
17415TIP3    H152125   4.573   9.433   4.386
17415TIP3    H252126   4.467   9.467   4.486
17416TIP3   OH252127   5.716  10.071   5.049
17416TIP3    H152128   5.636  10.062   4.995
17416TIP3    H252129   5.672  10.067   5.136
17417TIP3   OH252130   5.345   9.588   4.733
17417TIP3    H152131   5.260   9.573   4.780
17417TIP3    H252132   5.410   9.563   4.800
17418TIP3   OH252133   4.780   9.629   4.731
17418TIP3    H152134   4.685   9.636   4.707
17418TIP3    H252135   4.803   9.537   4.708
17419TIP3   OH252136   5.055   9.625   4.424
17419TIP3    H152137   5.147   9.647   4.401
17419TIP3    H252138   5.004   9.655   4.347
17420TIP3   OH252139   5.803   9.669   4.919
17420TIP3    H152140   5.791   9.657   5.016
17420TIP3    H252141   5.789   9.578   4.887
17421TIP3   OH252142   4.863   9.648   4.215
17421TIP3    H152143   4.813   9.602   4.144
17421TIP3    H252144   4.924   9.702   4.160
17422TIP3   OH252145   5.480   9.901   4.849
17422TIP3    H152146   5.481   9.832   4.782
17422TIP3    H252147   5.440   9.858   4.926
17423TIP3   OH252148   4.957   9.389   4.701
17423TIP3    H152149   4.928   9.305   4.740
17423TIP3    H252150   5.007   9.360   4.623
17424TIP3   OH252151   5.401   9.793   5.115
17424TIP3    H152152   5.313   9.835   5.126
17424TIP3    H252153   5.460   9.853   5.166
17425TIP3   OH252154   5.600   9.511   4.069
17425TIP3    H152155   5.505   9.489   4.079
17425TIP3    H252156   5.606   9.605   4.093
17426TIP3   OH252157   5.670   9.767   4.159
17426TIP3    H152158   5.761   9.753   4.192
17426TIP3    H252159   5.679   9.850   4.110
17427TIP3   OH252160   5.378  10.163   5.559
17427TIP3    H152161   5.387  10.182   5.463
17427TIP3    H252162   5.468  10.146   5.588
17428TIP3   OH252163   6.112   9.826   4.017
17428TIP3    H152164   6.048   9.786   3.954
17428TIP3    H252165   6.117   9.915   3.980
17429TIP3   OH252166   4.921   9.613   5.513
17429TIP3    H152167   4.836   9.647   5.546
17429TIP3    H252168   4.960   9.581   5.596
17430TIP3   OH252169   5.763   9.703   5.190
17430TIP3    H152170   5.845   9.735   5.231
17430TIP3    H252171   5.745   9.622   5.242
17431TIP3   OH252172   5.642   9.453   4.349
17431TIP3    H152173   5.628   9.478   4.256
17431TIP3    H252174   5.680   9.534   4.388
17432TIP3   OH252175   5.341   9.630   4.455
17432TIP3    H152176   5.409   9.699   4.441
17432TIP3    H252177   5.339   9.624   4.553
17433TIP3   OH252178   5.589   9.940   5.262
17433TIP3    H152179   5.618  10.000   5.334
17433TIP3    H252180   5.650   9.865   5.271
17434TIP3   OH252181   5.476   9.363   4.559
17434TIP3    H152182   5.481   9.435   4.624
17434TIP3    H252183   5.538   9.397   4.491
17435TIP3   OH252184   4.989   9.355   4.351
17435TIP3    H152185   4.988   9.448   4.380
17435TIP3    H252186   5.084   9.336   4.359
17436TIP3   OH252187   6.247   9.855   5.239
17436TIP3    H152188   6.150   9.851   5.254
17436TIP3    H252189   6.246   9.801   5.157
17437TIP3   OH252190   5.878  10.038   4.642
17437TIP3    H152191   5.822   9.960   4.630
17437TIP3    H252192   5.963  10.003   4.676
17438TIP3   OH252193   4.546   9.548   4.240
17438TIP3    H152194   4.560   9.642   4.226
17438TIP3    H252195   4.466   9.527   4.191
17439TIP3   OH252196   4.937   9.261   5.115
17439TIP3    H152197   4.911   9.231   5.024
17439TIP3    H252198   4.940   9.176   5.164
17440TIP3   OH252199   4.925  10.145   5.724
17440TIP3    H152200   4.932  10.055   5.757
17440TIP3    H252201   4.905  10.192   5.808
17441TIP3   OH252202   5.214   9.974   5.388
17441TIP3    H152203   5.117   9.964   5.398
17441TIP3    H252204   5.222  10.042   5.318
17442TIP3   OH252205   5.047   9.758   4.055
17442TIP3    H152206   5.036   9.698   3.979
17442TIP3    H252207   5.134   9.796   4.038
17443TIP3   OH252208   5.358   9.816   5.544
17443TIP3    H152209   5.351   9.736   5.489
17443TIP3    H252210   5.310   9.881   5.487
17444TIP3   OH252211   5.343   9.620   5.335
17444TIP3    H152212   5.368   9.669   5.254
17444TIP3    H252213   5.248   9.603   5.320
17445TIP3   OH252214   5.969  10.144   5.589
17445TIP3    H152215   5.985  10.051   5.611
17445TIP3    H252216   6.058  10.172   5.566
17446TIP3   OH252217   5.222   9.955   5.760
17446TIP3    H152218   5.149   9.889   5.770
17446TIP3    H252219   5.254   9.933   5.671
17447TIP3   OH252220   5.477   9.391   5.404
17447TIP3    H152221   5.429   9.473   5.381
17447TIP3    H252222   5.408   9.323   5.392
17448TIP3   OH252223   5.601   9.907   5.629
17448TIP3    H152224   5.589   9.883   5.723
17448TIP3    H252225   5.514   9.876   5.596
17449TIP3   OH252226   5.845   9.836   5.481
17449TIP3    H152227   5.768   9.840   5.540
17449TIP3    H252228   5.917   9.805   5.540
17450TIP3   OH252229   6.078   9.786   5.632
17450TIP3    H152230   6.085   9.690   5.651
17450TIP3    H252231   6.070   9.826   5.721
17451TIP3   OH252232   5.066   9.737   5.811
17451TIP3    H152233   5.066   9.646   5.779
17451TIP3    H252234   5.089   9.725   5.905
17452TIP3   OH252235   5.573   9.401   5.661
17452TIP3    H152236   5.640   9.330   5.655
17452TIP3    H252237   5.532   9.394   5.572
17453TIP3   OH252238   5.637   9.617   5.820
17453TIP3    H152239   5.613   9.546   5.757
17453TIP3    H252240   5.559   9.676   5.816
17454TIP3   OH252241   5.939   9.755   3.817
17454TIP3    H152242   5.916   9.779   3.726
17454TIP3    H252243   5.916   9.660   3.817
17455TIP3   OH252244   5.969  10.007   4.374
17455TIP3    H152245   5.974   9.911   4.385
17455TIP3    H252246   5.959  10.038   4.466
17456TIP3   OH252247   6.414  10.278   5.253
17456TIP3    H152248   6.341  10.218   5.277
17456TIP3    H252249   6.489  10.215   5.253
17457TIP3   OH252250   5.885   9.491   3.813
17457TIP3    H152251   5.963   9.454   3.861
17457TIP3    H252252   5.814   9.427   3.833
17458TIP3   OH252253   5.937   9.732   4.262
17458TIP3    H152254   5.979   9.644   4.273
17458TIP3    H252255   5.997   9.771   4.196
17459TIP3   OH252256   6.101   9.920   4.746
17459TIP3    H152257   6.186   9.945   4.702
17459TIP3    H252258   6.127   9.950   4.836
17460TIP3   OH252259   6.183  10.045   4.972
17460TIP3    H152260   6.109  10.076   5.028
17460TIP3    H252261   6.233  10.129   4.957
17461TIP3   OH252262   4.790   9.763   5.745
17461TIP3    H152263   4.874   9.798   5.782
17461TIP3    H252264   4.755   9.721   5.825
17462TIP3   OH252265   6.625   9.646   5.543
17462TIP3    H152266   6.684   9.581   5.499
17462TIP3    H252267   6.600   9.705   5.469
17463TIP3   OH252268   6.051   9.489   4.296
17463TIP3    H152269   6.104   9.473   4.377
17463TIP3    H252270   5.992   9.411   4.297
17464TIP3   OH252271   4.756   9.453   5.160
17464TIP3    H152272   4.836   9.407   5.123
17464TIP3    H252273   4.777   9.546   5.133
17465TIP3   OH252274   4.553   9.762   5.196
17465TIP3    H152275   4.602   9.755   5.112
17465TIP3    H252276   4.572   9.854   5.222
17466TIP3   OH252277   6.500   9.794   5.349
17466TIP3    H152278   6.410   9.828   5.368
17466TIP3    H252279   6.477   9.722   5.288
17467TIP3   OH252280   6.137   9.429   3.926
17467TIP3    H152281   6.177   9.354   3.877
17467TIP3    H252282   6.206   9.497   3.919
17468TIP3   OH252283   4.539   9.263   4.696
17468TIP3    H152284   4.444   9.254   4.714
17468TIP3    H252285   4.540   9.314   4.612
17469TIP3   OH252286   6.387   9.554   5.223
17469TIP3    H152287   6.300   9.553   5.178
17469TIP3    H252288   6.415   9.460   5.210
17470TIP3   OH252289   5.587   9.468   4.836
17470TIP3    H152290   5.555   9.397   4.895
17470TIP3    H252291   5.666   9.426   4.795
17471TIP3   OH252292   6.216   9.448   4.506
17471TIP3    H152293   6.293   9.396   4.473
17471TIP3    H252294   6.253   9.539   4.501
17472TIP3   OH252295   4.850   9.177   4.869
17472TIP3    H152296   4.758   9.145   4.860
17472TIP3    H252297   4.899   9.092   4.861
17473TIP3   OH252298   4.636   9.044   4.509
17473TIP3    H152299   4.668   9.101   4.436
17473TIP3    H252300   4.605   9.109   4.574
17474TIP3   OH252301   5.290   9.212   4.742
17474TIP3    H152302   5.351   9.260   4.683
17474TIP3    H252303   5.316   9.246   4.829
17475TIP3   OH252304   5.815   9.362   4.724
17475TIP3    H152305   5.849   9.325   4.642
17475TIP3    H252306   5.826   9.286   4.785
17476TIP3   OH252307   5.870   9.275   4.287
17476TIP3    H152308   5.782   9.317   4.296
17476TIP3    H252309   5.855   9.191   4.335
17477TIP3   OH252310   4.751   9.207   4.273
17477TIP3    H152311   4.800   9.143   4.218
17477TIP3    H252312   4.823   9.261   4.311
17478TIP3   OH252313   5.266   9.380   4.371
17478TIP3    H152314   5.326   9.334   4.431
17478TIP3    H252315   5.287   9.473   4.396
17479TIP3   OH252316   5.061   9.451   5.744
17479TIP3    H152317   5.022   9.392   5.810
17479TIP3    H252318   5.153   9.457   5.776
17480TIP3   OH252319   5.305   9.454   5.871
17480TIP3    H152320   5.391   9.428   5.833
17480TIP3    H252321   5.292   9.384   5.939
17481TIP3   OH252322   6.131   9.514   5.660
17481TIP3    H152323   6.151   9.483   5.751
17481TIP3    H252324   6.219   9.510   5.617
17482TIP3   OH252325   6.313   9.962   4.176
17482TIP3    H152326   6.268  10.040   4.212
17482TIP3    H252327   6.239   9.901   4.159
17483TIP3   OH252328   7.544  10.176   4.380
17483TIP3    H152329   7.586  10.090   4.399
17483TIP3    H252330   7.522  10.164   4.285
17484TIP3   OH252331   6.881   9.825   4.347
17484TIP3    H152332   6.863   9.899   4.284
17484TIP3    H252333   6.833   9.753   4.301
17485TIP3   OH252334   7.575   9.910   3.978
17485TIP3    H152335   7.648   9.894   4.042
17485TIP3    H252336   7.625   9.952   3.907
17486TIP3   OH252337   6.508  10.010   4.462
17486TIP3    H152338   6.597  10.003   4.500
17486TIP3    H252339   6.524   9.979   4.371
17487TIP3   OH252340   6.973  10.229   4.226
17487TIP3    H152341   7.057  10.192   4.260
17487TIP3    H252342   6.922  10.150   4.202
17488TIP3   OH252343   6.881   9.811   4.781
17488TIP3    H152344   6.820   9.844   4.712
17488TIP3    H252345   6.829   9.828   4.862
17489TIP3   OH252346   7.796   9.918   4.139
17489TIP3    H152347   7.781   9.860   4.215
17489TIP3    H252348   7.877   9.966   4.165
17490TIP3   OH252349   6.752   9.921   4.566
17490TIP3    H152350   6.812   9.997   4.584
17490TIP3    H252351   6.800   9.880   4.490
17491TIP3   OH252352   7.940   9.893   4.504
17491TIP3    H152353   7.846   9.916   4.492
17491TIP3    H252354   7.977   9.914   4.417
17492TIP3   OH252355   7.242   9.532   4.492
17492TIP3    H152356   7.229   9.437   4.509
17492TIP3    H252357   7.163   9.569   4.538
17493TIP3   OH252358   7.145  10.033   3.525
17493TIP3    H152359   7.185  10.119   3.538
17493TIP3    H252360   7.182  10.005   3.439
17494TIP3   OH252361   7.865   9.471   3.588
17494TIP3    H152362   7.789   9.485   3.648
17494TIP3    H252363   7.876   9.560   3.551
17495TIP3   OH252364   7.001   9.605   4.618
17495TIP3    H152365   6.910   9.575   4.596
17495TIP3    H252366   6.979   9.690   4.661
17496TIP3   OH252367   7.532   9.723   4.815
17496TIP3    H152368   7.598   9.693   4.879
17496TIP3    H252369   7.447   9.701   4.859
17497TIP3   OH252370   7.781  10.149   4.734
17497TIP3    H152371   7.734  10.139   4.819
17497TIP3    H252372   7.737  10.226   4.695
17498TIP3   OH252373   7.149   9.655   3.592
17498TIP3    H152374   7.116   9.655   3.684
17498TIP3    H252375   7.108   9.572   3.559
17499TIP3   OH252376   6.922  10.128   4.628
17499TIP3    H152377   6.871  10.142   4.711
17499TIP3    H252378   6.913  10.213   4.583
17500TIP3   OH252379   6.816  10.004   4.155
17500TIP3    H152380   6.723   9.978   4.170
17500TIP3    H252381   6.830   9.967   4.065
17501TIP3   OH252382   7.319  10.097   3.882
17501TIP3    H152383   7.235  10.142   3.859
17501TIP3    H252384   7.357  10.073   3.795
17502TIP3   OH252385   7.484  10.371   4.966
17502TIP3    H152386   7.456  10.291   5.017
17502TIP3    H252387   7.580  10.364   4.973
17503TIP3   OH252388   7.452  10.117   4.125
17503TIP3    H152389   7.397  10.134   4.045
17503TIP3    H252390   7.498  10.038   4.093
17504TIP3   OH252391   6.757  10.152   4.874
17504TIP3    H152392   6.707  10.197   4.944
17504TIP3    H252393   6.733  10.059   4.893
17505TIP3   OH252394   6.805   9.631   3.562
17505TIP3    H152395   6.796   9.627   3.659
17505TIP3    H252396   6.719   9.671   3.537
17506TIP3   OH252397   6.341   9.676   4.428
17506TIP3    H152398   6.416   9.707   4.482
17506TIP3    H252399   6.384   9.637   4.350
17507TIP3   OH252400   6.323   9.652   3.948
17507TIP3    H152401   6.370   9.692   3.872
17507TIP3    H252402   6.263   9.725   3.973
17508TIP3   OH252403   7.499  10.365   4.573
17508TIP3    H152404   7.521  10.303   4.501
17508TIP3    H252405   7.438  10.309   4.625
17509TIP3   OH252406   7.137   9.821   4.215
17509TIP3    H152407   7.054   9.827   4.266
17509TIP3    H252408   7.203   9.844   4.283
17510TIP3   OH252409   6.576   9.887   4.220
17510TIP3    H152410   6.480   9.891   4.198
17510TIP3    H252411   6.599   9.794   4.202
17511TIP3   OH252412   6.851   9.879   3.911
17511TIP3    H152413   6.944   9.903   3.893
17511TIP3    H252414   6.803   9.910   3.831
17512TIP3   OH252415   7.634   9.904   4.419
17512TIP3    H152416   7.595   9.917   4.508
17512TIP3    H252417   7.569   9.843   4.380
17513TIP3   OH252418   6.686   9.905   3.683
17513TIP3    H152419   6.612   9.861   3.638
17513TIP3    H252420   6.690   9.989   3.634
17514TIP3   OH252421   7.220  10.129   4.305
17514TIP3    H152422   7.306  10.122   4.260
17514TIP3    H252423   7.245  10.130   4.399
17515TIP3   OH252424   6.750   9.647   4.187
17515TIP3    H152425   6.720   9.565   4.232
17515TIP3    H252426   6.805   9.614   4.115
17516TIP3   OH252427   7.199  10.040   4.615
17516TIP3    H152428   7.114  10.087   4.606
17516TIP3    H252429   7.258  10.108   4.655
17517TIP3   OH252430   7.396   9.766   3.563
17517TIP3    H152431   7.301   9.741   3.566
17517TIP3    H252432   7.394   9.862   3.577
17518TIP3   OH252433   7.472  10.027   3.649
17518TIP3    H152434   7.564   9.997   3.655
17518TIP3    H252435   7.473  10.082   3.570
17519TIP3   OH252436   9.058   1.069   6.878
17519TIP3    H152437   9.091   1.007   6.812
17519TIP3    H252438   9.138   1.091   6.927
17520TIP3   OH252439   6.721   9.891   4.997
17520TIP3    H152440   6.624   9.895   5.010
17520TIP3    H252441   6.748   9.828   5.065
17521TIP3   OH252442   7.556   9.962   4.679
17521TIP3    H152443   7.638   9.993   4.718
17521TIP3    H252444   7.539   9.879   4.729
17522TIP3   OH252445   7.437   9.707   3.838
17522TIP3    H152446   7.424   9.733   3.745
17522TIP3    H252447   7.478   9.788   3.877
17523TIP3   OH252448   7.136   9.887   3.943
17523TIP3    H152449   7.206   9.954   3.931
17523TIP3    H252450   7.135   9.878   4.041
17524TIP3   OH252451   7.384  10.198   4.753
17524TIP3    H152452   7.419  10.253   4.825
17524TIP3    H252453   7.445  10.121   4.753
17525TIP3   OH252454   7.276   9.618   4.049
17525TIP3    H152455   7.267   9.694   4.110
17525TIP3    H252456   7.334   9.657   3.979
17526TIP3   OH252457   6.786   9.611   3.836
17526TIP3    H152458   6.783   9.703   3.869
17526TIP3    H252459   6.882   9.593   3.846
17527TIP3   OH252460   8.059  10.113   4.713
17527TIP3    H152461   7.964  10.126   4.736
17527TIP3    H252462   8.050  10.062   4.632
17528TIP3   OH252463   6.349   9.810   3.722
17528TIP3    H152464   6.350   9.906   3.713
17528TIP3    H252465   6.265   9.784   3.683
17529TIP3   OH252466   6.735   9.529   4.598
17529TIP3    H152467   6.703   9.495   4.512
17529TIP3    H252468   6.728   9.449   4.655
17530TIP3   OH252469   6.716  10.407   5.199
17530TIP3    H152470   6.753  10.327   5.238
17530TIP3    H252471   6.708  10.467   5.277
17531TIP3   OH252472   7.024  10.231   4.878
17531TIP3    H152473   6.927  10.226   4.893
17531TIP3    H252474   7.025  10.265   4.787
17532TIP3   OH252475   6.873  10.011   3.495
17532TIP3    H152476   6.852   9.921   3.523
17532TIP3    H252477   6.960  10.024   3.539
17533TIP3   OH252478   7.150  10.066   5.040
17533TIP3    H152479   7.153   9.986   4.984
17533TIP3    H252480   7.108  10.129   4.976
17534TIP3   OH252481   7.140   9.877   4.830
17534TIP3    H152482   7.167   9.926   4.749
17534TIP3    H252483   7.046   9.859   4.810
17535TIP3   OH252484   6.998  10.217   5.232
17535TIP3    H152485   6.937  10.143   5.251
17535TIP3    H252486   7.047  10.182   5.155
17536TIP3   OH252487   7.274   9.647   4.891
17536TIP3    H152488   7.224   9.730   4.868
17536TIP3    H252489   7.204   9.580   4.879
17537TIP3   OH252490   7.401  10.157   5.106
17537TIP3    H152491   7.393  10.142   5.202
17537TIP3    H252492   7.311  10.126   5.080
17538TIP3   OH252493   7.640  10.103   4.962
17538TIP3    H152494   7.564  10.096   5.023
17538TIP3    H252495   7.714  10.077   5.022
17539TIP3   OH252496   7.849  10.043   5.130
17539TIP3    H152497   7.875   9.949   5.134
17539TIP3    H252498   7.843  10.068   5.222
17540TIP3   OH252499   6.854   9.994   5.298
17540TIP3    H152500   6.860   9.904   5.260
17540TIP3    H252501   6.888   9.978   5.388
17541TIP3   OH252502   7.367   9.659   5.148
17541TIP3    H152503   7.436   9.589   5.143
17541TIP3    H252504   7.328   9.651   5.059
17542TIP3   OH252505   7.429   9.870   5.312
17542TIP3    H152506   7.410   9.800   5.246
17542TIP3    H252507   7.355   9.933   5.298
17543TIP3   OH252508   7.669   9.766   3.310
17543TIP3    H152509   7.758   9.737   3.339
17543TIP3    H252510   7.615   9.686   3.317
17544TIP3   OH252511   6.586  10.055   5.282
17544TIP3    H152512   6.683  10.041   5.273
17544TIP3    H252513   6.560   9.967   5.315
17545TIP3   OH252514   7.816   9.757   3.804
17545TIP3    H152515   7.883   9.739   3.872
17545TIP3    H252516   7.772   9.670   3.797
17546TIP3   OH252517   6.547   9.731   4.603
17546TIP3    H152518   6.613   9.660   4.614
17546TIP3    H252519   6.606   9.809   4.595
17547TIP3   OH252520   6.349  10.013   4.682
17547TIP3    H152521   6.400  10.002   4.598
17547TIP3    H252522   6.373  10.104   4.704
17548TIP3   OH252523   6.335   9.512   4.178
17548TIP3    H152524   6.242   9.510   4.203
17548TIP3    H252525   6.335   9.569   4.098
17549TIP3   OH252526   6.557   9.594   4.995
17549TIP3    H152527   6.502   9.585   5.074
17549TIP3    H252528   6.493   9.632   4.932
17550TIP3   OH252529   8.194   9.807   4.719
17550TIP3    H152530   8.108   9.814   4.675
17550TIP3    H252531   8.225   9.719   4.691
17551TIP3   OH252532   7.402   9.726   4.331
17551TIP3    H152533   7.353   9.659   4.383
17551TIP3    H252534   7.469   9.672   4.286
17552TIP3   OH252535   7.922   9.609   4.238
17552TIP3    H152536   7.960   9.658   4.162
17552TIP3    H252537   7.826   9.622   4.227
17553TIP3   OH252538   8.019   9.719   3.998
17553TIP3    H152539   8.084   9.654   3.960
17553TIP3    H252540   8.070   9.800   3.988
17554TIP3   OH252541   6.648   9.433   4.349
17554TIP3    H152542   6.556   9.400   4.349
17554TIP3    H252543   6.697   9.349   4.345
17555TIP3   OH252544   6.433   9.301   3.993
17555TIP3    H152545   6.462   9.361   3.922
17555TIP3    H252546   6.402   9.364   4.061
17556TIP3   OH252547   7.089   9.464   4.228
17556TIP3    H152548   7.146   9.520   4.172
17556TIP3    H252549   7.103   9.504   4.315
17557TIP3   OH252550   7.643   9.611   4.212
17557TIP3    H152551   7.634   9.576   4.122
17557TIP3    H252552   7.625   9.530   4.266
17558TIP3   OH252553   7.663   9.525   3.770
17558TIP3    H152554   7.578   9.570   3.783
17558TIP3    H252555   7.649   9.443   3.822
17559TIP3   OH252556   6.547   9.463   3.761
17559TIP3    H152557   6.596   9.402   3.704
17559TIP3    H252558   6.619   9.517   3.799
17560TIP3   OH252559   7.064   9.635   3.860
17560TIP3    H152560   7.125   9.592   3.922
17560TIP3    H252561   7.082   9.729   3.883
17561TIP3   OH252562   6.854   9.716   5.241
17561TIP3    H152563   6.822   9.644   5.297
17561TIP3    H252564   6.949   9.717   5.266
17562TIP3   OH252565   7.104   9.713   5.360
17562TIP3    H152566   7.187   9.685   5.317
17562TIP3    H252567   7.092   9.640   5.425
17563TIP3   OH252568   7.927   9.775   5.146
17563TIP3    H152569   7.948   9.742   5.236
17563TIP3    H252570   8.013   9.766   5.100
17564TIP3   OH252571   2.739   1.189   8.793
17564TIP3    H152572   2.746   1.284   8.773
17564TIP3    H252573   2.829   1.157   8.774
17565TIP3   OH252574   2.762   1.470   8.771
17565TIP3    H152575   2.806   1.538   8.716
17565TIP3    H252576   2.681   1.519   8.793
17566TIP3   OH252577   2.420   1.241   8.774
17566TIP3    H152578   2.474   1.179   8.824
17566TIP3    H252579   2.460   1.231   8.685
17567TIP3   OH252580   4.071   1.019   9.070
17567TIP3    H152581   4.075   1.107   9.024
17567TIP3    H252582   4.064   0.963   8.989
17568TIP3   OH252583   4.431   1.324   9.113
17568TIP3    H152584   4.439   1.274   9.196
17568TIP3    H252585   4.459   1.412   9.141
17569TIP3   OH252586   4.086   1.791   9.133
17569TIP3    H152587   4.146   1.733   9.080
17569TIP3    H252588   4.133   1.797   9.217
17570TIP3   OH252589   4.075   1.246   8.934
17570TIP3    H152590   4.068   1.240   8.838
17570TIP3    H252591   4.061   1.343   8.945
17571TIP3   OH252592   4.233   1.636   8.968
17571TIP3    H152593   4.273   1.553   8.933
17571TIP3    H252594   4.289   1.701   8.919
17572TIP3   OH252595   4.347   1.411   8.861
17572TIP3    H152596   4.351   1.340   8.795
17572TIP3    H252597   4.394   1.372   8.936
17573TIP3   OH252598   4.032   0.881   8.843
17573TIP3    H152599   3.946   0.924   8.822
17573TIP3    H252600   4.079   0.888   8.759
17574TIP3   OH252601   3.998   0.677   8.596
17574TIP3    H152602   4.070   0.720   8.645
17574TIP3    H252603   4.047   0.607   8.549
17575TIP3   OH252604   4.380   0.968   8.859
17575TIP3    H152605   4.351   0.990   8.950
17575TIP3    H252606   4.471   0.938   8.881
17576TIP3   OH252607   4.238   0.822   8.671
17576TIP3    H152608   4.292   0.883   8.727
17576TIP3    H252609   4.264   0.853   8.580
17577TIP3   OH252610   3.978   1.506   8.951
17577TIP3    H152611   4.043   1.574   8.975
17577TIP3    H252612   3.904   1.560   8.920
17578TIP3   OH252613   4.548   1.443   8.297
17578TIP3    H152614   4.539   1.527   8.247
17578TIP3    H252615   4.637   1.413   8.268
17579TIP3   OH252616   3.848   1.762   8.756
17579TIP3    H152617   3.803   1.742   8.672
17579TIP3    H252618   3.817   1.852   8.776
17580TIP3   OH252619   4.059   1.651   8.397
17580TIP3    H152620   4.128   1.588   8.374
17580TIP3    H252621   4.083   1.673   8.490
17581TIP3   OH252622   4.098   1.708   8.665
17581TIP3    H152623   4.011   1.719   8.710
17581TIP3    H252624   4.153   1.671   8.736
17582TIP3   OH252625   4.301   0.878   8.416
17582TIP3    H152626   4.272   0.857   8.326
17582TIP3    H252627   4.373   0.941   8.397
17583TIP3   OH252628   4.191   0.694   8.969
17583TIP3    H152629   4.140   0.757   8.913
17583TIP3    H252630   4.245   0.650   8.901
17584TIP3   OH252631   3.533   0.513   8.816
17584TIP3    H152632   3.477   0.474   8.746
17584TIP3    H252633   3.605   0.551   8.763
17585TIP3   OH252634   3.806   1.041   8.823
17585TIP3    H152635   3.733   0.978   8.802
17585TIP3    H252636   3.789   1.056   8.917
17586TIP3   OH252637   4.335   0.576   8.767
17586TIP3    H152638   4.430   0.585   8.789
17586TIP3    H252639   4.319   0.658   8.717
17587TIP3   OH252640   3.959   1.198   8.653
17587TIP3    H152641   3.913   1.286   8.656
17587TIP3    H252642   3.899   1.145   8.709
17588TIP3   OH252643   4.780   0.690   8.631
17588TIP3    H152644   4.717   0.645   8.571
17588TIP3    H252645   4.783   0.778   8.587
17589TIP3   OH252646   4.468   1.515   8.545
17589TIP3    H152647   4.461   1.432   8.593
17589TIP3    H252648   4.494   1.486   8.455
17590TIP3   OH252649   3.504   1.608   8.966
17590TIP3    H152650   3.433   1.620   9.030
17590TIP3    H252651   3.553   1.691   8.980
17591TIP3   OH252652   4.219   1.220   8.444
17591TIP3    H152653   4.278   1.216   8.521
17591TIP3    H252654   4.132   1.215   8.485
17592TIP3   OH252655   4.575   1.724   8.261
17592TIP3    H152656   4.609   1.792   8.200
17592TIP3    H252657   4.494   1.769   8.291
17593TIP3   OH252658   4.392   1.187   8.672
17593TIP3    H152659   4.387   1.110   8.732
17593TIP3    H252660   4.486   1.181   8.644
17594TIP3   OH252661   3.605   1.222   8.437
17594TIP3    H152662   3.615   1.130   8.408
17594TIP3    H252663   3.582   1.211   8.531
17595TIP3   OH252664   3.549   1.228   8.708
17595TIP3    H152665   3.612   1.206   8.777
17595TIP3    H252666   3.550   1.326   8.710
17596TIP3   OH252667   3.813   1.426   8.663
17596TIP3    H152668   3.725   1.454   8.695
17596TIP3    H252669   3.830   1.494   8.597
17597TIP3   OH252670   3.553   1.498   8.721
17597TIP3    H152671   3.523   1.568   8.658
17597TIP3    H252672   3.531   1.541   8.807
17598TIP3   OH252673   3.265   1.146   8.717
17598TIP3    H152674   3.328   1.219   8.726
17598TIP3    H252675   3.317   1.085   8.663
17599TIP3   OH252676   4.525   1.860   9.186
17599TIP3    H152677   4.477   1.919   9.124
17599TIP3    H252678   4.616   1.893   9.172
17600TIP3   OH252679   3.766   1.431   8.357
17600TIP3    H152680   3.711   1.356   8.389
17600TIP3    H252681   3.839   1.382   8.313
17601TIP3   OH252682   3.408   0.943   8.571
17601TIP3    H152683   3.461   0.915   8.647
17601TIP3    H252684   3.478   0.951   8.503
17602TIP3   OH252685   3.913   1.136   8.380
17602TIP3    H152686   3.913   1.155   8.475
17602TIP3    H252687   3.904   1.039   8.379
17603TIP3   OH252688   3.606   0.849   8.768
17603TIP3    H152689   3.621   0.826   8.862
17603TIP3    H252690   3.635   0.766   8.726
17604TIP3   OH252691   3.719   0.625   8.638
17604TIP3    H152692   3.690   0.639   8.545
17604TIP3    H252693   3.814   0.650   8.632
17605TIP3   OH252694   4.542   0.969   8.295
17605TIP3    H152695   4.521   0.931   8.208
17605TIP3    H252696   4.513   1.062   8.280
17606TIP3   OH252697   3.522   1.702   8.537
17606TIP3    H152698   3.617   1.704   8.520
17606TIP3    H252699   3.490   1.750   8.459
17607TIP3   OH252700   2.995   1.090   8.735
17607TIP3    H152701   3.090   1.115   8.746
17607TIP3    H252702   3.003   0.997   8.709
17608TIP3   OH252703   4.782   1.954   9.163
17608TIP3    H152704   4.821   2.021   9.219
17608TIP3    H252705   4.820   1.978   9.077
17609TIP3   OH252706   4.668   1.161   8.632
17609TIP3    H152707   4.735   1.226   8.600
17609TIP3    H252708   4.715   1.124   8.710
17610TIP3   OH252709   4.797   1.031   8.833
17610TIP3    H152710   4.740   0.986   8.898
17610TIP3    H252711   4.871   1.065   8.888
17611TIP3   OH252712   4.841   1.411   9.195
17611TIP3    H152713   4.921   1.353   9.187
17611TIP3    H252714   4.873   1.494   9.154
17612TIP3   OH252715   4.735   0.930   8.486
17612TIP3    H152716   4.667   0.941   8.415
17612TIP3    H252717   4.715   1.009   8.540
17613TIP3   OH252718   4.609   0.600   8.438
17613TIP3    H152719   4.578   0.674   8.385
17613TIP3    H252720   4.577   0.524   8.387
17614TIP3   OH252721   4.610   0.878   8.984
17614TIP3    H152722   4.626   0.783   8.986
17614TIP3    H252723   4.606   0.901   9.078
17615TIP3   OH252724   4.597   0.598   8.830
17615TIP3    H152725   4.640   0.563   8.911
17615TIP3    H252726   4.673   0.633   8.779
17616TIP3   OH252727   4.361   1.810   8.812
17616TIP3    H152728   4.416   1.801   8.731
17616TIP3    H252729   4.407   1.881   8.860
17617TIP3   OH252730   2.982   1.434   8.924
17617TIP3    H152731   2.907   1.410   8.866
17617TIP3    H252732   3.006   1.521   8.889
17618TIP3   OH252733   3.794   1.669   8.490
17618TIP3    H152734   3.881   1.691   8.451
17618TIP3    H252735   3.770   1.593   8.432
17619TIP3   OH252736   4.508   1.783   8.582
17619TIP3    H152737   4.498   1.685   8.569
17619TIP3    H252738   4.468   1.816   8.499
17620TIP3   OH252739   3.096   1.501   8.548
17620TIP3    H152740   3.095   1.543   8.636
17620TIP3    H252741   3.186   1.463   8.542
17621TIP3   OH252742   6.003   1.299   8.540
17621TIP3    H152743   5.975   1.391   8.520
17621TIP3    H252744   5.926   1.250   8.505
17622TIP3   OH252745   5.997   1.300   8.916
17622TIP3    H152746   6.029   1.264   9.000
17622TIP3    H252747   5.959   1.220   8.875
17623TIP3   OH252748   5.308   1.223   9.285
17623TIP3    H152749   5.314   1.164   9.362
17623TIP3    H252750   5.400   1.229   9.253
17624TIP3   OH252751   6.243   1.600   8.597
17624TIP3    H152752   6.232   1.527   8.659
17624TIP3    H252753   6.271   1.673   8.654
17625TIP3   OH252754   5.273   1.604   9.023
17625TIP3    H152755   5.263   1.506   9.019
17625TIP3    H252756   5.368   1.611   9.002
17626TIP3   OH252757   4.968   0.792   8.807
17626TIP3    H152758   4.935   0.883   8.813
17626TIP3    H252759   4.905   0.753   8.743
17627TIP3   OH252760   5.038   1.084   8.949
17627TIP3    H152761   5.088   1.013   8.999
17627TIP3    H252762   5.106   1.115   8.888
17628TIP3   OH252763   5.891   2.063   8.614
17628TIP3    H152764   5.939   1.993   8.565
17628TIP3    H252765   5.890   2.026   8.704
17629TIP3   OH252766   5.801   1.524   8.968
17629TIP3    H152767   5.834   1.446   8.919
17629TIP3    H252768   5.887   1.566   8.988
17630TIP3   OH252769   6.216   1.040   8.997
17630TIP3    H152770   6.244   0.953   9.030
17630TIP3    H252771   6.185   1.018   8.907
17631TIP3   OH252772   5.186   0.895   9.073
17631TIP3    H152773   5.255   0.865   9.135
17631TIP3    H252774   5.202   0.833   8.999
17632TIP3   OH252775   5.627   1.087   8.869
17632TIP3    H152776   5.719   1.055   8.879
17632TIP3    H252777   5.583   1.005   8.835
17633TIP3   OH252778   6.871   1.040   9.141
17633TIP3    H152779   6.797   1.102   9.126
17633TIP3    H252780   6.893   1.056   9.235
17634TIP3   OH252781   5.898   1.520   8.410
17634TIP3    H152782   5.855   1.493   8.327
17634TIP3    H252783   5.854   1.605   8.428
17635TIP3   OH252784   5.657   1.448   9.201
17635TIP3    H152785   5.590   1.511   9.234
17635TIP3    H252786   5.699   1.496   9.127
17636TIP3   OH252787   5.434   0.805   9.182
17636TIP3    H152788   5.508   0.858   9.145
17636TIP3    H252789   5.432   0.729   9.122
17637TIP3   OH252790   5.468   1.637   9.305
17637TIP3    H152791   5.456   1.713   9.246
17637TIP3    H252792   5.390   1.646   9.361
17638TIP3   OH252793   4.872   1.326   8.528
17638TIP3    H152794   4.837   1.351   8.440
17638TIP3    H252795   4.905   1.411   8.563
17639TIP3   OH252796   6.318   1.843   8.772
17639TIP3    H152797   6.227   1.833   8.808
17639TIP3    H252798   6.309   1.927   8.723
17640TIP3   OH252799   6.022   1.892   8.446
17640TIP3    H152800   6.070   1.809   8.423
17640TIP3    H252801   6.082   1.956   8.401
17641TIP3   OH252802   6.160   1.677   8.345
17641TIP3    H152803   6.127   1.598   8.300
17641TIP3    H252804   6.194   1.639   8.429
17642TIP3   OH252805   6.543   1.759   9.110
17642TIP3    H152806   6.532   1.680   9.052
17642TIP3    H252807   6.527   1.832   9.046
17643TIP3   OH252808   5.835   1.151   8.366
17643TIP3    H152809   5.754   1.200   8.341
17643TIP3    H252810   5.882   1.146   8.281
17644TIP3   OH252811   5.793   0.928   8.097
17644TIP3    H152812   5.864   0.982   8.137
17644TIP3    H252813   5.847   0.870   8.039
17645TIP3   OH252814   6.741   1.395   8.959
17645TIP3    H152815   6.655   1.444   8.963
17645TIP3    H252816   6.765   1.412   8.865
17646TIP3   OH252817   6.180   1.233   8.341
17646TIP3    H152818   6.127   1.258   8.420
17646TIP3    H252819   6.264   1.204   8.383
17647TIP3   OH252820   6.417   1.274   9.251
17647TIP3    H152821   6.417   1.359   9.299
17647TIP3    H252822   6.333   1.282   9.201
17648TIP3   OH252823   5.417   1.232   8.755
17648TIP3    H152824   5.370   1.175   8.690
17648TIP3    H252825   5.491   1.174   8.783
17649TIP3   OH252826   5.540   1.638   8.909
17649TIP3    H152827   5.519   1.596   8.824
17649TIP3    H252828   5.632   1.608   8.924
17650TIP3   OH252829   5.544   1.217   9.101
17650TIP3    H152830   5.577   1.193   9.012
17650TIP3    H252831   5.594   1.298   9.122
17651TIP3   OH252832   6.073   1.840   8.886
17651TIP3    H152833   6.064   1.919   8.943
17651TIP3    H252834   6.063   1.766   8.948
17652TIP3   OH252835   5.691   1.774   9.441
17652TIP3    H152836   5.621   1.833   9.477
17652TIP3    H252837   5.636   1.707   9.397
17653TIP3   OH252838   6.024   1.087   8.166
17653TIP3    H152839   6.084   1.143   8.219
17653TIP3    H252840   6.050   1.114   8.074
17654TIP3   OH252841   5.761   1.775   8.444
17654TIP3    H152842   5.838   1.829   8.465
17654TIP3    H252843   5.702   1.838   8.400
17655TIP3   OH252844   5.470   1.920   9.514
17655TIP3    H152845   5.445   1.926   9.419
17655TIP3    H252846   5.394   1.876   9.553
17656TIP3   OH252847   5.272   1.082   8.570
17656TIP3    H152848   5.211   1.117   8.501
17656TIP3    H252849   5.249   0.988   8.573
17657TIP3   OH252850   6.335   1.702   7.762
17657TIP3    H152851   6.345   1.798   7.747
17657TIP3    H252852   6.427   1.670   7.748
17658TIP3   OH252853   4.918   1.661   9.101
17658TIP3    H152854   5.012   1.653   9.080
17658TIP3    H252855   4.915   1.746   9.148
17659TIP3   OH252856   6.784   2.100   9.153
17659TIP3    H152857   6.781   2.003   9.166
17659TIP3    H252858   6.699   2.126   9.196
17660TIP3   OH252859   5.890   1.886   9.291
17660TIP3    H152860   5.888   1.981   9.313
17660TIP3    H252861   5.815   1.852   9.344
17661TIP3   OH252862   5.642   2.017   8.242
17661TIP3    H152863   5.599   1.997   8.157
17661TIP3    H252864   5.613   2.108   8.260
17662TIP3   OH252865   5.083   1.869   8.624
17662TIP3    H152866   5.131   1.856   8.708
17662TIP3    H252867   5.021   1.794   8.628
17663TIP3   OH252868   5.848   1.918   7.884
17663TIP3    H152869   5.908   1.849   7.847
17663TIP3    H252870   5.882   1.926   7.975
17664TIP3   OH252871   5.896   1.967   8.156
17664TIP3    H152872   5.808   1.975   8.198
17664TIP3    H252873   5.946   1.920   8.225
17665TIP3   OH252874   6.682   1.245   9.411
17665TIP3    H152875   6.590   1.263   9.386
17665TIP3    H252876   6.678   1.155   9.446
17666TIP3   OH252877   6.324   1.074   9.421
17666TIP3    H152878   6.399   1.059   9.481
17666TIP3    H252879   6.355   1.147   9.364
17667TIP3   OH252880   6.097   1.143   7.909
17667TIP3    H152881   6.066   1.113   7.822
17667TIP3    H252882   6.179   1.190   7.884
17668TIP3   OH252883   5.635   0.993   9.218
17668TIP3    H152884   5.572   1.007   9.290
17668TIP3    H252885   5.611   1.067   9.158
17669TIP3   OH252886   5.468   0.891   8.765
17669TIP3    H152887   5.394   0.838   8.799
17669TIP3    H252888   5.494   0.838   8.685
17670TIP3   OH252889   5.976   0.955   8.497
17670TIP3    H152890   5.922   1.027   8.457
17670TIP3    H252891   6.025   0.922   8.419
17671TIP3   OH252892   6.135   0.984   8.737
17671TIP3    H152893   6.076   1.013   8.664
17671TIP3    H252894   6.164   0.899   8.702
17672TIP3   OH252895   6.147   1.235   9.165
17672TIP3    H152896   6.176   1.164   9.103
17672TIP3    H252897   6.109   1.181   9.237
17673TIP3   OH252898   5.240   0.743   8.847
17673TIP3    H152899   5.145   0.753   8.823
17673TIP3    H252900   5.256   0.650   8.827
17674TIP3   OH252901   5.526   0.757   8.532
17674TIP3    H152902   5.618   0.745   8.503
17674TIP3    H252903   5.475   0.757   8.449
17675TIP3   OH252904   5.345   0.780   8.305
17675TIP3    H152905   5.287   0.726   8.249
17675TIP3    H252906   5.400   0.822   8.237
17676TIP3   OH252907   6.470   2.452   9.252
17676TIP3    H152908   6.466   2.475   9.158
17676TIP3    H252909   6.547   2.504   9.282
17677TIP3   OH252910   5.897   1.022   8.929
17677TIP3    H152911   5.956   0.964   8.880
17677TIP3    H252912   5.896   0.976   9.016
17678TIP3   OH252913   5.899   0.909   9.177
17678TIP3    H152914   5.805   0.925   9.196
17678TIP3    H252915   5.945   0.949   9.253
17679TIP3   OH252916   5.605   1.306   8.317
17679TIP3    H152917   5.530   1.243   8.308
17679TIP3    H252918   5.590   1.339   8.409
17680TIP3   OH252919   6.508   1.540   8.949
17680TIP3    H152920   6.531   1.588   8.866
17680TIP3    H252921   6.423   1.497   8.925
17681TIP3   OH252922   6.010   1.623   9.311
17681TIP3    H152923   6.011   1.585   9.399
17681TIP3    H252924   5.966   1.708   9.322
17682TIP3   OH252925   6.123   0.843   8.277
17682TIP3    H152926   6.220   0.849   8.289
17682TIP3    H252927   6.106   0.918   8.217
17683TIP3   OH252928   5.300   1.333   8.983
17683TIP3    H152929   5.340   1.299   8.901
17683TIP3    H252930   5.330   1.268   9.048
17684TIP3   OH252931   5.750   1.454   8.136
17684TIP3    H152932   5.704   1.541   8.145
17684TIP3    H252933   5.697   1.398   8.195
17685TIP3   OH252934   6.165   1.879   9.193
17685TIP3    H152935   6.071   1.874   9.215
17685TIP3    H252936   6.199   1.928   9.271
17686TIP3   OH252937   6.578   0.953   8.126
17686TIP3    H152938   6.529   0.892   8.068
17686TIP3    H252939   6.569   1.035   8.073
17687TIP3   OH252940   6.793   1.808   9.198
17687TIP3    H152941   6.695   1.804   9.190
17687TIP3    H252942   6.818   1.779   9.107
17688TIP3   OH252943   6.275   1.771   8.026
17688TIP3    H152944   6.252   1.699   8.085
17688TIP3    H252945   6.287   1.726   7.940
17689TIP3   OH252946   6.272   1.400   8.871
17689TIP3    H152947   6.179   1.374   8.881
17689TIP3    H252948   6.307   1.322   8.823
17690TIP3   OH252949   5.396   1.630   8.623
17690TIP3    H152950   5.402   1.709   8.566
17690TIP3    H252951   5.301   1.611   8.618
17691TIP3   OH252952   4.959   0.931   8.316
17691TIP3    H152953   5.011   1.013   8.333
17691TIP3    H252954   4.885   0.944   8.378
17692TIP3   OH252955   5.542   1.398   8.565
17692TIP3    H152956   5.505   1.486   8.585
17692TIP3    H252957   5.505   1.344   8.637
17693TIP3   OH252958   5.665   1.974   9.090
17693TIP3    H152959   5.703   2.046   9.036
17693TIP3    H252960   5.745   1.940   9.133
17694TIP3   OH252961   5.320   1.867   8.472
17694TIP3    H152962   5.232   1.876   8.515
17694TIP3    H252963   5.350   1.960   8.472
17695TIP3   OH252964   6.060   1.607   9.043
17695TIP3    H152965   6.054   1.604   9.141
17695TIP3    H252966   6.137   1.551   9.026
17696TIP3   OH252967   6.027   1.499   7.928
17696TIP3    H152968   6.080   1.474   8.007
17696TIP3    H252969   5.938   1.471   7.957
17697TIP3   OH252970   6.305   2.144   9.097
17697TIP3    H152971   6.227   2.086   9.087
17697TIP3    H252972   6.290   2.208   9.024
17698TIP3   OH252973   6.371   1.976   7.749
17698TIP3    H152974   6.407   2.047   7.692
17698TIP3    H252975   6.290   2.022   7.781
17699TIP3   OH252976   6.188   1.438   8.148
17699TIP3    H152977   6.177   1.368   8.216
17699TIP3    H252978   6.284   1.432   8.133
17700TIP3   OH252979   5.100   1.852   9.234
17700TIP3    H152980   5.149   1.769   9.232
17700TIP3    H252981   5.150   1.900   9.301
17701TIP3   OH252982   5.397   1.482   7.927
17701TIP3    H152983   5.412   1.391   7.894
17701TIP3    H252984   5.379   1.465   8.021
17702TIP3   OH252985   5.342   1.485   8.201
17702TIP3    H152986   5.415   1.456   8.259
17702TIP3    H252987   5.350   1.582   8.206
17703TIP3   OH252988   5.075   1.176   8.399
17703TIP3    H152989   5.014   1.226   8.457
17703TIP3    H252990   5.098   1.246   8.334
17704TIP3   OH252991   5.608   1.684   8.151
17704TIP3    H152992   5.521   1.714   8.183
17704TIP3    H252993   5.624   1.748   8.081
17705TIP3   OH252994   5.815   0.741   8.553
17705TIP3    H152995   5.861   0.827   8.538
17705TIP3    H252996   5.789   0.748   8.646
17706TIP3   OH252997   6.053   1.068   9.361
17706TIP3    H152998   6.068   1.111   9.446
17706TIP3    H252999   6.138   1.022   9.349
17707TIP3   OH253000   5.349   1.759   8.213
17707TIP3    H153001   5.318   1.827   8.149
17707TIP3    H253002   5.333   1.804   8.299
17708TIP3   OH253003   6.356   1.165   8.737
17708TIP3    H153004   6.284   1.101   8.750
17708TIP3    H253005   6.431   1.121   8.783
17709TIP3   OH253006   5.070   1.394   8.209
17709TIP3    H153007   5.131   1.469   8.216
17709TIP3    H253008   5.117   1.341   8.141
17710TIP3   OH253009   4.993   0.643   8.325
17710TIP3    H153010   5.039   0.730   8.326
17710TIP3    H253011   4.907   0.669   8.360
17711TIP3   OH253012   6.324   2.115   8.690
17711TIP3    H153013   6.282   2.161   8.615
17711TIP3    H253014   6.418   2.132   8.668
17712TIP3   OH253015   4.945   1.608   8.605
17712TIP3    H153016   4.860   1.639   8.640
17712TIP3    H253017   4.936   1.638   8.513
17713TIP3   OH253018   5.562   1.686   7.845
17713TIP3    H153019   5.504   1.614   7.879
17713TIP3    H253020   5.635   1.633   7.809
17714TIP3   OH253021   6.230   2.013   9.419
17714TIP3    H153022   6.223   1.972   9.507
17714TIP3    H253023   6.300   2.079   9.438
17715TIP3   OH253024   5.998   1.729   7.751
17715TIP3    H153025   6.044   1.664   7.807
17715TIP3    H253026   6.053   1.729   7.670
17716TIP3   OH253027   5.203   1.203   8.059
17716TIP3    H153028   5.259   1.169   8.131
17716TIP3    H253029   5.270   1.208   7.987
17717TIP3   OH253030   5.707   1.401   7.866
17717TIP3    H153031   5.713   1.413   7.963
17717TIP3    H253032   5.709   1.303   7.861
17718TIP3   OH253033   6.328   1.641   9.245
17718TIP3    H153034   6.400   1.688   9.198
17718TIP3    H253035   6.253   1.702   9.230
17719TIP3   OH253036   5.403   1.118   8.297
17719TIP3    H153037   5.390   1.064   8.377
17719TIP3    H253038   5.444   1.052   8.236
17720TIP3   OH253039   5.510   0.933   8.134
17720TIP3    H153040   5.484   0.905   8.043
17720TIP3    H253041   5.608   0.929   8.125
17721TIP3   OH253042   6.334   1.231   7.784
17721TIP3    H153043   6.320   1.181   7.702
17721TIP3    H253044   6.304   1.320   7.755
17722TIP3   OH253045   5.846   1.284   9.325
17722TIP3    H153046   5.917   1.282   9.260
17722TIP3    H253047   5.782   1.345   9.284
17723TIP3   OH253048   6.469   1.494   9.423
17723TIP3    H153049   6.406   1.549   9.371
17723TIP3    H253050   6.554   1.521   9.383
17724TIP3   OH253051   5.318   1.962   8.028
17724TIP3    H153052   5.414   1.961   8.007
17724TIP3    H253053   5.285   2.006   7.948
17725TIP3   OH253054   4.806   1.338   8.249
17725TIP3    H153055   4.900   1.363   8.231
17725TIP3    H253056   4.800   1.251   8.203
17726TIP3   OH253057   4.711   1.956   8.655
17726TIP3    H153058   4.644   1.893   8.620
17726TIP3    H253059   4.755   1.899   8.722
17727TIP3   OH253060   4.845   1.814   8.844
17727TIP3    H153061   4.841   1.733   8.898
17727TIP3    H253062   4.904   1.870   8.898
17728TIP3   OH253063   6.575   2.208   8.642
17728TIP3    H153064   6.603   2.243   8.728
17728TIP3    H253065   6.634   2.255   8.581
17729TIP3   OH253066   6.607   2.229   8.924
17729TIP3    H153067   6.564   2.141   8.918
17729TIP3    H253068   6.682   2.207   8.982
17730TIP3   OH253069   6.659   1.907   9.489
17730TIP3    H153070   6.572   1.913   9.529
17730TIP3    H253071   6.692   1.999   9.495
17731TIP3   OH253072   6.467   1.420   8.120
17731TIP3    H153073   6.539   1.480   8.092
17731TIP3    H253074   6.508   1.377   8.199
17732TIP3   OH253075   6.597   1.287   8.322
17732TIP3    H153076   6.531   1.241   8.379
17732TIP3    H253077   6.659   1.325   8.387
17733TIP3   OH253078   6.650   1.675   8.756
17733TIP3    H153079   6.701   1.611   8.703
17733TIP3    H253080   6.638   1.749   8.693
17734TIP3   OH253081   6.484   1.978   8.951
17734TIP3    H153082   6.412   2.018   9.002
17734TIP3    H253083   6.435   1.928   8.882
17735TIP3   OH253084   6.533   1.193   7.970
17735TIP3    H153085   6.463   1.196   7.901
17735TIP3    H253086   6.505   1.269   8.025
17736TIP3   OH253087   6.397   0.859   7.932
17736TIP3    H153088   6.377   0.916   7.856
17736TIP3    H253089   6.407   0.772   7.891
17737TIP3   OH253090   6.413   1.141   8.471
17737TIP3    H153091   6.419   1.045   8.467
17737TIP3    H253092   6.399   1.157   8.568
17738TIP3   OH253093   5.060   1.261   9.168
17738TIP3    H153094   5.053   1.200   9.092
17738TIP3    H253095   5.143   1.232   9.210
17739TIP3   OH253096   6.712   1.563   9.321
17739TIP3    H153097   6.784   1.498   9.307
17739TIP3    H253098   6.737   1.636   9.261
17740TIP3   OH253099   6.913   1.368   9.347
17740TIP3    H153100   6.824   1.335   9.377
17740TIP3    H253101   6.965   1.295   9.382
17741TIP3   OH253102   6.393   0.860   8.321
17741TIP3    H153103   6.443   0.824   8.398
17741TIP3    H253104   6.465   0.892   8.263
17742TIP3   OH253105   6.574   1.062   8.861
17742TIP3    H153106   6.665   1.072   8.824
17742TIP3    H253107   6.592   1.081   8.955
17743TIP3   OH253108   6.636   1.177   9.104
17743TIP3    H153109   6.555   1.218   9.143
17743TIP3    H253110   6.671   1.252   9.050
17744TIP3   OH253111   6.161   2.073   8.302
17744TIP3    H153112   6.209   2.054   8.218
17744TIP3    H253113   6.218   2.140   8.342
17745TIP3   OH253114   5.437   1.907   9.235
17745TIP3    H153115   5.391   1.983   9.194
17745TIP3    H253116   5.524   1.920   9.192
17746TIP3   OH253117   5.879   2.156   9.346
17746TIP3    H153118   5.925   2.142   9.432
17746TIP3    H253119   5.948   2.206   9.296
17747TIP3   OH253120   6.066   2.302   9.219
17747TIP3    H153121   6.140   2.251   9.183
17747TIP3    H253122   6.115   2.363   9.280
17748TIP3   OH253123   5.124   2.171   9.256
17748TIP3    H153124   5.037   2.206   9.227
17748TIP3    H253125   5.117   2.182   9.352
17749TIP3   OH253126   5.355   2.143   9.113
17749TIP3    H153127   5.269   2.159   9.159
17749TIP3    H253128   5.336   2.177   9.024
17750TIP3   OH253129   5.778   2.175   8.914
17750TIP3    H153130   5.712   2.197   8.846
17750TIP3    H253131   5.793   2.263   8.955
17751TIP3   OH253132   6.047   2.116   8.964
17751TIP3    H153133   5.953   2.131   8.943
17751TIP3    H253134   6.089   2.193   8.922
17752TIP3   OH253135   6.259   2.309   8.882
17752TIP3    H153136   6.244   2.393   8.833
17752TIP3    H253137   6.282   2.247   8.809
17753TIP3   OH253138   5.024   1.962   8.997
17753TIP3    H153139   5.052   1.942   9.089
17753TIP3    H253140   5.099   1.920   8.948
17754TIP3   OH253141   5.220   1.832   8.859
17754TIP3    H153142   5.241   1.746   8.902
17754TIP3    H253143   5.309   1.871   8.850
17755TIP3   OH253144   5.484   1.929   8.860
17755TIP3    H153145   5.519   1.840   8.841
17755TIP3    H253146   5.528   1.947   8.945
17756TIP3   OH253147   4.814   1.730   8.402
17756TIP3    H153148   4.732   1.695   8.361
17756TIP3    H253149   4.803   1.823   8.378
17757TIP3   OH253150   5.588   1.927   7.975
17757TIP3    H153151   5.678   1.946   7.940
17757TIP3    H253152   5.566   1.850   7.918
17758TIP3   OH253153   6.305   2.038   8.069
17758TIP3    H153154   6.298   1.940   8.056
17758TIP3    H253155   6.262   2.071   7.987
17759TIP3   OH253156   4.893   1.760   8.036
17759TIP3    H153157   4.891   1.791   8.127
17759TIP3    H253158   4.983   1.720   8.028
17760TIP3   OH253159   6.541   2.187   9.250
17760TIP3    H153160   6.460   2.151   9.207
17760TIP3    H253161   6.518   2.282   9.252
17761TIP3   OH253162   7.798   1.556   8.029
17761TIP3    H153163   7.773   1.648   8.006
17761TIP3    H253164   7.722   1.508   7.991
17762TIP3   OH253165   7.802   1.548   8.408
17762TIP3    H153166   7.803   1.488   8.484
17762TIP3    H253167   7.757   1.491   8.344
17763TIP3   OH253168   7.098   1.462   8.769
17763TIP3    H153169   7.131   1.387   8.822
17763TIP3    H253170   7.181   1.507   8.749
17764TIP3   OH253171   8.039   1.856   8.084
17764TIP3    H153172   8.028   1.787   8.151
17764TIP3    H253173   8.069   1.931   8.138
17765TIP3   OH253174   7.069   1.860   8.500
17765TIP3    H153175   7.059   1.763   8.503
17765TIP3    H253176   7.166   1.867   8.489
17766TIP3   OH253177   6.769   1.058   8.291
17766TIP3    H153178   6.722   1.142   8.300
17766TIP3    H253179   6.707   1.010   8.232
17767TIP3   OH253180   6.841   1.352   8.450
17767TIP3    H153181   6.887   1.274   8.487
17767TIP3    H253182   6.893   1.369   8.370
17768TIP3   OH253183   7.687   2.320   8.100
17768TIP3    H153184   7.737   2.249   8.052
17768TIP3    H253185   7.683   2.283   8.189
17769TIP3   OH253186   7.596   1.783   8.453
17769TIP3    H153187   7.624   1.705   8.402
17769TIP3    H253188   7.684   1.823   8.470
17770TIP3   OH253189   6.982   1.143   8.558
17770TIP3    H153190   7.061   1.115   8.610
17770TIP3    H253191   6.996   1.088   8.479
17771TIP3   OH253192   7.423   1.343   8.353
17771TIP3    H153193   7.513   1.307   8.367
17771TIP3    H253194   7.376   1.263   8.320
17772TIP3   OH253195   7.698   1.778   7.894
17772TIP3    H153196   7.648   1.749   7.816
17772TIP3    H253197   7.652   1.862   7.914
17773TIP3   OH253198   7.455   1.702   8.688
17773TIP3    H153199   7.387   1.762   8.725
17773TIP3    H253200   7.488   1.753   8.611
17774TIP3   OH253201   7.216   1.046   8.659
17774TIP3    H153202   7.284   1.112   8.684
17774TIP3    H253203   7.256   1.003   8.583
17775TIP3   OH253204   7.278   1.894   8.782
17775TIP3    H153205   7.248   1.976   8.738
17775TIP3    H253206   7.198   1.877   8.837
17776TIP3   OH253207   6.675   1.582   8.014
17776TIP3    H153208   6.632   1.605   7.930
17776TIP3    H253209   6.702   1.668   8.050
17777TIP3   OH253210   8.111   2.093   8.250
17777TIP3    H153211   8.021   2.088   8.289
17777TIP3    H253212   8.108   2.183   8.211
17778TIP3   OH253213   7.821   2.148   7.933
17778TIP3    H153214   7.869   2.065   7.910
17778TIP3    H253215   7.879   2.213   7.888
17779TIP3   OH253216   7.960   1.933   7.831
17779TIP3    H153217   7.915   1.856   7.792
17779TIP3    H253218   7.992   1.896   7.916
17780TIP3   OH253219   7.632   1.409   7.853
17780TIP3    H153220   7.548   1.455   7.832
17780TIP3    H253221   7.673   1.403   7.765
17781TIP3   OH253222   7.586   1.194   7.575
17781TIP3    H153223   7.663   1.236   7.617
17781TIP3    H253224   7.629   1.119   7.529
17782TIP3   OH253225   7.976   1.491   7.828
17782TIP3    H153226   7.922   1.516   7.906
17782TIP3    H253227   8.059   1.463   7.871
17783TIP3   OH253228   7.212   1.490   8.241
17783TIP3    H153229   7.165   1.433   8.176
17783TIP3    H253230   7.285   1.432   8.269
17784TIP3   OH253231   7.339   1.899   8.392
17784TIP3    H153232   7.314   1.853   8.311
17784TIP3    H253233   7.430   1.866   8.408
17785TIP3   OH253234   7.347   1.458   8.601
17785TIP3    H153235   7.376   1.436   8.510
17785TIP3    H253236   7.394   1.542   8.619
17786TIP3   OH253237   7.868   2.100   8.371
17786TIP3    H153238   7.858   2.177   8.430
17786TIP3    H253239   7.860   2.024   8.432
17787TIP3   OH253240   7.483   2.020   8.913
17787TIP3    H153241   7.425   2.083   8.961
17787TIP3    H253242   7.416   1.972   8.860
17788TIP3   OH253243   7.826   1.338   7.654
17788TIP3    H153244   7.881   1.399   7.707
17788TIP3    H253245   7.849   1.367   7.563
17789TIP3   OH253246   7.232   1.578   9.018
17789TIP3    H153247   7.232   1.662   9.069
17789TIP3    H253248   7.137   1.558   9.019
17790TIP3   OH253249   7.559   2.030   7.929
17790TIP3    H153250   7.633   2.088   7.953
17790TIP3    H253251   7.497   2.091   7.888
17791TIP3   OH253252   7.280   2.182   9.007
17791TIP3    H153253   7.243   2.182   8.917
17791TIP3    H253254   7.201   2.163   9.062
17792TIP3   OH253255   7.072   1.336   8.053
17792TIP3    H153256   7.007   1.374   7.990
17792TIP3    H253257   7.044   1.244   8.059
17793TIP3   OH253258   8.131   1.958   7.246
17793TIP3    H153259   8.140   2.055   7.234
17793TIP3    H253260   8.223   1.928   7.235
17794TIP3   OH253261   6.858   1.714   8.954
17794TIP3    H153262   6.793   1.692   8.883
17794TIP3    H253263   6.894   1.626   8.977
17795TIP3   OH253264   6.710   1.907   8.590
17795TIP3    H153265   6.806   1.900   8.578
17795TIP3    H253266   6.701   1.988   8.641
17796TIP3   OH253267   7.689   2.141   8.786
17796TIP3    H153268   7.677   2.237   8.804
17796TIP3    H253269   7.609   2.105   8.831
17797TIP3   OH253270   7.441   2.276   7.728
17797TIP3    H153271   7.394   2.253   7.645
17797TIP3    H253272   7.408   2.365   7.748
17798TIP3   OH253273   6.880   2.126   8.111
17798TIP3    H153274   6.926   2.114   8.196
17798TIP3    H253275   6.819   2.049   8.113
17799TIP3   OH253276   7.645   2.176   7.370
17799TIP3    H153277   7.704   2.106   7.334
17799TIP3    H253278   7.677   2.183   7.463
17800TIP3   OH253279   7.693   2.222   7.642
17800TIP3    H153280   7.604   2.232   7.683
17800TIP3    H253281   7.741   2.177   7.713
17801TIP3   OH253282   7.059   1.898   8.944
17801TIP3    H153283   7.108   1.878   9.026
17801TIP3    H253284   6.986   1.833   8.949
17802TIP3   OH253285   7.898   1.392   7.397
17802TIP3    H153286   7.861   1.369   7.310
17802TIP3    H253287   7.970   1.453   7.371
17803TIP3   OH253288   7.400   1.230   8.745
17803TIP3    H153289   7.347   1.255   8.823
17803TIP3    H253290   7.387   1.311   8.689
17804TIP3   OH253291   7.266   1.144   8.254
17804TIP3    H153292   7.188   1.095   8.285
17804TIP3    H253293   7.288   1.095   8.171
17805TIP3   OH253294   7.771   1.214   7.984
17805TIP3    H153295   7.715   1.285   7.945
17805TIP3    H253296   7.817   1.180   7.905
17806TIP3   OH253297   7.945   1.246   8.206
17806TIP3    H153298   7.877   1.273   8.142
17806TIP3    H253299   7.940   1.150   8.197
17807TIP3   OH253300   7.203   1.270   8.940
17807TIP3    H153301   7.213   1.337   9.009
17807TIP3    H253302   7.155   1.197   8.982
17808TIP3   OH253303   7.035   0.999   8.329
17808TIP3    H153304   6.941   1.016   8.307
17808TIP3    H253305   7.044   0.905   8.305
17809TIP3   OH253306   7.326   1.017   8.017
17809TIP3    H153307   7.410   0.998   7.973
17809TIP3    H253308   7.262   1.013   7.941
17810TIP3   OH253309   7.145   1.031   7.803
17810TIP3    H153310   7.067   0.990   7.761
17810TIP3    H253311   7.194   1.059   7.723
17811TIP3   OH253312   7.216   1.818   9.155
17811TIP3    H153313   7.297   1.857   9.190
17811TIP3    H253314   7.157   1.818   9.233
17812TIP3   OH253315   7.702   1.277   8.431
17812TIP3    H153316   7.753   1.214   8.379
17812TIP3    H253317   7.691   1.230   8.515
17813TIP3   OH253318   7.672   1.169   8.709
17813TIP3    H153319   7.577   1.190   8.717
17813TIP3    H253320   7.708   1.215   8.786
17814TIP3   OH253321   7.402   1.561   7.805
17814TIP3    H153322   7.332   1.494   7.793
17814TIP3    H253323   7.383   1.593   7.897
17815TIP3   OH253324   8.300   1.769   8.421
17815TIP3    H153325   8.333   1.827   8.350
17815TIP3    H253326   8.209   1.747   8.393
17816TIP3   OH253327   7.830   1.898   8.795
17816TIP3    H153328   7.814   1.837   8.869
17816TIP3    H253329   7.761   1.966   8.804
17817TIP3   OH253330   7.919   1.093   7.756
17817TIP3    H153331   8.016   1.105   7.767
17817TIP3    H253332   7.895   1.174   7.707
17818TIP3   OH253333   7.097   1.585   8.480
17818TIP3    H153334   7.130   1.554   8.393
17818TIP3    H253335   7.127   1.514   8.539
17819TIP3   OH253336   7.547   1.711   7.624
17819TIP3    H153337   7.500   1.798   7.633
17819TIP3    H253338   7.492   1.655   7.683
17820TIP3   OH253339   6.969   1.499   9.092
17820TIP3    H153340   6.977   1.478   9.187
17820TIP3    H253341   6.896   1.439   9.065
17821TIP3   OH253342   7.946   2.158   8.667
17821TIP3    H153343   7.853   2.139   8.688
17821TIP3    H253344   7.964   2.236   8.720
17822TIP3   OH253345   8.380   1.204   7.600
17822TIP3    H153346   8.317   1.157   7.542
17822TIP3    H253347   8.375   1.293   7.560
17823TIP3   OH253348   8.074   2.028   7.512
17823TIP3    H153349   8.046   1.959   7.574
17823TIP3    H253350   8.083   1.980   7.428
17824TIP3   OH253351   8.049   1.662   8.347
17824TIP3    H153352   7.960   1.625   8.362
17824TIP3    H253353   8.095   1.585   8.308
17825TIP3   OH253354   7.192   1.885   8.106
17825TIP3    H153355   7.194   1.966   8.051
17825TIP3    H253356   7.098   1.866   8.109
17826TIP3   OH253357   6.757   1.192   7.808
17826TIP3    H153358   6.803   1.276   7.827
17826TIP3    H253359   6.678   1.199   7.866
17827TIP3   OH253360   7.341   1.656   8.053
17827TIP3    H153361   7.301   1.742   8.072
17827TIP3    H253362   7.301   1.600   8.123
17828TIP3   OH253363   7.460   2.232   8.574
17828TIP3    H153364   7.496   2.304   8.519
17828TIP3    H253365   7.541   2.201   8.618
17829TIP3   OH253366   7.116   2.123   7.959
17829TIP3    H153367   7.028   2.131   8.003
17829TIP3    H253368   7.145   2.217   7.959
17830TIP3   OH253369   7.858   1.865   8.525
17830TIP3    H153370   7.855   1.863   8.623
17830TIP3    H253371   7.929   1.803   8.504
17831TIP3   OH253372   7.823   1.753   7.413
17831TIP3    H153373   7.874   1.730   7.494
17831TIP3    H253374   7.733   1.729   7.441
17832TIP3   OH253375   8.089   2.412   8.591
17832TIP3    H153376   8.026   2.346   8.557
17832TIP3    H253377   8.096   2.469   8.511
17833TIP3   OH253378   8.167   2.233   7.235
17833TIP3    H153379   8.203   2.304   7.180
17833TIP3    H253380   8.087   2.278   7.268
17834TIP3   OH253381   7.982   1.691   7.631
17834TIP3    H153382   7.973   1.625   7.703
17834TIP3    H253383   8.079   1.690   7.618
17835TIP3   OH253384   6.903   2.096   8.734
17835TIP3    H153385   6.950   2.015   8.760
17835TIP3    H253386   6.932   2.157   8.803
17836TIP3   OH253387   7.196   1.737   7.413
17836TIP3    H153388   7.205   1.645   7.381
17836TIP3    H253389   7.175   1.721   7.507
17837TIP3   OH253390   7.139   1.743   7.686
17837TIP3    H153391   7.206   1.712   7.748
17837TIP3    H253392   7.147   1.840   7.693
17838TIP3   OH253393   6.877   1.439   7.888
17838TIP3    H153394   6.811   1.482   7.945
17838TIP3    H253395   6.890   1.509   7.820
17839TIP3   OH253396   7.406   1.942   7.638
17839TIP3    H153397   7.318   1.969   7.671
17839TIP3    H253398   7.418   2.006   7.567
17840TIP3   OH253399   7.621   0.993   8.049
17840TIP3    H153400   7.656   1.083   8.029
17840TIP3    H253401   7.570   1.009   8.130
17841TIP3   OH253402   7.147   2.016   7.701
17841TIP3    H153403   7.115   2.084   7.637
17841TIP3    H253404   7.129   2.060   7.786
17842TIP3   OH253405   8.159   1.413   8.231
17842TIP3    H153406   8.074   1.364   8.226
17842TIP3    H253407   8.212   1.353   8.285
17843TIP3   OH253408   6.864   1.651   7.696
17843TIP3    H153409   6.928   1.724   7.702
17843TIP3    H253410   6.910   1.595   7.629
17844TIP3   OH253411   6.813   0.924   7.807
17844TIP3    H153412   6.806   1.020   7.818
17844TIP3    H253413   6.743   0.891   7.864
17845TIP3   OH253414   8.118   2.368   8.173
17845TIP3    H153415   8.079   2.417   8.098
17845TIP3    H253416   8.213   2.386   8.156
17846TIP3   OH253417   6.743   1.868   8.090
17846TIP3    H153418   6.659   1.893   8.132
17846TIP3    H253419   6.726   1.898   7.998
17847TIP3   OH253420   6.889   2.396   9.156
17847TIP3    H153421   6.976   2.394   9.202
17847TIP3    H253422   6.868   2.301   9.153
17848TIP3   OH253423   7.377   2.377   9.186
17848TIP3    H153424   7.466   2.348   9.211
17848TIP3    H253425   7.355   2.311   9.118
17849TIP3   OH253426   7.359   1.942   7.331
17849TIP3    H153427   7.299   1.871   7.366
17849TIP3    H253428   7.431   1.887   7.297
17850TIP3   OH253429   7.795   1.986   7.238
17850TIP3    H153430   7.840   1.921   7.294
17850TIP3    H253431   7.850   1.986   7.157
17851TIP3   OH253432   7.024   1.813   9.348
17851TIP3    H153433   7.039   1.719   9.369
17851TIP3    H253434   6.935   1.811   9.309
17852TIP3   OH253435   7.002   1.464   7.547
17852TIP3    H153436   7.052   1.419   7.617
17852TIP3    H253437   7.069   1.465   7.475
17853TIP3   OH253438   7.515   1.830   9.111
17853TIP3    H153439   7.489   1.871   9.027
17853TIP3    H253440   7.560   1.747   9.079
17854TIP3   OH253441   7.508   1.659   7.353
17854TIP3    H153442   7.507   1.670   7.450
17854TIP3    H253443   7.505   1.561   7.346
17855TIP3   OH253444   7.156   1.539   9.341
17855TIP3    H153445   7.157   1.443   9.335
17855TIP3    H253446   7.123   1.554   9.431
17856TIP3   OH253447   7.217   1.358   7.775
17856TIP3    H153448   7.183   1.314   7.855
17856TIP3    H253449   7.246   1.281   7.722
17857TIP3   OH253450   7.456   1.413   8.992
17857TIP3    H153451   7.394   1.489   8.994
17857TIP3    H253452   7.519   1.441   8.923
17858TIP3   OH253453   7.307   1.153   7.611
17858TIP3    H153454   7.278   1.154   7.518
17858TIP3    H253455   7.404   1.163   7.601
17859TIP3   OH253456   8.137   1.487   7.268
17859TIP3    H153457   8.110   1.441   7.185
17859TIP3    H253458   8.104   1.578   7.246
17860TIP3   OH253459   7.637   1.504   8.759
17860TIP3    H153460   7.722   1.543   8.736
17860TIP3    H253461   7.574   1.576   8.738
17861TIP3   OH253462   7.115   2.220   7.515
17861TIP3    H153463   7.210   2.218   7.493
17861TIP3    H253464   7.080   2.262   7.434
17862TIP3   OH253465   6.596   1.596   7.734
17862TIP3    H153466   6.690   1.619   7.717
17862TIP3    H253467   6.589   1.508   7.691
17863TIP3   OH253468   6.507   2.213   8.142
17863TIP3    H153469   6.440   2.149   8.108
17863TIP3    H253470   6.552   2.157   8.210
17864TIP3   OH253471   6.643   2.071   8.331
17864TIP3    H153472   6.635   1.990   8.384
17864TIP3    H253473   6.695   2.127   8.392
17865TIP3   OH253474   8.371   2.461   8.127
17865TIP3    H153475   8.395   2.488   8.218
17865TIP3    H253476   8.428   2.516   8.073
17866TIP3   OH253477   8.412   2.485   8.404
17866TIP3    H153478   8.369   2.397   8.402
17866TIP3    H253479   8.490   2.466   8.460
17867TIP3   OH253480   8.259   1.683   7.593
17867TIP3    H153481   8.335   1.741   7.575
17867TIP3    H253482   8.290   1.637   7.675
17868TIP3   OH253483   8.359   1.539   7.792
17868TIP3    H153484   8.309   1.491   7.861
17868TIP3    H253485   8.437   1.574   7.840
17869TIP3   OH253486   8.434   1.920   8.229
17869TIP3    H153487   8.488   1.888   8.157
17869TIP3    H253488   8.407   2.007   8.195
17870TIP3   OH253489   8.279   2.249   8.420
17870TIP3    H153490   8.225   2.247   8.500
17870TIP3    H253491   8.241   2.175   8.368
17871TIP3   OH253492   8.330   1.447   7.457
17871TIP3    H153493   8.260   1.455   7.388
17871TIP3    H253494   8.305   1.522   7.514
17872TIP3   OH253495   8.211   1.113   7.404
17872TIP3    H153496   8.167   1.185   7.357
17872TIP3    H253497   8.165   1.036   7.370
17873TIP3   OH253498   8.203   1.393   7.962
17873TIP3    H153499   8.206   1.296   7.959
17873TIP3    H253500   8.194   1.411   8.058
17874TIP3   OH253501   6.834   1.471   8.701
17874TIP3    H153502   6.833   1.442   8.608
17874TIP3    H253503   6.931   1.475   8.718
17875TIP3   OH253504   8.190   1.118   7.792
17875TIP3    H153505   8.230   1.084   7.874
17875TIP3    H253506   8.266   1.156   7.744
17876TIP3   OH253507   6.828   1.128   8.785
17876TIP3    H153508   6.871   1.113   8.699
17876TIP3    H253509   6.855   1.219   8.803
17877TIP3   OH253510   7.957   2.328   7.787
17877TIP3    H153511   8.008   2.312   7.705
17877TIP3    H253512   8.011   2.396   7.832
17878TIP3   OH253513   7.062   2.130   9.182
17878TIP3    H153514   6.972   2.100   9.160
17878TIP3    H253515   7.064   2.113   9.278
17879TIP3   OH253516   7.235   2.165   8.724
17879TIP3    H153517   7.183   2.238   8.684
17879TIP3    H253518   7.320   2.181   8.677
17880TIP3   OH253519   7.669   2.408   8.831
17880TIP3    H153520   7.701   2.403   8.924
17880TIP3    H253521   7.742   2.461   8.791
17881TIP3   OH253522   7.874   2.551   8.722
17881TIP3    H153523   7.926   2.502   8.655
17881TIP3    H253524   7.933   2.623   8.743
17882TIP3   OH253525   6.916   2.425   8.744
17882TIP3    H153526   6.828   2.460   8.718
17882TIP3    H253527   6.917   2.451   8.837
17883TIP3   OH253528   7.152   2.403   8.601
17883TIP3    H153529   7.066   2.416   8.647
17883TIP3    H253530   7.130   2.435   8.511
17884TIP3   OH253531   7.576   2.433   8.399
17884TIP3    H153532   7.506   2.451   8.332
17884TIP3    H253533   7.588   2.522   8.439
17885TIP3   OH253534   7.841   2.375   8.460
17885TIP3    H153535   7.749   2.391   8.429
17885TIP3    H253536   7.890   2.441   8.408
17886TIP3   OH253537   8.031   2.555   8.363
17886TIP3    H153538   8.034   2.644   8.322
17886TIP3    H253539   8.069   2.499   8.292
17887TIP3   OH253540   6.825   2.219   8.492
17887TIP3    H153541   6.853   2.193   8.583
17887TIP3    H253542   6.896   2.173   8.440
17888TIP3   OH253543   7.016   2.088   8.345
17888TIP3    H153544   7.033   2.004   8.392
17888TIP3    H253545   7.106   2.126   8.338
17889TIP3   OH253546   7.283   2.186   8.344
17889TIP3    H153547   7.314   2.095   8.329
17889TIP3    H253548   7.321   2.203   8.432
17890TIP3   OH253549   6.613   1.986   7.885
17890TIP3    H153550   6.530   1.950   7.848
17890TIP3    H253551   6.598   2.080   7.868
17891TIP3   OH253552   7.384   2.184   7.461
17891TIP3    H153553   7.473   2.203   7.426
17891TIP3    H253554   7.362   2.106   7.404
17892TIP3   OH253555   8.103   2.295   7.555
17892TIP3    H153556   8.095   2.197   7.543
17892TIP3    H253557   8.058   2.327   7.475
17893TIP3   OH253558   6.691   2.023   7.522
17893TIP3    H153559   6.686   2.044   7.617
17893TIP3    H253560   6.777   1.977   7.515
17894TIP3   OH253561   8.244   2.570   8.765
17894TIP3    H153562   8.188   2.508   8.713
17894TIP3    H253563   8.320   2.581   8.705
17895TIP3   OH253564   8.536   1.304   7.810
17895TIP3    H153565   8.511   1.397   7.794
17895TIP3    H253566   8.505   1.263   7.727
17896TIP3   OH253567   8.601   1.601   7.877
17896TIP3    H153568   8.656   1.543   7.933
17896TIP3    H253569   8.671   1.648   7.830
17897TIP3   OH253570   9.392   2.043   7.438
17897TIP3    H153571   9.383   2.013   7.347
17897TIP3    H253572   9.385   2.140   7.426
17898TIP3   OH253573   8.475   1.840   7.500
17898TIP3    H153574   8.428   1.863   7.418
17898TIP3    H253575   8.498   1.927   7.537
17899TIP3   OH253576   9.387   1.450   7.047
17899TIP3    H153577   9.447   1.487   7.113
17899TIP3    H253578   9.409   1.355   7.046
17900TIP3   OH253579   9.369   2.314   7.410
17900TIP3    H153580   9.400   2.385   7.468
17900TIP3    H253581   9.297   2.356   7.360
17901TIP3   OH253582   8.876   1.596   7.534
17901TIP3    H153583   8.805   1.629   7.476
17901TIP3    H253584   8.849   1.505   7.551
17902TIP3   OH253585   8.506   2.166   8.074
17902TIP3    H153586   8.601   2.174   8.078
17902TIP3    H253587   8.478   2.239   8.131
17903TIP3   OH253588   9.238   2.531   7.218
17903TIP3    H153589   9.193   2.508   7.134
17903TIP3    H253590   9.205   2.621   7.235
17904TIP3   OH253591   8.676   2.383   7.596
17904TIP3    H153592   8.720   2.373   7.683
17904TIP3    H253593   8.612   2.310   7.601
17905TIP3   OH253594   9.441   2.433   6.858
17905TIP3    H153595   9.502   2.364   6.821
17905TIP3    H253596   9.474   2.440   6.950
17906TIP3   OH253597   9.491   2.481   7.129
17906TIP3    H153598   9.401   2.485   7.169
17906TIP3    H253599   9.542   2.441   7.201
17907TIP3   OH253600   9.681   1.666   6.879
17907TIP3    H153601   9.657   1.623   6.794
17907TIP3    H253602   9.761   1.714   6.855
17908TIP3   OH253603   8.914   1.297   7.275
17908TIP3    H153604   8.863   1.243   7.212
17908TIP3    H253605   8.989   1.323   7.218
17909TIP3   OH253606   9.180   1.840   7.289
17909TIP3    H153607   9.131   1.756   7.275
17909TIP3    H253608   9.177   1.848   7.386
17910TIP3   OH253609   9.337   1.967   7.102
17910TIP3    H153610   9.296   2.054   7.118
17910TIP3    H253611   9.287   1.910   7.165
17911TIP3   OH253612   9.896   2.280   6.932
17911TIP3    H153613   9.889   2.267   7.030
17911TIP3    H253614   9.828   2.217   6.903
17912TIP3   OH253615   8.989   2.140   7.573
17912TIP3    H153616   8.985   2.227   7.527
17912TIP3    H253617   8.895   2.125   7.589
17913TIP3   OH253618   8.552   1.446   7.290
17913TIP3    H153619   8.602   1.527   7.311
17913TIP3    H253620   8.476   1.453   7.352
17914TIP3   OH253621   9.134   1.903   7.569
17914TIP3    H153622   9.107   1.996   7.552
17914TIP3    H253623   9.063   1.876   7.627
17915TIP3   OH253624   8.914   2.382   7.448
17915TIP3    H153625   8.826   2.388   7.489
17915TIP3    H253626   8.942   2.476   7.448
17916TIP3   OH253627   9.613   2.025   6.916
17916TIP3    H153628   9.655   1.979   6.990
17916TIP3    H253629   9.522   1.994   6.927
17917TIP3   OH253630   8.712   2.349   8.217
17917TIP3    H153631   8.756   2.264   8.233
17917TIP3    H253632   8.766   2.404   8.276
17918TIP3   OH253633   8.991   1.994   6.900
17918TIP3    H153634   9.003   1.903   6.867
17918TIP3    H253635   8.970   1.977   6.994
17919TIP3   OH253636   8.934   1.998   7.174
17919TIP3    H153637   9.010   1.965   7.225
17919TIP3    H253638   8.943   2.095   7.182
17920TIP3   OH253639   8.672   1.693   7.373
17920TIP3    H153640   8.607   1.737   7.431
17920TIP3    H253641   8.687   1.763   7.307
17921TIP3   OH253642   9.204   2.203   7.133
17921TIP3    H153643   9.112   2.228   7.157
17921TIP3    H253644   9.216   2.255   7.053
17922TIP3   OH253645   8.943   2.273   7.187
17922TIP3    H153646   8.911   2.340   7.122
17922TIP3    H253647   8.924   2.317   7.272
17923TIP3   OH253648   8.660   1.907   7.182
17923TIP3    H153649   8.724   1.980   7.190
17923TIP3    H253650   8.707   1.852   7.115
17924TIP3   OH253651   8.585   1.156   7.297
17924TIP3    H153652   8.628   1.244   7.302
17924TIP3    H253653   8.500   1.176   7.338
17925TIP3   OH253654   8.540   2.122   7.577
17925TIP3    H153655   8.458   2.149   7.622
17925TIP3    H253656   8.521   2.154   7.486
17926TIP3   OH253657   9.156   2.198   6.822
17926TIP3    H153658   9.097   2.126   6.853
17926TIP3    H253659   9.227   2.146   6.781
17927TIP3   OH253660   9.595   2.243   6.735
17927TIP3    H153661   9.627   2.160   6.775
17927TIP3    H253662   9.631   2.241   6.644
17928TIP3   OH253663   8.795   1.719   7.032
17928TIP3    H153664   8.847   1.678   7.103
17928TIP3    H253665   8.863   1.722   6.961
17929TIP3   OH253666   9.303   1.912   6.837
17929TIP3    H153667   9.305   1.924   6.935
17929TIP3    H253668   9.299   1.814   6.832
17930TIP3   OH253669   9.019   1.613   7.264
17930TIP3    H153670   8.979   1.569   7.341
17930TIP3    H253671   9.043   1.536   7.208
17931TIP3   OH253672   9.104   1.406   7.099
17931TIP3    H153673   9.072   1.409   7.006
17931TIP3    H253674   9.199   1.425   7.085
17932TIP3   OH253675   8.911   2.476   7.002
17932TIP3    H153676   9.006   2.475   6.980
17932TIP3    H253677   8.877   2.519   6.921
17933TIP3   OH253678   8.392   1.855   7.220
17933TIP3    H153679   8.487   1.877   7.205
17933TIP3    H253680   8.387   1.766   7.178
17934TIP3   OH253681   8.306   2.469   7.629
17934TIP3    H153682   8.237   2.407   7.595
17934TIP3    H253683   8.349   2.412   7.696
17935TIP3   OH253684   8.443   2.324   7.815
17935TIP3    H153685   8.425   2.249   7.874
17935TIP3    H253686   8.489   2.385   7.877
17936TIP3   OH253687   9.734   2.587   7.306
17936TIP3    H153688   9.768   2.558   7.218
17936TIP3    H253689   9.794   2.660   7.327
17937TIP3   OH253690   8.667   2.707   8.195
17937TIP3    H153691   8.588   2.763   8.206
17937TIP3    H253692   8.704   2.721   8.283
17938TIP3   OH253693   8.938   2.652   8.055
17938TIP3    H153694   8.868   2.692   8.109
17938TIP3    H253695   8.920   2.692   7.968
17939TIP3   OH253696   8.620   2.476   7.975
17939TIP3    H153697   8.643   2.456   8.068
17939TIP3    H253698   8.694   2.431   7.929
17940TIP3   OH253699   8.816   2.347   7.830
17940TIP3    H153700   8.847   2.259   7.856
17940TIP3    H253701   8.902   2.395   7.820
17941TIP3   OH253702   9.081   2.446   7.829
17941TIP3    H153703   9.124   2.359   7.825
17941TIP3    H253704   9.093   2.470   7.922
17942TIP3   OH253705   8.410   2.242   7.372
17942TIP3    H153706   8.326   2.207   7.336
17942TIP3    H253707   8.395   2.336   7.356
17943TIP3   OH253708   9.181   2.441   6.949
17943TIP3    H153709   9.270   2.460   6.912
17943TIP3    H253710   9.158   2.364   6.893
17944TIP3   OH253711   9.840   2.530   7.067
17944TIP3    H153712   9.871   2.447   7.025
17944TIP3    H253713   9.807   2.578   6.989
17945TIP3   OH253714   8.486   2.277   7.009
17945TIP3    H153715   8.481   2.301   7.102
17945TIP3    H253716   8.574   2.233   7.002
17946TIP3   OH253717   2.278   2.944   8.982
17946TIP3    H153718   2.197   2.912   8.939
17946TIP3    H253719   2.246   2.968   9.069
17947TIP3   OH253720   1.843   2.235   8.753
17947TIP3    H153721   1.910   2.288   8.802
17947TIP3    H253722   1.902   2.176   8.702
17948TIP3   OH253723   2.076   2.388   8.831
17948TIP3    H153724   2.124   2.450   8.887
17948TIP3    H253725   2.098   2.420   8.741
17949TIP3   OH253726   2.381   3.003   8.427
17949TIP3    H153727   2.389   3.100   8.410
17949TIP3    H253728   2.473   2.973   8.413
17950TIP3   OH253729   1.678   3.313   8.907
17950TIP3    H153730   1.645   3.299   8.816
17950TIP3    H253731   1.656   3.408   8.922
17951TIP3   OH253732   1.893   3.217   8.548
17951TIP3    H153733   1.953   3.150   8.508
17951TIP3    H253734   1.932   3.228   8.637
17952TIP3   OH253735   1.939   3.273   8.821
17952TIP3    H153736   1.850   3.272   8.864
17952TIP3    H253737   1.992   3.221   8.883
17953TIP3   OH253738   2.144   2.448   8.575
17953TIP3    H153739   2.109   2.416   8.490
17953TIP3    H253740   2.225   2.495   8.546
17954TIP3   OH253741   3.976   3.797  -0.600
17954TIP3    H153742   3.890   3.815  -0.563
17954TIP3    H253743   4.025   3.875  -0.565
17955TIP3   OH253744   2.180   2.148   8.914
17955TIP3    H153745   2.276   2.148   8.920
17955TIP3    H253746   2.156   2.238   8.881
17956TIP3   OH253747   1.801   2.752   8.788
17956TIP3    H153748   1.756   2.838   8.800
17956TIP3    H253749   1.755   2.695   8.850
17957TIP3   OH253750   2.635   2.258   8.773
17957TIP3    H153751   2.566   2.205   8.727
17957TIP3    H253752   2.618   2.343   8.728
17958TIP3   OH253753   2.311   3.072   8.689
17958TIP3    H153754   2.310   2.999   8.752
17958TIP3    H253755   2.331   3.028   8.604
17959TIP3   OH253756   2.068   2.801   8.587
17959TIP3    H153757   2.126   2.771   8.661
17959TIP3    H253758   1.982   2.771   8.620
17960TIP3   OH253759   2.415   3.277   8.412
17960TIP3    H153760   2.453   3.347   8.356
17960TIP3    H253761   2.335   3.325   8.442
17961TIP3   OH253762   2.229   2.723   8.795
17961TIP3    H153763   2.216   2.696   8.887
17961TIP3    H253764   2.327   2.729   8.789
17962TIP3   OH253765   1.445   2.782   8.595
17962TIP3    H153766   1.461   2.701   8.543
17962TIP3    H253767   1.419   2.745   8.679
17963TIP3   OH253768   1.639   2.981   8.797
17963TIP3    H153769   1.546   3.010   8.789
17963TIP3    H253770   1.679   3.029   8.723
17964TIP3   OH253771   1.372   3.068   8.867
17964TIP3    H153772   1.354   3.129   8.792
17964TIP3    H253773   1.339   3.122   8.940
17965TIP3   OH253774   1.609   2.988   8.506
17965TIP3    H153775   1.552   2.913   8.538
17965TIP3    H253776   1.680   2.938   8.460
17966TIP3   OH253777   2.043   3.032   8.414
17966TIP3    H153778   2.090   2.967   8.469
17966TIP3    H253779   2.096   3.033   8.332
17967TIP3   OH253780   1.246   2.497   8.712
17967TIP3    H153781   1.293   2.449   8.781
17967TIP3    H253782   1.316   2.503   8.643
17968TIP3   OH253783   1.747   2.698   8.525
17968TIP3    H153784   1.762   2.711   8.621
17968TIP3    H253785   1.753   2.600   8.520
17969TIP3   OH253786   1.558   2.186   8.788
17969TIP3    H153787   1.528   2.195   8.696
17969TIP3    H253788   1.652   2.210   8.782
17970TIP3   OH253789   2.383   2.532   8.447
17970TIP3    H153790   2.361   2.483   8.365
17970TIP3    H253791   2.351   2.622   8.421
17971TIP3   OH253792   1.362   3.262   8.682
17971TIP3    H153793   1.458   3.270   8.663
17971TIP3    H253794   1.328   3.312   8.606
17972TIP3   OH253795   2.509   2.727   8.779
17972TIP3    H153796   2.579   2.787   8.749
17972TIP3    H253797   2.555   2.680   8.852
17973TIP3   OH253798   2.643   2.589   8.967
17973TIP3    H153799   2.589   2.554   9.040
17973TIP3    H253800   2.721   2.628   9.013
17974TIP3   OH253801   2.579   2.495   8.634
17974TIP3    H153802   2.508   2.496   8.565
17974TIP3    H253803   2.550   2.573   8.686
17975TIP3   OH253804   2.450   2.170   8.593
17975TIP3    H153805   2.413   2.207   8.513
17975TIP3    H253806   2.425   2.075   8.583
17976TIP3   OH253807   2.394   1.905   8.580
17976TIP3    H153808   2.474   1.875   8.627
17976TIP3    H253809   2.326   1.840   8.605
17977TIP3   OH253810   2.647   1.858   8.683
17977TIP3    H153811   2.688   1.774   8.658
17977TIP3    H253812   2.721   1.920   8.680
17978TIP3   OH253813   2.210   3.382   8.963
17978TIP3    H153814   2.255   3.366   8.877
17978TIP3    H253815   2.266   3.452   9.000
17979TIP3   OH253816   1.634   3.232   8.635
17979TIP3    H153817   1.724   3.249   8.601
17979TIP3    H253818   1.610   3.158   8.576
17980TIP3   OH253819   2.349   3.339   8.731
17980TIP3    H153820   2.341   3.241   8.716
17980TIP3    H253821   2.310   3.373   8.648
17981TIP3   OH253822   0.939   3.051   8.707
17981TIP3    H153823   0.946   3.102   8.788
17981TIP3    H253824   1.031   3.020   8.691
17982TIP3   OH253825   3.844   2.856   8.690
17982TIP3    H153826   3.817   2.948   8.671
17982TIP3    H253827   3.767   2.808   8.656
17983TIP3   OH253828   3.833   2.860   9.049
17983TIP3    H153829   3.857   2.833   9.140
17983TIP3    H253830   3.796   2.779   9.012
17984TIP3   OH253831   4.083   3.158   8.747
17984TIP3    H153832   4.073   3.087   8.811
17984TIP3    H253833   4.114   3.232   8.801
17985TIP3   OH253834   3.125   3.150   9.186
17985TIP3    H153835   3.114   3.059   9.152
17985TIP3    H253836   3.216   3.171   9.157
17986TIP3   OH253837   2.827   2.366   8.934
17986TIP3    H153838   2.784   2.452   8.951
17986TIP3    H253839   2.761   2.327   8.872
17987TIP3   OH253840   2.903   2.651   9.040
17987TIP3    H153841   2.946   2.593   9.104
17987TIP3    H253842   2.974   2.669   8.977
17988TIP3   OH253843   3.730   3.620   8.763
17988TIP3    H153844   3.780   3.550   8.716
17988TIP3    H253845   3.728   3.587   8.853
17989TIP3   OH253846   3.641   3.076   9.098
17989TIP3    H153847   3.684   3.000   9.055
17989TIP3    H253848   3.721   3.122   9.130
17990TIP3   OH253849   4.666   2.410   9.116
17990TIP3    H153850   4.690   2.496   9.157
17990TIP3    H253851   4.680   2.431   9.022
17991TIP3   OH253852   4.069   2.583   9.157
17991TIP3    H153853   4.102   2.490   9.160
17991TIP3    H253854   4.035   2.583   9.065
17992TIP3   OH253855   3.409   2.237   9.094
17992TIP3    H153856   3.375   2.318   9.050
17992TIP3    H253857   3.349   2.170   9.054
17993TIP3   OH253858   4.085   2.334   8.742
17993TIP3    H153859   4.159   2.317   8.805
17993TIP3    H253860   4.135   2.369   8.666
17994TIP3   OH253861   3.475   2.644   8.965
17994TIP3    H153862   3.563   2.614   8.994
17994TIP3    H253863   3.427   2.559   8.953
17995TIP3   OH253864   4.740   2.628   9.262
17995TIP3    H153865   4.651   2.668   9.252
17995TIP3    H253866   4.738   2.601   9.355
17996TIP3   OH253867   3.738   3.077   8.560
17996TIP3    H153868   3.696   3.053   8.476
17996TIP3    H253869   3.696   3.163   8.579
17997TIP3   OH253870   4.299   2.330   8.915
17997TIP3    H153871   4.307   2.289   9.002
17997TIP3    H253872   4.355   2.408   8.928
17998TIP3   OH253873   2.718   2.884   8.678
17998TIP3    H153874   2.679   2.910   8.592
17998TIP3    H253875   2.748   2.970   8.714
17999TIP3   OH253876   4.160   3.400   8.919
17999TIP3    H153877   4.069   3.393   8.955
17999TIP3    H253878   4.154   3.484   8.871
18000TIP3   OH253879   4.429   2.273   9.176
18000TIP3    H153880   4.385   2.323   9.247
18000TIP3    H253881   4.512   2.322   9.163
18001TIP3   OH253882   3.864   3.449   8.596
18001TIP3    H153883   3.912   3.366   8.572
18001TIP3    H253884   3.923   3.514   8.552
18002TIP3   OH253885   4.001   3.234   8.495
18002TIP3    H153886   3.968   3.155   8.450
18002TIP3    H253887   4.035   3.196   8.579
18003TIP3   OH253888   4.381   3.316   9.264
18003TIP3    H153889   4.372   3.237   9.206
18003TIP3    H253890   4.367   3.389   9.199
18004TIP3   OH253891   3.675   2.709   8.516
18004TIP3    H153892   3.595   2.759   8.492
18004TIP3    H253893   3.723   2.704   8.431
18005TIP3   OH253894   3.634   2.490   8.239
18005TIP3    H153895   3.704   2.541   8.285
18005TIP3    H253896   3.690   2.426   8.190
18006TIP3   OH253897   4.580   2.952   9.105
18006TIP3    H153898   4.496   3.003   9.115
18006TIP3    H253899   4.605   2.976   9.013
18007TIP3   OH253900   4.021   2.790   8.491
18007TIP3    H153901   3.967   2.816   8.570
18007TIP3    H253902   4.105   2.763   8.534
18008TIP3   OH253903   4.302   2.909   9.324
18008TIP3    H153904   4.309   2.910   9.421
18008TIP3    H253905   4.219   2.863   9.307
18009TIP3   OH253906   3.250   2.788   8.906
18009TIP3    H153907   3.208   2.733   8.836
18009TIP3    H253908   3.333   2.737   8.922
18010TIP3   OH253909   3.378   3.194   9.055
18010TIP3    H153910   3.368   3.153   8.968
18010TIP3    H253911   3.467   3.164   9.081
18011TIP3   OH253912   3.452   2.759   9.215
18011TIP3    H153913   3.483   2.751   9.123
18011TIP3    H253914   3.518   2.815   9.257
18012TIP3   OH253915   3.917   3.401   9.033
18012TIP3    H153916   3.895   3.480   9.086
18012TIP3    H253917   3.897   3.326   9.091
18013TIP3   OH253918   3.864   2.649   8.315
18013TIP3    H153919   3.922   2.707   8.368
18013TIP3    H253920   3.891   2.674   8.223
18014TIP3   OH253921   3.602   3.333   8.593
18014TIP3    H153922   3.679   3.387   8.615
18014TIP3    H253923   3.542   3.396   8.552
18015TIP3   OH253924   4.379   1.893   8.363
18015TIP3    H153925   4.298   1.914   8.414
18015TIP3    H253926   4.391   1.975   8.311
18016TIP3   OH253927   3.112   2.633   8.720
18016TIP3    H153928   3.054   2.679   8.655
18016TIP3    H253929   3.078   2.544   8.716
18017TIP3   OH253930   4.176   3.259   7.912
18017TIP3    H153931   4.185   3.356   7.897
18017TIP3    H253932   4.269   3.229   7.899
18018TIP3   OH253933   4.627   3.658   9.298
18018TIP3    H153934   4.623   3.563   9.314
18018TIP3    H253935   4.543   3.687   9.342
18019TIP3   OH253936   3.733   3.481   9.424
18019TIP3    H153937   3.700   3.570   9.442
18019TIP3    H253938   3.657   3.425   9.447
18020TIP3   OH253939   3.483   3.575   8.393
18020TIP3    H153940   3.441   3.556   8.307
18020TIP3    H253941   3.454   3.666   8.411
18021TIP3   OH253942   2.924   3.426   8.774
18021TIP3    H153943   2.973   3.416   8.858
18021TIP3    H253944   2.858   3.356   8.784
18022TIP3   OH253945   3.688   3.475   8.034
18022TIP3    H153946   3.748   3.407   7.997
18022TIP3    H253947   3.723   3.484   8.126
18023TIP3   OH253948   3.736   3.524   8.306
18023TIP3    H153949   3.649   3.532   8.349
18023TIP3    H253950   3.788   3.480   8.375
18024TIP3   OH253951   3.939   2.701   8.060
18024TIP3    H153952   3.906   2.671   7.973
18024TIP3    H253953   4.019   2.750   8.034
18025TIP3   OH253954   3.652   2.074   8.360
18025TIP3    H153955   3.621   2.072   8.452
18025TIP3    H253956   3.615   1.990   8.327
18026TIP3   OH253957   3.313   2.427   8.920
18026TIP3    H153958   3.222   2.395   8.939
18026TIP3    H253959   3.328   2.388   8.831
18027TIP3   OH253960   3.814   2.510   8.649
18027TIP3    H153961   3.759   2.581   8.610
18027TIP3    H253962   3.868   2.482   8.572
18028TIP3   OH253963   3.974   2.541   8.893
18028TIP3    H153964   3.915   2.572   8.821
18028TIP3    H253965   4.005   2.458   8.851
18029TIP3   OH253966   3.307   2.043   8.327
18029TIP3    H153967   3.301   2.040   8.425
18029TIP3    H253968   3.227   2.093   8.305
18030TIP3   OH253969   2.834   2.070   8.713
18030TIP3    H153970   2.876   2.110   8.633
18030TIP3    H253971   2.770   2.140   8.734
18031TIP3   OH253972   3.923   2.770   9.290
18031TIP3    H153973   3.990   2.710   9.250
18031TIP3    H253974   3.972   2.808   9.366
18032TIP3   OH253975   3.657   2.250   8.975
18032TIP3    H153976   3.572   2.245   9.022
18032TIP3    H253977   3.722   2.243   9.047
18033TIP3   OH253978   3.084   2.292   9.002
18033TIP3    H153979   2.995   2.310   8.966
18033TIP3    H253980   3.105   2.203   8.968
18034TIP3   OH253981   3.356   2.301   8.680
18034TIP3    H153982   3.451   2.313   8.661
18034TIP3    H253983   3.312   2.323   8.595
18035TIP3   OH253984   4.126   2.324   9.173
18035TIP3    H153985   4.097   2.305   9.265
18035TIP3    H253986   4.086   2.251   9.125
18036TIP3   OH253987   3.190   2.332   8.462
18036TIP3    H153988   3.118   2.288   8.414
18036TIP3    H253989   3.242   2.367   8.386
18037TIP3   OH253990   4.303   4.016   9.397
18037TIP3    H153991   4.312   4.029   9.301
18037TIP3    H253992   4.381   4.064   9.430
18038TIP3   OH253993   3.729   2.579   9.053
18038TIP3    H153994   3.806   2.534   9.014
18038TIP3    H253995   3.728   2.548   9.145
18039TIP3   OH253996   3.258   2.054   8.953
18039TIP3    H153997   3.245   1.963   8.981
18039TIP3    H253998   3.317   2.044   8.877
18040TIP3   OH253999   3.446   2.863   8.466
18040TIP3    H154000   3.374   2.797   8.456
18040TIP3    H254001   3.429   2.895   8.559
18041TIP3   OH254002   4.351   3.105   9.096
18041TIP3    H154003   4.372   3.150   9.011
18041TIP3    H254004   4.268   3.057   9.077
18042TIP3   OH254005   3.907   2.174   8.329
18042TIP3    H154006   3.809   2.161   8.331
18042TIP3    H254007   3.917   2.269   8.348
18043TIP3   OH254008   3.976   2.421   8.431
18043TIP3    H154009   4.073   2.426   8.445
18043TIP3    H254010   3.959   2.500   8.375
18044TIP3   OH254011   3.115   2.884   9.124
18044TIP3    H154012   3.160   2.855   9.041
18044TIP3    H254013   3.141   2.815   9.186
18045TIP3   OH254014   3.592   3.012   8.286
18045TIP3    H154015   3.545   3.098   8.294
18045TIP3    H254016   3.538   2.956   8.346
18046TIP3   OH254017   4.003   3.411   9.391
18046TIP3    H154018   3.912   3.444   9.375
18046TIP3    H254019   4.048   3.488   9.426
18047TIP3   OH254020   4.419   2.508   8.269
18047TIP3    H154021   4.356   2.463   8.208
18047TIP3    H254022   4.416   2.596   8.226
18048TIP3   OH254023   4.629   3.367   9.352
18048TIP3    H154024   4.532   3.363   9.337
18048TIP3    H254025   4.660   3.339   9.262
18049TIP3   OH254026   4.114   3.329   8.175
18049TIP3    H154027   4.094   3.257   8.235
18049TIP3    H254028   4.129   3.284   8.090
18050TIP3   OH254029   4.107   2.956   9.026
18050TIP3    H154030   4.013   2.931   9.023
18050TIP3    H254031   4.147   2.882   8.977
18051TIP3   OH254032   3.236   3.184   8.768
18051TIP3    H154033   3.244   3.266   8.715
18051TIP3    H254034   3.141   3.173   8.771
18052TIP3   OH254035   2.801   2.492   8.468
18052TIP3    H154036   2.848   2.575   8.487
18052TIP3    H254037   2.724   2.499   8.528
18053TIP3   OH254038   3.381   2.954   8.714
18053TIP3    H154039   3.346   3.043   8.731
18053TIP3    H254040   3.346   2.904   8.790
18054TIP3   OH254041   3.510   3.539   9.237
18054TIP3    H154042   3.543   3.613   9.182
18054TIP3    H254043   3.592   3.498   9.265
18055TIP3   OH254044   3.161   3.425   8.622
18055TIP3    H154045   3.074   3.433   8.666
18055TIP3    H254046   3.191   3.518   8.623
18056TIP3   OH254047   3.898   3.168   9.183
18056TIP3    H154048   3.907   3.180   9.279
18056TIP3    H254049   3.980   3.120   9.162
18057TIP3   OH254050   3.868   3.055   8.078
18057TIP3    H154051   3.921   3.031   8.157
18057TIP3    H254052   3.779   3.030   8.108
18058TIP3   OH254053   4.132   3.696   9.247
18058TIP3    H154054   4.051   3.653   9.214
18058TIP3    H254055   4.138   3.770   9.182
18059TIP3   OH254056   4.211   3.534   7.899
18059TIP3    H154057   4.250   3.604   7.845
18059TIP3    H254058   4.131   3.581   7.930
18060TIP3   OH254059   4.029   2.995   8.299
18060TIP3    H154060   4.019   2.925   8.367
18060TIP3    H254061   4.125   2.990   8.283
18061TIP3   OH254062   3.238   3.039   8.077
18061TIP3    H154063   3.253   2.949   8.045
18061TIP3    H254064   3.219   3.023   8.172
18062TIP3   OH254065   3.183   3.042   8.352
18062TIP3    H154066   3.256   3.016   8.410
18062TIP3    H254067   3.189   3.140   8.356
18063TIP3   OH254068   2.921   2.739   8.552
18063TIP3    H154069   2.856   2.784   8.609
18063TIP3    H254070   2.937   2.808   8.484
18064TIP3   OH254071   3.943   2.129   8.607
18064TIP3    H154072   3.930   2.151   8.513
18064TIP3    H254073   3.983   2.212   8.642
18065TIP3   OH254074   3.448   3.241   8.301
18065TIP3    H154075   3.362   3.272   8.334
18065TIP3    H254076   3.466   3.307   8.232
18066TIP3   OH254077   3.639   2.303   8.707
18066TIP3    H154078   3.704   2.375   8.688
18066TIP3    H254079   3.646   2.297   8.804
18067TIP3   OH254080   3.787   2.038   8.818
18067TIP3    H154081   3.773   2.118   8.872
18067TIP3    H254082   3.845   2.074   8.747
18068TIP3   OH254083   3.189   3.316   8.364
18068TIP3    H154084   3.159   3.385   8.300
18068TIP3    H254085   3.174   3.361   8.449
18069TIP3   OH254086   3.292   2.029   8.604
18069TIP3    H154087   3.292   2.120   8.637
18069TIP3    H254088   3.388   2.007   8.613
18070TIP3   OH254089   4.197   2.721   8.890
18070TIP3    H154090   4.124   2.657   8.897
18070TIP3    H254091   4.271   2.674   8.935
18071TIP3   OH254092   2.908   2.951   8.359
18071TIP3    H154093   2.971   3.025   8.368
18071TIP3    H254094   2.956   2.898   8.292
18072TIP3   OH254095   2.857   2.224   8.490
18072TIP3    H154096   2.852   2.322   8.483
18072TIP3    H254097   2.774   2.197   8.449
18073TIP3   OH254098   4.165   3.672   8.840
18073TIP3    H154099   4.123   3.719   8.765
18073TIP3    H254100   4.259   3.691   8.819
18074TIP3   OH254101   2.784   3.159   8.754
18074TIP3    H154102   2.703   3.196   8.792
18074TIP3    H254103   2.777   3.195   8.664
18075TIP3   OH254104   3.403   3.244   7.995
18075TIP3    H154105   3.345   3.171   8.029
18075TIP3    H254106   3.476   3.191   7.958
18076TIP3   OH254107   3.838   3.287   7.901
18076TIP3    H154108   3.887   3.224   7.957
18076TIP3    H254109   3.893   3.289   7.820
18077TIP3   OH254110   3.043   2.762   8.209
18077TIP3    H154111   3.098   2.725   8.280
18077TIP3    H254112   3.110   2.767   8.137
18078TIP3   OH254113   3.548   2.957   8.016
18078TIP3    H154114   3.554   2.970   8.113
18078TIP3    H254115   3.549   2.859   8.012
18079TIP3   OH254116   4.142   3.173   9.386
18079TIP3    H154117   4.234   3.189   9.358
18079TIP3    H254118   4.110   3.266   9.391
18080TIP3   OH254119   3.256   2.661   8.436
18080TIP3    H154120   3.231   2.614   8.517
18080TIP3    H254121   3.291   2.588   8.380
18081TIP3   OH254122   3.351   2.454   8.276
18081TIP3    H154123   3.325   2.454   8.182
18081TIP3    H254124   3.449   2.461   8.268
18082TIP3   OH254125   4.178   2.789   7.934
18082TIP3    H154126   4.156   2.740   7.852
18082TIP3    H254127   4.146   2.878   7.908
18083TIP3   OH254128   3.159   3.519   8.178
18083TIP3    H154129   3.254   3.518   8.158
18083TIP3    H254130   3.127   3.564   8.097
18084TIP3   OH254131   2.641   2.898   8.399
18084TIP3    H154132   2.735   2.922   8.382
18084TIP3    H254133   2.636   2.810   8.355
18085TIP3   OH254134   2.553   3.513   8.804
18085TIP3    H154135   2.487   3.449   8.770
18085TIP3    H254136   2.599   3.460   8.872
18086TIP3   OH254137   2.691   3.376   8.992
18086TIP3    H154138   2.677   3.300   9.050
18086TIP3    H254139   2.729   3.440   9.056
18087TIP3   OH254140   4.414   3.767   8.792
18087TIP3    H154141   4.445   3.800   8.879
18087TIP3    H254142   4.475   3.810   8.731
18088TIP3   OH254143   4.448   3.787   9.073
18088TIP3    H154144   4.408   3.697   9.067
18088TIP3    H254145   4.520   3.768   9.135
18089TIP3   OH254146   4.308   2.977   8.270
18089TIP3    H154147   4.378   3.039   8.242
18089TIP3    H254148   4.351   2.936   8.348
18090TIP3   OH254149   4.437   2.844   8.472
18090TIP3    H154150   4.372   2.801   8.531
18090TIP3    H254151   4.501   2.883   8.535
18091TIP3   OH254152   4.489   3.233   8.901
18091TIP3    H154153   4.544   3.171   8.850
18091TIP3    H254154   4.482   3.309   8.840
18092TIP3   OH254155   4.326   3.534   9.101
18092TIP3    H154156   4.255   3.576   9.152
18092TIP3    H254157   4.277   3.486   9.032
18093TIP3   OH254158   4.376   2.751   8.121
18093TIP3    H154159   4.305   2.752   8.053
18093TIP3    H254160   4.348   2.827   8.175
18094TIP3   OH254161   4.246   2.426   8.077
18094TIP3    H154162   4.208   2.463   7.996
18094TIP3    H254163   4.219   2.332   8.070
18095TIP3   OH254164   4.252   2.698   8.621
18095TIP3    H154165   4.261   2.601   8.615
18095TIP3    H254166   4.241   2.712   8.718
18096TIP3   OH254167   4.539   3.115   9.453
18096TIP3    H154168   4.597   3.054   9.404
18096TIP3    H254169   4.558   3.200   9.410
18097TIP3   OH254170   4.728   2.911   9.448
18097TIP3    H154171   4.659   2.861   9.493
18097TIP3    H254172   4.806   2.857   9.466
18098TIP3   OH254173   4.189   2.162   8.071
18098TIP3    H154174   4.268   2.126   8.116
18098TIP3    H254175   4.122   2.092   8.084
18099TIP3   OH254176   4.248   2.414   8.518
18099TIP3    H154177   4.287   2.325   8.532
18099TIP3    H254178   4.306   2.446   8.447
18100TIP3   OH254179   4.411   2.595   9.008
18100TIP3    H154180   4.497   2.619   8.967
18100TIP3    H254181   4.428   2.627   9.099
18101TIP3   OH254182   4.487   2.729   9.242
18101TIP3    H154183   4.411   2.771   9.287
18101TIP3    H254184   4.519   2.807   9.192
18102TIP3   OH254185   4.354   2.165   8.553
18102TIP3    H154186   4.406   2.149   8.635
18102TIP3    H254187   4.297   2.086   8.552
18103TIP3   OH254188   4.442   2.101   8.185
18103TIP3    H154189   4.478   2.027   8.131
18103TIP3    H254190   4.509   2.171   8.171
18104TIP3   OH254191   2.865   1.968   8.962
18104TIP3    H154192   2.788   1.909   8.968
18104TIP3    H254193   2.858   2.001   8.870
18105TIP3   OH254194   4.002   3.630   8.452
18105TIP3    H154195   4.050   3.612   8.369
18105TIP3    H254196   4.058   3.697   8.493
18106TIP3   OH254197   3.258   3.455   9.338
18106TIP3    H154198   3.232   3.548   9.325
18106TIP3    H254199   3.353   3.459   9.318
18107TIP3   OH254200   3.905   3.843   9.387
18107TIP3    H154201   3.979   3.808   9.337
18107TIP3    H254202   3.945   3.923   9.427
18108TIP3   OH254203   3.195   3.716   9.267
18108TIP3    H154204   3.109   3.730   9.310
18108TIP3    H254205   3.174   3.738   9.174
18109TIP3   OH254206   3.625   3.735   9.060
18109TIP3    H154207   3.553   3.754   8.996
18109TIP3    H254208   3.634   3.822   9.103
18110TIP3   OH254209   3.888   3.671   9.115
18110TIP3    H154210   3.794   3.690   9.094
18110TIP3    H254211   3.932   3.747   9.073
18111TIP3   OH254212   4.099   3.866   9.033
18111TIP3    H154213   4.084   3.950   8.985
18111TIP3    H254214   4.124   3.806   8.960
18112TIP3   OH254215   2.879   3.529   9.147
18112TIP3    H154216   2.872   3.491   9.236
18112TIP3    H254217   2.947   3.472   9.105
18113TIP3   OH254218   3.064   3.385   9.007
18113TIP3    H154219   3.083   3.305   9.060
18113TIP3    H254220   3.152   3.427   9.002
18114TIP3   OH254221   3.327   3.488   9.009
18114TIP3    H154222   3.359   3.398   8.995
18114TIP3    H254223   3.359   3.504   9.099
18115TIP3   OH254224   3.900   2.141   9.096
18115TIP3    H154225   3.883   2.068   9.157
18115TIP3    H254226   3.975   2.106   9.044
18116TIP3   OH254227   4.422   2.014   8.985
18116TIP3    H154228   4.465   2.074   8.919
18116TIP3    H254229   4.340   2.062   9.003
18117TIP3   OH254230   4.526   2.129   8.763
18117TIP3    H154231   4.599   2.076   8.723
18117TIP3    H254232   4.561   2.220   8.749
18118TIP3   OH254233   2.923   1.710   8.736
18118TIP3    H154234   2.967   1.778   8.683
18118TIP3    H254235   2.909   1.755   8.820
18119TIP3   OH254236   3.588   1.890   8.988
18119TIP3    H154237   3.659   1.943   8.948
18119TIP3    H254238   3.599   1.906   9.083
18120TIP3   OH254239   4.127   2.029   8.985
18120TIP3    H154240   4.146   2.005   8.894
18120TIP3    H254241   4.125   1.942   9.030
18121TIP3   OH254242   4.173   1.949   8.543
18121TIP3    H154243   4.085   1.991   8.549
18121TIP3    H254244   4.158   1.866   8.591
18122TIP3   OH254245   2.655   3.288   8.551
18122TIP3    H154246   2.573   3.254   8.511
18122TIP3    H254247   2.645   3.382   8.533
18123TIP3   OH254248   3.056   1.882   8.528
18123TIP3    H154249   3.105   1.818   8.472
18123TIP3    H254250   3.128   1.935   8.566
18124TIP3   OH254251   3.569   2.052   8.628
18124TIP3    H154252   3.627   2.004   8.689
18124TIP3    H254253   3.594   2.145   8.651
18125TIP3   OH254254   3.429   3.484   8.126
18125TIP3    H154255   3.518   3.504   8.091
18125TIP3    H254256   3.407   3.408   8.068
18126TIP3   OH254257   4.145   3.596   8.219
18126TIP3    H154258   4.138   3.498   8.205
18126TIP3    H254259   4.103   3.629   8.137
18127TIP3   OH254260   2.734   3.318   8.186
18127TIP3    H154261   2.734   3.348   8.278
18127TIP3    H254262   2.823   3.277   8.176
18128TIP3   OH254263   4.383   3.745   9.384
18128TIP3    H154264   4.296   3.709   9.361
18128TIP3    H254265   4.359   3.831   9.421
18129TIP3   OH254266   5.639   3.113   8.178
18129TIP3    H154267   5.612   3.205   8.156
18129TIP3    H254268   5.563   3.065   8.141
18130TIP3   OH254269   5.640   3.114   8.552
18130TIP3    H154270   5.666   3.076   8.637
18130TIP3    H254271   5.597   3.039   8.508
18131TIP3   OH254272   4.940   3.012   8.920
18131TIP3    H154273   4.973   2.945   8.982
18131TIP3    H254274   5.018   3.068   8.909
18132TIP3   OH254275   5.883   3.409   8.234
18132TIP3    H154276   5.868   3.341   8.302
18132TIP3    H254277   5.906   3.486   8.287
18133TIP3   OH254278   4.909   3.417   8.651
18133TIP3    H154279   4.901   3.319   8.653
18133TIP3    H254280   5.005   3.426   8.639
18134TIP3   OH254281   4.617   2.625   8.435
18134TIP3    H154282   4.566   2.708   8.444
18134TIP3    H254283   4.548   2.566   8.399
18135TIP3   OH254284   4.679   2.911   8.599
18135TIP3    H154285   4.726   2.833   8.637
18135TIP3    H254286   4.734   2.932   8.523
18136TIP3   OH254287   5.535   3.880   8.255
18136TIP3    H154288   5.578   3.810   8.201
18136TIP3    H254289   5.520   3.832   8.337
18137TIP3   OH254290   5.439   3.338   8.604
18137TIP3    H154291   5.470   3.263   8.552
18137TIP3    H254292   5.525   3.380   8.624
18138TIP3   OH254293   6.448   2.660   8.599
18138TIP3    H154294   6.478   2.742   8.643
18138TIP3    H254295   6.470   2.680   8.507
18139TIP3   OH254296   5.849   2.843   8.639
18139TIP3    H154297   5.892   2.757   8.657
18139TIP3    H254298   5.820   2.829   8.547
18140TIP3   OH254299   5.185   2.500   8.603
18140TIP3    H154300   5.165   2.572   8.540
18140TIP3    H254301   5.139   2.426   8.558
18141TIP3   OH254302   5.879   2.591   8.227
18141TIP3    H154303   5.953   2.574   8.290
18141TIP3    H254304   5.929   2.626   8.151
18142TIP3   OH254305   4.822   2.704   8.707
18142TIP3    H154306   4.905   2.682   8.754
18142TIP3    H254307   4.832   2.647   8.628
18143TIP3   OH254308   5.263   2.901   8.499
18143TIP3    H154309   5.357   2.874   8.512
18143TIP3    H254310   5.223   2.817   8.466
18144TIP3   OH254311   6.524   2.866   8.770
18144TIP3    H154312   6.441   2.915   8.750
18144TIP3    H254313   6.535   2.888   8.864
18145TIP3   OH254314   5.185   2.484   9.035
18145TIP3    H154315   5.125   2.520   8.966
18145TIP3    H254316   5.132   2.504   9.115
18146TIP3   OH254317   5.536   3.334   8.045
18146TIP3    H154318   5.495   3.313   7.960
18146TIP3    H254319   5.493   3.418   8.067
18147TIP3   OH254320   5.293   3.258   8.835
18147TIP3    H154321   5.227   3.320   8.873
18147TIP3    H254322   5.330   3.310   8.761
18148TIP3   OH254323   6.095   2.591   8.392
18148TIP3    H154324   6.091   2.537   8.472
18148TIP3    H254325   6.151   2.665   8.420
18149TIP3   OH254326   5.054   2.599   8.821
18149TIP3    H154327   5.118   2.671   8.843
18149TIP3    H254328   5.101   2.557   8.745
18150TIP3   OH254329   5.118   3.449   8.930
18150TIP3    H154330   5.091   3.532   8.887
18150TIP3    H254331   5.039   3.435   8.987
18151TIP3   OH254332   4.516   3.140   8.165
18151TIP3    H154333   4.475   3.166   8.080
18151TIP3    H254334   4.545   3.226   8.201
18152TIP3   OH254335   5.956   3.657   8.409
18152TIP3    H154336   5.866   3.649   8.447
18152TIP3    H254337   5.947   3.739   8.357
18153TIP3   OH254338   6.242   2.563   8.768
18153TIP3    H154339   6.154   2.590   8.737
18153TIP3    H254340   6.300   2.591   8.695
18154TIP3   OH254341   5.545   2.206   8.747
18154TIP3    H154342   5.533   2.111   8.762
18154TIP3    H254343   5.466   2.241   8.794
18155TIP3   OH254344   5.661   3.704   8.089
18155TIP3    H154345   5.708   3.623   8.057
18155TIP3    H254346   5.707   3.770   8.032
18156TIP3   OH254347   5.802   3.491   7.983
18156TIP3    H154348   5.759   3.417   7.938
18156TIP3    H254349   5.833   3.449   8.066
18157TIP3   OH254350   6.178   3.573   8.747
18157TIP3    H154351   6.169   3.494   8.690
18157TIP3    H254352   6.164   3.646   8.683
18158TIP3   OH254353   5.471   2.966   8.003
18158TIP3    H154354   5.391   3.017   7.981
18158TIP3    H254355   5.517   2.963   7.917
18159TIP3   OH254356   5.431   2.747   7.726
18159TIP3    H154357   5.500   2.798   7.772
18159TIP3    H254358   5.487   2.683   7.677
18160TIP3   OH254359   6.375   3.207   8.591
18160TIP3    H154360   6.292   3.260   8.597
18160TIP3    H254361   6.404   3.230   8.501
18161TIP3   OH254362   5.817   3.046   7.979
18161TIP3    H154363   5.763   3.073   8.057
18161TIP3    H254364   5.901   3.020   8.024
18162TIP3   OH254365   6.055   3.089   8.884
18162TIP3    H154366   6.050   3.174   8.932
18162TIP3    H254367   5.968   3.091   8.839
18163TIP3   OH254368   5.049   3.047   8.394
18163TIP3    H154369   5.006   2.990   8.326
18163TIP3    H254370   5.127   2.993   8.419
18164TIP3   OH254371   5.178   3.454   8.545
18164TIP3    H154372   5.156   3.414   8.459
18164TIP3    H254373   5.270   3.422   8.559
18165TIP3   OH254374   5.191   3.016   8.749
18165TIP3    H154375   5.220   2.997   8.657
18165TIP3    H254376   5.231   3.103   8.767
18166TIP3   OH254377   5.713   3.658   8.527
18166TIP3    H154378   5.697   3.732   8.588
18166TIP3    H254379   5.700   3.579   8.584
18167TIP3   OH254380   5.324   3.576   9.070
18167TIP3    H154381   5.262   3.637   9.117
18167TIP3    H254382   5.259   3.521   9.021
18168TIP3   OH254383   5.662   2.904   7.803
18168TIP3    H154384   5.718   2.964   7.855
18168TIP3    H254385   5.688   2.928   7.710
18169TIP3   OH254386   5.079   3.134   9.170
18169TIP3    H154387   5.081   3.218   9.219
18169TIP3    H254388   4.983   3.114   9.172
18170TIP3   OH254389   5.396   3.595   8.093
18170TIP3    H154390   5.480   3.644   8.095
18170TIP3    H254391   5.344   3.644   8.028
18171TIP3   OH254392   5.120   3.745   9.158
18171TIP3    H154393   5.083   3.741   9.068
18171TIP3    H254394   5.042   3.722   9.214
18172TIP3   OH254395   6.176   2.149   7.850
18172TIP3    H154396   6.094   2.166   7.901
18172TIP3    H254397   6.186   2.233   7.800
18173TIP3   OH254398   4.915   2.888   8.202
18173TIP3    H154399   4.854   2.934   8.140
18173TIP3    H254400   4.873   2.802   8.209
18174TIP3   OH254401   5.969   3.518   7.392
18174TIP3    H154402   5.981   3.615   7.383
18174TIP3    H254403   6.061   3.487   7.385
18175TIP3   OH254404   4.696   3.275   9.106
18175TIP3    H154405   4.634   3.252   9.035
18175TIP3    H254406   4.736   3.188   9.129
18176TIP3   OH254407   4.552   3.464   8.742
18176TIP3    H154408   4.647   3.458   8.727
18176TIP3    H254409   4.544   3.546   8.792
18177TIP3   OH254410   6.414   3.910   8.789
18177TIP3    H154411   6.419   3.813   8.801
18177TIP3    H254412   6.335   3.930   8.842
18178TIP3   OH254413   5.524   3.704   8.933
18178TIP3    H154414   5.513   3.796   8.963
18178TIP3    H254415   5.450   3.660   8.981
18179TIP3   OH254416   5.229   3.829   7.884
18179TIP3    H154417   5.288   3.799   7.812
18179TIP3    H254418   5.253   3.923   7.891
18180TIP3   OH254419   4.718   3.684   8.262
18180TIP3    H154420   4.768   3.672   8.345
18180TIP3    H254421   4.658   3.607   8.267
18181TIP3   OH254422   6.305   3.047   9.068
18181TIP3    H154423   6.228   3.061   9.011
18181TIP3    H254424   6.321   2.951   9.056
18182TIP3   OH254425   4.904   3.455   9.097
18182TIP3    H154426   4.953   3.438   9.181
18182TIP3    H254427   4.830   3.391   9.104
18183TIP3   OH254428   5.304   2.278   8.876
18183TIP3    H154429   5.214   2.247   8.851
18183TIP3    H254430   5.280   2.363   8.917
18184TIP3   OH254431   5.835   2.397   9.070
18184TIP3    H154432   5.904   2.367   9.132
18184TIP3    H254433   5.751   2.374   9.116
18185TIP3   OH254434   6.079   2.823   8.990
18185TIP3    H154435   6.030   2.819   9.075
18185TIP3    H254436   6.053   2.910   8.954
18186TIP3   OH254437   5.736   2.951   7.547
18186TIP3    H154438   5.704   2.925   7.459
18186TIP3    H254439   5.806   3.014   7.523
18187TIP3   OH254440   5.450   2.329   7.847
18187TIP3    H154441   5.417   2.328   7.939
18187TIP3    H254442   5.411   2.246   7.814
18188TIP3   OH254443   5.235   2.794   8.897
18188TIP3    H154444   5.182   2.816   8.976
18188TIP3    H254445   5.220   2.873   8.841
18189TIP3   OH254446   5.119   2.680   8.411
18189TIP3    H154447   5.026   2.655   8.425
18189TIP3    H254448   5.133   2.641   8.321
18190TIP3   OH254449   5.609   2.767   8.136
18190TIP3    H154450   5.554   2.838   8.096
18190TIP3    H254451   5.663   2.739   8.059
18191TIP3   OH254452   5.784   3.052   9.229
18191TIP3    H154453   5.761   2.976   9.287
18191TIP3    H254454   5.880   3.058   9.244
18192TIP3   OH254455   5.768   2.798   8.377
18192TIP3    H154456   5.709   2.828   8.305
18192TIP3    H254457   5.799   2.715   8.336
18193TIP3   OH254458   5.054   2.826   9.103
18193TIP3    H154459   5.077   2.887   9.174
18193TIP3    H254460   5.039   2.743   9.152
18194TIP3   OH254461   5.104   2.301   7.815
18194TIP3    H154462   5.097   2.296   7.912
18194TIP3    H254463   5.023   2.349   7.792
18195TIP3   OH254464   4.647   2.354   8.683
18195TIP3    H154465   4.726   2.379   8.735
18195TIP3    H254466   4.683   2.316   8.602
18196TIP3   OH254467   4.628   2.329   8.207
18196TIP3    H154468   4.672   2.367   8.128
18196TIP3    H254469   4.565   2.401   8.227
18197TIP3   OH254470   5.780   3.044   8.803
18197TIP3    H154471   5.811   2.971   8.744
18197TIP3    H254472   5.750   2.992   8.880
18198TIP3   OH254473   5.443   2.506   8.473
18198TIP3    H154474   5.359   2.501   8.523
18198TIP3    H254475   5.509   2.505   8.544
18199TIP3   OH254476   4.880   2.556   8.482
18199TIP3    H154477   4.785   2.564   8.455
18199TIP3    H254478   4.903   2.465   8.456
18200TIP3   OH254479   5.153   2.559   8.167
18200TIP3    H154480   5.247   2.571   8.144
18200TIP3    H254481   5.107   2.580   8.083
18201TIP3   OH254482   5.937   2.579   8.674
18201TIP3    H154483   5.899   2.589   8.763
18201TIP3    H254484   5.875   2.515   8.634
18202TIP3   OH254485   4.987   2.587   7.948
18202TIP3    H154486   4.914   2.544   7.900
18202TIP3    H254487   5.039   2.622   7.873
18203TIP3   OH254488   5.063   3.379   9.318
18203TIP3    H154489   5.144   3.409   9.364
18203TIP3    H254490   5.000   3.379   9.393
18204TIP3   OH254491   5.530   2.829   8.570
18204TIP3    H154492   5.600   2.790   8.515
18204TIP3    H254493   5.545   2.787   8.656
18205TIP3   OH254494   5.058   2.320   8.443
18205TIP3    H154495   5.025   2.238   8.485
18205TIP3    H254496   5.108   2.286   8.368
18206TIP3   OH254497   5.506   2.721   8.863
18206TIP3    H154498   5.417   2.760   8.871
18206TIP3    H254499   5.564   2.784   8.911
18207TIP3   OH254500   5.242   3.118   7.955
18207TIP3    H154501   5.169   3.054   7.944
18207TIP3    H254502   5.224   3.152   8.046
18208TIP3   OH254503   6.144   3.355   8.586
18208TIP3    H154504   6.168   3.403   8.503
18208TIP3    H254505   6.059   3.312   8.562
18209TIP3   OH254506   5.702   2.432   7.812
18209TIP3    H154507   5.605   2.417   7.818
18209TIP3    H254508   5.712   2.527   7.835
18210TIP3   OH254509   5.653   3.442   8.951
18210TIP3    H154510   5.654   3.405   9.040
18210TIP3    H254511   5.600   3.523   8.962
18211TIP3   OH254512   5.772   2.677   7.918
18211TIP3    H154513   5.869   2.684   7.932
18211TIP3    H254514   5.753   2.757   7.864
18212TIP3   OH254515   4.936   3.140   8.632
18212TIP3    H154516   4.970   3.112   8.545
18212TIP3    H254517   4.970   3.071   8.691
18213TIP3   OH254518   5.392   3.265   7.774
18213TIP3    H154519   5.344   3.352   7.774
18213TIP3    H254520   5.334   3.213   7.833
18214TIP3   OH254521   4.816   3.064   9.231
18214TIP3    H154522   4.832   3.047   9.326
18214TIP3    H254523   4.748   2.997   9.211
18215TIP3   OH254524   5.538   3.173   9.264
18215TIP3    H154525   5.479   3.115   9.212
18215TIP3    H254526   5.626   3.139   9.235
18216TIP3   OH254527   5.806   3.707   8.842
18216TIP3    H154528   5.711   3.688   8.854
18216TIP3    H254529   5.828   3.750   8.927
18217TIP3   OH254530   6.216   2.764   7.754
18217TIP3    H154531   6.153   2.719   7.694
18217TIP3    H254532   6.212   2.853   7.713
18218TIP3   OH254533   6.429   3.625   8.832
18218TIP3    H154534   6.332   3.618   8.826
18218TIP3    H254535   6.454   3.592   8.742
18219TIP3   OH254536   5.930   3.583   7.665
18219TIP3    H154537   5.880   3.525   7.724
18219TIP3    H254538   5.924   3.537   7.579
18220TIP3   OH254539   5.909   3.215   8.509
18220TIP3    H154540   5.815   3.188   8.518
18220TIP3    H254541   5.944   3.138   8.460
18221TIP3   OH254542   5.034   3.442   8.260
18221TIP3    H154543   5.042   3.522   8.203
18221TIP3    H254544   4.939   3.427   8.255
18222TIP3   OH254545   4.597   2.748   7.954
18222TIP3    H154546   4.644   2.831   7.974
18222TIP3    H254547   4.520   2.754   8.015
18223TIP3   OH254548   5.180   3.211   8.203
18223TIP3    H154549   5.145   3.301   8.219
18223TIP3    H254550   5.138   3.162   8.277
18224TIP3   OH254551   5.302   3.789   8.727
18224TIP3    H154552   5.340   3.859   8.670
18224TIP3    H254553   5.382   3.753   8.768
18225TIP3   OH254554   4.958   3.680   8.114
18225TIP3    H154555   4.870   3.692   8.153
18225TIP3    H254556   4.989   3.772   8.106
18226TIP3   OH254557   5.699   3.424   8.682
18226TIP3    H154558   5.692   3.417   8.780
18226TIP3    H254559   5.774   3.365   8.664
18227TIP3   OH254560   5.666   3.303   7.563
18227TIP3    H154561   5.714   3.281   7.646
18227TIP3    H254562   5.574   3.299   7.593
18228TIP3   OH254563   5.947   3.968   8.741
18228TIP3    H154564   5.868   3.911   8.740
18228TIP3    H254565   5.926   4.028   8.666
18229TIP3   OH254566   6.008   3.791   7.386
18229TIP3    H154567   6.043   3.864   7.331
18229TIP3    H254568   5.928   3.836   7.420
18230TIP3   OH254569   5.027   2.568   9.248
18230TIP3    H154570   4.933   2.587   9.265
18230TIP3    H254571   5.047   2.505   9.319
18231TIP3   OH254572   5.824   3.249   7.786
18231TIP3    H154573   5.816   3.181   7.855
18231TIP3    H254574   5.921   3.249   7.771
18232TIP3   OH254575   4.743   3.653   8.885
18232TIP3    H154576   4.792   3.574   8.909
18232TIP3    H254577   4.773   3.715   8.953
18233TIP3   OH254578   5.025   3.291   7.566
18233TIP3    H154579   5.050   3.203   7.535
18233TIP3    H254580   5.012   3.277   7.662
18234TIP3   OH254581   4.979   3.298   7.842
18234TIP3    H154582   5.057   3.277   7.895
18234TIP3    H254583   4.983   3.396   7.841
18235TIP3   OH254584   4.718   2.995   8.039
18235TIP3    H154585   4.652   3.040   8.095
18235TIP3    H254586   4.734   3.064   7.972
18236TIP3   OH254587   5.859   2.633   8.933
18236TIP3    H154588   5.942   2.667   8.969
18236TIP3    H254589   5.845   2.551   8.985
18237TIP3   OH254590   5.739   2.386   8.093
18237TIP3    H154591   5.726   2.408   7.999
18237TIP3    H254592   5.778   2.468   8.129
18238TIP3   OH254593   5.244   3.490   7.778
18238TIP3    H154594   5.163   3.538   7.801
18238TIP3    H254595   5.299   3.561   7.740
18239TIP3   OH254596   5.437   2.559   8.197
18239TIP3    H154597   5.501   2.631   8.179
18239TIP3    H254598   5.440   2.555   8.295
18240TIP3   OH254599   5.702   2.882   9.008
18240TIP3    H154600   5.718   2.934   9.089
18240TIP3    H254601   5.758   2.804   9.021
18241TIP3   OH254602   5.581   2.295   8.304
18241TIP3    H154603   5.572   2.373   8.362
18241TIP3    H254604   5.639   2.330   8.233
18242TIP3   OH254605   4.974   3.571   7.850
18242TIP3    H154606   4.956   3.643   7.785
18242TIP3    H254607   4.972   3.620   7.934
18243TIP3   OH254608   5.088   2.284   8.092
18243TIP3    H154609   5.087   2.376   8.125
18243TIP3    H254610   5.184   2.265   8.100
18244TIP3   OH254611   6.346   2.781   8.985
18244TIP3    H154612   6.248   2.779   8.994
18244TIP3    H254613   6.355   2.740   8.898
18245TIP3   OH254614   5.994   2.976   8.376
18245TIP3    H154615   5.919   2.916   8.386
18245TIP3    H254616   6.066   2.928   8.422
18246TIP3   OH254617   4.704   3.209   7.846
18246TIP3    H154618   4.768   3.281   7.856
18246TIP3    H254619   4.752   3.156   7.778
18247TIP3   OH254620   4.652   2.480   7.981
18247TIP3    H154621   4.649   2.577   7.972
18247TIP3    H254622   4.570   2.453   7.937
18248TIP3   OH254623   5.961   3.931   8.330
18248TIP3    H154624   5.917   3.977   8.255
18248TIP3    H254625   6.055   3.949   8.305
18249TIP3   OH254626   5.039   2.201   8.854
18249TIP3    H154627   5.007   2.170   8.767
18249TIP3    H254628   5.027   2.122   8.910
18250TIP3   OH254629   4.582   3.421   8.242
18250TIP3    H154630   4.499   3.452   8.279
18250TIP3    H254631   4.573   3.453   8.150
18251TIP3   OH254632   4.728   3.953   9.309
18251TIP3    H154633   4.817   3.947   9.350
18251TIP3    H254634   4.706   3.858   9.302
18252TIP3   OH254635   5.220   3.931   9.342
18252TIP3    H154636   5.311   3.902   9.356
18252TIP3    H254637   5.191   3.870   9.272
18253TIP3   OH254638   5.183   3.500   7.465
18253TIP3    H154639   5.140   3.430   7.518
18253TIP3    H254640   5.277   3.482   7.480
18254TIP3   OH254641   5.852   3.838   9.086
18254TIP3    H154642   5.839   3.761   9.147
18254TIP3    H254643   5.941   3.868   9.111
18255TIP3   OH254644   5.628   3.535   7.363
18255TIP3    H154645   5.662   3.511   7.450
18255TIP3    H254646   5.707   3.540   7.307
18256TIP3   OH254647   4.859   3.357   9.506
18256TIP3    H154648   4.887   3.263   9.497
18256TIP3    H254649   4.772   3.357   9.460
18257TIP3   OH254650   4.839   3.017   7.696
18257TIP3    H154651   4.894   2.983   7.767
18257TIP3    H254652   4.906   3.024   7.624
18258TIP3   OH254653   5.479   3.448   9.274
18258TIP3    H154654   5.429   3.459   9.191
18258TIP3    H254655   5.505   3.354   9.272
18259TIP3   OH254656   5.342   3.213   7.503
18259TIP3    H154657   5.351   3.228   7.599
18259TIP3    H254658   5.342   3.115   7.499
18260TIP3   OH254659   5.967   3.453   8.887
18260TIP3    H154660   6.038   3.500   8.839
18260TIP3    H254661   5.891   3.510   8.869
18261TIP3   OH254662   4.973   3.109   9.489
18261TIP3    H154663   5.028   3.032   9.470
18261TIP3    H254664   4.998   3.122   9.581
18262TIP3   OH254665   5.052   2.917   7.923
18262TIP3    H154666   5.024   2.871   8.004
18262TIP3    H254667   5.086   2.843   7.869
18263TIP3   OH254668   5.319   2.985   9.151
18263TIP3    H154669   5.240   3.043   9.155
18263TIP3    H254670   5.363   3.016   9.069
18264TIP3   OH254671   5.147   2.710   7.763
18264TIP3    H154672   5.121   2.710   7.668
18264TIP3    H254673   5.245   2.718   7.755
18265TIP3   OH254674   5.840   3.390   9.287
18265TIP3    H154675   5.914   3.365   9.231
18265TIP3    H254676   5.834   3.314   9.347
18266TIP3   OH254677   5.980   3.046   7.417
18266TIP3    H154678   5.951   2.998   7.337
18266TIP3    H254679   5.944   3.135   7.396
18267TIP3   OH254680   5.442   2.768   9.274
18267TIP3    H154681   5.441   2.688   9.218
18267TIP3    H254682   5.398   2.834   9.217
18268TIP3   OH254683   5.442   2.556   9.082
18268TIP3    H154684   5.470   2.598   8.998
18268TIP3    H254685   5.349   2.534   9.062
18269TIP3   OH254686   5.478   3.098   8.956
18269TIP3    H154687   5.555   3.098   8.897
18269TIP3    H254688   5.419   3.163   8.911
18270TIP3   OH254689   6.057   3.064   9.337
18270TIP3    H154690   6.102   2.979   9.353
18270TIP3    H254691   6.128   3.116   9.298
18271TIP3   OH254692   6.097   3.314   9.076
18271TIP3    H154693   6.039   3.365   9.015
18271TIP3    H254694   6.184   3.332   9.035
18272TIP3   OH254695   5.316   2.884   9.492
18272TIP3    H154696   5.245   2.818   9.502
18272TIP3    H254697   5.357   2.855   9.408
18273TIP3   OH254698   5.575   2.324   9.147
18273TIP3    H154699   5.527   2.406   9.123
18273TIP3    H254700   5.506   2.255   9.132
18274TIP3   OH254701   5.701   2.832   9.363
18274TIP3    H154702   5.699   2.809   9.458
18274TIP3    H254703   5.611   2.803   9.337
18275TIP3   OH254704   5.942   2.779   9.220
18275TIP3    H154705   5.866   2.775   9.281
18275TIP3    H254706   6.016   2.745   9.275
18276TIP3   OH254707   6.175   2.718   9.364
18276TIP3    H154708   6.183   2.621   9.382
18276TIP3    H254709   6.167   2.757   9.454
18277TIP3   OH254710   5.164   2.659   9.538
18277TIP3    H154711   5.171   2.564   9.516
18277TIP3    H254712   5.198   2.661   9.629
18278TIP3   OH254713   5.673   2.325   9.399
18278TIP3    H154714   5.745   2.261   9.378
18278TIP3    H254715   5.626   2.325   9.313
18279TIP3   OH254716   5.746   2.550   9.540
18279TIP3    H154717   5.710   2.478   9.484
18279TIP3    H254718   5.667   2.602   9.561
18280TIP3   OH254719   4.961   3.772   7.660
18280TIP3    H154720   5.055   3.775   7.640
18280TIP3    H254721   4.926   3.817   7.581
18281TIP3   OH254722   4.437   3.155   7.885
18281TIP3    H154723   4.531   3.180   7.869
18281TIP3    H254724   4.433   3.067   7.842
18282TIP3   OH254725   4.347   3.770   8.293
18282TIP3    H154726   4.281   3.706   8.259
18282TIP3    H254727   4.393   3.715   8.360
18283TIP3   OH254728   4.484   3.628   8.481
18283TIP3    H154729   4.477   3.548   8.535
18283TIP3    H254730   4.537   3.686   8.540
18284TIP3   OH254731   6.214   4.021   8.281
18284TIP3    H154732   6.241   4.062   8.364
18284TIP3    H254733   6.268   4.067   8.216
18285TIP3   OH254734   6.243   4.042   8.570
18285TIP3    H154735   6.200   3.955   8.556
18285TIP3    H254736   6.325   4.014   8.613
18286TIP3   OH254737   6.285   3.724   9.129
18286TIP3    H154738   6.217   3.727   9.199
18286TIP3    H254739   6.331   3.809   9.140
18287TIP3   OH254740   6.106   3.231   7.756
18287TIP3    H154741   6.175   3.296   7.730
18287TIP3    H254742   6.148   3.191   7.836
18288TIP3   OH254743   6.234   3.100   7.959
18288TIP3    H154744   6.167   3.056   8.017
18288TIP3    H254745   6.295   3.140   8.024
18289TIP3   OH254746   6.286   3.489   8.394
18289TIP3    H154747   6.338   3.426   8.340
18289TIP3    H254748   6.275   3.564   8.332
18290TIP3   OH254749   6.121   3.791   8.588
18290TIP3    H154750   6.045   3.829   8.636
18290TIP3    H254751   6.075   3.742   8.516
18291TIP3   OH254752   6.173   3.006   7.607
18291TIP3    H154753   6.102   3.009   7.538
18291TIP3    H254754   6.144   3.082   7.662
18292TIP3   OH254755   6.046   2.680   7.562
18292TIP3    H154756   6.001   2.722   7.488
18292TIP3    H254757   6.017   2.586   7.551
18293TIP3   OH254758   6.050   2.954   8.108
18293TIP3    H154759   6.056   2.857   8.102
18293TIP3    H254760   6.037   2.968   8.205
18294TIP3   OH254761   4.675   3.031   8.851
18294TIP3    H154762   4.675   3.002   8.757
18294TIP3    H254763   4.772   3.031   8.868
18295TIP3   OH254764   6.337   3.381   8.963
18295TIP3    H154765   6.409   3.314   8.956
18295TIP3    H254766   6.367   3.450   8.902
18296TIP3   OH254767   6.521   3.188   8.988
18296TIP3    H154768   6.448   3.134   9.025
18296TIP3    H254769   6.596   3.126   8.999
18297TIP3   OH254770   5.987   2.415   7.551
18297TIP3    H154771   6.062   2.383   7.605
18297TIP3    H254772   5.914   2.355   7.576
18298TIP3   OH254773   6.045   2.671   8.005
18298TIP3    H154774   6.084   2.581   8.020
18298TIP3    H254775   6.103   2.702   7.934
18299TIP3   OH254776   6.208   2.849   8.497
18299TIP3    H154777   6.294   2.875   8.457
18299TIP3    H254778   6.221   2.884   8.587
18300TIP3   OH254779   6.274   2.989   8.732
18300TIP3    H154780   6.194   3.023   8.777
18300TIP3    H254781   6.306   3.069   8.685
18301TIP3   OH254782   4.889   2.667   9.512
18301TIP3    H154783   4.983   2.696   9.511
18301TIP3    H254784   4.857   2.705   9.596
18302TIP3   OH254785   6.724   2.578   9.285
18302TIP3    H154786   6.784   2.513   9.243
18302TIP3    H254787   6.699   2.636   9.210
18303TIP3   OH254788   6.153   2.420   8.040
18303TIP3    H154789   6.201   2.404   8.124
18303TIP3    H254790   6.093   2.343   8.038
18304TIP3   OH254791   4.854   2.407   8.860
18304TIP3    H154792   4.916   2.333   8.868
18304TIP3    H254793   4.916   2.483   8.854
18305TIP3   OH254794   4.657   2.683   8.931
18305TIP3    H154795   4.706   2.674   8.846
18305TIP3    H254796   4.689   2.768   8.963
18306TIP3   OH254797   6.600   2.723   9.093
18306TIP3    H154798   6.511   2.760   9.112
18306TIP3    H254799   6.575   2.651   9.032
18307TIP3   OH254800   6.238   2.358   7.671
18307TIP3    H154801   6.275   2.284   7.620
18307TIP3    H254802   6.305   2.428   7.659
18308TIP3   OH254803   4.638   2.193   8.439
18308TIP3    H154804   4.543   2.186   8.455
18308TIP3    H254805   4.640   2.246   8.356
18309TIP3   OH254806   5.794   3.889   7.940
18309TIP3    H154807   5.836   3.865   7.855
18309TIP3    H254808   5.857   3.954   7.974
18310TIP3   OH254809   4.867   2.253   9.233
18310TIP3    H154810   4.816   2.226   9.311
18310TIP3    H254811   4.801   2.308   9.185
18311TIP3   OH254812   4.902   3.693   9.327
18311TIP3    H154813   4.811   3.664   9.308
18311TIP3    H254814   4.907   3.672   9.423
18312TIP3   OH254815   5.075   3.721   8.874
18312TIP3    H154816   5.025   3.795   8.834
18312TIP3    H254817   5.161   3.737   8.828
18313TIP3   OH254818   5.536   3.979   9.006
18313TIP3    H154819   5.564   3.972   9.100
18313TIP3    H254820   5.621   3.974   8.960
18314TIP3   OH254821   6.496   2.484   8.969
18314TIP3    H154822   6.404   2.480   8.935
18314TIP3    H254823   6.524   2.390   8.956
18315TIP3   OH254824   4.756   3.982   8.893
18315TIP3    H154825   4.668   4.018   8.868
18315TIP3    H254826   4.758   4.007   8.987
18316TIP3   OH254827   4.993   3.961   8.752
18316TIP3    H154828   4.907   3.974   8.798
18316TIP3    H254829   4.972   3.993   8.662
18317TIP3   OH254830   5.415   3.989   8.551
18317TIP3    H154831   5.348   4.006   8.481
18317TIP3    H254832   5.428   4.078   8.586
18318TIP3   OH254833   5.681   3.942   8.615
18318TIP3    H154834   5.589   3.949   8.582
18318TIP3    H254835   5.727   4.002   8.555
18319TIP3   OH254836   5.896   4.125   8.520
18319TIP3    H154837   5.881   4.208   8.470
18319TIP3    H254838   5.920   4.063   8.447
18320TIP3   OH254839   4.665   3.775   8.642
18320TIP3    H154840   4.694   3.751   8.733
18320TIP3    H254841   4.736   3.732   8.590
18321TIP3   OH254842   4.856   3.647   8.496
18321TIP3    H154843   4.875   3.562   8.542
18321TIP3    H254844   4.946   3.685   8.487
18322TIP3   OH254845   5.122   3.745   8.496
18322TIP3    H154846   5.155   3.656   8.475
18322TIP3    H254847   5.163   3.760   8.583
18323TIP3   OH254848   5.702   2.400   8.588
18323TIP3    H154849   5.657   2.331   8.639
18323TIP3    H254850   5.769   2.349   8.539
18324TIP3   OH254851   6.228   2.282   8.497
18324TIP3    H154852   6.264   2.331   8.420
18324TIP3    H254853   6.132   2.294   8.486
18325TIP3   OH254854   6.321   2.381   8.258
18325TIP3    H154855   6.393   2.329   8.216
18325TIP3    H254856   6.353   2.472   8.242
18326TIP3   OH254857   4.950   2.108   8.608
18326TIP3    H154858   4.858   2.076   8.603
18326TIP3    H254859   4.999   2.023   8.602
18327TIP3   OH254860   4.744   1.975   8.253
18327TIP3    H154861   4.768   2.032   8.177
18327TIP3    H254862   4.706   2.039   8.316
18328TIP3   OH254863   5.391   2.141   8.484
18328TIP3    H154864   5.451   2.191   8.426
18328TIP3    H254865   5.411   2.178   8.570
18329TIP3   OH254866   5.946   2.284   8.468
18329TIP3    H154867   5.937   2.251   8.378
18329TIP3    H254868   5.929   2.203   8.521
18330TIP3   OH254869   5.970   2.206   8.030
18330TIP3    H154870   5.882   2.246   8.035
18330TIP3    H254871   5.956   2.122   8.078
18331TIP3   OH254872   4.451   3.543   8.038
18331TIP3    H154873   4.368   3.510   7.998
18331TIP3    H254874   4.441   3.638   8.020
18332TIP3   OH254875   4.851   2.137   8.017
18332TIP3    H154876   4.898   2.074   7.959
18332TIP3    H254877   4.924   2.190   8.053
18333TIP3   OH254878   5.365   2.310   8.115
18333TIP3    H154879   5.425   2.261   8.173
18333TIP3    H254880   5.389   2.402   8.139
18334TIP3   OH254881   5.944   3.852   7.707
18334TIP3    H154882   5.941   3.754   7.694
18334TIP3    H254883   5.897   3.883   7.627
18335TIP3   OH254884   5.174   2.386   9.511
18335TIP3    H154885   5.158   2.308   9.567
18335TIP3    H254886   5.268   2.376   9.494
18336TIP3   OH254887   4.530   3.574   7.673
18336TIP3    H154888   4.532   3.603   7.766
18336TIP3    H254889   4.619   3.534   7.662
18337TIP3   OH254890   6.224   2.450   9.382
18337TIP3    H154891   6.235   2.422   9.476
18337TIP3    H254892   6.315   2.442   9.347
18338TIP3   OH254893   6.169   4.009   8.899
18338TIP3    H154894   6.096   3.968   8.846
18338TIP3    H254895   6.186   4.088   8.848
18339TIP3   OH254896   7.437   3.371   7.662
18339TIP3    H154897   7.409   3.462   7.643
18339TIP3    H254898   7.359   3.322   7.630
18340TIP3   OH254899   7.436   3.370   8.038
18340TIP3    H154900   7.463   3.336   8.125
18340TIP3    H254901   7.393   3.292   7.999
18341TIP3   OH254902   6.737   3.267   8.405
18341TIP3    H154903   6.768   3.201   8.469
18341TIP3    H254904   6.813   3.327   8.401
18342TIP3   OH254905   7.679   3.670   7.720
18342TIP3    H154906   7.664   3.599   7.784
18342TIP3    H254907   7.703   3.745   7.777
18343TIP3   OH254908   6.704   3.675   8.136
18343TIP3    H154909   6.696   3.577   8.139
18343TIP3    H254910   6.801   3.683   8.131
18344TIP3   OH254911   6.414   2.882   7.921
18344TIP3    H154912   6.362   2.964   7.931
18344TIP3    H254913   6.345   2.823   7.887
18345TIP3   OH254914   6.476   3.169   8.087
18345TIP3    H154915   6.522   3.091   8.125
18345TIP3    H254916   6.529   3.187   8.009
18346TIP3   OH254917   7.324   4.134   7.737
18346TIP3    H154918   7.375   4.063   7.691
18346TIP3    H254919   7.319   4.100   7.827
18347TIP3   OH254920   7.235   3.596   8.088
18347TIP3    H154921   7.269   3.519   8.039
18347TIP3    H254922   7.321   3.638   8.111
18348TIP3   OH254923   8.223   2.919   8.080
18348TIP3    H154924   8.266   2.989   8.134
18348TIP3    H254925   8.261   2.938   7.993
18349TIP3   OH254926   7.647   3.100   8.125
18349TIP3    H154927   7.689   3.014   8.144
18349TIP3    H254928   7.616   3.085   8.033
18350TIP3   OH254929   6.982   2.757   8.089
18350TIP3    H154930   6.960   2.829   8.026
18350TIP3    H254931   6.935   2.682   8.045
18351TIP3   OH254932   7.676   2.847   7.714
18351TIP3    H154933   7.749   2.830   7.778
18351TIP3    H254934   7.727   2.883   7.639
18352TIP3   OH254935   6.617   2.960   8.194
18352TIP3    H154936   6.700   2.938   8.241
18352TIP3    H254937   6.627   2.903   8.115
18353TIP3   OH254938   7.060   3.158   7.983
18353TIP3    H154939   7.152   3.130   7.999
18353TIP3    H254940   7.019   3.073   7.953
18354TIP3   OH254941   8.309   3.127   8.231
18354TIP3    H154942   8.228   3.175   8.256
18354TIP3    H254943   8.355   3.111   8.315
18355TIP3   OH254944   6.981   2.741   8.522
18355TIP3    H154945   6.920   2.777   8.455
18355TIP3    H254946   6.930   2.758   8.604
18356TIP3   OH254947   7.335   3.594   7.530
18356TIP3    H154948   7.285   3.564   7.453
18356TIP3    H254949   7.289   3.678   7.550
18357TIP3   OH254950   7.088   3.514   8.322
18357TIP3    H154951   7.022   3.575   8.361
18357TIP3    H254952   7.127   3.570   8.252
18358TIP3   OH254953   7.893   2.847   7.879
18358TIP3    H154954   7.886   2.794   7.959
18358TIP3    H254955   7.948   2.921   7.908
18359TIP3   OH254956   6.850   2.855   8.308
18359TIP3    H154957   6.913   2.927   8.330
18359TIP3    H254958   6.898   2.814   8.232
18360TIP3   OH254959   6.911   3.703   8.415
18360TIP3    H154960   6.886   3.790   8.377
18360TIP3    H254961   6.835   3.690   8.476
18361TIP3   OH254962   6.315   3.396   7.651
18361TIP3    H154963   6.266   3.421   7.570
18361TIP3    H254964   6.338   3.483   7.688
18362TIP3   OH254965   7.752   3.913   7.893
18362TIP3    H154966   7.662   3.904   7.933
18362TIP3    H254967   7.742   3.998   7.847
18363TIP3   OH254968   8.040   2.817   8.259
18363TIP3    H154969   7.954   2.845   8.223
18363TIP3    H254970   8.101   2.847   8.188
18364TIP3   OH254971   7.342   2.462   8.236
18364TIP3    H154972   7.328   2.366   8.250
18364TIP3    H254973   7.263   2.498   8.281
18365TIP3   OH254974   7.459   3.962   7.571
18365TIP3    H154975   7.507   3.880   7.546
18365TIP3    H254976   7.517   4.028   7.526
18366TIP3   OH254977   7.598   3.747   7.468
18366TIP3    H154978   7.551   3.671   7.431
18366TIP3    H254979   7.631   3.710   7.553
18367TIP3   OH254980   7.977   3.831   8.233
18367TIP3    H154981   7.964   3.751   8.177
18367TIP3    H254982   7.960   3.903   8.170
18368TIP3   OH254983   7.268   3.222   7.490
18368TIP3    H154984   7.186   3.271   7.467
18368TIP3    H254985   7.312   3.217   7.403
18369TIP3   OH254986   7.226   3.005   7.212
18369TIP3    H154987   7.296   3.054   7.258
18369TIP3    H254988   7.280   2.939   7.164
18370TIP3   OH254989   8.172   3.466   8.079
18370TIP3    H154990   8.088   3.517   8.088
18370TIP3    H254991   8.195   3.487   7.987
18371TIP3   OH254992   7.615   3.305   7.465
18371TIP3    H154993   7.559   3.330   7.542
18371TIP3    H254994   7.697   3.277   7.510
18372TIP3   OH254995   7.847   3.347   8.373
18372TIP3    H154996   7.843   3.430   8.424
18372TIP3    H254997   7.759   3.349   8.329
18373TIP3   OH254998   6.847   3.304   7.878
18373TIP3    H154999   6.804   3.246   7.812
18373TIP3    H255000   6.924   3.250   7.906
18374TIP3   OH255001   6.978   3.716   8.028
18374TIP3    H155002   6.954   3.666   7.948
18374TIP3    H255003   7.068   3.681   8.047
18375TIP3   OH255004   6.989   3.271   8.234
18375TIP3    H155005   7.017   3.255   8.142
18375TIP3    H255006   7.028   3.359   8.255
18376TIP3   OH255007   7.510   3.911   8.011
18376TIP3    H155008   7.495   3.990   8.066
18376TIP3    H255009   7.496   3.837   8.073
18377TIP3   OH255010   7.115   3.852   8.547
18377TIP3    H155011   7.052   3.893   8.609
18377TIP3    H255012   7.059   3.781   8.510
18378TIP3   OH255013   7.459   3.161   7.289
18378TIP3    H155014   7.515   3.221   7.342
18378TIP3    H255015   7.484   3.187   7.197
18379TIP3   OH255016   6.874   3.391   8.654
18379TIP3    H155017   6.891   3.463   8.717
18379TIP3    H255018   6.778   3.376   8.667
18380TIP3   OH255019   7.197   3.844   7.563
18380TIP3    H155020   7.269   3.902   7.592
18380TIP3    H255021   7.133   3.906   7.526
18381TIP3   OH255022   6.916   4.016   8.647
18381TIP3    H155023   6.883   4.002   8.557
18381TIP3    H255024   6.841   3.986   8.703
18382TIP3   OH255025   7.972   2.405   7.336
18382TIP3    H155026   7.890   2.421   7.388
18382TIP3    H255027   7.981   2.489   7.288
18383TIP3   OH255028   6.712   3.145   7.687
18383TIP3    H155029   6.649   3.190   7.627
18383TIP3    H255030   6.670   3.060   7.698
18384TIP3   OH255031   7.768   3.773   6.882
18384TIP3    H155032   7.777   3.870   6.871
18384TIP3    H255033   7.860   3.743   6.872
18385TIP3   OH255034   6.498   3.530   8.590
18385TIP3    H155035   6.433   3.506   8.520
18385TIP3    H255036   6.532   3.442   8.617
18386TIP3   OH255037   6.348   3.720   8.229
18386TIP3    H155038   6.443   3.714   8.214
18386TIP3    H255039   6.339   3.804   8.277
18387TIP3   OH255040   8.214   4.170   8.278
18387TIP3    H155041   8.212   4.073   8.293
18387TIP3    H255042   8.131   4.196   8.324
18388TIP3   OH255043   7.321   3.961   8.410
18388TIP3    H155044   7.317   4.053   8.443
18388TIP3    H255045   7.248   3.919   8.461
18389TIP3   OH255046   7.078   4.090   7.365
18389TIP3    H155047   7.031   4.069   7.282
18389TIP3    H255048   7.046   4.179   7.386
18390TIP3   OH255049   6.517   3.940   7.748
18390TIP3    H155050   6.563   3.928   7.834
18390TIP3    H255051   6.455   3.865   7.751
18391TIP3   OH255052   7.282   3.990   7.007
18391TIP3    H155053   7.341   3.920   6.972
18391TIP3    H255054   7.313   3.998   7.100
18392TIP3   OH255055   7.330   4.036   7.279
18392TIP3    H155056   7.241   4.047   7.319
18392TIP3    H255057   7.377   3.991   7.350
18393TIP3   OH255058   8.109   3.301   8.547
18393TIP3    H155059   8.025   3.321   8.502
18393TIP3    H255060   8.121   3.207   8.524
18394TIP3   OH255061   6.706   3.711   8.597
18394TIP3    H155062   6.745   3.700   8.684
18394TIP3    H255063   6.632   3.646   8.597
18395TIP3   OH255064   7.100   2.536   8.360
18395TIP3    H155065   7.010   2.504   8.337
18395TIP3    H255066   7.075   2.619   8.405
18396TIP3   OH255067   7.629   2.654   8.560
18396TIP3    H155068   7.688   2.617   8.627
18396TIP3    H255069   7.540   2.633   8.596
18397TIP3   OH255070   7.867   3.079   8.477
18397TIP3    H155071   7.819   3.080   8.562
18397TIP3    H255072   7.847   3.167   8.440
18398TIP3   OH255073   7.533   3.214   7.034
18398TIP3    H155074   7.498   3.184   6.948
18398TIP3    H255075   7.611   3.266   7.006
18399TIP3   OH255076   7.247   2.586   7.334
18399TIP3    H155077   7.214   2.584   7.426
18399TIP3    H255078   7.207   2.503   7.300
18400TIP3   OH255079   7.031   3.050   8.383
18400TIP3    H155080   6.980   3.073   8.464
18400TIP3    H255081   7.015   3.130   8.328
18401TIP3   OH255082   6.915   2.937   7.897
18401TIP3    H155083   6.821   2.911   7.913
18401TIP3    H255084   6.928   2.897   7.808
18402TIP3   OH255085   7.406   3.025   7.623
18402TIP3    H155086   7.351   3.095   7.583
18402TIP3    H255087   7.458   2.995   7.546
18403TIP3   OH255088   7.585   3.302   8.707
18403TIP3    H155089   7.557   3.235   8.774
18403TIP3    H255090   7.677   3.319   8.734
18404TIP3   OH255091   7.564   3.054   7.864
18404TIP3    H155092   7.505   3.084   7.792
18404TIP3    H255093   7.596   2.971   7.824
18405TIP3   OH255094   6.848   3.080   8.591
18405TIP3    H155095   6.876   3.143   8.659
18405TIP3    H255096   6.837   2.998   8.643
18406TIP3   OH255097   6.901   2.558   7.301
18406TIP3    H155098   6.894   2.553   7.398
18406TIP3    H255099   6.819   2.605   7.279
18407TIP3   OH255100   6.442   2.606   8.172
18407TIP3    H155101   6.521   2.633   8.223
18407TIP3    H255102   6.478   2.569   8.090
18408TIP3   OH255103   6.424   2.585   7.692
18408TIP3    H155104   6.468   2.624   7.614
18408TIP3    H255105   6.360   2.657   7.713
18409TIP3   OH255106   7.576   3.301   8.288
18409TIP3    H155107   7.607   3.227   8.231
18409TIP3    H255108   7.545   3.251   8.366
18410TIP3   OH255109   7.239   2.762   7.959
18410TIP3    H155110   7.155   2.757   8.008
18410TIP3    H255111   7.304   2.762   8.032
18411TIP3   OH255112   6.676   2.813   7.968
18411TIP3    H155113   6.582   2.821   7.941
18411TIP3    H255114   6.698   2.721   7.944
18412TIP3   OH255115   6.949   2.815   7.654
18412TIP3    H155116   7.043   2.827   7.631
18412TIP3    H255117   6.902   2.836   7.570
18413TIP3   OH255118   7.731   2.835   8.158
18413TIP3    H155119   7.694   2.846   8.248
18413TIP3    H255120   7.669   2.771   8.120
18414TIP3   OH255121   6.783   2.844   7.436
18414TIP3    H155122   6.709   2.801   7.390
18414TIP3    H255123   6.834   2.878   7.359
18415TIP3   OH255124   7.899   4.524   8.377
18415TIP3    H155125   7.899   4.547   8.282
18415TIP3    H255126   7.976   4.574   8.409
18416TIP3   OH255127   7.326   3.087   8.057
18416TIP3    H155128   7.396   3.044   8.005
18416TIP3    H255129   7.338   3.046   8.144
18417TIP3   OH255130   6.854   2.576   7.930
18417TIP3    H155131   6.819   2.496   7.974
18417TIP3    H255132   6.904   2.539   7.856
18418TIP3   OH255133   7.302   2.980   8.347
18418TIP3    H155134   7.212   3.017   8.358
18418TIP3    H255135   7.358   3.042   8.398
18419TIP3   OH255136   7.039   3.376   7.441
18419TIP3    H155137   6.968   3.310   7.430
18419TIP3    H255138   7.021   3.409   7.533
18420TIP3   OH255139   7.940   3.611   8.073
18420TIP3    H155140   7.962   3.659   7.990
18420TIP3    H255141   7.855   3.568   8.051
18421TIP3   OH255142   7.498   2.690   7.297
18421TIP3    H155143   7.401   2.672   7.306
18421TIP3    H255144   7.506   2.784   7.323
18422TIP3   OH255145   7.448   3.698   8.443
18422TIP3    H155146   7.438   3.664   8.533
18422TIP3    H255147   7.394   3.779   8.448
18423TIP3   OH255148   7.568   2.934   7.404
18423TIP3    H155149   7.664   2.940   7.420
18423TIP3    H255150   7.550   3.013   7.350
18424TIP3   OH255151   6.733   3.399   8.119
18424TIP3    H155152   6.767   3.367   8.033
18424TIP3    H255153   6.764   3.329   8.179
18425TIP3   OH255154   7.184   3.525   7.260
18425TIP3    H155155   7.137   3.612   7.268
18425TIP3    H255156   7.129   3.469   7.319
18426TIP3   OH255157   6.609   3.322   8.732
18426TIP3    H155158   6.635   3.307   8.826
18426TIP3    H255159   6.544   3.251   8.718
18427TIP3   OH255160   7.337   3.421   8.757
18427TIP3    H155161   7.275   3.374   8.700
18427TIP3    H255162   7.423   3.396   8.719
18428TIP3   OH255163   7.602   3.961   8.330
18428TIP3    H155164   7.507   3.946   8.343
18428TIP3    H255165   7.624   4.008   8.412
18429TIP3   OH255166   8.013   3.020   7.241
18429TIP3    H155167   7.949   2.975   7.181
18429TIP3    H255168   8.008   3.109   7.199
18430TIP3   OH255169   8.227   3.878   8.323
18430TIP3    H155170   8.129   3.875   8.315
18430TIP3    H255171   8.252   3.850   8.232
18431TIP3   OH255172   7.712   3.842   7.149
18431TIP3    H155173   7.682   3.774   7.212
18431TIP3    H255174   7.719   3.793   7.065
18432TIP3   OH255175   7.705   3.472   7.993
18432TIP3    H155176   7.612   3.446   8.006
18432TIP3    H255177   7.739   3.393   7.946
18433TIP3   OH255178   6.829   3.698   7.740
18433TIP3    H155179   6.831   3.781   7.688
18433TIP3    H255180   6.734   3.683   7.748
18434TIP3   OH255181   6.393   3.005   7.441
18434TIP3    H155182   6.439   3.088   7.462
18434TIP3    H255183   6.316   3.010   7.502
18435TIP3   OH255184   6.977   3.469   7.689
18435TIP3    H155185   6.938   3.557   7.706
18435TIP3    H255186   6.938   3.416   7.761
18436TIP3   OH255187   7.098   4.046   8.214
18436TIP3    H155188   7.140   4.115   8.159
18436TIP3    H255189   7.175   4.008   8.259
18437TIP3   OH255190   6.753   3.938   7.595
18437TIP3    H155191   6.666   3.945   7.640
18437TIP3    H255192   6.782   4.031   7.597
18438TIP3   OH255193   7.493   3.679   8.171
18438TIP3    H155194   7.486   3.676   8.269
18438TIP3    H255195   7.570   3.623   8.156
18439TIP3   OH255196   7.460   3.570   7.050
18439TIP3    H155197   7.512   3.545   7.130
18439TIP3    H255198   7.371   3.544   7.078
18440TIP3   OH255199   7.738   4.215   8.222
18440TIP3    H155200   7.661   4.155   8.214
18440TIP3    H255201   7.722   4.278   8.148
18441TIP3   OH255202   7.804   4.048   6.872
18441TIP3    H155203   7.841   4.121   6.819
18441TIP3    H255204   7.723   4.092   6.906
18442TIP3   OH255205   6.825   2.823   8.740
18442TIP3    H155206   6.728   2.828   8.754
18442TIP3    H255207   6.851   2.760   8.809
18443TIP3   OH255208   7.621   3.505   7.268
18443TIP3    H155209   7.609   3.439   7.339
18443TIP3    H255210   7.718   3.503   7.257
18444TIP3   OH255211   6.538   3.911   8.373
18444TIP3    H155212   6.586   3.830   8.393
18444TIP3    H255213   6.576   3.972   8.438
18445TIP3   OH255214   6.832   3.552   7.049
18445TIP3    H155215   6.844   3.460   7.019
18445TIP3    H255216   6.813   3.538   7.144
18446TIP3   OH255217   6.778   3.556   7.322
18446TIP3    H155218   6.844   3.528   7.386
18446TIP3    H255219   6.783   3.654   7.329
18447TIP3   OH255220   6.515   3.253   7.525
18447TIP3    H155221   6.448   3.295   7.583
18447TIP3    H255222   6.527   3.323   7.458
18448TIP3   OH255223   7.654   2.889   8.418
18448TIP3    H155224   7.737   2.925   8.452
18448TIP3    H255225   7.641   2.809   8.472
18449TIP3   OH255226   7.537   2.642   7.580
18449TIP3    H155227   7.523   2.665   7.486
18449TIP3    H255228   7.575   2.724   7.616
18450TIP3   OH255229   7.042   3.756   7.274
18450TIP3    H155230   6.955   3.783   7.308
18450TIP3    H255231   7.056   3.823   7.206
18451TIP3   OH255232   7.234   2.816   7.684
18451TIP3    H155233   7.298   2.888   7.668
18451TIP3    H255234   7.235   2.811   7.782
18452TIP3   OH255235   7.497   3.140   8.492
18452TIP3    H155236   7.514   3.193   8.572
18452TIP3    H255237   7.552   3.061   8.506
18453TIP3   OH255238   7.377   2.552   7.792
18453TIP3    H155239   7.368   2.630   7.849
18453TIP3    H255240   7.435   2.587   7.721
18454TIP3   OH255241   6.783   3.830   7.338
18454TIP3    H155242   6.751   3.898   7.274
18454TIP3    H255243   6.765   3.873   7.424
18455TIP3   OH255244   6.885   2.541   7.578
18455TIP3    H155245   6.883   2.632   7.613
18455TIP3    H255246   6.980   2.521   7.586
18456TIP3   OH255247   8.137   3.036   8.478
18456TIP3    H155248   8.040   3.037   8.464
18456TIP3    H255249   8.168   2.995   8.396
18457TIP3   OH255250   7.789   3.234   7.859
18457TIP3    H155251   7.714   3.173   7.873
18457TIP3    H255252   7.862   3.188   7.908
18458TIP3   OH255253   6.501   3.464   7.334
18458TIP3    H155254   6.562   3.540   7.341
18458TIP3    H255255   6.550   3.412   7.266
18459TIP3   OH255256   6.449   2.737   7.465
18459TIP3    H155257   6.444   2.834   7.459
18459TIP3    H255258   6.364   2.710   7.428
18460TIP3   OH255259   7.758   4.185   7.813
18460TIP3    H155260   7.715   4.231   7.738
18460TIP3    H255261   7.852   4.204   7.791
18461TIP3   OH255262   6.835   2.457   8.341
18461TIP3    H155263   6.803   2.424   8.255
18461TIP3    H255264   6.824   2.378   8.398
18462TIP3   OH255265   6.379   3.681   7.727
18462TIP3    H155266   6.296   3.706   7.769
18462TIP3    H255267   6.361   3.713   7.636
18463TIP3   OH255268   6.524   4.204   8.793
18463TIP3    H155269   6.613   4.196   8.831
18463TIP3    H255270   6.501   4.110   8.783
18464TIP3   OH255271   6.995   3.757   6.968
18464TIP3    H155272   6.936   3.686   7.003
18464TIP3    H255273   7.068   3.702   6.934
18465TIP3   OH255274   7.641   4.096   8.578
18465TIP3    H155275   7.637   4.019   8.639
18465TIP3    H255276   7.728   4.135   8.598
18466TIP3   OH255277   7.432   3.800   6.875
18466TIP3    H155278   7.475   3.734   6.932
18466TIP3    H255279   7.489   3.799   6.795
18467TIP3   OH255280   6.643   3.628   9.007
18467TIP3    H155281   6.704   3.557   8.981
18467TIP3    H255282   6.568   3.616   8.946
18468TIP3   OH255283   6.637   3.276   7.181
18468TIP3    H155284   6.688   3.238   7.254
18468TIP3    H255285   6.706   3.279   7.111
18469TIP3   OH255286   7.306   3.710   8.723
18469TIP3    H155287   7.209   3.714   8.713
18469TIP3    H255288   7.316   3.623   8.765
18470TIP3   OH255289   7.144   3.472   6.989
18470TIP3    H155290   7.145   3.484   7.086
18470TIP3    H255291   7.142   3.374   6.984
18471TIP3   OH255292   7.764   3.707   8.370
18471TIP3    H155293   7.832   3.760   8.326
18471TIP3    H255294   7.686   3.765   8.362
18472TIP3   OH255295   6.782   3.346   8.966
18472TIP3    H155296   6.864   3.297   8.956
18472TIP3    H255297   6.797   3.388   9.053
18473TIP3   OH255298   6.852   3.174   7.411
18473TIP3    H155299   6.819   3.131   7.491
18473TIP3    H255300   6.883   3.098   7.358
18474TIP3   OH255301   7.114   3.236   8.635
18474TIP3    H155302   7.040   3.300   8.643
18474TIP3    H255303   7.161   3.269   8.555
18475TIP3   OH255304   6.943   2.967   7.249
18475TIP3    H155305   6.916   2.966   7.155
18475TIP3    H255306   7.041   2.975   7.241
18476TIP3   OH255307   7.641   3.649   8.775
18476TIP3    H155308   7.716   3.620   8.723
18476TIP3    H255309   7.631   3.576   8.839
18477TIP3   OH255310   7.773   3.303   6.905
18477TIP3    H155311   7.748   3.253   6.825
18477TIP3    H255312   7.739   3.392   6.880
18478TIP3   OH255313   7.241   3.027   8.762
18478TIP3    H155314   7.236   2.946   8.707
18478TIP3    H255315   7.195   3.092   8.705
18479TIP3   OH255316   7.240   2.812   8.567
18479TIP3    H155317   7.266   2.854   8.483
18479TIP3    H255318   7.146   2.790   8.550
18480TIP3   OH255319   7.272   3.352   8.441
18480TIP3    H155320   7.351   3.356   8.385
18480TIP3    H255321   7.214   3.419   8.400
18481TIP3   OH255322   7.851   3.322   8.818
18481TIP3    H155323   7.901   3.249   8.860
18481TIP3    H255324   7.923   3.382   8.792
18482TIP3   OH255325   7.893   3.570   8.561
18482TIP3    H155326   7.834   3.620   8.501
18482TIP3    H255327   7.980   3.589   8.518
18483TIP3   OH255328   7.115   3.142   8.991
18483TIP3    H155329   7.046   3.074   9.003
18483TIP3    H255330   7.150   3.118   8.903
18484TIP3   OH255331   7.372   2.579   8.631
18484TIP3    H155332   7.322   2.661   8.610
18484TIP3    H255333   7.303   2.511   8.621
18485TIP3   OH255334   7.499   3.085   8.848
18485TIP3    H155335   7.489   3.077   8.944
18485TIP3    H255336   7.409   3.060   8.820
18486TIP3   OH255337   7.738   3.024   8.718
18486TIP3    H155338   7.647   3.044   8.750
18486TIP3    H255339   7.779   3.000   8.801
18487TIP3   OH255340   6.953   2.924   9.041
18487TIP3    H155341   6.961   2.833   9.005
18487TIP3    H255342   6.988   2.911   9.131
18488TIP3   OH255343   7.468   2.591   8.887
18488TIP3    H155344   7.529   2.516   8.877
18488TIP3    H255345   7.422   2.586   8.800
18489TIP3   OH255346   7.536   2.804   9.048
18489TIP3    H155347   7.509   2.733   8.986
18489TIP3    H255348   7.458   2.864   9.046
18490TIP3   OH255349   6.752   4.033   7.152
18490TIP3    H155350   6.847   4.032   7.130
18490TIP3    H255351   6.717   4.077   7.072
18491TIP3   OH255352   6.233   3.413   7.370
18491TIP3    H155353   6.328   3.434   7.356
18491TIP3    H255354   6.227   3.324   7.328
18492TIP3   OH255355   6.145   4.027   7.778
18492TIP3    H155356   6.077   3.965   7.745
18492TIP3    H255357   6.189   3.971   7.846
18493TIP3   OH255358   6.282   3.885   7.967
18493TIP3    H155359   6.270   3.805   8.020
18493TIP3    H255360   6.333   3.941   8.029
18494TIP3   OH255361   8.009   4.277   7.766
18494TIP3    H155362   8.035   4.312   7.853
18494TIP3    H255363   8.066   4.329   7.706
18495TIP3   OH255364   8.040   4.299   8.047
18495TIP3    H155365   7.998   4.210   8.043
18495TIP3    H255366   8.115   4.279   8.106
18496TIP3   OH255367   8.085   3.976   8.619
18496TIP3    H155368   8.012   3.983   8.684
18496TIP3    H255369   8.126   4.065   8.626
18497TIP3   OH255370   7.902   3.489   7.244
18497TIP3    H155371   7.973   3.552   7.218
18497TIP3    H255372   7.942   3.448   7.323
18498TIP3   OH255373   8.031   3.358   7.448
18498TIP3    H155374   7.962   3.312   7.501
18498TIP3    H255375   8.084   3.401   7.516
18499TIP3   OH255376   8.083   3.746   7.880
18499TIP3    H155377   8.135   3.686   7.823
18499TIP3    H255378   8.067   3.822   7.821
18500TIP3   OH255379   7.917   4.048   8.074
18500TIP3    H155380   7.846   4.089   8.127
18500TIP3    H255381   7.866   3.999   8.006
18501TIP3   OH255382   7.969   3.264   7.094
18501TIP3    H155383   7.898   3.266   7.026
18501TIP3    H255384   7.940   3.340   7.149
18502TIP3   OH255385   7.842   2.937   7.048
18502TIP3    H155386   7.797   2.976   6.972
18502TIP3    H255387   7.813   2.843   7.040
18503TIP3   OH255388   7.848   3.210   7.594
18503TIP3    H155389   7.853   3.113   7.589
18503TIP3    H255390   7.833   3.225   7.690
18504TIP3   OH255391   6.472   3.286   8.339
18504TIP3    H155392   6.470   3.258   8.245
18504TIP3    H255393   6.569   3.286   8.356
18505TIP3   OH255394   8.133   3.636   8.448
18505TIP3    H155395   8.206   3.570   8.441
18505TIP3    H255396   8.162   3.707   8.389
18506TIP3   OH255397   8.322   3.446   8.472
18506TIP3    H155398   8.247   3.393   8.507
18506TIP3    H255399   8.395   3.385   8.493
18507TIP3   OH255400   7.783   2.672   7.039
18507TIP3    H155401   7.858   2.639   7.092
18507TIP3    H255402   7.709   2.613   7.062
18508TIP3   OH255403   7.841   2.927   7.491
18508TIP3    H155404   7.879   2.838   7.507
18508TIP3    H255405   7.900   2.958   7.420
18509TIP3   OH255406   8.001   3.111   7.983
18509TIP3    H155407   8.089   3.132   7.945
18509TIP3    H255408   8.017   3.137   8.076
18510TIP3   OH255409   8.061   3.249   8.224
18510TIP3    H155410   7.981   3.288   8.266
18510TIP3    H255411   8.097   3.326   8.175
18511TIP3   OH255412   6.686   2.975   9.015
18511TIP3    H155413   6.784   2.967   9.014
18511TIP3    H255414   6.662   2.890   9.057
18512TIP3   OH255415   7.950   2.676   7.526
18512TIP3    H155416   7.997   2.661   7.610
18512TIP3    H255417   7.888   2.600   7.525
18513TIP3   OH255418   6.650   2.664   8.347
18513TIP3    H155419   6.711   2.589   8.356
18513TIP3    H255420   6.712   2.738   8.341
18514TIP3   OH255421   6.455   2.940   8.421
18514TIP3    H155422   6.502   2.928   8.336
18514TIP3    H255423   6.486   3.027   8.447
18515TIP3   OH255424   8.034   2.615   7.157
18515TIP3    H155425   8.071   2.540   7.106
18515TIP3    H255426   8.102   2.684   7.145
18516TIP3   OH255427   6.435   2.449   7.924
18516TIP3    H155428   6.340   2.441   7.944
18516TIP3    H255429   6.435   2.503   7.842
18517TIP3   OH255430   7.595   4.142   7.425
18517TIP3    H155431   7.646   4.126   7.342
18517TIP3    H255432   7.648   4.211   7.468
18518TIP3   OH255433   6.656   2.523   8.736
18518TIP3    H155434   6.605   2.516   8.818
18518TIP3    H255435   6.589   2.560   8.675
18519TIP3   OH255436   6.691   3.960   8.821
18519TIP3    H155437   6.606   3.919   8.798
18519TIP3    H255438   6.719   3.906   8.897
18520TIP3   OH255439   6.870   3.977   8.361
18520TIP3    H155440   6.823   4.053   8.320
18520TIP3    H255441   6.957   3.990   8.319
18521TIP3   OH255442   7.322   4.228   8.498
18521TIP3    H155443   7.381   4.224   8.575
18521TIP3    H255444   7.381   4.275   8.435
18522TIP3   OH255445   7.499   4.372   8.354
18522TIP3    H155446   7.570   4.324   8.309
18522TIP3    H255447   7.551   4.432   8.413
18523TIP3   OH255448   8.255   2.716   8.513
18523TIP3    H155449   8.206   2.753   8.438
18523TIP3    H255450   8.325   2.667   8.465
18524TIP3   OH255451   6.553   4.240   8.381
18524TIP3    H155452   6.465   4.274   8.354
18524TIP3    H255453   6.553   4.264   8.474
18525TIP3   OH255454   6.789   4.218   8.239
18525TIP3    H155455   6.703   4.230   8.284
18525TIP3    H255456   6.768   4.250   8.149
18526TIP3   OH255457   7.214   4.247   8.036
18526TIP3    H155458   7.144   4.267   7.970
18526TIP3    H255459   7.226   4.335   8.077
18527TIP3   OH255460   7.480   4.188   8.088
18527TIP3    H155461   7.386   4.203   8.066
18527TIP3    H255462   7.522   4.265   8.045
18528TIP3   OH255463   7.692   4.380   8.006
18528TIP3    H155464   7.677   4.464   7.958
18528TIP3    H255465   7.715   4.319   7.933
18529TIP3   OH255466   6.463   4.033   8.129
18529TIP3    H155467   6.489   4.008   8.220
18529TIP3    H255468   6.533   3.988   8.078
18530TIP3   OH255469   6.653   3.903   7.983
18530TIP3    H155470   6.671   3.818   8.030
18530TIP3    H255471   6.743   3.940   7.975
18531TIP3   OH255472   6.921   4.000   7.982
18531TIP3    H155473   6.951   3.909   7.969
18531TIP3    H255474   6.960   4.019   8.069
18532TIP3   OH255475   7.498   2.656   8.075
18532TIP3    H155476   7.453   2.588   8.127
18532TIP3    H255477   7.565   2.604   8.027
18533TIP3   OH255478   8.025   2.533   7.979
18533TIP3    H155479   8.060   2.588   7.905
18533TIP3    H255480   7.929   2.550   7.974
18534TIP3   OH255481   8.117   2.639   7.743
18534TIP3    H155482   8.190   2.588   7.702
18534TIP3    H255483   8.149   2.731   7.728
18535TIP3   OH255484   6.747   2.365   8.093
18535TIP3    H155485   6.654   2.332   8.091
18535TIP3    H255486   6.795   2.279   8.089
18536TIP3   OH255487   6.533   2.231   7.737
18536TIP3    H155488   6.562   2.290   7.665
18536TIP3    H255489   6.501   2.295   7.804
18537TIP3   OH255490   7.187   2.398   7.969
18537TIP3    H155491   7.249   2.449   7.914
18537TIP3    H255492   7.204   2.434   8.057
18538TIP3   OH255493   7.743   2.541   7.955
18538TIP3    H155494   7.732   2.507   7.865
18538TIP3    H255495   7.725   2.461   8.009
18539TIP3   OH255496   7.766   2.463   7.516
18539TIP3    H155497   7.678   2.502   7.523
18539TIP3    H255498   7.752   2.379   7.565
18540TIP3   OH255499   6.252   3.799   7.520
18540TIP3    H155500   6.167   3.764   7.486
18540TIP3    H255501   6.235   3.894   7.506
18541TIP3   OH255502   6.646   2.394   7.502
18541TIP3    H155503   6.695   2.330   7.447
18541TIP3    H255504   6.720   2.447   7.540
18542TIP3   OH255505   7.162   2.567   7.601
18542TIP3    H155506   7.220   2.517   7.660
18542TIP3    H255507   7.186   2.658   7.627
18543TIP3   OH255508   7.021   3.997   7.098
18543TIP3    H155509   7.110   4.017   7.063
18543TIP3    H255510   6.999   3.921   7.041
18544TIP3   OH255511   7.741   4.110   7.192
18544TIP3    H155512   7.732   4.012   7.179
18544TIP3    H255513   7.694   4.142   7.112
18545TIP3   OH255514   6.954   2.645   8.983
18545TIP3    H155515   6.921   2.573   9.039
18545TIP3    H255516   7.049   2.646   9.009
18546TIP3   OH255517   7.203   2.642   9.102
18546TIP3    H155518   7.286   2.612   9.064
18546TIP3    H255519   7.188   2.573   9.171
18547TIP3   OH255520   6.327   3.835   7.159
18547TIP3    H155521   6.319   3.859   7.253
18547TIP3    H255522   6.415   3.793   7.154
18548TIP3   OH255523   7.969   4.256   8.381
18548TIP3    H155524   7.890   4.223   8.334
18548TIP3    H255525   7.949   4.352   8.382
18549TIP3   OH255526   9.231   3.626   7.152
18549TIP3    H155527   9.204   3.718   7.131
18549TIP3    H255528   9.157   3.577   7.113
18550TIP3   OH255529   9.213   3.623   7.525
18550TIP3    H155530   9.254   3.601   7.611
18550TIP3    H255531   9.199   3.534   7.488
18551TIP3   OH255532   8.573   3.519   7.875
18551TIP3    H155533   8.576   3.457   7.950
18551TIP3    H255534   8.591   3.603   7.922
18552TIP3   OH255535   9.474   3.927   7.208
18552TIP3    H155536   9.462   3.858   7.273
18552TIP3    H255537   9.500   4.003   7.262
18553TIP3   OH255538   8.501   3.932   7.620
18553TIP3    H155539   8.500   3.834   7.629
18553TIP3    H255540   8.597   3.947   7.617
18554TIP3   OH255541   8.210   3.144   7.409
18554TIP3    H155542   8.153   3.222   7.416
18554TIP3    H255543   8.145   3.078   7.378
18555TIP3   OH255544   8.286   3.432   7.574
18555TIP3    H155545   8.322   3.349   7.611
18555TIP3    H255546   8.315   3.426   7.482
18556TIP3   OH255547   9.118   4.390   7.223
18556TIP3    H155548   9.169   4.319   7.178
18556TIP3    H255549   9.117   4.359   7.314
18557TIP3   OH255550   9.027   3.814   7.575
18557TIP3    H155551   9.091   3.766   7.519
18557TIP3    H255552   9.088   3.885   7.604
18558TIP3   OH255553   9.449   3.366   7.605
18558TIP3    H155554   9.483   3.278   7.629
18558TIP3    H255555   9.413   3.346   7.517
18559TIP3   OH255556   8.776   3.018   7.575
18559TIP3    H155557   8.756   3.089   7.511
18559TIP3    H255558   8.731   2.942   7.530
18560TIP3   OH255559   9.468   3.104   7.197
18560TIP3    H155560   9.541   3.088   7.261
18560TIP3    H255561   9.519   3.141   7.123
18561TIP3   OH255562   8.417   3.219   7.680
18561TIP3    H155563   8.497   3.190   7.728
18561TIP3    H255564   8.423   3.159   7.602
18562TIP3   OH255565   8.776   2.998   8.015
18562TIP3    H155566   8.707   3.030   7.953
18562TIP3    H255567   8.723   2.977   8.094
18563TIP3   OH255568   9.126   3.847   7.021
18563TIP3    H155569   9.085   3.823   6.937
18563TIP3    H255570   9.085   3.933   7.039
18564TIP3   OH255571   9.683   3.097   7.355
18564TIP3    H155572   9.690   3.053   7.441
18564TIP3    H255573   9.746   3.170   7.369
18565TIP3   OH255574   8.648   3.111   7.796
18565TIP3    H155575   8.715   3.181   7.814
18565TIP3    H255576   8.690   3.068   7.718
18566TIP3   OH255577   8.712   3.958   7.901
18566TIP3    H155578   8.687   4.043   7.860
18566TIP3    H255579   8.634   3.945   7.959
18567TIP3   OH255580   8.111   3.654   7.138
18567TIP3    H155581   8.064   3.678   7.057
18567TIP3    H255582   8.137   3.740   7.175
18568TIP3   OH255583   9.545   4.167   7.377
18568TIP3    H155584   9.455   4.161   7.416
18568TIP3    H255585   9.539   4.254   7.332
18569TIP3   OH255586   9.128   2.719   7.701
18569TIP3    H155587   9.128   2.629   7.739
18569TIP3    H255588   9.058   2.761   7.755
18570TIP3   OH255589   9.253   4.218   7.056
18570TIP3    H155590   9.301   4.136   7.031
18570TIP3    H255591   9.312   4.284   7.012
18571TIP3   OH255592   9.391   4.003   6.956
18571TIP3    H155593   9.358   3.924   6.911
18571TIP3    H255594   9.425   3.966   7.040
18572TIP3   OH255595   9.757   4.086   7.722
18572TIP3    H155596   9.753   4.009   7.661
18572TIP3    H255597   9.749   4.162   7.660
18573TIP3   OH255598   9.065   3.481   6.977
18573TIP3    H155599   8.983   3.529   6.951
18573TIP3    H255600   9.112   3.473   6.892
18574TIP3   OH255601   9.023   3.261   6.700
18574TIP3    H155602   9.093   3.311   6.744
18574TIP3    H255603   9.077   3.195   6.651
18575TIP3   OH255604   9.948   3.703   7.546
18575TIP3    H155605   9.876   3.766   7.567
18575TIP3    H255606   9.990   3.747   7.470
18576TIP3   OH255607   9.409   3.561   6.952
18576TIP3    H155608   9.356   3.586   7.031
18576TIP3    H255609   9.493   3.533   6.995
18577TIP3   OH255610   9.595   3.588   7.857
18577TIP3    H155611   9.633   3.671   7.887
18577TIP3    H255612   9.522   3.616   7.800
18578TIP3   OH255613   8.652   3.540   7.366
18578TIP3    H155614   8.586   3.506   7.301
18578TIP3    H255615   8.716   3.468   7.361
18579TIP3   OH255616   8.771   3.971   7.514
18579TIP3    H155617   8.754   3.927   7.429
18579TIP3    H255618   8.859   3.937   7.538
18580TIP3   OH255619   9.304   4.167   7.497
18580TIP3    H155620   9.290   4.248   7.549
18580TIP3    H255621   9.290   4.095   7.562
18581TIP3   OH255622   8.916   4.086   8.044
18581TIP3    H155623   8.855   4.147   8.090
18581TIP3    H255624   8.852   4.031   7.994
18582TIP3   OH255625   9.252   3.419   6.776
18582TIP3    H155626   9.311   3.477   6.829
18582TIP3    H255627   9.279   3.444   6.684
18583TIP3   OH255628   8.658   3.650   8.127
18583TIP3    H155629   8.672   3.732   8.179
18583TIP3    H255630   8.569   3.626   8.161
18584TIP3   OH255631   8.991   4.102   7.053
18584TIP3    H155632   9.068   4.156   7.076
18584TIP3    H255633   8.930   4.167   7.015
18585TIP3   OH255634   8.712   4.257   8.131
18585TIP3    H155635   8.676   4.252   8.040
18585TIP3    H255636   8.634   4.236   8.186
18586TIP3   OH255637   9.775   2.681   6.854
18586TIP3    H155638   9.682   2.695   6.882
18586TIP3    H255639   9.782   2.737   6.776
18587TIP3   OH255640   8.502   3.408   7.180
18587TIP3    H155641   8.440   3.448   7.115
18587TIP3    H255642   8.470   3.317   7.185
18588TIP3   OH255643   9.564   4.030   6.370
18588TIP3    H155644   9.573   4.127   6.358
18588TIP3    H255645   9.657   4.001   6.357
18589TIP3   OH255646   8.293   3.783   8.078
18589TIP3    H155647   8.224   3.761   8.012
18589TIP3    H255648   8.324   3.694   8.107
18590TIP3   OH255649   8.145   3.978   7.712
18590TIP3    H155650   8.242   3.978   7.704
18590TIP3    H255651   8.130   4.058   7.765
18591TIP3   OH255652   9.988   4.451   7.735
18591TIP3    H155653  10.048   4.382   7.771
18591TIP3    H255654   9.914   4.447   7.798
18592TIP3   OH255655   9.117   4.216   7.901
18592TIP3    H155656   9.117   4.308   7.933
18592TIP3    H255657   9.045   4.177   7.955
18593TIP3   OH255658   8.872   4.346   6.852
18593TIP3    H155659   8.827   4.328   6.768
18593TIP3    H255660   8.843   4.436   6.874
18594TIP3   OH255661   8.313   4.196   7.234
18594TIP3    H155662   8.361   4.186   7.319
18594TIP3    H255663   8.249   4.124   7.242
18595TIP3   OH255664   9.076   4.244   6.495
18595TIP3    H155665   9.137   4.176   6.458
18595TIP3    H255666   9.111   4.254   6.586
18596TIP3   OH255667   9.125   4.293   6.765
18596TIP3    H155668   9.038   4.302   6.810
18596TIP3    H255669   9.178   4.252   6.836
18597TIP3   OH255670   8.497   3.968   8.069
18597TIP3    H155671   8.547   3.952   8.151
18597TIP3    H255672   8.423   3.904   8.078
18598TIP3   OH255673   8.891   2.806   7.836
18598TIP3    H155674   8.801   2.771   7.813
18598TIP3    H255675   8.865   2.887   7.883
18599TIP3   OH255676   9.326   3.473   6.521
18599TIP3    H155677   9.295   3.441   6.435
18599TIP3    H255678   9.409   3.519   6.496
18600TIP3   OH255679   9.042   2.843   6.821
18600TIP3    H155680   9.009   2.841   6.913
18600TIP3    H255681   9.004   2.760   6.787
18601TIP3   OH255682   8.818   3.329   7.871
18601TIP3    H155683   8.792   3.308   7.963
18601TIP3    H255684   8.747   3.391   7.850
18602TIP3   OH255685   8.703   3.198   7.383
18602TIP3    H155686   8.612   3.165   7.398
18602TIP3    H255687   8.723   3.158   7.295
18603TIP3   OH255688   9.202   3.281   7.109
18603TIP3    H155689   9.148   3.351   7.068
18603TIP3    H255690   9.256   3.252   7.033
18604TIP3   OH255691   9.359   3.313   7.348
18604TIP3    H155692   9.300   3.339   7.274
18604TIP3    H255693   9.391   3.228   7.312
18605TIP3   OH255694   8.644   3.336   8.083
18605TIP3    H155695   8.667   3.396   8.155
18605TIP3    H255696   8.600   3.264   8.130
18606TIP3   OH255697   8.697   2.815   6.788
18606TIP3    H155698   8.690   2.809   6.885
18606TIP3    H255699   8.614   2.860   6.765
18607TIP3   OH255700   8.238   2.866   7.654
18607TIP3    H155701   8.315   2.889   7.709
18607TIP3    H255702   8.275   2.822   7.576
18608TIP3   OH255703   8.221   2.842   7.179
18608TIP3    H155704   8.264   2.881   7.101
18608TIP3    H255705   8.156   2.913   7.200
18609TIP3   OH255706   9.330   3.552   7.762
18609TIP3    H155707   9.377   3.481   7.711
18609TIP3    H255708   9.348   3.521   7.853
18610TIP3   OH255709   9.037   3.017   7.446
18610TIP3    H155710   8.952   3.014   7.495
18610TIP3    H255711   9.101   3.016   7.519
18611TIP3   OH255712   8.471   3.068   7.455
18611TIP3    H155713   8.377   3.075   7.428
18611TIP3    H255714   8.494   2.976   7.432
18612TIP3   OH255715   8.745   3.073   7.141
18612TIP3    H155716   8.840   3.083   7.119
18612TIP3    H255717   8.700   3.092   7.056
18613TIP3   OH255718   9.500   3.098   7.626
18613TIP3    H155719   9.472   3.105   7.720
18613TIP3    H255720   9.437   3.031   7.595
18614TIP3   OH255721   8.579   3.103   6.922
18614TIP3    H155722   8.505   3.058   6.877
18614TIP3    H255723   8.630   3.135   6.845
18615TIP3   OH255724   9.695   4.780   7.862
18615TIP3    H155725   9.697   4.805   7.768
18615TIP3    H255726   9.770   4.830   7.898
18616TIP3   OH255727   8.658   3.889   8.285
18616TIP3    H155728   8.735   3.923   8.335
18616TIP3    H255729   8.593   3.885   8.358
18617TIP3   OH255730   9.132   3.355   7.558
18617TIP3    H155731   9.182   3.303   7.494
18617TIP3    H255732   9.138   3.301   7.638
18618TIP3   OH255733   8.651   2.833   7.418
18618TIP3    H155734   8.615   2.753   7.462
18618TIP3    H255735   8.700   2.796   7.344
18619TIP3   OH255736   9.096   3.242   7.826
18619TIP3    H155737   9.012   3.281   7.854
18619TIP3    H255738   9.162   3.285   7.883
18620TIP3   OH255739   8.833   3.634   6.927
18620TIP3    H155740   8.763   3.567   6.917
18620TIP3    H255741   8.817   3.664   7.020
18621TIP3   OH255742   9.733   3.872   7.557
18621TIP3    H155743   9.757   3.917   7.473
18621TIP3    H255744   9.649   3.828   7.534
18622TIP3   OH255745   9.295   2.945   6.788
18622TIP3    H155746   9.198   2.930   6.793
18622TIP3    H255747   9.304   3.040   6.809
18623TIP3   OH255748   9.226   3.940   7.928
18623TIP3    H155749   9.260   3.923   8.018
18623TIP3    H255750   9.195   4.032   7.934
18624TIP3   OH255751   9.365   3.192   6.892
18624TIP3    H155752   9.462   3.196   6.904
18624TIP3    H255753   9.348   3.269   6.834
18625TIP3   OH255754   8.563   3.654   7.610
18625TIP3    H155755   8.572   3.616   7.521
18625TIP3    H255756   8.531   3.578   7.662
18626TIP3   OH255757   8.980   3.781   6.745
18626TIP3    H155758   8.933   3.868   6.754
18626TIP3    H255759   8.926   3.726   6.806
18627TIP3   OH255760   8.409   3.569   8.214
18627TIP3    H155761   8.430   3.560   8.310
18627TIP3    H255762   8.336   3.505   8.205
18628TIP3   OH255763   9.132   3.691   8.208
18628TIP3    H155764   9.074   3.613   8.205
18628TIP3    H255765   9.218   3.651   8.231
18629TIP3   OH255766   9.394   4.202   7.821
18629TIP3    H155767   9.298   4.207   7.831
18629TIP3    H255768   9.423   4.259   7.896
18630TIP3   OH255769   9.801   3.272   6.739
18630TIP3    H155770   9.744   3.225   6.675
18630TIP3    H255771   9.824   3.348   6.681
18631TIP3   OH255772  10.008   4.133   7.801
18631TIP3    H155773   9.912   4.124   7.786
18631TIP3    H255774  10.042   4.115   7.713
18632TIP3   OH255775   9.500   4.099   6.634
18632TIP3    H155776   9.483   4.028   6.697
18632TIP3    H255777   9.518   4.052   6.551
18633TIP3   OH255778   9.501   3.727   7.483
18633TIP3    H155779   9.408   3.701   7.490
18633TIP3    H255780   9.537   3.649   7.435
18634TIP3   OH255781   8.626   3.953   7.226
18634TIP3    H155782   8.631   4.036   7.175
18634TIP3    H255783   8.530   3.943   7.236
18635TIP3   OH255784   8.189   3.261   6.928
18635TIP3    H155785   8.235   3.345   6.949
18635TIP3    H255786   8.112   3.266   6.989
18636TIP3   OH255787   8.772   3.722   7.179
18636TIP3    H155788   8.736   3.812   7.191
18636TIP3    H255789   8.729   3.674   7.252
18637TIP3   OH255790   8.895   4.301   7.698
18637TIP3    H155791   8.935   4.374   7.647
18637TIP3    H255792   8.971   4.268   7.748
18638TIP3   OH255793   8.549   4.194   7.082
18638TIP3    H155794   8.462   4.202   7.127
18638TIP3    H255795   8.579   4.287   7.084
18639TIP3   OH255796   9.285   3.932   7.657
18639TIP3    H155797   9.279   3.931   7.755
18639TIP3    H255798   9.369   3.886   7.642
18640TIP3   OH255799   9.257   3.825   6.538
18640TIP3    H155800   9.310   3.802   6.617
18640TIP3    H255801   9.168   3.799   6.569
18641TIP3   OH255802   9.535   4.471   7.706
18641TIP3    H155803   9.455   4.415   7.695
18641TIP3    H255804   9.521   4.537   7.635
18642TIP3   OH255805   9.599   4.305   6.359
18642TIP3    H155806   9.636   4.378   6.307
18642TIP3    H255807   9.518   4.349   6.392
18643TIP3   OH255808   9.416   3.764   6.759
18643TIP3    H155809   9.407   3.695   6.827
18643TIP3    H255810   9.513   3.761   6.743
18644TIP3   OH255811   8.337   4.165   7.857
18644TIP3    H155812   8.387   4.088   7.889
18644TIP3    H255813   8.363   4.231   7.923
18645TIP3   OH255814   8.624   3.808   6.536
18645TIP3    H155815   8.642   3.717   6.506
18645TIP3    H255816   8.608   3.794   6.631
18646TIP3   OH255817   8.573   3.813   6.809
18646TIP3    H155818   8.643   3.784   6.870
18646TIP3    H255819   8.579   3.911   6.817
18647TIP3   OH255820   8.311   3.509   7.011
18647TIP3    H155821   8.244   3.553   7.069
18647TIP3    H255822   8.324   3.580   6.945
18648TIP3   OH255823   9.404   3.145   7.880
18648TIP3    H155824   9.479   3.196   7.917
18648TIP3    H255825   9.409   3.064   7.933
18649TIP3   OH255826   9.329   2.899   7.067
18649TIP3    H155827   9.317   2.921   6.972
18649TIP3    H255828   9.369   2.982   7.102
18650TIP3   OH255829   8.836   4.011   6.760
18650TIP3    H155830   8.750   4.041   6.795
18650TIP3    H255831   8.855   4.081   6.696
18651TIP3   OH255832   9.030   3.072   7.171
18651TIP3    H155833   9.094   3.144   7.153
18651TIP3    H255834   9.031   3.068   7.269
18652TIP3   OH255835   9.286   3.404   7.999
18652TIP3    H155836   9.318   3.447   8.081
18652TIP3    H255837   9.352   3.333   7.989
18653TIP3   OH255838   9.175   2.808   7.280
18653TIP3    H155839   9.163   2.887   7.336
18653TIP3    H255840   9.231   2.845   7.207
18654TIP3   OH255841   8.578   4.086   6.825
18654TIP3    H155842   8.547   4.155   6.762
18654TIP3    H255843   8.562   4.129   6.912
18655TIP3   OH255844   8.681   2.797   7.065
18655TIP3    H155845   8.679   2.888   7.101
18655TIP3    H255846   8.777   2.778   7.073
18656TIP3   OH255847   9.585   3.490   7.349
18656TIP3    H155848   9.509   3.430   7.361
18656TIP3    H255849   9.658   3.438   7.390
18657TIP3   OH255850   8.297   3.720   6.820
18657TIP3    H155851   8.359   3.795   6.829
18657TIP3    H255852   8.346   3.668   6.753
18658TIP3   OH255853   8.245   2.993   6.952
18658TIP3    H155854   8.239   3.091   6.945
18658TIP3    H255855   8.161   2.965   6.914
18659TIP3   OH255856   9.554   4.439   7.299
18659TIP3    H155857   9.512   4.487   7.224
18659TIP3    H255858   9.648   4.460   7.279
18660TIP3   OH255859   8.631   2.714   7.828
18660TIP3    H155860   8.597   2.679   7.743
18660TIP3    H255861   8.619   2.638   7.888
18661TIP3   OH255862   8.174   3.932   7.213
18661TIP3    H155863   8.095   3.963   7.259
18661TIP3    H255864   8.157   3.968   7.123
18662TIP3   OH255865   8.323   4.466   8.278
18662TIP3    H155866   8.409   4.465   8.325
18662TIP3    H255867   8.302   4.371   8.276
18663TIP3   OH255868   8.813   4.441   8.321
18663TIP3    H155869   8.906   4.416   8.330
18663TIP3    H255870   8.785   4.383   8.247
18664TIP3   OH255871   8.789   4.014   6.453
18664TIP3    H155872   8.732   3.942   6.490
18664TIP3    H255873   8.864   3.961   6.421
18665TIP3   OH255874   9.448   4.341   8.055
18665TIP3    H155875   9.436   4.274   8.125
18665TIP3    H255876   9.524   4.392   8.087
18666TIP3   OH255877   9.226   4.056   6.361
18666TIP3    H155878   9.273   3.993   6.419
18666TIP3    H255879   9.284   4.058   6.282
18667TIP3   OH255880   8.458   3.881   8.476
18667TIP3    H155881   8.477   3.786   8.491
18667TIP3    H255882   8.369   3.877   8.435
18668TIP3   OH255883   8.433   3.533   6.668
18668TIP3    H155884   8.484   3.494   6.741
18668TIP3    H255885   8.502   3.536   6.598
18669TIP3   OH255886   9.068   3.963   8.251
18669TIP3    H155887   9.023   3.979   8.166
18669TIP3    H255888   9.100   3.871   8.241
18670TIP3   OH255889   8.935   3.728   6.476
18670TIP3    H155890   8.942   3.740   6.573
18670TIP3    H255891   8.937   3.630   6.471
18671TIP3   OH255892   9.552   3.963   7.857
18671TIP3    H155893   9.626   4.008   7.810
18671TIP3    H255894   9.483   4.031   7.848
18672TIP3   OH255895   8.580   3.609   8.453
18672TIP3    H155896   8.631   3.528   8.464
18672TIP3    H255897   8.592   3.644   8.544
18673TIP3   OH255898   8.647   3.430   6.898
18673TIP3    H155899   8.616   3.383   6.976
18673TIP3    H255900   8.681   3.357   6.842
18674TIP3   OH255901   8.923   3.503   8.121
18674TIP3    H155902   8.842   3.554   8.138
18674TIP3    H255903   8.947   3.532   8.032
18675TIP3   OH255904   8.740   3.225   6.736
18675TIP3    H155905   8.714   3.222   6.641
18675TIP3    H255906   8.838   3.231   6.728
18676TIP3   OH255907   9.417   3.884   8.222
18676TIP3    H155908   9.511   3.893   8.201
18676TIP3    H255909   9.419   3.876   8.318
18677TIP3   OH255910   9.566   3.560   6.393
18677TIP3    H155911   9.543   3.509   6.313
18677TIP3    H255912   9.533   3.648   6.366
18678TIP3   OH255913   9.015   3.266   8.251
18678TIP3    H155914   9.037   3.200   8.183
18678TIP3    H255915   8.994   3.345   8.197
18679TIP3   OH255916   9.038   3.073   8.053
18679TIP3    H155917   9.068   3.101   7.965
18679TIP3    H255918   8.944   3.050   8.037
18680TIP3   OH255919   9.038   3.623   7.845
18680TIP3    H155920   9.127   3.581   7.858
18680TIP3    H255921   9.055   3.707   7.892
18681TIP3   OH255922   9.703   3.849   8.051
18681TIP3    H155923   9.633   3.885   7.992
18681TIP3    H255924   9.768   3.819   7.985
18682TIP3   OH255925   8.917   3.408   8.466
18682TIP3    H155926   8.836   3.358   8.488
18682TIP3    H255927   8.945   3.364   8.384
18683TIP3   OH255928   9.135   2.824   8.150
18683TIP3    H155929   9.116   2.907   8.103
18683TIP3    H255930   9.081   2.758   8.103
18684TIP3   OH255931   8.754   3.177   8.484
18684TIP3    H155932   8.711   3.098   8.444
18684TIP3    H255933   8.771   3.145   8.574
18685TIP3   OH255934   8.548   4.291   6.641
18685TIP3    H155935   8.644   4.286   6.621
18685TIP3    H255936   8.517   4.333   6.558
18686TIP3   OH255937   8.029   3.670   6.855
18686TIP3    H155938   8.124   3.691   6.842
18686TIP3    H255939   8.024   3.581   6.814
18687TIP3   OH255940   7.943   4.283   7.265
18687TIP3    H155941   7.874   4.221   7.232
18687TIP3    H255942   7.986   4.227   7.334
18688TIP3   OH255943   8.079   4.140   7.453
18688TIP3    H155944   8.066   4.063   7.511
18688TIP3    H255945   8.129   4.199   7.513
18689TIP3   OH255946   9.804   4.535   7.253
18689TIP3    H155947   9.833   4.569   7.339
18689TIP3    H255948   9.864   4.581   7.192
18690TIP3   OH255949   9.834   4.555   7.532
18690TIP3    H155950   9.793   4.467   7.523
18690TIP3    H255951   9.905   4.531   7.595
18691TIP3   OH255952   9.691   3.750   6.728
18691TIP3    H155953   9.762   3.813   6.704
18691TIP3    H255954   9.733   3.706   6.806
18692TIP3   OH255955   9.812   3.613   6.928
18692TIP3    H155956   9.747   3.567   6.986
18692TIP3    H255957   9.875   3.650   6.993
18693TIP3   OH255958   9.880   3.998   7.363
18693TIP3    H155959   9.927   3.946   7.297
18693TIP3    H255960   9.864   4.081   7.314
18694TIP3   OH255961   9.711   4.302   7.559
18694TIP3    H155962   9.643   4.347   7.612
18694TIP3    H255963   9.658   4.255   7.492
18695TIP3   OH255964   9.770   3.529   6.576
18695TIP3    H155965   9.695   3.522   6.514
18695TIP3    H255966   9.738   3.600   6.635
18696TIP3   OH255967   9.623   3.196   6.547
18696TIP3    H155968   9.611   3.234   6.459
18696TIP3    H255969   9.600   3.102   6.531
18697TIP3   OH255970   9.641   3.467   7.082
18697TIP3    H155971   9.648   3.370   7.073
18697TIP3    H255972   9.626   3.479   7.178
18698TIP3   OH255973   8.279   3.543   7.825
18698TIP3    H155974   8.268   3.512   7.733
18698TIP3    H255975   8.376   3.540   7.834
18699TIP3   OH255976   9.575   2.930   6.530
18699TIP3    H155977   9.653   2.893   6.576
18699TIP3    H255978   9.504   2.867   6.549
18700TIP3   OH255979   9.640   3.187   6.977
18700TIP3    H155980   9.678   3.097   6.991
18700TIP3    H255981   9.694   3.217   6.902
18701TIP3   OH255982   9.806   3.353   7.447
18701TIP3    H155983   9.896   3.375   7.415
18701TIP3    H255984   9.808   3.398   7.534
18702TIP3   OH255985   9.834   3.486   7.678
18702TIP3    H155986   9.758   3.521   7.728
18702TIP3    H255987   9.874   3.566   7.637
18703TIP3   OH255988   8.476   3.225   8.518
18703TIP3    H155989   8.572   3.236   8.503
18703TIP3    H255990   8.470   3.129   8.504
18704TIP3   OH255991   9.739   2.935   7.021
18704TIP3    H155992   9.771   2.919   7.111
18704TIP3    H255993   9.682   2.856   7.008
18705TIP3   OH255994   8.445   2.920   7.827
18705TIP3    H155995   8.505   2.844   7.840
18705TIP3    H255996   8.508   2.994   7.829
18706TIP3   OH255997   8.245   3.198   7.898
18706TIP3    H155998   8.299   3.189   7.817
18706TIP3    H255999   8.281   3.279   7.937
18707TIP3   OH256000   9.827   2.860   6.639
18707TIP3    H156001   9.873   2.777   6.617
18707TIP3    H256002   9.874   2.921   6.576
18708TIP3   OH256003   8.232   2.705   7.411
18708TIP3    H156004   8.137   2.697   7.432
18708TIP3    H256005   8.230   2.759   7.329
18709TIP3   OH256006   9.389   4.400   6.911
18709TIP3    H156007   9.441   4.383   6.830
18709TIP3    H256008   9.443   4.467   6.956
18710TIP3   OH256009   8.492   4.204   8.300
18710TIP3    H156010   8.401   4.173   8.282
18710TIP3    H256011   8.501   4.183   8.394
18711TIP3   OH256012   8.668   4.231   7.845
18711TIP3    H156013   8.619   4.307   7.808
18711TIP3    H256014   8.754   4.247   7.802
18712TIP3   OH256015   9.119   4.481   7.984
18712TIP3    H156016   9.159   4.486   8.074
18712TIP3    H256017   9.184   4.532   7.932
18713TIP3   OH256018   9.296   4.630   7.840
18713TIP3    H156019   9.369   4.582   7.798
18713TIP3    H256020   9.346   4.690   7.900
18714TIP3   OH256021   8.348   4.495   7.867
18714TIP3    H156022   8.260   4.530   7.843
18714TIP3    H256023   8.353   4.523   7.959
18715TIP3   OH256024   8.584   4.472   7.725
18715TIP3    H156025   8.498   4.485   7.771
18715TIP3    H256026   8.563   4.506   7.636
18716TIP3   OH256027   9.010   4.504   7.522
18716TIP3    H156028   8.940   4.526   7.457
18716TIP3    H256029   9.023   4.591   7.566
18717TIP3   OH256030   9.277   4.442   7.573
18717TIP3    H156031   9.183   4.460   7.554
18717TIP3    H256032   9.320   4.520   7.535
18718TIP3   OH256033   9.486   4.635   7.493
18718TIP3    H156034   9.473   4.720   7.445
18718TIP3    H256035   9.512   4.576   7.419
18719TIP3   OH256036   8.259   4.290   7.614
18719TIP3    H156037   8.285   4.265   7.706
18719TIP3    H256038   8.330   4.244   7.564
18720TIP3   OH256039   8.450   4.159   7.467
18720TIP3    H156040   8.466   4.076   7.517
18720TIP3    H256041   8.539   4.198   7.463
18721TIP3   OH256042   8.715   4.258   7.470
18721TIP3    H156043   8.748   4.166   7.458
18721TIP3    H256044   8.755   4.279   7.556
18722TIP3   OH256045   9.292   2.913   7.562
18722TIP3    H156046   9.244   2.846   7.614
18722TIP3    H256047   9.358   2.859   7.514
18723TIP3   OH256048   9.805   2.798   7.486
18723TIP3    H156049   9.849   2.848   7.415
18723TIP3    H256050   9.711   2.810   7.463
18724TIP3   OH256051   9.899   2.894   7.250
18724TIP3    H156052   9.965   2.850   7.192
18724TIP3    H256053   9.921   2.988   7.234
18725TIP3   OH256054   8.543   2.621   7.579
18725TIP3    H156055   8.450   2.588   7.578
18725TIP3    H256056   8.592   2.536   7.574
18726TIP3   OH256057   8.330   2.488   7.224
18726TIP3    H156058   8.358   2.547   7.152
18726TIP3    H256059   8.297   2.551   7.290
18727TIP3   OH256060   8.984   2.654   7.458
18727TIP3    H156061   9.043   2.707   7.402
18727TIP3    H256062   9.006   2.687   7.546
18728TIP3   OH256063   9.528   2.782   7.448
18728TIP3    H156064   9.527   2.780   7.351
18728TIP3    H256065   9.551   2.692   7.471
18729TIP3   OH256066   9.551   2.724   7.009
18729TIP3    H156067   9.462   2.763   7.015
18729TIP3    H256068   9.538   2.638   7.053
18730TIP3   OH256069   8.047   4.056   7.008
18730TIP3    H156070   7.963   4.022   6.972
18730TIP3    H256071   8.032   4.151   6.997
18731TIP3   OH256072   8.443   2.651   6.988
18731TIP3    H156073   8.491   2.586   6.933
18731TIP3    H256074   8.516   2.703   7.027
18732TIP3   OH256075   8.958   2.823   7.088
18732TIP3    H156076   9.016   2.773   7.147
18732TIP3    H256077   8.983   2.915   7.114
18733TIP3   OH256078   8.816   4.254   6.584
18733TIP3    H156079   8.907   4.273   6.552
18733TIP3    H256080   8.796   4.176   6.528
18734TIP3   OH256081   9.535   4.365   6.679
18734TIP3    H156082   9.526   4.268   6.666
18734TIP3    H256083   9.491   4.399   6.598
18735TIP3   OH256084   8.114   4.094   6.646
18735TIP3    H156085   8.115   4.114   6.741
18735TIP3    H256086   8.205   4.061   6.630
18736TIP3   OH256087   9.751   4.509   7.881
18736TIP3    H156088   9.677   4.484   7.822
18736TIP3    H256089   9.747   4.607   7.874
18737TIP3   OH256090   9.982   3.389   6.915
18737TIP3    H156091   9.922   3.466   6.908
18737TIP3    H256092   9.934   3.326   6.858
18738TIP3   OH256093  10.042   3.678   7.062
18738TIP3    H156094  10.109   3.618   7.096
18738TIP3    H256095  10.072   3.681   6.969
18739TIP3   OH256096   9.897   3.917   6.648
18739TIP3    H156097   9.880   3.922   6.553
18739TIP3    H256098   9.930   4.006   6.668
18740TIP3   OH256099  10.085   4.012   7.557
18740TIP3    H156100  10.011   4.001   7.494
18740TIP3    H256101  10.127   3.924   7.557
18741TIP3   OH256102   9.945   4.232   7.205
18741TIP3    H156103  10.041   4.240   7.191
18741TIP3    H256104   9.927   4.316   7.251
18742TIP3   OH256105  10.075   4.456   6.740
18742TIP3    H156106  10.133   4.451   6.819
18742TIP3    H256107  10.027   4.372   6.748
18743TIP3   OH256108  10.227   4.245   7.576
18743TIP3    H156109  10.269   4.216   7.659
18743TIP3    H256110  10.159   4.176   7.566
18744TIP3   OH256111  10.008   3.131   7.170
18744TIP3    H156112  10.096   3.167   7.184
18744TIP3    H256113   9.993   3.151   7.076
18745TIP3   OH256114   9.966   3.592   6.394
18745TIP3    H156115  10.038   3.586   6.460
18745TIP3    H256116   9.890   3.565   6.450
18746TIP3   OH256117  10.128   4.425   7.348
18746TIP3    H156118  10.167   4.347   7.391
18746TIP3    H256119  10.154   4.495   7.410
18747TIP3   OH256120   9.966   4.186   6.700
18747TIP3    H156121   9.883   4.217   6.740
18747TIP3    H256122   9.958   4.227   6.611
18748TIP3   OH256123  10.101   4.708   7.753
18748TIP3    H156124  10.181   4.694   7.805
18748TIP3    H256125  10.070   4.615   7.744
18749TIP3   OH256126   9.822   3.933   6.333
18749TIP3    H156127   9.919   3.924   6.343
18749TIP3    H256128   9.804   3.847   6.287
18750TIP3   OH256129   9.736   4.540   6.754
18750TIP3    H156130   9.669   4.476   6.720
18750TIP3    H256131   9.782   4.485   6.821
18751TIP3   OH256132   9.869   4.394   6.944
18751TIP3    H156133   9.861   4.318   7.004
18751TIP3    H256134   9.924   4.454   6.999
18752TIP3   OH256135  10.081   3.791   7.311
18752TIP3    H156136  10.062   3.771   7.217
18752TIP3    H256137  10.169   3.831   7.305
18753TIP3   OH256138  10.055   3.460   7.371
18753TIP3    H156139  10.057   3.476   7.277
18753TIP3    H256140  10.052   3.549   7.409
18754TIP3   OH256141   9.978   3.004   6.877
18754TIP3    H156142   9.883   2.985   6.874
18754TIP3    H256143   9.998   3.018   6.783
18755TIP3   OH256144  10.136   4.752   7.355
18755TIP3    H156145  10.050   4.793   7.332
18755TIP3    H256146  10.137   4.765   7.450
18756TIP3   OH256147  10.382   4.728   7.222
18756TIP3    H156148  10.291   4.740   7.255
18756TIP3    H256149  10.376   4.761   7.131
18757TIP3   OH256150  10.054   4.543   7.099
18757TIP3    H156151  10.084   4.524   7.191
18757TIP3    H256152  10.132   4.509   7.050
18758TIP3   OH256153  10.255   4.433   6.943
18758TIP3    H156154  10.276   4.340   6.958
18758TIP3    H256155  10.344   4.474   6.953
18759TIP3   OH256156   9.842   4.310   6.493
18759TIP3    H156157   9.756   4.281   6.458
18759TIP3    H256158   9.831   4.406   6.487
18760TIP3   OH256159   9.942   4.360   6.143
18760TIP3    H156160   9.906   4.381   6.231
18760TIP3    H256161   9.997   4.283   6.162
18761TIP3   OH256162   1.683   4.413   8.838
18761TIP3    H156163   1.657   4.506   8.821
18761TIP3    H256164   1.606   4.367   8.800
18762TIP3   OH256165   1.676   4.421   9.164
18762TIP3    H156166   1.659   4.399   9.258
18762TIP3    H256167   1.647   4.341   9.118
18763TIP3   OH256168   1.925   4.716   8.895
18763TIP3    H156169   1.913   4.644   8.958
18763TIP3    H256170   1.955   4.789   8.952
18764TIP3   OH256171   1.569   5.179   8.908
18764TIP3    H156172   1.622   5.106   8.869
18764TIP3    H256173   1.562   5.152   9.001
18765TIP3   OH256174   1.510   4.633   9.187
18765TIP3    H156175   1.579   4.566   9.166
18765TIP3    H256176   1.526   4.652   9.281
18766TIP3   OH256177   2.488   3.944   9.250
18766TIP3    H156178   2.498   4.019   9.310
18766TIP3    H256179   2.520   3.981   9.166
18767TIP3   OH256180   1.926   3.885   8.891
18767TIP3    H156181   2.000   3.873   8.954
18767TIP3    H256182   1.972   3.929   8.817
18768TIP3   OH256183   1.581   4.637   8.708
18768TIP3    H156184   1.535   4.610   8.627
18768TIP3    H256185   1.538   4.722   8.728
18769TIP3   OH256186   2.145   3.891   9.055
18769TIP3    H156187   2.148   3.860   9.147
18769TIP3    H256188   2.198   3.972   9.064
18770TIP3   OH256189   0.624   4.481   8.777
18770TIP3    H156190   0.537   4.484   8.736
18770TIP3    H256191   0.604   4.507   8.868
18771TIP3   OH256192   2.000   4.955   9.067
18771TIP3    H156193   1.912   4.949   9.109
18771TIP3    H256194   1.993   5.041   9.021
18772TIP3   OH256195   1.709   5.007   8.750
18772TIP3    H156196   1.755   4.924   8.723
18772TIP3    H256197   1.766   5.072   8.703
18773TIP3   OH256198   1.844   4.792   8.644
18773TIP3    H156199   1.805   4.714   8.603
18773TIP3    H256200   1.877   4.755   8.729
18774TIP3   OH256201   2.220   4.880   9.399
18774TIP3    H156202   2.205   4.806   9.337
18774TIP3    H256203   2.205   4.957   9.340
18775TIP3   OH256204   1.515   4.267   8.666
18775TIP3    H156205   1.434   4.316   8.642
18775TIP3    H256206   1.562   4.263   8.580
18776TIP3   OH256207   1.476   4.048   8.390
18776TIP3    H156208   1.546   4.099   8.434
18776TIP3    H256209   1.531   3.984   8.341
18777TIP3   OH256210   2.433   4.513   9.251
18777TIP3    H156211   2.342   4.546   9.262
18777TIP3    H256212   2.451   4.535   9.158
18778TIP3   OH256213   1.863   4.348   8.641
18778TIP3    H156214   1.809   4.373   8.719
18778TIP3    H256215   1.946   4.321   8.686
18779TIP3   OH256216   1.090   4.336   9.044
18779TIP3    H156217   1.044   4.283   8.976
18779TIP3    H256218   1.160   4.276   9.071
18780TIP3   OH256219   1.275   4.781   9.151
18780TIP3    H156220   1.234   4.717   9.091
18780TIP3    H256221   1.364   4.739   9.164
18781TIP3   OH256222   1.766   4.951   9.201
18781TIP3    H156223   1.734   5.038   9.231
18781TIP3    H256224   1.743   4.890   9.272
18782TIP3   OH256225   1.706   4.206   8.466
18782TIP3    H156226   1.764   4.265   8.519
18782TIP3    H256227   1.732   4.231   8.374
18783TIP3   OH256228   1.446   4.889   8.737
18783TIP3    H156229   1.518   4.945   8.768
18783TIP3    H256230   1.381   4.953   8.705
18784TIP3   OH256231   2.221   3.450   8.513
18784TIP3    H156232   2.140   3.470   8.564
18784TIP3    H256233   2.233   3.533   8.463
18785TIP3   OH256234   0.966   4.187   8.851
18785TIP3    H156235   0.898   4.226   8.792
18785TIP3    H256236   0.916   4.119   8.898
18786TIP3   OH256237   2.017   4.817   8.061
18786TIP3    H156238   2.026   4.914   8.048
18786TIP3    H256239   2.109   4.787   8.049
18787TIP3   OH256240   2.451   5.244   9.436
18787TIP3    H156241   2.461   5.146   9.432
18787TIP3    H256242   2.362   5.249   9.477
18788TIP3   OH256243   1.324   5.134   8.542
18788TIP3    H156244   1.280   5.115   8.457
18788TIP3    H256245   1.294   5.225   8.562
18789TIP3   OH256246   0.796   4.976   8.868
18789TIP3    H156247   0.820   4.962   8.962
18789TIP3    H256248   0.711   4.931   8.857
18790TIP3   OH256249   1.529   5.033   8.185
18790TIP3    H156250   1.589   4.965   8.148
18790TIP3    H256251   1.563   5.042   8.276
18791TIP3   OH256252   1.577   5.081   8.456
18791TIP3    H156253   1.489   5.090   8.500
18791TIP3    H256254   1.628   5.037   8.525
18792TIP3   OH256255   1.781   4.259   8.211
18792TIP3    H156256   1.747   4.229   8.124
18792TIP3    H256257   1.860   4.308   8.184
18793TIP3   OH256258   1.495   3.630   8.511
18793TIP3    H156259   1.461   3.628   8.602
18793TIP3    H256260   1.455   3.549   8.475
18794TIP3   OH256261   1.127   3.989   9.051
18794TIP3    H156262   1.071   3.913   9.072
18794TIP3    H256263   1.163   3.957   8.966
18795TIP3   OH256264   1.651   4.066   8.795
18795TIP3    H156265   1.599   4.140   8.756
18795TIP3    H256266   1.709   4.042   8.720
18796TIP3   OH256267   1.822   4.109   9.030
18796TIP3    H156268   1.755   4.130   8.963
18796TIP3    H256269   1.846   4.019   9.001
18797TIP3   OH256270   1.150   3.602   8.478
18797TIP3    H156271   1.141   3.597   8.576
18797TIP3    H256272   1.067   3.648   8.455
18798TIP3   OH256273   0.689   3.644   8.879
18798TIP3    H156274   0.720   3.677   8.792
18798TIP3    H256275   0.618   3.705   8.897
18799TIP3   OH256276   1.205   3.857   8.822
18799TIP3    H156277   1.295   3.874   8.791
18799TIP3    H256278   1.149   3.877   8.744
18800TIP3   OH256279   1.032   3.889   8.612
18800TIP3    H156280   0.959   3.844   8.565
18800TIP3    H256281   1.082   3.923   8.535
18801TIP3   OH256282   2.131   5.643   9.522
18801TIP3    H156283   2.141   5.618   9.428
18801TIP3    H256284   2.225   5.662   9.544
18802TIP3   OH256285   1.286   4.423   8.619
18802TIP3    H156286   1.216   4.355   8.608
18802TIP3    H256287   1.270   4.452   8.712
18803TIP3   OH256288   2.184   4.648   9.250
18803TIP3    H156289   2.218   4.696   9.171
18803TIP3    H256290   2.103   4.606   9.214
18804TIP3   OH256291   1.748   3.732   8.478
18804TIP3    H156292   1.650   3.718   8.482
18804TIP3    H256293   1.757   3.828   8.498
18805TIP3   OH256294   1.817   3.979   8.581
18805TIP3    H156295   1.914   3.984   8.596
18805TIP3    H256296   1.800   4.057   8.526
18806TIP3   OH256297   1.432   4.569   8.436
18806TIP3    H156298   1.386   4.656   8.445
18806TIP3    H256299   1.378   4.514   8.496
18807TIP3   OH256300   2.259   4.065   8.419
18807TIP3    H156301   2.196   4.020   8.358
18807TIP3    H256302   2.257   4.154   8.376
18808TIP3   OH256303   2.473   4.975   9.460
18808TIP3    H156304   2.385   4.933   9.464
18808TIP3    H256305   2.514   4.918   9.392
18809TIP3   OH256306   1.956   4.887   8.325
18809TIP3    H156307   1.933   4.817   8.387
18809TIP3    H256308   1.968   4.840   8.241
18810TIP3   OH256309   1.949   4.515   9.173
18810TIP3    H156310   1.856   4.488   9.163
18810TIP3    H256311   1.992   4.438   9.129
18811TIP3   OH256312   1.075   4.737   8.906
18811TIP3    H156313   1.092   4.821   8.861
18811TIP3    H256314   0.979   4.736   8.910
18812TIP3   OH256315   0.639   4.055   8.623
18812TIP3    H156316   0.711   4.120   8.630
18812TIP3    H256317   0.574   4.101   8.680
18813TIP3   OH256318   1.229   4.510   8.873
18813TIP3    H156319   1.187   4.598   8.883
18813TIP3    H256320   1.178   4.458   8.938
18814TIP3   OH256321   1.038   4.987   8.758
18814TIP3    H156322   0.946   4.989   8.794
18814TIP3    H256323   1.059   5.083   8.763
18815TIP3   OH256324   1.709   4.614   8.228
18815TIP3    H156325   1.762   4.589   8.307
18815TIP3    H256326   1.620   4.588   8.258
18816TIP3   OH256327   1.993   5.250   9.382
18816TIP3    H156328   1.901   5.222   9.390
18816TIP3    H256329   1.984   5.329   9.326
18817TIP3   OH256330   2.053   5.092   8.049
18817TIP3    H156331   2.089   5.165   7.995
18817TIP3    H256332   1.972   5.137   8.082
18818TIP3   OH256333   1.870   4.551   8.447
18818TIP3    H156334   1.859   4.483   8.517
18818TIP3    H256335   1.967   4.548   8.433
18819TIP3   OH256336   1.078   4.597   8.227
18819TIP3    H156337   1.094   4.506   8.195
18819TIP3    H256338   1.061   4.581   8.322
18820TIP3   OH256339   1.025   4.601   8.502
18820TIP3    H156340   1.096   4.572   8.561
18820TIP3    H256341   1.032   4.699   8.506
18821TIP3   OH256342   0.779   4.284   8.680
18821TIP3    H156343   0.718   4.335   8.737
18821TIP3    H256344   0.798   4.353   8.615
18822TIP3   OH256345   1.788   3.685   8.754
18822TIP3    H156346   1.772   3.709   8.660
18822TIP3    H256347   1.826   3.768   8.790
18823TIP3   OH256348   1.288   4.799   8.450
18823TIP3    H156349   1.202   4.829   8.484
18823TIP3    H256350   1.306   4.866   8.383
18824TIP3   OH256351   1.493   3.856   8.862
18824TIP3    H156352   1.553   3.926   8.826
18824TIP3    H256353   1.480   3.890   8.951
18825TIP3   OH256354   1.637   3.587   8.958
18825TIP3    H156355   1.640   3.657   9.025
18825TIP3    H256356   1.689   3.629   8.885
18826TIP3   OH256357   1.028   4.873   8.510
18826TIP3    H156358   0.998   4.944   8.449
18826TIP3    H256359   1.026   4.919   8.597
18827TIP3   OH256360   1.136   3.583   8.754
18827TIP3    H156361   1.130   3.673   8.793
18827TIP3    H256362   1.231   3.566   8.766
18828TIP3   OH256363   2.036   4.283   9.040
18828TIP3    H156364   1.960   4.222   9.053
18828TIP3    H256365   2.109   4.234   9.085
18829TIP3   OH256366   0.758   4.518   8.499
18829TIP3    H156367   0.832   4.581   8.513
18829TIP3    H256368   0.800   4.459   8.433
18830TIP3   OH256369   0.695   3.784   8.644
18830TIP3    H156370   0.689   3.882   8.637
18830TIP3    H256371   0.624   3.754   8.586
18831TIP3   OH256372   2.006   5.229   8.990
18831TIP3    H156373   1.964   5.276   8.915
18831TIP3    H256374   2.100   5.248   8.970
18832TIP3   OH256375   0.645   4.707   8.944
18832TIP3    H156376   0.568   4.745   8.897
18832TIP3    H256377   0.702   4.689   8.867
18833TIP3   OH256378   1.243   4.801   8.144
18833TIP3    H156379   1.186   4.730   8.180
18833TIP3    H256380   1.317   4.748   8.110
18834TIP3   OH256381   1.680   4.845   8.051
18834TIP3    H156382   1.725   4.781   8.108
18834TIP3    H256383   1.736   4.845   7.971
18835TIP3   OH256384   0.887   4.321   8.359
18835TIP3    H156385   0.940   4.282   8.431
18835TIP3    H256386   0.955   4.324   8.288
18836TIP3   OH256387   1.389   4.516   8.167
18836TIP3    H156388   1.394   4.528   8.263
18836TIP3    H256389   1.390   4.418   8.161
18837TIP3   OH256390   1.100   4.220   8.587
18837TIP3    H156391   1.065   4.179   8.669
18837TIP3    H256392   1.131   4.141   8.537
18838TIP3   OH256393   1.192   4.010   8.425
18838TIP3    H156394   1.165   4.011   8.331
18838TIP3    H256395   1.289   4.019   8.417
18839TIP3   OH256396   2.019   4.347   8.084
18839TIP3    H156397   1.997   4.298   8.002
18839TIP3    H256398   1.987   4.436   8.057
18840TIP3   OH256399   0.999   5.080   8.328
18840TIP3    H156400   1.095   5.075   8.309
18840TIP3    H256401   0.969   5.123   8.246
18841TIP3   OH256402   0.490   4.474   8.491
18841TIP3    H156403   0.585   4.486   8.516
18841TIP3    H256404   0.488   4.377   8.478
18842TIP3   OH256405   2.255   5.326   8.941
18842TIP3    H156406   2.284   5.358   9.029
18842TIP3    H256407   2.316   5.371   8.882
18843TIP3   OH256408   2.288   5.345   9.218
18843TIP3    H156409   2.248   5.255   9.218
18843TIP3    H256410   2.366   5.328   9.274
18844TIP3   OH256411   2.150   4.535   8.420
18844TIP3    H156412   2.221   4.596   8.393
18844TIP3    H256413   2.191   4.493   8.499
18845TIP3   OH256414   2.277   4.402   8.622
18845TIP3    H156415   2.213   4.358   8.682
18845TIP3    H256416   2.342   4.440   8.685
18846TIP3   OH256417   2.326   4.785   9.059
18846TIP3    H156418   2.383   4.726   9.006
18846TIP3    H256419   2.318   4.863   9.000
18847TIP3   OH256420   2.169   5.097   9.245
18847TIP3    H156421   2.101   5.145   9.297
18847TIP3    H256422   2.114   5.051   9.178
18848TIP3   OH256423   2.217   4.308   8.271
18848TIP3    H156424   2.146   4.311   8.203
18848TIP3    H256425   2.189   4.384   8.326
18849TIP3   OH256426   2.087   3.982   8.227
18849TIP3    H156427   2.049   4.022   8.148
18849TIP3    H256428   2.060   3.889   8.216
18850TIP3   OH256429   2.094   4.255   8.773
18850TIP3    H156430   2.102   4.159   8.767
18850TIP3    H256431   2.079   4.270   8.869
18851TIP3   OH256432   2.031   3.718   8.217
18851TIP3    H156433   2.108   3.685   8.267
18851TIP3    H256434   1.960   3.656   8.239
18852TIP3   OH256435   2.088   3.972   8.667
18852TIP3    H156436   2.128   3.883   8.683
18852TIP3    H256437   2.147   4.004   8.597
18853TIP3   OH256438   2.252   4.156   9.150
18853TIP3    H156439   2.342   4.181   9.119
18853TIP3    H256440   2.260   4.176   9.244
18854TIP3   OH256441   2.197   3.722   8.703
18854TIP3    H156442   2.248   3.707   8.785
18854TIP3    H256443   2.139   3.644   8.702
18855TIP3   OH256444   2.282   3.659   8.334
18855TIP3    H156445   2.321   3.585   8.283
18855TIP3    H256446   2.349   3.729   8.324
18856TIP3   OH256447   1.842   5.188   8.601
18856TIP3    H156448   1.893   5.171   8.519
18856TIP3    H256449   1.897   5.254   8.645
18857TIP3   OH256450   1.478   5.296   9.179
18857TIP3    H156451   1.396   5.298   9.126
18857TIP3    H256452   1.464   5.376   9.233
18858TIP3   OH256453   1.726   5.225   9.270
18858TIP3    H156454   1.635   5.247   9.239
18858TIP3    H256455   1.778   5.293   9.224
18859TIP3   OH256456   1.930   5.425   9.181
18859TIP3    H156457   1.919   5.509   9.131
18859TIP3    H256458   1.961   5.364   9.110
18860TIP3   OH256459   0.893   4.963   9.121
18860TIP3    H156460   0.920   4.882   9.169
18860TIP3    H256461   0.978   5.012   9.123
18861TIP3   OH256462   1.160   5.051   9.148
18861TIP3    H156463   1.212   4.969   9.135
18861TIP3    H256464   1.180   5.074   9.240
18862TIP3   OH256465   2.271   3.598   9.154
18862TIP3    H156466   2.315   3.639   9.076
18862TIP3    H256467   2.178   3.611   9.131
18863TIP3   OH256468   2.367   3.681   8.916
18863TIP3    H156469   2.441   3.632   8.875
18863TIP3    H256470   2.398   3.773   8.904
18864TIP3   OH256471   2.001   3.585   9.096
18864TIP3    H156472   1.984   3.577   9.001
18864TIP3    H256473   2.018   3.493   9.122
18865TIP3   OH256474   2.015   3.508   8.694
18865TIP3    H156475   1.927   3.550   8.696
18865TIP3    H256476   1.997   3.424   8.740
18866TIP3   OH256477   0.899   3.454   8.655
18866TIP3    H156478   0.950   3.380   8.616
18866TIP3    H256479   0.965   3.498   8.711
18867TIP3   OH256480   1.414   3.608   8.778
18867TIP3    H156481   1.476   3.564   8.838
18867TIP3    H256482   1.433   3.702   8.802
18868TIP3   OH256483   1.269   5.042   8.275
18868TIP3    H156484   1.359   5.061   8.241
18868TIP3    H256485   1.248   4.965   8.218
18869TIP3   OH256486   1.988   5.154   8.369
18869TIP3    H156487   1.979   5.056   8.356
18869TIP3    H256488   1.944   5.187   8.288
18870TIP3   OH256489   0.590   4.880   8.368
18870TIP3    H156490   0.617   4.968   8.398
18870TIP3    H256491   0.674   4.841   8.334
18871TIP3   OH256492   3.481   4.670   8.328
18871TIP3    H156493   3.455   4.762   8.309
18871TIP3    H256494   3.404   4.623   8.293
18872TIP3   OH256495   3.477   4.671   8.702
18872TIP3    H156496   3.508   4.639   8.788
18872TIP3    H256497   3.438   4.591   8.663
18873TIP3   OH256498   2.781   4.569   9.066
18873TIP3    H156499   2.813   4.506   9.133
18873TIP3    H256500   2.856   4.630   9.063
18874TIP3   OH256501   3.720   4.972   8.385
18874TIP3    H156502   3.711   4.902   8.450
18874TIP3    H256503   3.750   5.047   8.439
18875TIP3   OH256504   2.748   4.975   8.797
18875TIP3    H156505   2.741   4.877   8.801
18875TIP3    H256506   2.845   4.985   8.793
18876TIP3   OH256507   2.458   4.182   8.585
18876TIP3    H156508   2.408   4.266   8.595
18876TIP3    H256509   2.388   4.124   8.550
18877TIP3   OH256510   2.519   4.468   8.748
18877TIP3    H156511   2.566   4.391   8.788
18877TIP3    H256512   2.577   4.491   8.675
18878TIP3   OH256513   3.364   5.432   8.399
18878TIP3    H156514   3.418   5.362   8.355
18878TIP3    H256515   3.367   5.404   8.491
18879TIP3   OH256516   3.280   4.896   8.752
18879TIP3    H156517   3.317   4.819   8.704
18879TIP3    H256518   3.364   4.940   8.775
18880TIP3   OH256519   4.288   4.218   8.750
18880TIP3    H156520   4.318   4.300   8.794
18880TIP3    H256521   4.312   4.237   8.657
18881TIP3   OH256522   3.689   4.399   8.789
18881TIP3    H156523   3.734   4.315   8.808
18881TIP3    H256524   3.662   4.386   8.696
18882TIP3   OH256525   3.025   4.058   8.754
18882TIP3    H156526   3.006   4.130   8.690
18882TIP3    H256527   2.979   3.984   8.708
18883TIP3   OH256528   3.720   4.149   8.376
18883TIP3    H156529   3.793   4.132   8.440
18883TIP3    H256530   3.771   4.184   8.301
18884TIP3   OH256531   2.662   4.262   8.858
18884TIP3    H156532   2.745   4.241   8.905
18884TIP3    H256533   2.673   4.204   8.779
18885TIP3   OH256534   3.104   4.459   8.647
18885TIP3    H156535   3.198   4.432   8.662
18885TIP3    H256536   3.065   4.374   8.616
18886TIP3   OH256537   4.363   4.422   8.922
18886TIP3    H156538   4.281   4.473   8.901
18886TIP3    H256539   4.378   4.450   9.014
18887TIP3   OH256540   3.025   4.041   9.188
18887TIP3    H156541   2.966   4.081   9.120
18887TIP3    H256542   2.968   4.041   9.266
18888TIP3   OH256543   3.376   4.892   8.197
18888TIP3    H156544   3.333   4.866   8.115
18888TIP3    H256545   3.334   4.978   8.215
18889TIP3   OH256546   3.132   4.815   8.985
18889TIP3    H156547   3.067   4.878   9.024
18889TIP3    H256548   3.174   4.870   8.915
18890TIP3   OH256549   3.935   4.149   8.543
18890TIP3    H156550   3.933   4.095   8.623
18890TIP3    H256551   3.992   4.223   8.569
18891TIP3   OH256552   2.896   4.156   8.974
18891TIP3    H156553   2.958   4.229   8.994
18891TIP3    H256554   2.942   4.115   8.897
18892TIP3   OH256555   2.957   5.007   9.079
18892TIP3    H156556   2.932   5.093   9.039
18892TIP3    H256557   2.879   4.992   9.136
18893TIP3   OH256558   2.358   4.698   8.315
18893TIP3    H156559   2.314   4.725   8.232
18893TIP3    H256560   2.386   4.784   8.353
18894TIP3   OH256561   3.795   5.213   8.556
18894TIP3    H156562   3.705   5.206   8.594
18894TIP3    H256563   3.788   5.299   8.510
18895TIP3   OH256564   4.083   4.118   8.918
18895TIP3    H156565   3.996   4.149   8.888
18895TIP3    H256566   4.142   4.148   8.846
18896TIP3   OH256567   3.387   3.762   8.898
18896TIP3    H156568   3.374   3.666   8.914
18896TIP3    H256569   3.308   3.798   8.945
18897TIP3   OH256570   3.501   5.263   8.232
18897TIP3    H156571   3.550   5.181   8.209
18897TIP3    H256572   3.561   5.329   8.189
18898TIP3   OH256573   3.640   5.048   8.132
18898TIP3    H156574   3.604   4.969   8.090
18898TIP3    H256575   3.673   5.012   8.217
18899TIP3   OH256576   4.021   5.131   8.898
18899TIP3    H156577   4.011   5.053   8.839
18899TIP3    H256578   4.005   5.205   8.836
18900TIP3   OH256579   3.312   4.524   8.153
18900TIP3    H156580   3.231   4.573   8.127
18900TIP3    H256581   3.360   4.518   8.068
18901TIP3   OH256582   3.271   4.305   7.876
18901TIP3    H156583   3.341   4.355   7.922
18901TIP3    H256584   3.326   4.240   7.827
18902TIP3   OH256585   4.216   4.763   8.741
18902TIP3    H156586   4.134   4.817   8.748
18902TIP3    H256587   4.245   4.788   8.651
18903TIP3   OH256588   3.658   4.605   8.128
18903TIP3    H156589   3.605   4.630   8.207
18903TIP3    H256590   3.742   4.578   8.171
18904TIP3   OH256591   3.895   4.647   9.035
18904TIP3    H156592   3.893   4.730   9.086
18904TIP3    H256593   3.808   4.652   8.989
18905TIP3   OH256594   2.892   4.605   8.543
18905TIP3    H156595   2.849   4.547   8.476
18905TIP3    H256596   2.969   4.551   8.570
18906TIP3   OH256597   3.022   5.015   8.692
18906TIP3    H156598   3.001   4.964   8.612
18906TIP3    H256599   3.113   4.984   8.712
18907TIP3   OH256600   3.032   4.574   8.897
18907TIP3    H156601   3.064   4.557   8.806
18907TIP3    H256602   3.073   4.660   8.918
18908TIP3   OH256603   3.552   5.212   8.673
18908TIP3    H156604   3.539   5.292   8.727
18908TIP3    H256605   3.540   5.139   8.737
18909TIP3   OH256606   3.164   5.133   9.222
18909TIP3    H156607   3.103   5.195   9.267
18909TIP3    H256608   3.099   5.078   9.173
18910TIP3   OH256609   3.501   4.463   7.952
18910TIP3    H156610   3.560   4.522   8.006
18910TIP3    H256611   3.528   4.489   7.861
18911TIP3   OH256612   2.921   4.693   9.314
18911TIP3    H156613   2.920   4.774   9.368
18911TIP3    H256614   2.828   4.664   9.327
18912TIP3   OH256615   3.240   5.147   8.227
18912TIP3    H156616   3.318   5.199   8.254
18912TIP3    H256617   3.180   5.215   8.195
18913TIP3   OH256618   2.961   5.302   9.306
18913TIP3    H156619   2.924   5.300   9.216
18913TIP3    H256620   2.885   5.275   9.361
18914TIP3   OH256621   4.017   3.707   7.999
18914TIP3    H156622   3.936   3.725   8.051
18914TIP3    H256623   4.027   3.790   7.950
18915TIP3   OH256624   2.756   4.446   8.351
18915TIP3    H156625   2.693   4.490   8.290
18915TIP3    H256626   2.716   4.360   8.361
18916TIP3   OH256627   3.813   5.074   7.548
18916TIP3    H156628   3.823   5.171   7.534
18916TIP3    H256629   3.906   5.044   7.536
18917TIP3   OH256630   2.548   4.818   9.253
18917TIP3    H156631   2.483   4.797   9.184
18917TIP3    H256632   2.584   4.729   9.276
18918TIP3   OH256633   2.393   5.021   8.892
18918TIP3    H156634   2.488   5.015   8.880
18918TIP3    H256635   2.385   5.103   8.944
18919TIP3   OH256636   4.259   5.471   8.942
18919TIP3    H156637   4.257   5.375   8.955
18919TIP3    H256638   4.176   5.497   8.987
18920TIP3   OH256639   3.365   5.260   9.078
18920TIP3    H156640   3.366   5.354   9.108
18920TIP3    H256641   3.293   5.223   9.132
18921TIP3   OH256642   3.116   5.390   8.032
18921TIP3    H156643   3.075   5.380   7.945
18921TIP3    H256644   3.094   5.482   8.057
18922TIP3   OH256645   2.562   5.240   8.411
18922TIP3    H156646   2.611   5.230   8.497
18922TIP3    H256647   2.499   5.166   8.420
18923TIP3   OH256648   3.321   5.285   7.675
18923TIP3    H156649   3.383   5.219   7.636
18923TIP3    H256650   3.360   5.297   7.765
18924TIP3   OH256651   3.372   5.338   7.944
18924TIP3    H156652   3.287   5.345   7.993
18924TIP3    H256653   3.430   5.298   8.011
18925TIP3   OH256654   4.150   4.605   9.218
18925TIP3    H156655   4.070   4.622   9.166
18925TIP3    H256656   4.163   4.509   9.204
18926TIP3   OH256657   2.742   5.012   9.246
18926TIP3    H156658   2.789   4.998   9.331
18926TIP3    H256659   2.672   4.943   9.251
18927TIP3   OH256660   3.144   3.836   9.023
18927TIP3    H156661   3.054   3.805   8.999
18927TIP3    H256662   3.121   3.923   9.061
18928TIP3   OH256663   3.691   3.955   9.223
18928TIP3    H156664   3.748   3.914   9.290
18928TIP3    H256665   3.600   3.930   9.253
18929TIP3   OH256666   3.919   4.382   9.137
18929TIP3    H156667   3.871   4.377   9.222
18929TIP3    H256668   3.895   4.471   9.103
18930TIP3   OH256669   3.576   4.516   7.698
18930TIP3    H156670   3.543   4.486   7.611
18930TIP3    H256671   3.657   4.564   7.671
18931TIP3   OH256672   3.290   3.888   7.998
18931TIP3    H156673   3.258   3.886   8.090
18931TIP3    H256674   3.253   3.804   7.965
18932TIP3   OH256675   3.075   4.351   9.046
18932TIP3    H156676   3.026   4.375   9.128
18932TIP3    H256677   3.060   4.432   8.991
18933TIP3   OH256678   2.960   4.237   8.561
18933TIP3    H156679   2.866   4.212   8.576
18933TIP3    H256680   2.974   4.198   8.472
18934TIP3   OH256681   3.450   4.324   8.286
18934TIP3    H156682   3.396   4.396   8.246
18934TIP3    H256683   3.504   4.296   8.209
18935TIP3   OH256684   3.628   4.616   9.367
18935TIP3    H156685   3.601   4.536   9.417
18935TIP3    H256686   3.722   4.624   9.391
18936TIP3   OH256687   3.608   4.355   8.528
18936TIP3    H156688   3.551   4.386   8.455
18936TIP3    H256689   3.640   4.272   8.487
18937TIP3   OH256690   2.896   4.384   9.257
18937TIP3    H156691   2.915   4.454   9.322
18937TIP3    H256692   2.841   4.324   9.308
18938TIP3   OH256693   2.945   3.858   7.964
18938TIP3    H156694   2.939   3.855   8.062
18938TIP3    H256695   2.864   3.907   7.942
18939TIP3   OH256696   2.486   3.907   8.834
18939TIP3    H156697   2.563   3.936   8.887
18939TIP3    H256698   2.527   3.871   8.753
18940TIP3   OH256699   2.467   3.886   8.356
18940TIP3    H156700   2.512   3.924   8.278
18940TIP3    H256701   2.405   3.959   8.377
18941TIP3   OH256702   3.618   4.602   8.950
18941TIP3    H156703   3.650   4.528   8.894
18941TIP3    H256704   3.590   4.552   9.030
18942TIP3   OH256705   3.283   4.063   8.623
18942TIP3    H156706   3.200   4.059   8.674
18942TIP3    H256707   3.350   4.063   8.693
18943TIP3   OH256708   2.721   4.114   8.632
18943TIP3    H156709   2.626   4.121   8.605
18943TIP3    H256710   2.744   4.023   8.607
18944TIP3   OH256711   2.993   4.116   8.317
18944TIP3    H156712   3.088   4.128   8.297
18944TIP3    H256713   2.949   4.138   8.232
18945TIP3   OH256714   3.778   4.137   8.824
18945TIP3    H156715   3.740   4.147   8.914
18945TIP3    H256716   3.715   4.073   8.785
18946TIP3   OH256717   2.827   4.146   8.098
18946TIP3    H156718   2.755   4.102   8.050
18946TIP3    H256719   2.879   4.180   8.022
18947TIP3   OH256720   3.945   5.824   9.040
18947TIP3    H156721   3.944   5.848   8.946
18947TIP3    H256722   4.022   5.875   9.072
18948TIP3   OH256723   2.894   4.934   9.472
18948TIP3    H156724   2.960   4.999   9.502
18948TIP3    H256725   2.838   4.924   9.552
18949TIP3   OH256726   3.370   4.386   8.718
18949TIP3    H156727   3.442   4.349   8.665
18949TIP3    H256728   3.387   4.347   8.805
18950TIP3   OH256729   2.897   3.878   8.593
18950TIP3    H156730   2.866   3.797   8.637
18950TIP3    H256731   2.951   3.843   8.521
18951TIP3   OH256732   3.346   4.276   9.021
18951TIP3    H156733   3.259   4.319   9.023
18951TIP3    H256734   3.406   4.342   9.061
18952TIP3   OH256735   3.081   4.679   8.102
18952TIP3    H156736   3.011   4.611   8.094
18952TIP3    H256737   3.066   4.710   8.195
18953TIP3   OH256738   3.986   4.913   8.736
18953TIP3    H156739   4.010   4.961   8.653
18953TIP3    H256740   3.900   4.871   8.712
18954TIP3   OH256741   3.543   3.990   7.963
18954TIP3    H156742   3.446   3.975   7.969
18954TIP3    H256743   3.553   4.085   7.986
18955TIP3   OH256744   3.482   4.992   9.102
18955TIP3    H156745   3.504   4.970   9.193
18955TIP3    H256746   3.446   5.083   9.109
18956TIP3   OH256747   3.613   4.235   8.067
18956TIP3    H156748   3.709   4.240   8.083
18956TIP3    H256749   3.596   4.314   8.012
18957TIP3   OH256750   2.775   4.697   8.782
18957TIP3    H156751   2.813   4.668   8.697
18957TIP3    H256752   2.812   4.631   8.844
18958TIP3   OH256753   3.229   4.824   7.922
18958TIP3    H156754   3.183   4.911   7.933
18958TIP3    H256755   3.175   4.768   7.983
18959TIP3   OH256756   2.669   4.598   9.379
18959TIP3    H156757   2.648   4.628   9.470
18959TIP3    H256758   2.590   4.544   9.358
18960TIP3   OH256759   3.377   4.729   9.405
18960TIP3    H156760   3.321   4.668   9.353
18960TIP3    H256761   3.467   4.700   9.378
18961TIP3   OH256762   3.645   5.252   8.996
18961TIP3    H156763   3.548   5.252   9.007
18961TIP3    H256764   3.673   5.305   9.074
18962TIP3   OH256765   4.055   4.322   7.906
18962TIP3    H156766   3.992   4.277   7.845
18962TIP3    H256767   4.053   4.410   7.863
18963TIP3   OH256768   4.271   5.180   8.988
18963TIP3    H156769   4.173   5.176   8.979
18963TIP3    H256770   4.297   5.150   8.897
18964TIP3   OH256771   3.749   5.144   7.811
18964TIP3    H156772   3.731   5.072   7.874
18964TIP3    H256773   3.765   5.097   7.727
18965TIP3   OH256774   3.750   4.773   8.657
18965TIP3    H156775   3.656   4.747   8.668
18965TIP3    H256776   3.785   4.695   8.610
18966TIP3   OH256777   2.873   4.998   8.402
18966TIP3    H156778   2.879   5.081   8.353
18966TIP3    H256779   2.778   4.987   8.414
18967TIP3   OH256780   2.438   4.306   8.104
18967TIP3    H156781   2.485   4.388   8.126
18967TIP3    H256782   2.361   4.311   8.166
18968TIP3   OH256783   3.020   4.768   8.351
18968TIP3    H156784   2.983   4.857   8.369
18968TIP3    H256785   2.983   4.717   8.425
18969TIP3   OH256786   3.143   5.346   8.876
18969TIP3    H156787   3.183   5.419   8.824
18969TIP3    H256788   3.221   5.312   8.924
18970TIP3   OH256789   2.793   5.240   8.252
18970TIP3    H156790   2.710   5.246   8.303
18970TIP3    H256791   2.828   5.331   8.261
18971TIP3   OH256792   3.537   4.979   8.832
18971TIP3    H156793   3.529   4.976   8.930
18971TIP3    H256794   3.617   4.927   8.818
18972TIP3   OH256795   3.504   4.870   7.715
18972TIP3    H156796   3.559   4.847   7.793
18972TIP3    H256797   3.416   4.843   7.747
18973TIP3   OH256798   3.783   5.515   8.884
18973TIP3    H156799   3.704   5.459   8.874
18973TIP3    H256800   3.769   5.581   8.812
18974TIP3   OH256801   3.849   5.348   7.536
18974TIP3    H156802   3.888   5.420   7.483
18974TIP3    H256803   3.768   5.395   7.566
18975TIP3   OH256804   3.665   4.808   7.934
18975TIP3    H156805   3.656   4.740   8.003
18975TIP3    H256806   3.762   4.805   7.920
18976TIP3   OH256807   2.582   5.209   9.036
18976TIP3    H156808   2.636   5.134   9.065
18976TIP3    H256809   2.613   5.279   9.095
18977TIP3   OH256810   2.870   4.856   7.715
18977TIP3    H156811   2.890   4.767   7.680
18977TIP3    H256812   2.857   4.836   7.810
18978TIP3   OH256813   2.818   4.861   7.991
18978TIP3    H156814   2.890   4.825   8.046
18978TIP3    H256815   2.834   4.957   7.996
18979TIP3   OH256816   2.559   4.552   8.189
18979TIP3    H156817   2.493   4.597   8.247
18979TIP3    H256818   2.574   4.622   8.123
18980TIP3   OH256819   3.700   4.191   9.083
18980TIP3    H156820   3.782   4.230   9.117
18980TIP3    H256821   3.692   4.110   9.137
18981TIP3   OH256822   3.580   3.944   8.244
18981TIP3    H156823   3.568   3.966   8.149
18981TIP3    H256824   3.620   4.026   8.279
18982TIP3   OH256825   3.085   5.052   7.939
18982TIP3    H156826   3.002   5.091   7.972
18982TIP3    H256827   3.106   5.111   7.866
18983TIP3   OH256828   3.276   4.117   8.348
18983TIP3    H156829   3.342   4.188   8.329
18983TIP3    H256830   3.280   4.112   8.445
18984TIP3   OH256831   3.542   4.439   9.154
18984TIP3    H156832   3.556   4.492   9.234
18984TIP3    H256833   3.599   4.362   9.169
18985TIP3   OH256834   3.421   3.852   8.454
18985TIP3    H156835   3.416   3.929   8.513
18985TIP3    H256836   3.480   3.888   8.383
18986TIP3   OH256837   2.831   5.143   7.998
18986TIP3    H156838   2.774   5.205   7.953
18986TIP3    H256839   2.818   5.170   8.092
18987TIP3   OH256840   2.929   3.843   8.241
18987TIP3    H156841   2.928   3.934   8.276
18987TIP3    H256842   3.025   3.822   8.250
18988TIP3   OH256843   4.185   4.337   9.137
18988TIP3    H156844   4.087   4.336   9.142
18988TIP3    H256845   4.197   4.302   9.048
18989TIP3   OH256846   3.835   4.534   8.526
18989TIP3    H156847   3.760   4.472   8.537
18989TIP3    H256848   3.908   4.487   8.572
18990TIP3   OH256849   2.545   4.767   7.995
18990TIP3    H156850   2.613   4.836   8.007
18990TIP3    H256851   2.592   4.711   7.929
18991TIP3   OH256852   2.493   4.037   8.130
18991TIP3    H156853   2.490   4.135   8.122
18991TIP3    H256854   2.410   4.011   8.088
18992TIP3   OH256855   3.803   5.485   8.476
18992TIP3    H156856   3.760   5.532   8.401
18992TIP3    H256857   3.897   5.504   8.456
18993TIP3   OH256858   2.878   3.762   9.004
18993TIP3    H156859   2.847   3.728   8.917
18993TIP3    H256860   2.869   3.682   9.061
18994TIP3   OH256861   2.422   4.978   8.389
18994TIP3    H156862   2.342   5.009   8.434
18994TIP3    H256863   2.407   5.013   8.299
18995TIP3   OH256864   2.576   5.511   9.430
18995TIP3    H156865   2.652   5.497   9.489
18995TIP3    H256866   2.532   5.424   9.437
18996TIP3   OH256867   3.064   5.474   9.507
18996TIP3    H156868   3.160   5.462   9.501
18996TIP3    H256869   3.034   5.424   9.429
18997TIP3   OH256870   3.041   5.058   7.636
18997TIP3    H156871   2.984   4.983   7.668
18997TIP3    H256872   3.115   5.009   7.598
18998TIP3   OH256873   3.695   5.388   9.232
18998TIP3    H156874   3.688   5.317   9.300
18998TIP3    H256875   3.774   5.437   9.262
18999TIP3   OH256876   3.475   5.103   7.538
18999TIP3    H156877   3.522   5.041   7.595
18999TIP3    H256878   3.531   5.104   7.457
19000TIP3   OH256879   2.681   4.578   7.847
19000TIP3    H156880   2.734   4.538   7.917
19000TIP3    H256881   2.748   4.581   7.775
19001TIP3   OH256882   3.325   5.001   9.412
19001TIP3    H156883   3.278   5.011   9.328
19001TIP3    H256884   3.349   4.906   9.413
19002TIP3   OH256885   3.181   4.771   7.654
19002TIP3    H156886   3.192   4.783   7.751
19002TIP3    H256887   3.185   4.673   7.648
19003TIP3   OH256888   3.805   5.011   9.033
19003TIP3    H156889   3.879   5.057   8.989
19003TIP3    H256890   3.734   5.076   9.022
19004TIP3   OH256891   2.893   4.476   8.073
19004TIP3    H156892   2.866   4.431   8.155
19004TIP3    H256893   2.928   4.401   8.020
19005TIP3   OH256894   3.162   4.540   9.302
19005TIP3    H156895   3.084   4.600   9.307
19005TIP3    H256896   3.206   4.571   9.220
19006TIP3   OH256897   2.988   4.269   7.913
19006TIP3    H156898   2.962   4.267   7.818
19006TIP3    H256899   3.086   4.275   7.905
19007TIP3   OH256900   3.675   4.944   9.430
19007TIP3    H156901   3.758   4.930   9.382
19007TIP3    H256902   3.681   4.875   9.498
19008TIP3   OH256903   3.815   4.604   7.571
19008TIP3    H156904   3.793   4.555   7.489
19008TIP3    H256905   3.783   4.693   7.544
19009TIP3   OH256906   3.263   4.310   9.435
19009TIP3    H156907   3.266   4.243   9.364
19009TIP3    H256908   3.222   4.387   9.390
19010TIP3   OH256909   3.282   4.112   9.236
19010TIP3    H156910   3.311   4.160   9.155
19010TIP3    H256911   3.188   4.093   9.214
19011TIP3   OH256912   3.317   4.651   9.103
19011TIP3    H156913   3.398   4.659   9.050
19011TIP3    H256914   3.260   4.720   9.062
19012TIP3   OH256915   3.904   4.607   9.479
19012TIP3    H156916   3.957   4.526   9.491
19012TIP3    H256917   3.972   4.672   9.457
19013TIP3   OH256918   3.937   4.870   9.221
19013TIP3    H156919   3.879   4.922   9.162
19013TIP3    H256920   4.024   4.890   9.181
19014TIP3   OH256921   3.429   3.878   9.245
19014TIP3    H156922   3.377   3.960   9.229
19014TIP3    H256923   3.358   3.812   9.257
19015TIP3   OH256924   3.526   4.387   9.467
19015TIP3    H156925   3.555   4.320   9.533
19015TIP3    H256926   3.431   4.364   9.457
19016TIP3   OH256927   3.787   4.329   9.365
19016TIP3    H156928   3.706   4.329   9.418
19016TIP3    H256929   3.856   4.314   9.432
19017TIP3   OH256930   4.008   4.318   9.550
19017TIP3    H156931   4.021   4.222   9.531
19017TIP3    H256932   3.999   4.317   9.647
19018TIP3   OH256933   5.486   5.673   0.069
19018TIP3    H156934   5.509   5.755   0.116
19018TIP3    H256935   5.398   5.696   0.033
19019TIP3   OH256936   2.803   5.390   7.769
19019TIP3    H156937   2.887   5.338   7.775
19019TIP3    H256938   2.744   5.324   7.727
19020TIP3   OH256939   2.277   4.714   8.032
19020TIP3    H156940   2.372   4.736   8.018
19020TIP3    H256941   2.272   4.625   7.992
19021TIP3   OH256942   2.191   5.327   8.442
19021TIP3    H156943   2.122   5.265   8.409
19021TIP3    H256944   2.234   5.272   8.511
19022TIP3   OH256945   2.327   5.185   8.630
19022TIP3    H156946   2.318   5.107   8.687
19022TIP3    H256947   2.378   5.243   8.689
19023TIP3   OH256948   4.052   5.580   8.429
19023TIP3    H156949   4.080   5.615   8.516
19023TIP3    H256950   4.111   5.628   8.369
19024TIP3   OH256951   4.084   5.600   8.711
19024TIP3    H156952   4.044   5.511   8.707
19024TIP3    H256953   4.160   5.581   8.768
19025TIP3   OH256954   4.131   5.276   9.284
19025TIP3    H156955   4.056   5.284   9.347
19025TIP3    H256956   4.172   5.365   9.289
19026TIP3   OH256957   3.945   4.792   7.907
19026TIP3    H156958   4.016   4.853   7.879
19026TIP3    H256959   3.987   4.750   7.986
19027TIP3   OH256960   4.073   4.659   8.109
19027TIP3    H156961   4.009   4.615   8.168
19027TIP3    H256962   4.138   4.697   8.172
19028TIP3   OH256963   4.125   5.046   8.542
19028TIP3    H156964   4.180   4.985   8.489
19028TIP3    H256965   4.116   5.122   8.482
19029TIP3   OH256966   3.962   5.348   8.739
19029TIP3    H156967   3.891   5.391   8.790
19029TIP3    H256968   3.911   5.300   8.670
19030TIP3   OH256969   4.013   4.565   7.758
19030TIP3    H156970   3.942   4.567   7.690
19030TIP3    H256971   3.986   4.641   7.813
19031TIP3   OH256972   3.883   4.239   7.714
19031TIP3    H156973   3.845   4.278   7.634
19031TIP3    H256974   3.856   4.145   7.704
19032TIP3   OH256975   3.889   4.512   8.258
19032TIP3    H156976   3.898   4.415   8.253
19032TIP3    H256977   3.877   4.526   8.354
19033TIP3   OH256978   2.517   4.591   8.999
19033TIP3    H156979   2.516   4.561   8.905
19033TIP3    H256980   2.613   4.589   9.017
19034TIP3   OH256981   4.177   4.937   9.112
19034TIP3    H156982   4.252   4.873   9.104
19034TIP3    H256983   4.206   5.009   9.053
19035TIP3   OH256984   4.365   4.747   9.136
19035TIP3    H156985   4.291   4.695   9.176
19035TIP3    H256986   4.438   4.683   9.148
19036TIP3   OH256987   3.827   3.974   7.703
19036TIP3    H156988   3.905   3.942   7.753
19036TIP3    H256989   3.756   3.912   7.727
19037TIP3   OH256990   3.885   4.228   8.154
19037TIP3    H156991   3.925   4.139   8.170
19037TIP3    H256992   3.944   4.260   8.084
19038TIP3   OH256993   4.048   4.407   8.647
19038TIP3    H156994   4.135   4.433   8.607
19038TIP3    H256995   4.062   4.442   8.737
19039TIP3   OH256996   4.114   4.546   8.882
19039TIP3    H156997   4.035   4.582   8.928
19039TIP3    H256998   4.147   4.626   8.835
19040TIP3   OH256999   4.575   4.150   9.429
19040TIP3    H157000   4.626   4.079   9.384
19040TIP3    H257001   4.541   4.201   9.353
19041TIP3   OH257002   3.993   3.978   8.191
19041TIP3    H157003   4.043   3.962   8.274
19041TIP3    H257004   3.934   3.900   8.189
19042TIP3   OH257005   2.693   3.967   9.006
19042TIP3    H157006   2.753   3.890   9.017
19042TIP3    H257007   2.758   4.040   9.001
19043TIP3   OH257008   2.503   4.238   9.086
19043TIP3    H157009   2.550   4.233   9.001
19043TIP3    H257010   2.529   4.326   9.117
19044TIP3   OH257011   4.438   4.282   9.240
19044TIP3    H157012   4.350   4.319   9.260
19044TIP3    H257013   4.412   4.211   9.178
19045TIP3   OH257014   4.078   3.916   7.820
19045TIP3    H157015   4.118   3.842   7.771
19045TIP3    H257016   4.146   3.986   7.811
19046TIP3   OH257017   2.479   3.746   8.585
19046TIP3    H157018   2.385   3.744   8.607
19046TIP3    H257019   2.480   3.803   8.505
19047TIP3   OH257020   3.636   5.445   8.086
19047TIP3    H157021   3.690   5.429   8.006
19047TIP3    H257022   3.689   5.511   8.133
19048TIP3   OH257023   2.746   5.238   9.477
19048TIP3    H157024   2.654   5.226   9.452
19048TIP3    H257025   2.741   5.266   9.570
19049TIP3   OH257026   2.916   5.278   9.021
19049TIP3    H157027   2.868   5.355   8.983
19049TIP3    H257028   3.002   5.292   8.978
19050TIP3   OH257029   3.366   5.526   9.158
19050TIP3    H157030   3.408   5.531   9.247
19050TIP3    H257031   3.432   5.577   9.105
19051TIP3   OH257032   3.545   5.675   9.017
19051TIP3    H157033   3.618   5.626   8.976
19051TIP3    H257034   3.595   5.734   9.078
19052TIP3   OH257035   4.337   4.041   9.119
19052TIP3    H157036   4.247   4.039   9.084
19052TIP3    H257037   4.366   3.947   9.105
19053TIP3   OH257038   2.597   5.535   9.046
19053TIP3    H157039   2.510   5.574   9.021
19053TIP3    H257040   2.607   5.573   9.135
19054TIP3   OH257041   2.831   5.515   8.901
19054TIP3    H157042   2.746   5.529   8.948
19054TIP3    H257043   2.811   5.552   8.813
19055TIP3   OH257044   3.258   5.549   8.699
19055TIP3    H157045   3.190   5.572   8.633
19055TIP3    H257046   3.272   5.635   8.744
19056TIP3   OH257047   3.525   5.487   8.750
19056TIP3    H157048   3.431   5.505   8.730
19056TIP3    H257049   3.568   5.566   8.712
19057TIP3   OH257050   3.735   5.680   8.669
19057TIP3    H157051   3.721   5.765   8.622
19057TIP3    H257052   3.760   5.620   8.596
19058TIP3   OH257053   2.506   5.333   8.791
19058TIP3    H157054   2.533   5.311   8.883
19058TIP3    H257055   2.579   5.288   8.742
19059TIP3   OH257056   2.699   5.203   8.644
19059TIP3    H157057   2.716   5.120   8.693
19059TIP3    H257058   2.789   5.242   8.641
19060TIP3   OH257059   2.963   5.300   8.646
19060TIP3    H157060   2.998   5.209   8.636
19060TIP3    H257061   3.004   5.323   8.732
19061TIP3   OH257062   3.541   3.957   8.736
19061TIP3    H157063   3.498   3.888   8.790
19061TIP3    H257064   3.611   3.907   8.690
19062TIP3   OH257065   4.069   3.838   8.647
19062TIP3    H157066   4.105   3.888   8.571
19062TIP3    H257067   3.973   3.853   8.636
19063TIP3   OH257068   4.161   3.938   8.408
19063TIP3    H157069   4.233   3.886   8.367
19063TIP3    H257070   4.194   4.030   8.392
19064TIP3   OH257071   2.792   3.666   8.756
19064TIP3    H157072   2.700   3.633   8.755
19064TIP3    H257073   2.842   3.581   8.752
19065TIP3   OH257074   2.576   3.532   8.400
19065TIP3    H157075   2.607   3.590   8.329
19065TIP3    H257076   2.546   3.597   8.467
19066TIP3   OH257077   3.231   3.699   8.634
19066TIP3    H157078   3.292   3.749   8.577
19066TIP3    H257079   3.253   3.735   8.721
19067TIP3   OH257080   3.786   3.843   8.619
19067TIP3    H157081   3.779   3.809   8.528
19067TIP3    H257082   3.769   3.761   8.671
19068TIP3   OH257083   3.811   3.764   8.180
19068TIP3    H157084   3.722   3.803   8.186
19068TIP3    H257085   3.797   3.679   8.228
19069TIP3   OH257086   2.297   5.101   8.182
19069TIP3    H157087   2.212   5.067   8.148
19069TIP3    H257088   2.280   5.196   8.173
19070TIP3   OH257089   2.692   3.694   8.167
19070TIP3    H157090   2.741   3.632   8.110
19070TIP3    H257091   2.764   3.748   8.204
19071TIP3   OH257092   3.206   3.867   8.266
19071TIP3    H157093   3.267   3.819   8.324
19071TIP3    H257094   3.230   3.960   8.290
19072TIP3   OH257095   3.058   5.306   7.746
19072TIP3    H157096   3.154   5.320   7.727
19072TIP3    H257097   3.048   5.221   7.697
19073TIP3   OH257098   3.783   5.410   7.855
19073TIP3    H157099   3.774   5.313   7.842
19073TIP3    H257100   3.741   5.444   7.773
19074TIP3   OH257101   2.375   5.139   7.823
19074TIP3    H157102   2.361   5.157   7.917
19074TIP3    H257103   2.458   5.088   7.823
19075TIP3   OH257104   4.052   4.050   9.504
19075TIP3    H157105   4.071   3.996   9.584
19075TIP3    H257106   4.138   4.037   9.458
19076TIP3   OH257107   4.014   5.557   9.044
19076TIP3    H157108   3.934   5.524   8.998
19076TIP3    H257109   3.995   5.653   9.046
19077TIP3   OH257110   5.278   4.927   7.814
19077TIP3    H157111   5.250   5.019   7.794
19077TIP3    H257112   5.200   4.879   7.780
19078TIP3   OH257113   5.276   4.927   8.188
19078TIP3    H157114   5.303   4.894   8.274
19078TIP3    H257115   5.234   4.850   8.148
19079TIP3   OH257116   4.577   4.826   8.556
19079TIP3    H157117   4.610   4.759   8.619
19079TIP3    H257118   4.655   4.884   8.549
19080TIP3   OH257119   5.518   5.228   7.871
19080TIP3    H157120   5.505   5.158   7.936
19080TIP3    H257121   5.545   5.303   7.926
19081TIP3   OH257122   4.545   5.232   8.285
19081TIP3    H157123   4.537   5.134   8.289
19081TIP3    H257124   4.642   5.241   8.279
19082TIP3   OH257125   4.254   4.439   8.072
19082TIP3    H157126   4.204   4.522   8.081
19082TIP3    H257127   4.184   4.381   8.036
19083TIP3   OH257128   4.315   4.725   8.235
19083TIP3    H157129   4.363   4.648   8.274
19083TIP3    H257130   4.373   4.747   8.161
19084TIP3   OH257131   5.164   5.692   7.887
19084TIP3    H157132   5.215   5.621   7.841
19084TIP3    H257133   5.161   5.659   7.977
19085TIP3   OH257134   5.076   5.153   8.239
19085TIP3    H157135   5.111   5.077   8.190
19085TIP3    H257136   5.161   5.196   8.262
19086TIP3   OH257137   6.086   4.473   8.237
19086TIP3    H157138   6.114   4.556   8.280
19086TIP3    H257139   6.106   4.493   8.144
19087TIP3   OH257140   5.488   4.656   8.276
19087TIP3    H157141   5.531   4.570   8.293
19087TIP3    H257142   5.457   4.644   8.184
19088TIP3   OH257143   4.821   4.314   8.240
19088TIP3    H157144   4.802   4.386   8.177
19088TIP3    H257145   4.776   4.240   8.194
19089TIP3   OH257146   5.516   4.407   7.864
19089TIP3    H157147   5.589   4.388   7.927
19089TIP3    H257148   5.567   4.441   7.788
19090TIP3   OH257149   4.458   4.518   8.344
19090TIP3    H157150   4.541   4.497   8.392
19090TIP3    H257151   4.469   4.461   8.265
19091TIP3   OH257152   4.900   4.715   8.135
19091TIP3    H157153   4.994   4.689   8.149
19091TIP3    H257154   4.860   4.631   8.103
19092TIP3   OH257155   6.160   4.680   8.409
19092TIP3    H157156   6.077   4.729   8.389
19092TIP3    H257157   6.175   4.707   8.501
19093TIP3   OH257158   4.822   4.299   8.673
19093TIP3    H157159   4.761   4.335   8.605
19093TIP3    H257160   4.771   4.317   8.754
19094TIP3   OH257161   5.174   5.150   7.682
19094TIP3    H157162   5.128   5.123   7.602
19094TIP3    H257163   5.130   5.235   7.702
19095TIP3   OH257164   4.929   5.072   8.472
19095TIP3    H157165   4.863   5.135   8.511
19095TIP3    H257166   4.969   5.126   8.402
19096TIP3   OH257167   5.732   4.406   8.028
19096TIP3    H157168   5.731   4.347   8.105
19096TIP3    H257169   5.788   4.479   8.059
19097TIP3   OH257170   4.691   4.413   8.458
19097TIP3    H157171   4.754   4.485   8.480
19097TIP3    H257172   4.738   4.371   8.382
19098TIP3   OH257173   4.753   5.263   8.565
19098TIP3    H157174   4.728   5.349   8.525
19098TIP3    H257175   4.675   5.249   8.623
19099TIP3   OH257176   4.153   4.955   7.802
19099TIP3    H157177   4.111   4.981   7.718
19099TIP3    H257178   4.182   5.040   7.839
19100TIP3   OH257179   5.592   5.470   8.044
19100TIP3    H157180   5.502   5.462   8.082
19100TIP3    H257181   5.584   5.556   7.997
19101TIP3   OH257182   5.877   4.378   8.406
19101TIP3    H157183   5.789   4.402   8.371
19101TIP3    H257184   5.937   4.405   8.333
19102TIP3   OH257185   5.183   4.019   8.386
19102TIP3    H157186   5.168   3.923   8.399
19102TIP3    H257187   5.103   4.055   8.431
19103TIP3   OH257188   5.298   5.520   7.720
19103TIP3    H157189   5.346   5.438   7.696
19103TIP3    H257190   5.357   5.586   7.676
19104TIP3   OH257191   5.437   5.305   7.619
19104TIP3    H157192   5.397   5.227   7.578
19104TIP3    H257193   5.470   5.268   7.703
19105TIP3   OH257194   5.818   5.387   8.385
19105TIP3    H157195   5.807   5.309   8.326
19105TIP3    H257196   5.801   5.461   8.323
19106TIP3   OH257197   5.109   4.780   7.640
19106TIP3    H157198   5.027   4.829   7.616
19106TIP3    H257199   5.155   4.775   7.554
19107TIP3   OH257200   5.067   4.562   7.362
19107TIP3    H157201   5.137   4.611   7.409
19107TIP3    H257202   5.121   4.496   7.315
19108TIP3   OH257203   6.012   5.021   8.229
19108TIP3    H157204   5.930   5.074   8.235
19108TIP3    H257205   6.041   5.044   8.138
19109TIP3   OH257206   5.455   4.862   7.615
19109TIP3    H157207   5.400   4.887   7.693
19109TIP3    H257208   5.538   4.835   7.659
19110TIP3   OH257209   5.691   4.903   8.521
19110TIP3    H157210   5.688   4.987   8.571
19110TIP3    H257211   5.604   4.906   8.477
19111TIP3   OH257212   4.688   4.862   8.030
19111TIP3    H157213   4.645   4.804   7.963
19111TIP3    H257214   4.765   4.808   8.057
19112TIP3   OH257215   4.818   5.271   8.179
19112TIP3    H157216   4.796   5.223   8.098
19112TIP3    H257217   4.908   5.240   8.198
19113TIP3   OH257218   4.828   4.830   8.385
19113TIP3    H157219   4.858   4.812   8.294
19113TIP3    H257220   4.869   4.917   8.405
19114TIP3   OH257221   5.350   5.469   8.160
19114TIP3    H157222   5.335   5.548   8.215
19114TIP3    H257223   5.336   5.395   8.224
19115TIP3   OH257224   4.961   5.388   8.708
19115TIP3    H157225   4.902   5.451   8.755
19115TIP3    H257226   4.894   5.335   8.660
19116TIP3   OH257227   5.298   4.719   7.439
19116TIP3    H157228   5.356   4.779   7.492
19116TIP3    H257229   5.324   4.745   7.347
19117TIP3   OH257230   4.715   4.947   8.806
19117TIP3    H157231   4.719   5.032   8.854
19117TIP3    H257232   4.619   4.928   8.813
19118TIP3   OH257233   5.037   5.403   7.715
19118TIP3    H157234   5.112   5.458   7.741
19118TIP3    H257235   4.975   5.466   7.677
19119TIP3   OH257236   4.757   5.559   8.794
19119TIP3    H157237   4.721   5.555   8.703
19119TIP3    H257238   4.678   5.536   8.849
19120TIP3   OH257239   5.814   3.963   7.487
19120TIP3    H157240   5.732   3.975   7.539
19120TIP3    H257241   5.820   4.048   7.440
19121TIP3   OH257242   4.552   4.704   7.839
19121TIP3    H157243   4.489   4.748   7.777
19121TIP3    H257244   4.512   4.616   7.847
19122TIP3   OH257245   5.609   5.330   7.034
19122TIP3    H157246   5.618   5.427   7.021
19122TIP3    H257247   5.702   5.301   7.023
19123TIP3   OH257248   4.336   5.086   8.742
19123TIP3    H157249   4.273   5.063   8.672
19123TIP3    H257250   4.372   4.999   8.769
19124TIP3   OH257251   4.189   5.278   8.378
19124TIP3    H157252   4.285   5.273   8.366
19124TIP3    H257253   4.180   5.360   8.429
19125TIP3   OH257254   6.055   5.728   8.428
19125TIP3    H157255   6.053   5.632   8.442
19125TIP3    H257256   5.972   5.754   8.474
19126TIP3   OH257257   5.161   5.517   8.564
19126TIP3    H157258   5.162   5.610   8.597
19126TIP3    H257259   5.090   5.479   8.619
19127TIP3   OH257260   4.917   5.647   7.516
19127TIP3    H157261   4.873   5.627   7.431
19127TIP3    H257262   4.886   5.737   7.536
19128TIP3   OH257263   4.357   5.497   7.899
19128TIP3    H157264   4.406   5.487   7.983
19128TIP3    H257265   4.295   5.423   7.906
19129TIP3   OH257266   5.122   5.547   7.158
19129TIP3    H157267   5.182   5.478   7.121
19129TIP3    H257268   5.156   5.555   7.250
19130TIP3   OH257269   5.170   5.595   7.430
19130TIP3    H157270   5.082   5.604   7.472
19130TIP3    H257271   5.220   5.550   7.500
19131TIP3   OH257272   5.947   4.861   8.705
19131TIP3    H157273   5.868   4.881   8.653
19131TIP3    H257274   5.958   4.765   8.688
19132TIP3   OH257275   4.540   5.270   8.734
19132TIP3    H157276   4.591   5.252   8.816
19132TIP3    H257277   4.467   5.205   8.741
19133TIP3   OH257278   4.941   4.093   8.512
19133TIP3    H157279   4.852   4.062   8.487
19133TIP3    H257280   4.916   4.177   8.555
19134TIP3   OH257281   5.464   4.214   8.710
19134TIP3    H157282   5.511   4.185   8.789
19134TIP3    H257283   5.371   4.194   8.735
19135TIP3   OH257284   5.713   4.638   8.630
19135TIP3    H157285   5.662   4.638   8.714
19135TIP3    H257286   5.690   4.725   8.591
19136TIP3   OH257287   5.373   4.772   7.184
19136TIP3    H157288   5.339   4.742   7.098
19136TIP3    H257289   5.452   4.823   7.157
19137TIP3   OH257290   5.086   4.147   7.484
19137TIP3    H157291   5.056   4.142   7.577
19137TIP3    H257292   5.051   4.062   7.451
19138TIP3   OH257293   4.872   4.608   8.534
19138TIP3    H157294   4.820   4.631   8.614
19138TIP3    H257295   4.857   4.688   8.478
19139TIP3   OH257296   4.756   4.495   8.048
19139TIP3    H157297   4.662   4.469   8.063
19139TIP3    H257298   4.770   4.455   7.959
19140TIP3   OH257299   5.247   4.582   7.774
19140TIP3    H157300   5.192   4.653   7.733
19140TIP3    H257301   5.300   4.552   7.697
19141TIP3   OH257302   5.421   4.860   8.859
19141TIP3    H157303   5.398   4.791   8.925
19141TIP3    H257304   5.513   4.880   8.884
19142TIP3   OH257305   5.405   4.613   8.015
19142TIP3    H157306   5.346   4.642   7.942
19142TIP3    H257307   5.437   4.529   7.974
19143TIP3   OH257308   4.690   4.639   8.742
19143TIP3    H157309   4.714   4.703   8.811
19143TIP3    H257310   4.679   4.557   8.793
19144TIP3   OH257311   4.740   4.115   7.450
19144TIP3    H157312   4.736   4.111   7.548
19144TIP3    H257313   4.658   4.164   7.431
19145TIP3   OH257314   4.283   4.163   8.322
19145TIP3    H157315   4.361   4.192   8.374
19145TIP3    H257316   4.321   4.127   8.240
19146TIP3   OH257317   4.263   4.142   7.843
19146TIP3    H157318   4.309   4.180   7.765
19146TIP3    H257319   4.202   4.215   7.863
19147TIP3   OH257320   5.418   4.858   8.439
19147TIP3    H157321   5.448   4.784   8.381
19147TIP3    H257322   5.385   4.807   8.516
19148TIP3   OH257323   5.081   4.325   8.110
19148TIP3    H157324   4.997   4.314   8.158
19148TIP3    H257325   5.146   4.319   8.182
19149TIP3   OH257326   4.517   4.371   8.119
19149TIP3    H157327   4.423   4.377   8.091
19149TIP3    H257328   4.541   4.280   8.094
19150TIP3   OH257329   4.789   4.374   7.804
19150TIP3    H157330   4.884   4.382   7.783
19150TIP3    H257331   4.745   4.394   7.719
19151TIP3   OH257332   5.576   4.392   8.312
19151TIP3    H157333   5.533   4.404   8.399
19151TIP3    H257334   5.515   4.328   8.270
19152TIP3   OH257335   4.623   4.403   7.585
19152TIP3    H157336   4.550   4.359   7.537
19152TIP3    H257337   4.675   4.437   7.509
19153TIP3   OH257338   5.741   6.081   8.527
19153TIP3    H157339   5.741   6.104   8.433
19153TIP3    H257340   5.818   6.132   8.560
19154TIP3   OH257341   4.702   5.192   8.952
19154TIP3    H157342   4.782   5.222   9.000
19154TIP3    H257343   4.637   5.191   9.025
19155TIP3   OH257344   5.168   4.645   8.207
19155TIP3    H157345   5.236   4.603   8.152
19155TIP3    H257346   5.181   4.602   8.293
19156TIP3   OH257347   4.693   4.135   8.079
19156TIP3    H157348   4.663   4.053   8.124
19156TIP3    H257349   4.751   4.100   8.010
19157TIP3   OH257350   5.143   4.536   8.500
19157TIP3    H157351   5.054   4.575   8.508
19157TIP3    H257352   5.199   4.600   8.548
19158TIP3   OH257353   4.879   4.934   7.591
19158TIP3    H157354   4.807   4.868   7.580
19158TIP3    H257355   4.862   4.966   7.683
19159TIP3   OH257356   5.782   5.169   8.223
19159TIP3    H157357   5.805   5.217   8.140
19159TIP3    H257358   5.696   5.127   8.200
19160TIP3   OH257359   5.338   4.249   7.446
19160TIP3    H157360   5.242   4.230   7.457
19160TIP3    H257361   5.347   4.342   7.475
19161TIP3   OH257362   5.282   5.251   8.588
19161TIP3    H157363   5.296   5.226   8.680
19161TIP3    H257364   5.241   5.339   8.595
19162TIP3   OH257365   5.409   4.492   7.555
19162TIP3    H157366   5.505   4.497   7.570
19162TIP3    H257367   5.391   4.572   7.500
19163TIP3   OH257368   4.572   4.954   8.269
19163TIP3    H157369   4.608   4.925   8.183
19163TIP3    H257370   4.608   4.887   8.329
19164TIP3   OH257371   5.025   5.083   7.410
19164TIP3    H157372   4.978   5.169   7.418
19164TIP3    H257373   4.971   5.027   7.470
19165TIP3   OH257374   4.450   4.876   8.880
19165TIP3    H157375   4.473   4.863   8.974
19165TIP3    H257376   4.382   4.808   8.866
19166TIP3   OH257377   5.176   4.986   8.900
19166TIP3    H157378   5.117   4.929   8.848
19166TIP3    H257379   5.264   4.956   8.869
19167TIP3   OH257380   5.442   5.510   8.481
19167TIP3    H157381   5.345   5.507   8.494
19167TIP3    H257382   5.469   5.561   8.561
19168TIP3   OH257383   5.853   4.578   7.391
19168TIP3    H157384   5.790   4.533   7.331
19168TIP3    H257385   5.849   4.667   7.350
19169TIP3   OH257386   6.068   5.436   8.474
19169TIP3    H157387   5.970   5.433   8.466
19169TIP3    H257388   6.093   5.407   8.384
19170TIP3   OH257389   5.549   5.400   7.299
19170TIP3    H157390   5.525   5.329   7.360
19170TIP3    H257391   5.561   5.353   7.214
19171TIP3   OH257392   5.546   5.029   8.145
19171TIP3    H157393   5.453   5.004   8.156
19171TIP3    H257394   5.580   4.951   8.097
19172TIP3   OH257395   4.670   5.256   7.891
19172TIP3    H157396   4.674   5.338   7.838
19172TIP3    H257397   4.575   5.242   7.898
19173TIP3   OH257398   4.234   4.563   7.591
19173TIP3    H157399   4.281   4.645   7.612
19173TIP3    H257400   4.157   4.568   7.653
19174TIP3   OH257401   4.817   5.026   7.838
19174TIP3    H157402   4.779   5.114   7.856
19174TIP3    H257403   4.779   4.974   7.912
19175TIP3   OH257404   4.939   5.602   8.363
19175TIP3    H157405   4.980   5.674   8.311
19175TIP3    H257406   5.016   5.569   8.412
19176TIP3   OH257407   4.593   5.496   7.745
19176TIP3    H157408   4.507   5.503   7.790
19176TIP3    H257409   4.624   5.589   7.747
19177TIP3   OH257410   5.333   5.236   8.319
19177TIP3    H157411   5.325   5.234   8.417
19177TIP3    H257412   5.412   5.182   8.305
19178TIP3   OH257413   5.301   5.126   7.201
19178TIP3    H157414   5.354   5.102   7.281
19178TIP3    H257415   5.212   5.101   7.231
19179TIP3   OH257416   5.580   5.772   8.370
19179TIP3    H157417   5.501   5.714   8.363
19179TIP3    H257418   5.564   5.837   8.298
19180TIP3   OH257419   5.645   5.605   7.023
19180TIP3    H157420   5.683   5.676   6.969
19180TIP3    H257421   5.564   5.651   7.054
19181TIP3   OH257422   4.665   4.381   8.891
19181TIP3    H157423   4.569   4.386   8.905
19181TIP3    H257424   4.692   4.318   8.959
19182TIP3   OH257425   5.462   5.064   7.420
19182TIP3    H157426   5.451   4.997   7.490
19182TIP3    H257427   5.559   5.061   7.407
19183TIP3   OH257428   4.380   5.467   8.522
19183TIP3    H157429   4.431   5.389   8.549
19183TIP3    H257430   4.410   5.532   8.587
19184TIP3   OH257431   4.671   5.110   7.201
19184TIP3    H157432   4.686   5.019   7.169
19184TIP3    H257433   4.653   5.095   7.295
19185TIP3   OH257434   4.617   5.114   7.475
19185TIP3    H157435   4.687   5.086   7.535
19185TIP3    H257436   4.623   5.212   7.480
19186TIP3   OH257437   4.355   4.809   7.676
19186TIP3    H157438   4.289   4.854   7.733
19186TIP3    H257439   4.370   4.879   7.609
19187TIP3   OH257440   5.494   4.450   8.571
19187TIP3    H157441   5.579   4.483   8.604
19187TIP3    H257442   5.480   4.368   8.622
19188TIP3   OH257443   5.370   4.205   7.731
19188TIP3    H157444   5.364   4.223   7.635
19188TIP3    H257445   5.415   4.285   7.765
19189TIP3   OH257446   4.882   5.313   7.424
19189TIP3    H157447   4.795   5.342   7.458
19189TIP3    H257448   4.898   5.379   7.356
19190TIP3   OH257449   5.072   4.375   7.835
19190TIP3    H157450   5.139   4.444   7.817
19190TIP3    H257451   5.076   4.369   7.933
19191TIP3   OH257452   5.336   4.697   8.643
19191TIP3    H157453   5.355   4.751   8.722
19191TIP3    H257454   5.393   4.619   8.655
19192TIP3   OH257455   5.224   4.115   7.946
19192TIP3    H157456   5.209   4.196   7.998
19192TIP3    H257457   5.277   4.150   7.871
19193TIP3   OH257458   4.623   5.388   7.488
19193TIP3    H157459   4.592   5.456   7.424
19193TIP3    H257460   4.607   5.431   7.574
19194TIP3   OH257461   4.725   4.099   7.727
19194TIP3    H157462   4.725   4.190   7.764
19194TIP3    H257463   4.821   4.078   7.737
19195TIP3   OH257464   5.981   4.594   8.624
19195TIP3    H157465   5.882   4.593   8.625
19195TIP3    H257466   5.997   4.556   8.537
19196TIP3   OH257467   5.631   4.790   8.012
19196TIP3    H157468   5.556   4.730   8.023
19196TIP3    H257469   5.703   4.742   8.059
19197TIP3   OH257470   4.341   5.023   7.483
19197TIP3    H157471   4.404   5.096   7.492
19197TIP3    H257472   4.389   4.969   7.416
19198TIP3   OH257473   4.289   4.294   7.617
19198TIP3    H157474   4.286   4.392   7.609
19198TIP3    H257475   4.206   4.268   7.575
19199TIP3   OH257476   5.599   5.742   7.963
19199TIP3    H157477   5.556   5.789   7.888
19199TIP3    H257478   5.693   5.761   7.942
19200TIP3   OH257479   4.675   4.015   8.492
19200TIP3    H157480   4.644   3.982   8.405
19200TIP3    H257481   4.665   3.935   8.549
19201TIP3   OH257482   4.219   5.234   7.877
19201TIP3    H157483   4.138   5.266   7.920
19201TIP3    H257484   4.205   5.269   7.786
19202TIP3   OH257485   4.368   5.768   8.942
19202TIP3    H157486   4.454   5.767   8.988
19202TIP3    H257487   4.347   5.673   8.940
19203TIP3   OH257488   4.856   5.743   8.984
19203TIP3    H157489   4.950   5.720   8.994
19203TIP3    H257490   4.831   5.685   8.910
19204TIP3   OH257491   4.836   5.315   7.118
19204TIP3    H157492   4.778   5.243   7.153
19204TIP3    H257493   4.909   5.261   7.083
19205TIP3   OH257494   5.493   5.642   8.718
19205TIP3    H157495   5.483   5.573   8.787
19205TIP3    H257496   5.570   5.694   8.750
19206TIP3   OH257497   5.272   5.358   7.025
19206TIP3    H157498   5.319   5.294   7.082
19206TIP3    H257499   5.327   5.359   6.944
19207TIP3   OH257500   4.501   5.178   9.142
19207TIP3    H157501   4.518   5.083   9.146
19207TIP3    H257502   4.413   5.180   9.099
19208TIP3   OH257503   4.477   4.833   7.332
19208TIP3    H157504   4.530   4.796   7.405
19208TIP3    H257505   4.545   4.837   7.262
19209TIP3   OH257506   5.111   5.262   8.914
19209TIP3    H157507   5.067   5.275   8.828
19209TIP3    H257508   5.141   5.169   8.910
19210TIP3   OH257509   4.983   5.029   7.140
19210TIP3    H157510   4.987   5.041   7.237
19210TIP3    H257511   4.982   4.930   7.135
19211TIP3   OH257512   5.603   5.267   8.521
19211TIP3    H157513   5.675   5.315   8.476
19211TIP3    H257514   5.529   5.329   8.511
19212TIP3   OH257515   4.619   4.909   9.122
19212TIP3    H157516   4.694   4.849   9.107
19212TIP3    H257517   4.641   4.944   9.210
19213TIP3   OH257518   4.690   4.732   7.560
19213TIP3    H157519   4.662   4.688   7.642
19213TIP3    H257520   4.724   4.657   7.507
19214TIP3   OH257521   4.955   4.797   8.787
19214TIP3    H157522   4.878   4.857   8.792
19214TIP3    H257523   5.000   4.829   8.706
19215TIP3   OH257524   4.784   4.525   7.399
19215TIP3    H157525   4.758   4.524   7.305
19215TIP3    H257526   4.882   4.532   7.392
19216TIP3   OH257527   5.470   5.199   8.920
19216TIP3    H157528   5.553   5.183   8.874
19216TIP3    H257529   5.472   5.132   8.991
19217TIP3   OH257530   5.613   4.860   7.056
19217TIP3    H157531   5.588   4.811   6.975
19217TIP3    H257532   5.580   4.950   7.032
19218TIP3   OH257533   5.081   4.585   8.912
19218TIP3    H157534   5.077   4.504   8.857
19218TIP3    H257535   5.036   4.651   8.855
19219TIP3   OH257536   5.081   4.370   8.718
19219TIP3    H157537   5.107   4.413   8.634
19219TIP3    H257538   4.986   4.348   8.700
19220TIP3   OH257539   5.114   4.910   8.591
19220TIP3    H157540   5.192   4.915   8.535
19220TIP3    H257541   5.055   4.978   8.550
19221TIP3   OH257542   5.690   4.878   8.971
19221TIP3    H157543   5.746   4.805   9.003
19221TIP3    H257544   5.755   4.942   8.939
19222TIP3   OH257545   5.734   5.126   8.709
19222TIP3    H157546   5.674   5.178   8.650
19222TIP3    H257547   5.821   5.147   8.667
19223TIP3   OH257548   4.955   4.701   9.138
19223TIP3    H157549   4.885   4.634   9.153
19223TIP3    H257550   4.990   4.674   9.051
19224TIP3   OH257551   5.212   4.137   8.781
19224TIP3    H157552   5.161   4.219   8.760
19224TIP3    H257553   5.144   4.068   8.769
19225TIP3   OH257554   5.341   4.642   9.000
19225TIP3    H157555   5.328   4.634   9.096
19225TIP3    H257556   5.250   4.617   8.971
19226TIP3   OH257557   5.577   4.580   8.866
19226TIP3    H157558   5.487   4.597   8.902
19226TIP3    H257559   5.626   4.568   8.948
19227TIP3   OH257560   4.794   4.482   9.190
19227TIP3    H157561   4.803   4.391   9.155
19227TIP3    H257562   4.831   4.470   9.280
19228TIP3   OH257563   5.310   4.148   9.037
19228TIP3    H157564   5.375   4.076   9.031
19228TIP3    H257565   5.266   4.141   8.950
19229TIP3   OH257566   5.378   4.363   9.197
19229TIP3    H157567   5.349   4.292   9.135
19229TIP3    H257568   5.300   4.423   9.196
19230TIP3   OH257569   4.592   5.591   7.302
19230TIP3    H157570   4.688   5.589   7.282
19230TIP3    H257571   4.560   5.635   7.221
19231TIP3   OH257572   4.074   4.970   7.520
19231TIP3    H157573   4.168   4.993   7.506
19231TIP3    H257574   4.069   4.882   7.478
19232TIP3   OH257575   3.987   5.584   7.929
19232TIP3    H157576   3.919   5.521   7.896
19232TIP3    H257577   4.031   5.529   7.998
19233TIP3   OH257578   4.123   5.441   8.118
19233TIP3    H157579   4.114   5.363   8.174
19233TIP3    H257580   4.174   5.500   8.176
19234TIP3   OH257581   5.849   5.837   7.916
19234TIP3    H157582   5.877   5.871   8.003
19234TIP3    H257583   5.909   5.884   7.856
19235TIP3   OH257584   5.882   5.857   8.197
19235TIP3    H157585   5.839   5.769   8.193
19235TIP3    H257586   5.956   5.836   8.256
19236TIP3   OH257587   5.928   5.532   8.772
19236TIP3    H157588   5.853   5.540   8.834
19236TIP3    H257589   5.967   5.621   8.776
19237TIP3   OH257590   5.742   5.047   7.393
19237TIP3    H157591   5.812   5.110   7.366
19237TIP3    H257592   5.784   5.006   7.473
19238TIP3   OH257593   5.870   4.914   7.596
19238TIP3    H157594   5.804   4.871   7.654
19238TIP3    H257595   5.933   4.954   7.660
19239TIP3   OH257596   5.923   5.303   8.030
19239TIP3    H157597   5.975   5.242   7.976
19239TIP3    H257598   5.911   5.379   7.970
19240TIP3   OH257599   5.758   5.606   8.225
19240TIP3    H157600   5.687   5.648   8.277
19240TIP3    H257601   5.708   5.557   8.157
19241TIP3   OH257602   5.810   4.821   7.244
19241TIP3    H157603   5.738   4.824   7.177
19241TIP3    H257604   5.782   4.897   7.300
19242TIP3   OH257605   5.682   4.494   7.199
19242TIP3    H157606   5.638   4.534   7.123
19242TIP3    H257607   5.653   4.401   7.190
19243TIP3   OH257608   5.687   4.768   7.745
19243TIP3    H157609   5.693   4.671   7.739
19243TIP3    H257610   5.673   4.782   7.841
19244TIP3   OH257611   4.313   4.843   8.489
19244TIP3    H157612   4.312   4.816   8.395
19244TIP3    H257613   4.410   4.845   8.506
19245TIP3   OH257614   5.974   5.194   8.599
19245TIP3    H157615   6.049   5.130   8.591
19245TIP3    H257616   6.001   5.265   8.538
19246TIP3   OH257617   6.161   5.003   8.624
19246TIP3    H157618   6.087   4.952   8.663
19246TIP3    H257619   6.234   4.938   8.635
19247TIP3   OH257620   5.624   4.229   7.188
19247TIP3    H157621   5.699   4.198   7.242
19247TIP3    H257622   5.551   4.170   7.213
19248TIP3   OH257623   5.682   4.484   7.642
19248TIP3    H157624   5.720   4.395   7.657
19248TIP3    H257625   5.741   4.515   7.571
19249TIP3   OH257626   5.846   4.664   8.135
19249TIP3    H157627   5.932   4.690   8.095
19249TIP3    H257628   5.858   4.699   8.225
19250TIP3   OH257629   5.911   4.804   8.370
19250TIP3    H157630   5.831   4.839   8.415
19250TIP3    H257631   5.943   4.883   8.322
19251TIP3   OH257632   4.528   4.533   9.163
19251TIP3    H157633   4.626   4.525   9.164
19251TIP3    H257634   4.504   4.448   9.205
19252TIP3   OH257635   6.380   4.401   8.927
19252TIP3    H157636   6.423   4.328   8.879
19252TIP3    H257637   6.333   4.448   8.855
19253TIP3   OH257638   5.789   4.232   7.678
19253TIP3    H157639   5.836   4.216   7.762
19253TIP3    H257640   5.728   4.155   7.677
19254TIP3   OH257641   4.490   4.222   8.498
19254TIP3    H157642   4.552   4.147   8.506
19254TIP3    H257643   4.553   4.296   8.491
19255TIP3   OH257644   4.295   4.497   8.571
19255TIP3    H157645   4.344   4.486   8.486
19255TIP3    H257646   4.325   4.585   8.598
19256TIP3   OH257647   6.238   4.534   8.733
19256TIP3    H157648   6.149   4.570   8.752
19256TIP3    H257649   6.213   4.459   8.675
19257TIP3   OH257650   5.875   4.174   7.307
19257TIP3    H157651   5.912   4.098   7.257
19257TIP3    H257652   5.943   4.243   7.295
19258TIP3   OH257653   4.276   4.005   8.074
19258TIP3    H157654   4.181   4.000   8.093
19258TIP3    H257655   4.276   4.060   7.992
19259TIP3   OH257656   5.435   5.702   7.575
19259TIP3    H157657   5.485   5.684   7.493
19259TIP3    H257658   5.491   5.768   7.618
19260TIP3   OH257659   4.497   4.081   8.886
19260TIP3    H157660   4.445   4.074   8.968
19260TIP3    H257661   4.430   4.118   8.825
19261TIP3   OH257662   4.537   5.505   8.963
19261TIP3    H157663   4.446   5.474   8.945
19261TIP3    H257664   4.545   5.486   9.058
19262TIP3   OH257665   4.712   5.534   8.509
19262TIP3    H157666   4.664   5.610   8.470
19262TIP3    H257667   4.799   5.549   8.466
19263TIP3   OH257668   5.163   5.784   8.647
19263TIP3    H157669   5.204   5.786   8.736
19263TIP3    H257670   5.229   5.834   8.595
19264TIP3   OH257671   5.341   5.933   8.503
19264TIP3    H157672   5.413   5.882   8.464
19264TIP3    H257673   5.391   5.990   8.565
19265TIP3   OH257674   6.138   4.301   8.599
19265TIP3    H157675   6.045   4.298   8.572
19265TIP3    H257676   6.163   4.206   8.592
19266TIP3   OH257677   4.393   5.796   8.531
19266TIP3    H157678   4.304   5.832   8.507
19266TIP3    H257679   4.398   5.824   8.623
19267TIP3   OH257680   4.629   5.774   8.388
19267TIP3    H157681   4.543   5.787   8.435
19267TIP3    H257682   4.608   5.807   8.299
19268TIP3   OH257683   5.055   5.806   8.186
19268TIP3    H157684   4.985   5.827   8.121
19268TIP3    H257685   5.067   5.892   8.230
19269TIP3   OH257686   5.322   5.744   8.237
19269TIP3    H157687   5.227   5.760   8.217
19269TIP3    H257688   5.363   5.823   8.198
19270TIP3   OH257689   5.533   5.938   8.156
19270TIP3    H157690   5.518   6.022   8.108
19270TIP3    H257691   5.556   5.876   8.084
19271TIP3   OH257692   4.303   5.590   8.278
19271TIP3    H157693   4.330   5.566   8.370
19271TIP3    H257694   4.375   5.545   8.228
19272TIP3   OH257695   4.494   5.460   8.132
19272TIP3    H157696   4.512   5.376   8.180
19272TIP3    H257697   4.584   5.498   8.126
19273TIP3   OH257698   4.761   5.558   8.133
19273TIP3    H157699   4.793   5.467   8.120
19273TIP3    H257700   4.801   5.578   8.219
19274TIP3   OH257701   5.342   4.215   8.230
19274TIP3    H157702   5.294   4.145   8.277
19274TIP3    H257703   5.403   4.164   8.173
19275TIP3   OH257704   5.866   4.102   8.138
19275TIP3    H157705   5.901   4.147   8.058
19275TIP3    H257706   5.770   4.106   8.124
19276TIP3   OH257707   5.959   4.195   7.896
19276TIP3    H157708   6.030   4.143   7.853
19276TIP3    H257709   5.990   4.287   7.879
19277TIP3   OH257710   4.587   3.923   8.245
19277TIP3    H157711   4.495   3.890   8.242
19277TIP3    H257712   4.637   3.839   8.240
19278TIP3   OH257713   4.371   3.789   7.887
19278TIP3    H157714   4.404   3.847   7.816
19278TIP3    H257715   4.343   3.853   7.954
19279TIP3   OH257716   5.018   3.964   8.121
19279TIP3    H157717   5.086   3.993   8.059
19279TIP3    H257718   5.054   3.992   8.206
19280TIP3   OH257719   5.587   4.099   8.103
19280TIP3    H157720   5.576   4.064   8.014
19280TIP3    H257721   5.569   4.020   8.158
19281TIP3   OH257722   5.606   4.011   7.667
19281TIP3    H157723   5.516   4.047   7.670
19281TIP3    H257724   5.584   3.917   7.686
19282TIP3   OH257725   4.091   5.358   7.672
19282TIP3    H157726   4.007   5.324   7.635
19282TIP3    H257727   4.077   5.453   7.659
19283TIP3   OH257728   4.488   3.951   7.653
19283TIP3    H157729   4.538   3.888   7.597
19283TIP3    H257730   4.561   4.005   7.690
19284TIP3   OH257731   5.002   4.124   7.752
19284TIP3    H157732   5.060   4.068   7.806
19284TIP3    H257733   5.031   4.213   7.780
19285TIP3   OH257734   4.862   5.556   7.249
19285TIP3    H157735   4.951   5.575   7.214
19285TIP3    H257736   4.840   5.479   7.192
19286TIP3   OH257737   5.579   5.667   7.343
19286TIP3    H157738   5.572   5.569   7.330
19286TIP3    H257739   5.536   5.700   7.261
19287TIP3   OH257740   4.794   4.202   9.133
19287TIP3    H157741   4.763   4.131   9.190
19287TIP3    H257742   4.889   4.204   9.159
19288TIP3   OH257743   5.043   4.198   9.252
19288TIP3    H157744   5.127   4.170   9.213
19288TIP3    H257745   5.031   4.133   9.323
19289TIP3   OH257746   4.168   5.391   7.310
19289TIP3    H157747   4.166   5.417   7.403
19289TIP3    H257748   4.256   5.349   7.301
19290TIP3   OH257749   5.811   5.814   8.531
19290TIP3    H157750   5.731   5.780   8.485
19290TIP3    H257751   5.790   5.909   8.533
19291TIP3   OH257752   7.073   5.184   7.299
19291TIP3    H157753   7.047   5.276   7.280
19291TIP3    H257754   6.995   5.137   7.267
19292TIP3   OH257755   7.075   5.183   7.674
19292TIP3    H157756   7.100   5.151   7.762
19292TIP3    H257757   7.029   5.106   7.636
19293TIP3   OH257758   6.374   5.083   8.043
19293TIP3    H157759   6.407   5.016   8.106
19293TIP3    H257760   6.451   5.141   8.035
19294TIP3   OH257761   7.315   5.484   7.358
19294TIP3    H157762   7.301   5.415   7.424
19294TIP3    H257763   7.340   5.560   7.412
19295TIP3   OH257764   6.342   5.489   7.773
19295TIP3    H157765   6.334   5.391   7.776
19295TIP3    H257766   6.438   5.497   7.765
19296TIP3   OH257767   6.051   4.696   7.558
19296TIP3    H157768   6.000   4.779   7.568
19296TIP3    H257769   5.982   4.637   7.524
19297TIP3   OH257770   6.112   4.982   7.723
19297TIP3    H157771   6.159   4.905   7.761
19297TIP3    H257772   6.167   5.003   7.647
19298TIP3   OH257773   6.962   5.949   7.374
19298TIP3    H157774   7.012   5.878   7.328
19298TIP3    H257775   6.956   5.914   7.464
19299TIP3   OH257776   6.872   5.409   7.726
19299TIP3    H157777   6.907   5.334   7.675
19299TIP3    H257778   6.957   5.452   7.749
19300TIP3   OH257779   7.883   4.731   7.723
19300TIP3    H157780   7.910   4.813   7.769
19300TIP3    H257781   7.901   4.755   7.631
19301TIP3   OH257782   7.284   4.914   7.762
19301TIP3    H157783   7.326   4.827   7.781
19301TIP3    H257784   7.254   4.900   7.671
19302TIP3   OH257785   6.619   4.571   7.726
19302TIP3    H157786   6.597   4.643   7.664
19302TIP3    H257787   6.572   4.497   7.682
19303TIP3   OH257788   7.313   4.661   7.351
19303TIP3    H157789   7.386   4.644   7.414
19303TIP3    H257790   7.363   4.698   7.276
19304TIP3   OH257791   6.254   4.775   7.831
19304TIP3    H157792   6.337   4.753   7.878
19304TIP3    H257793   6.264   4.717   7.752
19305TIP3   OH257794   6.697   4.972   7.621
19305TIP3    H157795   6.790   4.944   7.636
19305TIP3    H257796   6.656   4.888   7.590
19306TIP3   OH257797   7.956   4.937   7.894
19306TIP3    H157798   7.873   4.986   7.875
19306TIP3    H257799   7.969   4.961   7.987
19307TIP3   OH257800   6.618   4.555   8.159
19307TIP3    H157801   6.557   4.591   8.092
19307TIP3    H257802   6.567   4.573   8.241
19308TIP3   OH257803   6.971   5.407   7.166
19308TIP3    H157804   6.924   5.382   7.085
19308TIP3    H257805   6.926   5.491   7.188
19309TIP3   OH257806   6.725   5.329   7.959
19309TIP3    H157807   6.660   5.391   7.998
19309TIP3    H257808   6.765   5.382   7.888
19310TIP3   OH257809   7.530   4.660   7.515
19310TIP3    H157810   7.520   4.611   7.597
19310TIP3    H257811   7.582   4.737   7.545
19311TIP3   OH257812   6.488   4.669   7.945
19311TIP3    H157813   6.550   4.742   7.967
19311TIP3    H257814   6.535   4.628   7.869
19312TIP3   OH257815   6.550   5.520   8.052
19312TIP3    H157816   6.524   5.605   8.011
19312TIP3    H257817   6.471   5.506   8.110
19313TIP3   OH257818   5.950   5.211   7.288
19313TIP3    H157819   5.908   5.237   7.204
19313TIP3    H257820   5.978   5.297   7.325
19314TIP3   OH257821   7.389   5.727   7.530
19314TIP3    H157822   7.299   5.718   7.570
19314TIP3    H257823   7.380   5.813   7.484
19315TIP3   OH257824   7.675   4.632   7.891
19315TIP3    H157825   7.587   4.662   7.862
19315TIP3    H257826   7.733   4.662   7.818
19316TIP3   OH257827   6.979   4.276   7.873
19316TIP3    H157828   6.965   4.181   7.888
19316TIP3    H257829   6.900   4.313   7.918
19317TIP3   OH257830   7.096   5.777   7.208
19317TIP3    H157831   7.143   5.694   7.183
19317TIP3    H257832   7.154   5.842   7.162
19318TIP3   OH257833   7.234   5.561   7.105
19318TIP3    H157834   7.187   5.485   7.067
19318TIP3    H257835   7.267   5.524   7.190
19319TIP3   OH257836   7.614   5.644   7.871
19319TIP3    H157837   7.603   5.566   7.813
19319TIP3    H257838   7.597   5.718   7.809
19320TIP3   OH257839   6.904   5.035   7.127
19320TIP3    H157840   6.823   5.087   7.107
19320TIP3    H257841   6.949   5.036   7.040
19321TIP3   OH257842   6.864   4.820   6.848
19321TIP3    H157843   6.933   4.868   6.898
19321TIP3    H257844   6.921   4.755   6.801
19322TIP3   OH257845   7.809   5.277   7.714
19322TIP3    H157846   7.726   5.330   7.722
19322TIP3    H257847   7.837   5.302   7.624
19323TIP3   OH257848   7.251   5.117   7.102
19323TIP3    H157849   7.196   5.144   7.179
19323TIP3    H257850   7.334   5.092   7.148
19324TIP3   OH257851   7.488   5.160   8.008
19324TIP3    H157852   7.484   5.244   8.058
19324TIP3    H257853   7.401   5.163   7.964
19325TIP3   OH257854   6.483   5.118   7.517
19325TIP3    H157855   6.440   5.061   7.449
19325TIP3    H257856   6.561   5.064   7.543
19326TIP3   OH257857   6.613   5.528   7.667
19326TIP3    H157858   6.591   5.482   7.584
19326TIP3    H257859   6.704   5.495   7.684
19327TIP3   OH257860   6.626   5.086   7.872
19327TIP3    H157861   6.654   5.070   7.780
19327TIP3    H257862   6.665   5.174   7.892
19328TIP3   OH257863   7.147   5.725   7.648
19328TIP3    H157864   7.131   5.805   7.702
19328TIP3    H257865   7.132   5.652   7.711
19329TIP3   OH257866   6.757   5.645   8.195
19329TIP3    H157867   6.698   5.707   8.242
19329TIP3    H257868   6.691   5.591   8.147
19330TIP3   OH257869   7.097   4.974   6.926
19330TIP3    H157870   7.152   5.035   6.980
19330TIP3    H257871   7.123   5.000   6.834
19331TIP3   OH257872   6.511   5.203   8.293
19331TIP3    H157873   6.515   5.289   8.341
19331TIP3    H257874   6.415   5.184   8.299
19332TIP3   OH257875   6.834   5.658   7.205
19332TIP3    H157876   6.906   5.718   7.229
19332TIP3    H257877   6.771   5.716   7.160
19333TIP3   OH257878   6.553   5.815   8.281
19333TIP3    H157879   6.517   5.811   8.190
19333TIP3    H257880   6.474   5.793   8.335
19334TIP3   OH257881   7.608   4.219   6.973
19334TIP3    H157882   7.527   4.235   7.026
19334TIP3    H257883   7.618   4.304   6.926
19335TIP3   OH257884   6.349   4.959   7.324
19335TIP3    H157885   6.287   5.006   7.264
19335TIP3    H257886   6.304   4.874   7.335
19336TIP3   OH257887   7.405   5.587   6.519
19336TIP3    H157888   7.412   5.684   6.508
19336TIP3    H257889   7.498   5.559   6.509
19337TIP3   OH257890   6.132   5.343   8.229
19337TIP3    H157891   6.068   5.321   8.159
19337TIP3    H257892   6.168   5.256   8.254
19338TIP3   OH257893   5.985   5.535   7.864
19338TIP3    H157894   6.081   5.530   7.853
19338TIP3    H257895   5.976   5.616   7.916
19339TIP3   OH257896   7.851   5.985   7.914
19339TIP3    H157897   7.849   5.889   7.929
19339TIP3    H257898   7.768   6.011   7.960
19340TIP3   OH257899   6.957   5.774   8.051
19340TIP3    H157900   6.958   5.866   8.084
19340TIP3    H257901   6.886   5.736   8.106
19341TIP3   OH257902   6.716   5.903   6.999
19341TIP3    H157903   6.665   5.877   6.920
19341TIP3    H257904   6.681   5.992   7.018
19342TIP3   OH257905   6.153   5.755   7.385
19342TIP3    H157906   6.202   5.743   7.470
19342TIP3    H257907   6.092   5.679   7.390
19343TIP3   OH257908   6.918   5.806   6.646
19343TIP3    H157909   6.979   5.738   6.609
19343TIP3    H257910   6.949   5.812   6.738
19344TIP3   OH257911   6.968   5.852   6.917
19344TIP3    H157912   6.878   5.861   6.955
19344TIP3    H257913   7.013   5.804   6.988
19345TIP3   OH257914   7.742   5.119   8.190
19345TIP3    H157915   7.661   5.135   8.138
19345TIP3    H257916   7.755   5.023   8.179
19346TIP3   OH257917   6.337   5.526   8.221
19346TIP3    H157918   6.387   5.509   8.303
19346TIP3    H257919   6.263   5.462   8.228
19347TIP3   OH257920   6.737   4.351   7.997
19347TIP3    H157921   6.647   4.318   7.974
19347TIP3    H257922   6.712   4.434   8.042
19348TIP3   OH257923   7.267   4.467   8.194
19348TIP3    H157924   7.335   4.439   8.259
19348TIP3    H257925   7.183   4.446   8.239
19349TIP3   OH257926   7.513   4.895   8.114
19349TIP3    H157927   7.462   4.890   8.198
19349TIP3    H257928   7.486   4.982   8.079
19350TIP3   OH257929   7.168   5.023   6.669
19350TIP3    H157930   7.137   4.997   6.580
19350TIP3    H257931   7.241   5.083   6.646
19351TIP3   OH257932   6.885   4.400   6.971
19351TIP3    H157933   6.851   4.399   7.063
19351TIP3    H257934   6.844   4.317   6.938
19352TIP3   OH257935   6.668   4.864   8.021
19352TIP3    H157936   6.616   4.887   8.100
19352TIP3    H257937   6.653   4.944   7.965
19353TIP3   OH257938   6.552   4.750   7.534
19353TIP3    H157939   6.459   4.726   7.550
19353TIP3    H257940   6.565   4.711   7.445
19354TIP3   OH257941   7.043   4.838   7.260
19354TIP3    H157942   6.987   4.909   7.221
19354TIP3    H257943   7.095   4.811   7.182
19355TIP3   OH257944   7.217   5.119   8.349
19355TIP3    H157945   7.195   5.045   8.410
19355TIP3    H257946   7.310   5.133   8.370
19356TIP3   OH257947   7.202   4.869   7.501
19356TIP3    H157948   7.143   4.900   7.430
19356TIP3    H257949   7.231   4.785   7.460
19357TIP3   OH257950   6.488   4.895   8.229
19357TIP3    H157951   6.510   4.960   8.297
19357TIP3    H257952   6.475   4.813   8.280
19358TIP3   OH257953   6.537   4.371   6.938
19358TIP3    H157954   6.531   4.367   7.036
19358TIP3    H257955   6.456   4.421   6.917
19359TIP3   OH257956   6.079   4.421   7.809
19359TIP3    H157957   6.158   4.447   7.860
19359TIP3    H257958   6.114   4.383   7.727
19360TIP3   OH257959   6.061   4.400   7.329
19360TIP3    H157960   6.105   4.439   7.251
19360TIP3    H257961   5.998   4.471   7.350
19361TIP3   OH257962   7.213   5.115   7.926
19361TIP3    H157963   7.244   5.041   7.869
19361TIP3    H257964   7.182   5.064   8.004
19362TIP3   OH257965   6.877   4.575   7.596
19362TIP3    H157966   6.792   4.571   7.645
19362TIP3    H257967   6.940   4.578   7.669
19363TIP3   OH257968   6.313   4.628   7.605
19363TIP3    H157969   6.219   4.636   7.579
19363TIP3    H257970   6.335   4.536   7.581
19364TIP3   OH257971   6.587   4.628   7.290
19364TIP3    H157972   6.681   4.643   7.267
19364TIP3    H257973   6.539   4.650   7.207
19365TIP3   OH257974   7.370   4.648   7.795
19365TIP3    H157975   7.335   4.661   7.886
19365TIP3    H257976   7.305   4.585   7.759
19366TIP3   OH257977   6.421   4.656   7.073
19366TIP3    H157978   6.345   4.616   7.027
19366TIP3    H257979   6.471   4.692   6.997
19367TIP3   OH257980   7.536   6.338   8.014
19367TIP3    H157981   7.537   6.360   7.920
19367TIP3    H257982   7.615   6.385   8.046
19368TIP3   OH257983   6.498   5.448   8.439
19368TIP3    H157984   6.578   5.479   8.487
19368TIP3    H257985   6.433   5.448   8.511
19369TIP3   OH257986   6.963   4.900   7.693
19369TIP3    H157987   7.034   4.860   7.641
19369TIP3    H257988   6.976   4.860   7.781
19370TIP3   OH257989   6.491   4.390   7.568
19370TIP3    H157990   6.456   4.310   7.612
19370TIP3    H257991   6.541   4.354   7.493
19371TIP3   OH257992   6.940   4.794   7.985
19371TIP3    H157993   6.850   4.832   7.995
19371TIP3    H257994   6.997   4.856   8.035
19372TIP3   OH257995   6.677   5.189   7.080
19372TIP3    H157996   6.603   5.125   7.067
19372TIP3    H257997   6.657   5.223   7.170
19373TIP3   OH257998   7.579   5.425   7.709
19373TIP3    H157999   7.601   5.474   7.627
19373TIP3    H258000   7.492   5.384   7.687
19374TIP3   OH258001   7.135   4.505   6.932
19374TIP3    H158002   7.038   4.487   6.943
19374TIP3    H258003   7.144   4.598   6.960
19375TIP3   OH258004   7.079   5.508   8.074
19375TIP3    H158005   7.092   5.482   8.166
19375TIP3    H258006   7.037   5.595   8.082
19376TIP3   OH258007   7.206   4.747   7.040
19376TIP3    H158008   7.302   4.755   7.057
19376TIP3    H258009   7.186   4.828   6.989
19377TIP3   OH258010   6.369   5.211   7.756
19377TIP3    H158011   6.404   5.182   7.670
19377TIP3    H258012   6.402   5.142   7.816
19378TIP3   OH258013   6.827   5.343   6.908
19378TIP3    H158014   6.778   5.429   6.909
19378TIP3    H258015   6.767   5.287   6.961
19379TIP3   OH258016   6.246   5.132   8.366
19379TIP3    H158017   6.268   5.118   8.461
19379TIP3    H258018   6.177   5.065   8.352
19380TIP3   OH258019   6.972   5.243   8.387
19380TIP3    H158020   6.913   5.186   8.334
19380TIP3    H258021   7.060   5.211   8.358
19381TIP3   OH258022   7.238   5.768   7.968
19381TIP3    H158023   7.142   5.764   7.980
19381TIP3    H258024   7.265   5.818   8.047
19382TIP3   OH258025   7.650   4.834   6.877
19382TIP3    H158026   7.586   4.790   6.816
19382TIP3    H258027   7.645   4.924   6.838
19383TIP3   OH258028   7.864   5.693   7.961
19383TIP3    H158029   7.766   5.690   7.953
19383TIP3    H258030   7.889   5.664   7.870
19384TIP3   OH258031   7.353   5.655   6.787
19384TIP3    H158032   7.318   5.589   6.848
19384TIP3    H258033   7.354   5.608   6.702
19385TIP3   OH258034   7.342   5.286   7.631
19385TIP3    H158035   7.249   5.260   7.643
19385TIP3    H258036   7.376   5.208   7.583
19386TIP3   OH258037   6.467   5.513   7.381
19386TIP3    H158038   6.471   5.594   7.325
19386TIP3    H258039   6.373   5.496   7.381
19387TIP3   OH258040   6.030   4.819   7.078
19387TIP3    H158041   6.077   4.902   7.098
19387TIP3    H258042   5.953   4.825   7.139
19388TIP3   OH258043   6.615   5.283   7.328
19388TIP3    H158044   6.576   5.372   7.342
19388TIP3    H258045   6.573   5.232   7.400
19389TIP3   OH258046   6.736   5.859   7.850
19389TIP3    H158047   6.776   5.931   7.798
19389TIP3    H258048   6.813   5.825   7.899
19390TIP3   OH258049   6.390   5.753   7.234
19390TIP3    H158050   6.303   5.760   7.277
19390TIP3    H258051   6.419   5.846   7.234
19391TIP3   OH258052   7.130   5.492   7.806
19391TIP3    H158053   7.121   5.490   7.904
19391TIP3    H258054   7.209   5.439   7.792
19392TIP3   OH258055   7.100   5.384   6.685
19392TIP3    H158056   7.144   5.359   6.769
19392TIP3    H258057   7.008   5.359   6.704
19393TIP3   OH258058   7.376   6.028   7.857
19393TIP3    H158059   7.298   5.971   7.850
19393TIP3    H258060   7.359   6.093   7.785
19394TIP3   OH258061   7.441   5.863   6.508
19394TIP3    H158062   7.472   5.939   6.456
19394TIP3    H258063   7.359   5.903   6.544
19395TIP3   OH258064   6.461   4.637   8.378
19395TIP3    H158065   6.365   4.642   8.391
19395TIP3    H258066   6.487   4.573   8.446
19396TIP3   OH258067   7.258   5.318   6.907
19396TIP3    H158068   7.248   5.253   6.979
19396TIP3    H258069   7.355   5.317   6.895
19397TIP3   OH258070   6.177   5.724   8.008
19397TIP3    H158071   6.226   5.645   8.035
19397TIP3    H258072   6.207   5.787   8.075
19398TIP3   OH258073   6.398   5.372   6.986
19398TIP3    H158074   6.486   5.345   7.014
19398TIP3    H258075   6.412   5.466   6.963
19399TIP3   OH258076   6.152   5.066   7.163
19399TIP3    H158077   6.086   5.111   7.219
19399TIP3    H258078   6.168   5.136   7.096
19400TIP3   OH258079   7.295   4.701   8.053
19400TIP3    H158080   7.374   4.740   8.096
19400TIP3    H258081   7.278   4.622   8.108
19401TIP3   OH258082   7.176   4.456   7.216
19401TIP3    H158083   7.160   4.481   7.123
19401TIP3    H258084   7.212   4.538   7.254
19402TIP3   OH258085   6.679   5.570   6.909
19402TIP3    H158086   6.591   5.595   6.943
19402TIP3    H258087   6.687   5.633   6.836
19403TIP3   OH258088   6.872   4.629   7.321
19403TIP3    H158089   6.935   4.703   7.304
19403TIP3    H258090   6.872   4.625   7.419
19404TIP3   OH258091   7.135   4.953   8.131
19404TIP3    H158092   7.150   5.008   8.211
19404TIP3    H258093   7.192   4.876   8.149
19405TIP3   OH258094   7.015   4.366   7.429
19405TIP3    H158095   7.004   4.444   7.486
19405TIP3    H258096   7.073   4.402   7.358
19406TIP3   OH258097   6.423   5.647   6.972
19406TIP3    H158098   6.390   5.715   6.910
19406TIP3    H258099   6.404   5.688   7.059
19407TIP3   OH258100   6.522   4.355   7.215
19407TIP3    H158101   6.520   4.446   7.250
19407TIP3    H258102   6.618   4.337   7.224
19408TIP3   OH258103   7.779   4.850   8.110
19408TIP3    H158104   7.681   4.849   8.118
19408TIP3    H258105   7.788   4.813   8.021
19409TIP3   OH258106   7.428   5.046   7.498
19409TIP3    H158107   7.351   4.987   7.511
19409TIP3    H258108   7.499   4.999   7.546
19410TIP3   OH258109   6.136   5.279   6.968
19410TIP3    H158110   6.205   5.347   6.984
19410TIP3    H258111   6.183   5.227   6.900
19411TIP3   OH258112   6.087   4.551   7.100
19411TIP3    H158113   6.082   4.648   7.096
19411TIP3    H258114   6.000   4.525   7.066
19412TIP3   OH258115   7.395   5.999   7.450
19412TIP3    H158116   7.352   6.046   7.376
19412TIP3    H258117   7.489   6.018   7.429
19413TIP3   OH258118   6.472   4.271   7.978
19413TIP3    H158119   6.440   4.238   7.892
19413TIP3    H258120   6.461   4.192   8.035
19414TIP3   OH258121   6.016   5.493   7.365
19414TIP3    H158122   5.933   5.523   7.405
19414TIP3    H258123   6.003   5.525   7.273
19415TIP3   OH258124   6.164   6.025   8.428
19415TIP3    H158125   6.250   6.024   8.475
19415TIP3    H258126   6.142   5.930   8.427
19416TIP3   OH258127   6.653   5.999   8.471
19416TIP3    H158128   6.746   5.976   8.480
19416TIP3    H258129   6.627   5.941   8.397
19417TIP3   OH258130   7.290   5.899   8.205
19417TIP3    H158131   7.279   5.830   8.274
19417TIP3    H258132   7.366   5.950   8.237
19418TIP3   OH258133   7.075   5.623   6.516
19418TIP3    H158134   7.107   5.546   6.567
19418TIP3    H258135   7.124   5.614   6.432
19419TIP3   OH258136   6.298   5.434   8.629
19419TIP3    H158137   6.314   5.338   8.632
19419TIP3    H258138   6.209   5.438   8.587
19420TIP3   OH258139   6.272   5.088   6.818
19420TIP3    H158140   6.327   5.058   6.891
19420TIP3    H258141   6.341   5.100   6.749
19421TIP3   OH258142   6.907   5.519   8.401
19421TIP3    H158143   6.863   5.532   8.315
19421TIP3    H258144   6.937   5.425   8.396
19422TIP3   OH258145   6.795   5.278   6.622
19422TIP3    H158146   6.769   5.307   6.711
19422TIP3    H258147   6.769   5.184   6.624
19423TIP3   OH258148   7.399   5.523   8.007
19423TIP3    H158149   7.471   5.573   7.963
19423TIP3    H258150   7.325   5.586   7.997
19424TIP3   OH258151   6.415   5.165   8.610
19424TIP3    H158152   6.490   5.107   8.593
19424TIP3    H258153   6.438   5.201   8.698
19425TIP3   OH258154   6.488   4.987   7.049
19425TIP3    H158155   6.456   4.944   7.129
19425TIP3    H258156   6.518   4.912   6.995
19426TIP3   OH258157   6.752   5.054   8.274
19426TIP3    H158158   6.674   5.114   8.278
19426TIP3    H258159   6.797   5.086   8.193
19427TIP3   OH258160   6.580   4.778   6.886
19427TIP3    H158161   6.553   4.784   6.792
19427TIP3    H258162   6.677   4.791   6.878
19428TIP3   OH258163   7.267   5.456   8.408
19428TIP3    H158164   7.349   5.439   8.360
19428TIP3    H258165   7.268   5.387   8.476
19429TIP3   OH258166   7.413   5.116   6.541
19429TIP3    H158167   7.384   5.069   6.461
19429TIP3    H258168   7.378   5.206   6.520
19430TIP3   OH258169   6.875   4.840   8.400
19430TIP3    H158170   6.873   4.760   8.344
19430TIP3    H258171   6.831   4.907   8.342
19431TIP3   OH258172   6.877   4.626   8.205
19431TIP3    H158173   6.903   4.669   8.121
19431TIP3    H258174   6.783   4.604   8.187
19432TIP3   OH258175   6.910   5.166   8.078
19432TIP3    H158176   6.989   5.172   8.022
19432TIP3    H258177   6.852   5.234   8.037
19433TIP3   OH258178   7.489   5.132   8.462
19433TIP3    H158179   7.540   5.050   8.470
19433TIP3    H258180   7.557   5.194   8.430
19434TIP3   OH258181   7.530   5.383   8.196
19434TIP3    H158182   7.471   5.435   8.137
19434TIP3    H258183   7.617   5.403   8.155
19435TIP3   OH258184   6.752   4.959   8.627
19435TIP3    H158185   6.682   4.891   8.641
19435TIP3    H258186   6.786   4.933   8.539
19436TIP3   OH258187   7.010   4.396   8.277
19436TIP3    H158188   6.961   4.477   8.251
19436TIP3    H258189   6.942   4.327   8.261
19437TIP3   OH258190   7.136   4.900   8.487
19437TIP3    H158191   7.127   4.888   8.584
19437TIP3    H258192   7.045   4.874   8.460
19438TIP3   OH258193   7.375   4.844   8.342
19438TIP3    H158194   7.299   4.849   8.403
19438TIP3    H258195   7.448   4.815   8.401
19439TIP3   OH258196   7.605   4.785   8.495
19439TIP3    H158197   7.615   4.690   8.517
19439TIP3    H258198   7.600   4.828   8.583
19440TIP3   OH258199   6.591   4.740   8.678
19440TIP3    H158200   6.597   4.650   8.641
19440TIP3    H258201   6.624   4.725   8.769
19441TIP3   OH258202   7.099   4.385   8.537
19441TIP3    H158203   7.176   4.330   8.513
19441TIP3    H258204   7.055   4.392   8.450
19442TIP3   OH258205   7.176   4.619   8.679
19442TIP3    H158206   7.143   4.546   8.624
19442TIP3    H258207   7.097   4.676   8.687
19443TIP3   OH258208   6.389   5.853   6.792
19443TIP3    H158209   6.482   5.836   6.767
19443TIP3    H258210   6.358   5.892   6.708
19444TIP3   OH258211   5.870   5.227   7.008
19444TIP3    H158212   5.964   5.251   6.993
19444TIP3    H258213   5.866   5.139   6.965
19445TIP3   OH258214   5.782   5.841   7.417
19445TIP3    H158215   5.715   5.778   7.382
19445TIP3    H258216   5.826   5.786   7.484
19446TIP3   OH258217   5.918   5.699   7.605
19446TIP3    H158218   5.909   5.620   7.659
19446TIP3    H258219   5.970   5.756   7.664
19447TIP3   OH258220   7.645   6.094   7.402
19447TIP3    H158221   7.673   6.126   7.490
19447TIP3    H258222   7.706   6.140   7.342
19448TIP3   OH258223   7.679   6.114   7.684
19448TIP3    H158224   7.635   6.026   7.680
19448TIP3    H258225   7.752   6.092   7.744
19449TIP3   OH258226   7.723   5.789   8.258
19449TIP3    H158227   7.649   5.797   8.321
19449TIP3    H258228   7.764   5.878   8.263
19450TIP3   OH258229   7.541   5.302   6.880
19450TIP3    H158230   7.610   5.367   6.855
19450TIP3    H258231   7.580   5.262   6.960
19451TIP3   OH258232   7.667   5.170   7.083
19451TIP3    H158233   7.601   5.128   7.141
19451TIP3    H258234   7.729   5.211   7.146
19452TIP3   OH258235   7.719   5.560   7.517
19452TIP3    H158236   7.772   5.499   7.462
19452TIP3    H258237   7.706   5.635   7.456
19453TIP3   OH258238   7.554   5.863   7.712
19453TIP3    H158239   7.483   5.904   7.764
19453TIP3    H258240   7.503   5.814   7.644
19454TIP3   OH258241   7.606   5.077   6.731
19454TIP3    H158242   7.535   5.081   6.663
19454TIP3    H258243   7.579   5.153   6.787
19455TIP3   OH258244   7.481   4.748   6.683
19455TIP3    H158245   7.433   4.794   6.614
19455TIP3    H258246   7.450   4.656   6.672
19456TIP3   OH258247   7.484   5.024   7.232
19456TIP3    H158248   7.489   4.928   7.228
19456TIP3    H258249   7.470   5.041   7.328
19457TIP3   OH258250   6.109   5.099   7.976
19457TIP3    H158251   6.108   5.072   7.882
19457TIP3    H258252   6.206   5.101   7.993
19458TIP3   OH258253   7.770   5.450   8.086
19458TIP3    H158254   7.844   5.386   8.078
19458TIP3    H258255   7.798   5.521   8.026
19459TIP3   OH258256   7.958   5.259   8.109
19459TIP3    H158257   7.883   5.209   8.148
19459TIP3    H258258   8.030   5.195   8.121
19460TIP3   OH258259   7.422   4.482   6.670
19460TIP3    H158260   7.494   4.455   6.730
19460TIP3    H258261   7.346   4.428   6.699
19461TIP3   OH258262   7.477   4.741   7.129
19461TIP3    H158263   7.517   4.652   7.144
19461TIP3    H258264   7.536   4.774   7.059
19462TIP3   OH258265   7.641   4.919   7.621
19462TIP3    H158266   7.727   4.946   7.582
19462TIP3    H258267   7.653   4.955   7.711
19463TIP3   OH258268   7.706   5.059   7.855
19463TIP3    H158269   7.628   5.094   7.902
19463TIP3    H258270   7.739   5.140   7.809
19464TIP3   OH258271   6.323   4.787   8.652
19464TIP3    H158272   6.421   4.781   8.651
19464TIP3    H258273   6.301   4.701   8.693
19465TIP3   OH258274   8.161   4.648   8.411
19465TIP3    H158275   8.218   4.583   8.366
19465TIP3    H258276   8.133   4.706   8.336
19466TIP3   OH258277   7.588   4.490   7.162
19466TIP3    H158278   7.634   4.475   7.247
19466TIP3    H258279   7.526   4.414   7.162
19467TIP3   OH258280   6.287   4.478   7.984
19467TIP3    H158281   6.349   4.403   7.993
19467TIP3    H258282   6.349   4.553   7.978
19468TIP3   OH258283   6.093   4.754   8.059
19468TIP3    H158284   6.139   4.742   7.973
19468TIP3    H258285   6.121   4.843   8.083
19469TIP3   OH258286   8.034   4.793   8.219
19469TIP3    H158287   7.946   4.831   8.241
19469TIP3    H258288   8.006   4.723   8.157
19470TIP3   OH258289   7.670   4.431   6.795
19470TIP3    H158290   7.710   4.356   6.745
19470TIP3    H258291   7.737   4.501   6.785
19471TIP3   OH258292   6.072   4.265   7.562
19471TIP3    H158293   5.977   4.255   7.581
19471TIP3    H258294   6.071   4.318   7.479
19472TIP3   OH258295   7.234   5.957   7.063
19472TIP3    H158296   7.282   5.940   6.980
19472TIP3    H258297   7.288   6.026   7.104
19473TIP3   OH258298   6.294   4.337   8.371
19473TIP3    H158299   6.243   4.333   8.454
19473TIP3    H258300   6.227   4.375   8.311
19474TIP3   OH258301   6.333   5.761   8.451
19474TIP3    H158302   6.242   5.731   8.432
19474TIP3    H258303   6.340   5.744   8.546
19475TIP3   OH258304   6.509   5.791   7.996
19475TIP3    H158305   6.460   5.866   7.957
19475TIP3    H258306   6.595   5.806   7.952
19476TIP3   OH258307   6.959   6.040   8.134
19476TIP3    H158308   7.000   6.043   8.223
19476TIP3    H258309   7.025   6.091   8.082
19477TIP3   OH258310   7.137   6.190   7.990
19477TIP3    H158311   7.209   6.138   7.951
19477TIP3    H258312   7.187   6.247   8.052
19478TIP3   OH258313   7.930   4.555   8.093
19478TIP3    H158314   7.838   4.553   8.060
19478TIP3    H258315   7.956   4.461   8.080
19479TIP3   OH258316   6.189   6.054   8.017
19479TIP3    H158317   6.100   6.089   7.993
19479TIP3    H258318   6.193   6.079   8.110
19480TIP3   OH258319   6.425   6.031   7.876
19480TIP3    H158320   6.339   6.044   7.922
19480TIP3    H258321   6.404   6.063   7.786
19481TIP3   OH258322   6.851   6.062   7.673
19481TIP3    H158323   6.781   6.083   7.608
19481TIP3    H258324   6.863   6.149   7.716
19482TIP3   OH258325   7.118   6.001   7.724
19482TIP3    H158326   7.023   6.016   7.704
19482TIP3    H258327   7.158   6.080   7.684
19483TIP3   OH258328   7.331   6.196   7.643
19483TIP3    H158329   7.315   6.279   7.594
19483TIP3    H258330   7.352   6.133   7.570
19484TIP3   OH258331   6.100   5.848   7.766
19484TIP3    H158332   6.126   5.822   7.857
19484TIP3    H258333   6.170   5.802   7.715
19485TIP3   OH258334   6.290   5.717   7.619
19485TIP3    H158335   6.308   5.633   7.666
19485TIP3    H258336   6.380   5.755   7.612
19486TIP3   OH258337   6.557   5.816   7.620
19486TIP3    H158338   6.588   5.724   7.605
19486TIP3    H258339   6.597   5.833   7.707
19487TIP3   OH258340   7.137   4.471   7.713
19487TIP3    H158341   7.090   4.403   7.765
19487TIP3    H258342   7.202   4.418   7.664
19488TIP3   OH258343   7.662   4.349   7.618
19488TIP3    H158344   7.697   4.402   7.543
19488TIP3    H258345   7.566   4.364   7.612
19489TIP3   OH258346   7.755   4.451   7.380
19489TIP3    H158347   7.828   4.401   7.339
19489TIP3    H258348   7.786   4.544   7.366
19490TIP3   OH258349   6.384   4.179   7.730
19490TIP3    H158350   6.291   4.146   7.729
19490TIP3    H258351   6.432   4.093   7.726
19491TIP3   OH258352   6.171   4.046   7.374
19491TIP3    H158353   6.198   4.106   7.302
19491TIP3    H258354   6.137   4.108   7.440
19492TIP3   OH258355   6.825   4.211   7.606
19492TIP3    H158356   6.886   4.264   7.552
19492TIP3    H258357   6.840   4.248   7.694
19493TIP3   OH258358   7.382   4.355   7.592
19493TIP3    H158359   7.368   4.322   7.502
19493TIP3    H258360   7.363   4.275   7.646
19494TIP3   OH258361   7.404   4.277   7.153
19494TIP3    H158362   7.316   4.318   7.161
19494TIP3    H258363   7.389   4.193   7.202
19495TIP3   OH258364   5.886   5.615   7.161
19495TIP3    H158365   5.803   5.580   7.123
19495TIP3    H258366   5.873   5.709   7.144
19496TIP3   OH258367   6.283   4.209   7.138
19496TIP3    H158368   6.333   4.145   7.084
19496TIP3    H258369   6.356   4.262   7.177
19497TIP3   OH258370   6.800   4.381   7.237
19497TIP3    H158371   6.857   4.332   7.298
19497TIP3    H258372   6.823   4.473   7.263
19498TIP3   OH258373   6.651   5.790   6.726
19498TIP3    H158374   6.740   5.810   6.689
19498TIP3    H258375   6.615   5.735   6.652
19499TIP3   OH258376   7.376   5.923   6.829
19499TIP3    H158377   7.369   5.825   6.816
19499TIP3    H258378   7.330   5.955   6.750
19500TIP3   OH258379   6.588   4.461   8.617
19500TIP3    H158380   6.554   4.392   8.676
19500TIP3    H258381   6.682   4.463   8.645
19501TIP3   OH258382   6.835   4.462   8.736
19501TIP3    H158383   6.914   4.434   8.687
19501TIP3    H258384   6.829   4.393   8.806
19502TIP3   OH258385   5.964   5.646   6.796
19502TIP3    H158386   5.964   5.672   6.889
19502TIP3    H258387   6.052   5.603   6.786
19503TIP3   OH258388   7.663   4.512   8.527
19503TIP3    H158389   7.686   4.484   8.618
19503TIP3    H258390   7.751   4.511   8.483
19504TIP3   OH258391   7.607   6.071   8.017
19504TIP3    H158392   7.527   6.037   7.972
19504TIP3    H258393   7.585   6.166   8.020
19505TIP3   OH258394   8.870   5.440   6.787
19505TIP3    H158395   8.844   5.532   6.769
19505TIP3    H258396   8.790   5.394   6.755
19506TIP3   OH258397   8.868   5.440   7.161
19506TIP3    H158398   8.897   5.410   7.249
19506TIP3    H258399   8.825   5.360   7.126
19507TIP3   OH258400   8.171   5.338   7.528
19507TIP3    H158401   8.202   5.272   7.593
19507TIP3    H258402   8.246   5.399   7.526
19508TIP3   OH258403   9.109   5.742   6.845
19508TIP3    H158404   9.099   5.672   6.911
19508TIP3    H258405   9.138   5.817   6.899
19509TIP3   OH258406   8.137   5.745   7.258
19509TIP3    H158407   8.129   5.647   7.262
19509TIP3    H258408   8.234   5.754   7.254
19510TIP3   OH258409   7.848   4.952   7.044
19510TIP3    H158410   7.799   5.036   7.057
19510TIP3    H258411   7.776   4.895   7.012
19511TIP3   OH258412   7.908   5.238   7.209
19511TIP3    H158413   7.955   5.162   7.249
19511TIP3    H258414   7.966   5.262   7.136
19512TIP3   OH258415   8.757   6.206   6.859
19512TIP3    H158416   8.808   6.133   6.817
19512TIP3    H258417   8.750   6.175   6.950
19513TIP3   OH258418   8.669   5.666   7.212
19513TIP3    H158419   8.706   5.589   7.164
19513TIP3    H258420   8.753   5.710   7.236
19514TIP3   OH258421   9.675   4.988   7.209
19514TIP3    H158422   9.705   5.068   7.256
19514TIP3    H258423   9.702   5.009   7.118
19515TIP3   OH258424   9.079   5.170   7.249
19515TIP3    H158425   9.122   5.085   7.269
19515TIP3    H258426   9.050   5.155   7.157
19516TIP3   OH258427   8.414   4.827   7.213
19516TIP3    H158428   8.394   4.900   7.151
19516TIP3    H258429   8.366   4.754   7.168
19517TIP3   OH258430   9.109   4.917   6.836
19517TIP3    H158431   9.182   4.901   6.901
19517TIP3    H258432   9.160   4.954   6.763
19518TIP3   OH258433   8.051   5.031   7.318
19518TIP3    H158434   8.133   5.011   7.366
19518TIP3    H258435   8.062   4.974   7.239
19519TIP3   OH258436   8.493   5.228   7.106
19519TIP3    H158437   8.586   5.202   7.123
19519TIP3    H258438   8.453   5.144   7.077
19520TIP3   OH258439   9.748   5.189   7.383
19520TIP3    H158440   9.668   5.243   7.366
19520TIP3    H258441   9.777   5.226   7.469
19521TIP3   OH258442   8.414   4.811   7.645
19521TIP3    H158443   8.353   4.849   7.579
19521TIP3    H258444   8.364   4.828   7.728
19522TIP3   OH258445   8.766   5.662   6.655
19522TIP3    H158446   8.720   5.637   6.574
19522TIP3    H258447   8.723   5.748   6.675
19523TIP3   OH258448   8.521   5.585   7.446
19523TIP3    H158449   8.455   5.648   7.485
19523TIP3    H258450   8.561   5.640   7.376
19524TIP3   OH258451   9.324   4.918   7.003
19524TIP3    H158452   9.318   4.868   7.086
19524TIP3    H258453   9.379   4.994   7.029
19525TIP3   OH258454   8.283   4.926   7.431
19525TIP3    H158455   8.346   4.999   7.455
19525TIP3    H258456   8.332   4.885   7.357
19526TIP3   OH258457   8.345   5.776   7.539
19526TIP3    H158458   8.320   5.862   7.499
19526TIP3    H258459   8.267   5.762   7.597
19527TIP3   OH258460   7.749   5.468   6.775
19527TIP3    H158461   7.699   5.496   6.695
19527TIP3    H258462   7.775   5.554   6.814
19528TIP3   OH258463   9.184   5.983   7.017
19528TIP3    H158464   9.094   5.975   7.056
19528TIP3    H258465   9.176   6.069   6.971
19529TIP3   OH258466   9.471   4.886   7.376
19529TIP3    H158467   9.385   4.920   7.348
19529TIP3    H258468   9.531   4.919   7.306
19530TIP3   OH258469   8.774   4.533   7.358
19530TIP3    H158470   8.762   4.438   7.375
19530TIP3    H258471   8.696   4.570   7.404
19531TIP3   OH258472   8.892   6.033   6.692
19531TIP3    H158473   8.941   5.951   6.668
19531TIP3    H258474   8.949   6.100   6.649
19532TIP3   OH258475   9.030   5.818   6.592
19532TIP3    H158476   8.989   5.740   6.552
19532TIP3    H258477   9.063   5.781   6.677
19533TIP3   OH258478   9.406   5.905   7.360
19533TIP3    H158479   9.401   5.824   7.304
19533TIP3    H258480   9.393   5.976   7.294
19534TIP3   OH258481   8.699   5.291   6.613
19534TIP3    H158482   8.619   5.343   6.590
19534TIP3    H258483   8.747   5.291   6.528
19535TIP3   OH258484   8.661   5.074   6.335
19535TIP3    H158485   8.728   5.125   6.384
19535TIP3    H258486   8.719   5.011   6.287
19536TIP3   OH258487   9.609   5.538   7.203
19536TIP3    H158488   9.525   5.589   7.212
19536TIP3    H258489   9.633   5.559   7.110
19537TIP3   OH258490   9.047   5.373   6.589
19537TIP3    H158491   8.993   5.400   6.667
19537TIP3    H258492   9.131   5.348   6.633
19538TIP3   OH258493   9.283   5.416   7.496
19538TIP3    H158494   9.283   5.500   7.545
19538TIP3    H258495   9.197   5.422   7.451
19539TIP3   OH258496   8.281   5.374   7.003
19539TIP3    H158497   8.239   5.316   6.935
19539TIP3    H258498   8.358   5.321   7.030
19540TIP3   OH258499   8.411   5.784   7.152
19540TIP3    H158500   8.390   5.734   7.073
19540TIP3    H258501   8.502   5.753   7.172
19541TIP3   OH258502   8.422   5.343   7.358
19541TIP3    H158503   8.452   5.328   7.266
19541TIP3    H258504   8.461   5.430   7.379
19542TIP3   OH258505   8.942   5.982   7.134
19542TIP3    H158506   8.927   6.062   7.188
19542TIP3    H258507   8.928   5.909   7.198
19543TIP3   OH258508   8.552   5.903   7.681
19543TIP3    H158509   8.493   5.965   7.729
19543TIP3    H258510   8.486   5.848   7.634
19544TIP3   OH258511   8.891   5.232   6.413
19544TIP3    H158512   8.948   5.291   6.467
19544TIP3    H258513   8.918   5.258   6.321
19545TIP3   OH258514   8.306   5.461   7.777
19545TIP3    H158515   8.311   5.545   7.827
19545TIP3    H258516   8.211   5.441   7.788
19546TIP3   OH258517   8.630   5.917   6.685
19546TIP3    H158518   8.705   5.970   6.715
19546TIP3    H258519   8.566   5.984   6.657
19547TIP3   OH258520   8.348   6.076   7.769
19547TIP3    H158521   8.314   6.070   7.678
19547TIP3    H258522   8.269   6.050   7.823
19548TIP3   OH258523   9.404   4.476   6.459
19548TIP3    H158524   9.324   4.494   6.512
19548TIP3    H258525   9.416   4.561   6.412
19549TIP3   OH258526   8.147   5.214   6.807
19549TIP3    H158527   8.083   5.261   6.750
19549TIP3    H258528   8.101   5.132   6.825
19550TIP3   OH258529   9.202   5.843   6.009
19550TIP3    H158530   9.211   5.940   5.995
19550TIP3    H258531   9.295   5.814   5.997
19551TIP3   OH258532   7.929   5.600   7.715
19551TIP3    H158533   7.864   5.577   7.646
19551TIP3    H258534   7.964   5.512   7.742
19552TIP3   OH258535   7.781   5.792   7.350
19552TIP3    H158536   7.877   5.788   7.340
19552TIP3    H258537   7.770   5.872   7.403
19553TIP3   OH258538   8.755   6.028   7.539
19553TIP3    H158539   8.752   6.123   7.566
19553TIP3    H258540   8.682   5.991   7.593
19554TIP3   OH258541   8.510   6.161   6.485
19554TIP3    H158542   8.463   6.148   6.400
19554TIP3    H258543   8.476   6.247   6.516
19555TIP3   OH258544   7.953   6.010   6.868
19555TIP3    H158545   8.000   6.002   6.954
19555TIP3    H258546   7.883   5.945   6.881
19556TIP3   OH258547   8.712   6.060   6.134
19556TIP3    H158548   8.772   5.992   6.095
19556TIP3    H258549   8.747   6.065   6.226
19557TIP3   OH258550   8.765   6.107   6.404
19557TIP3    H158551   8.676   6.116   6.447
19557TIP3    H258552   8.815   6.064   6.476
19558TIP3   OH258553   9.546   5.381   7.667
19558TIP3    H158554   9.462   5.393   7.621
19558TIP3    H258555   9.556   5.284   7.665
19559TIP3   OH258556   8.133   5.783   7.708
19559TIP3    H158557   8.183   5.765   7.790
19559TIP3    H258558   8.060   5.719   7.715
19560TIP3   OH258559   8.533   4.607   7.484
19560TIP3    H158560   8.443   4.576   7.462
19560TIP3    H258561   8.510   4.691   7.530
19561TIP3   OH258562   9.065   4.722   7.681
19561TIP3    H158563   9.131   4.696   7.747
19561TIP3    H258564   8.980   4.703   7.726
19562TIP3   OH258565   9.306   5.151   7.599
19562TIP3    H158566   9.258   5.147   7.684
19562TIP3    H258567   9.282   5.239   7.565
19563TIP3   OH258568   8.964   5.282   6.157
19563TIP3    H158569   8.932   5.256   6.068
19563TIP3    H258570   9.042   5.335   6.133
19564TIP3   OH258571   8.676   4.660   6.457
19564TIP3    H158572   8.648   4.661   6.551
19564TIP3    H258573   8.647   4.571   6.432
19565TIP3   OH258574   8.463   5.121   7.507
19565TIP3    H158575   8.413   5.144   7.588
19565TIP3    H258576   8.449   5.201   7.452
19566TIP3   OH258577   8.348   5.007   7.020
19566TIP3    H158578   8.255   4.982   7.037
19566TIP3    H258579   8.361   4.966   6.932
19567TIP3   OH258580   8.838   5.093   6.745
19567TIP3    H158581   8.783   5.165   6.707
19567TIP3    H258582   8.892   5.068   6.669
19568TIP3   OH258583   9.012   5.375   7.836
19568TIP3    H158584   8.990   5.302   7.898
19568TIP3    H258585   9.106   5.389   7.855
19569TIP3   OH258586   8.997   5.124   6.989
19569TIP3    H158587   8.939   5.156   6.917
19569TIP3    H258588   9.028   5.041   6.947
19570TIP3   OH258589   8.283   5.151   7.716
19570TIP3    H158590   8.306   5.215   7.784
19570TIP3    H258591   8.271   5.070   7.767
19571TIP3   OH258592   8.327   4.619   6.424
19571TIP3    H158593   8.325   4.622   6.522
19571TIP3    H258594   8.254   4.680   6.403
19572TIP3   OH258595   7.876   4.676   7.293
19572TIP3    H158596   7.952   4.705   7.348
19572TIP3    H258597   7.917   4.639   7.214
19573TIP3   OH258598   7.858   4.656   6.813
19573TIP3    H158599   7.901   4.699   6.736
19573TIP3    H258600   7.794   4.726   6.838
19574TIP3   OH258601   9.006   5.372   7.412
19574TIP3    H158602   9.039   5.298   7.355
19574TIP3    H258603   8.978   5.321   7.491
19575TIP3   OH258604   8.671   4.831   7.083
19575TIP3    H158605   8.588   4.829   7.134
19575TIP3    H258606   8.738   4.834   7.153
19576TIP3   OH258607   8.110   4.885   7.091
19576TIP3    H158608   8.015   4.893   7.065
19576TIP3    H258609   8.131   4.792   7.068
19577TIP3   OH258610   8.383   4.882   6.778
19577TIP3    H158611   8.477   4.899   6.758
19577TIP3    H258612   8.337   4.907   6.695
19578TIP3   OH258613   9.166   4.906   7.281
19578TIP3    H158614   9.131   4.918   7.373
19578TIP3    H258615   9.101   4.843   7.245
19579TIP3   OH258616   8.218   4.912   6.559
19579TIP3    H158617   8.143   4.873   6.511
19579TIP3    H258618   8.268   4.950   6.484
19580TIP3   OH258619   8.295   5.705   7.925
19580TIP3    H158620   8.375   5.735   7.975
19580TIP3    H258621   8.230   5.703   7.998
19581TIP3   OH258622   8.759   5.155   7.179
19581TIP3    H158623   8.832   5.117   7.129
19581TIP3    H258624   8.772   5.118   7.268
19582TIP3   OH258625   8.284   4.647   7.053
19582TIP3    H158626   8.252   4.567   7.100
19582TIP3    H258627   8.343   4.611   6.986
19583TIP3   OH258628   8.736   5.050   7.472
19583TIP3    H158629   8.647   5.089   7.483
19583TIP3    H258630   8.793   5.112   7.522
19584TIP3   OH258631   8.472   5.447   6.564
19584TIP3    H158632   8.400   5.381   6.555
19584TIP3    H258633   8.455   5.480   6.656
19585TIP3   OH258634   9.376   5.683   7.197
19585TIP3    H158635   9.399   5.731   7.115
19585TIP3    H258636   9.289   5.642   7.174
19586TIP3   OH258637   8.930   4.761   6.419
19586TIP3    H158638   8.833   4.749   6.428
19586TIP3    H258639   8.944   4.854   6.446
19587TIP3   OH258640   8.872   5.763   7.561
19587TIP3    H158641   8.890   5.738   7.653
19587TIP3    H258642   8.833   5.852   7.569
19588TIP3   OH258643   9.002   5.003   6.525
19588TIP3    H158644   9.098   5.010   6.544
19588TIP3    H258645   8.985   5.085   6.474
19589TIP3   OH258646   8.164   5.467   7.243
19589TIP3    H158647   8.201   5.437   7.157
19589TIP3    H258648   8.199   5.401   7.304
19590TIP3   OH258649   8.618   5.595   6.385
19590TIP3    H158650   8.571   5.681   6.392
19590TIP3    H258651   8.563   5.539   6.444
19591TIP3   OH258652   8.043   5.388   7.853
19591TIP3    H158653   8.065   5.376   7.948
19591TIP3    H258654   7.973   5.322   7.840
19592TIP3   OH258655   8.768   5.500   7.873
19592TIP3    H158656   8.710   5.442   7.822
19592TIP3    H258657   8.856   5.468   7.845
19593TIP3   OH258658   9.033   6.020   7.453
19593TIP3    H158659   8.937   6.020   7.467
19593TIP3    H258660   9.063   6.071   7.531
19594TIP3   OH258661   9.444   5.091   6.366
19594TIP3    H158662   9.381   5.047   6.304
19594TIP3    H258663   9.442   5.180   6.324
19595TIP3   OH258664   9.660   5.942   7.453
19595TIP3    H158665   9.563   5.947   7.438
19595TIP3    H258666   9.689   5.920   7.362
19596TIP3   OH258667   9.139   5.914   6.272
19596TIP3    H158668   9.119   5.842   6.334
19596TIP3    H258669   9.154   5.867   6.188
19597TIP3   OH258670   9.138   5.543   7.117
19597TIP3    H158671   9.045   5.517   7.129
19597TIP3    H258672   9.173   5.465   7.070
19598TIP3   OH258673   8.262   5.767   6.861
19598TIP3    H158674   8.265   5.852   6.813
19598TIP3    H258675   8.167   5.758   6.875
19599TIP3   OH258676   7.827   5.075   6.566
19599TIP3    H158677   7.873   5.159   6.587
19599TIP3    H258678   7.749   5.081   6.627
19600TIP3   OH258679   8.409   5.538   6.811
19600TIP3    H158680   8.371   5.627   6.828
19600TIP3    H258681   8.371   5.487   6.885
19601TIP3   OH258682   8.532   6.116   7.336
19601TIP3    H158683   8.572   6.188   7.283
19601TIP3    H258684   8.609   6.083   7.385
19602TIP3   OH258685   8.186   6.005   6.714
19602TIP3    H158686   8.101   6.017   6.761
19602TIP3    H258687   8.224   6.096   6.722
19603TIP3   OH258688   8.925   5.748   7.292
19603TIP3    H158689   8.917   5.747   7.390
19603TIP3    H258690   9.006   5.696   7.279
19604TIP3   OH258691   8.893   5.639   6.175
19604TIP3    H158692   8.946   5.615   6.255
19604TIP3    H258693   8.804   5.615   6.204
19605TIP3   OH258694   9.168   6.288   7.344
19605TIP3    H158695   9.091   6.230   7.330
19605TIP3    H258696   9.155   6.355   7.273
19606TIP3   OH258697   9.238   6.117   5.997
19606TIP3    H158698   9.275   6.186   5.939
19606TIP3    H258699   9.157   6.164   6.027
19607TIP3   OH258700   8.258   4.893   7.864
19607TIP3    H158701   8.162   4.900   7.880
19607TIP3    H258702   8.286   4.832   7.934
19608TIP3   OH258703   9.054   5.576   6.394
19608TIP3    H158704   9.045   5.509   6.465
19608TIP3    H258705   9.151   5.574   6.381
19609TIP3   OH258706   7.974   5.981   7.495
19609TIP3    H158707   8.022   5.901   7.522
19609TIP3    H258708   8.003   6.043   7.563
19610TIP3   OH258709   8.274   5.620   6.176
19610TIP3    H158710   8.279   5.529   6.141
19610TIP3    H258711   8.245   5.604   6.268
19611TIP3   OH258712   8.204   5.629   6.454
19611TIP3    H158713   8.278   5.598   6.508
19611TIP3    H258714   8.218   5.726   6.454
19612TIP3   OH258715   7.947   5.323   6.649
19612TIP3    H158716   7.881   5.367   6.707
19612TIP3    H258717   7.962   5.393   6.584
19613TIP3   OH258718   9.091   4.957   7.540
19613TIP3    H158719   9.170   4.997   7.581
19613TIP3    H258720   9.076   4.878   7.596
19614TIP3   OH258721   8.971   4.713   6.703
19614TIP3    H158722   8.959   4.739   6.610
19614TIP3    H258723   9.010   4.794   6.742
19615TIP3   OH258724   8.473   5.822   6.398
19615TIP3    H158725   8.391   5.860   6.436
19615TIP3    H258726   8.493   5.887   6.330
19616TIP3   OH258727   8.665   4.886   6.808
19616TIP3    H158728   8.730   4.958   6.790
19616TIP3    H258729   8.668   4.880   6.906
19617TIP3   OH258730   8.932   5.210   7.618
19617TIP3    H158731   8.946   5.264   7.698
19617TIP3    H258732   8.988   5.132   7.636
19618TIP3   OH258733   8.810   4.621   6.914
19618TIP3    H158734   8.805   4.696   6.976
19618TIP3    H258735   8.868   4.659   6.844
19619TIP3   OH258736   8.214   5.911   6.461
19619TIP3    H158737   8.205   5.999   6.423
19619TIP3    H258738   8.197   5.931   6.556
19620TIP3   OH258739   8.319   4.614   6.701
19620TIP3    H158740   8.317   4.704   6.738
19620TIP3    H258741   8.415   4.594   6.712
19621TIP3   OH258742   9.572   5.105   7.600
19621TIP3    H158743   9.474   5.104   7.603
19621TIP3    H258744   9.587   5.077   7.508
19622TIP3   OH258745   9.224   5.303   6.985
19622TIP3    H158746   9.149   5.243   6.999
19622TIP3    H258747   9.297   5.257   7.033
19623TIP3   OH258748   7.936   5.538   6.454
19623TIP3    H158749   8.007   5.602   6.471
19623TIP3    H258750   7.980   5.482   6.387
19624TIP3   OH258751   7.882   4.806   6.584
19624TIP3    H158752   7.880   4.904   6.582
19624TIP3    H258753   7.792   4.785   6.557
19625TIP3   OH258754   9.188   6.252   6.934
19625TIP3    H158755   9.148   6.301   6.859
19625TIP3    H258756   9.283   6.268   6.914
19626TIP3   OH258757   8.268   4.527   7.465
19626TIP3    H158758   8.235   4.494   7.379
19626TIP3    H258759   8.258   4.449   7.523
19627TIP3   OH258760   7.808   5.742   6.849
19627TIP3    H158761   7.731   5.777   6.896
19627TIP3    H258762   7.794   5.782   6.760
19628TIP3   OH258763   7.962   6.280   7.911
19628TIP3    H158764   8.046   6.278   7.960
19628TIP3    H258765   7.938   6.186   7.912
19629TIP3   OH258766   8.461   6.255   7.957
19629TIP3    H158767   8.551   6.218   7.956
19629TIP3    H258768   8.421   6.201   7.886
19630TIP3   OH258769   8.428   5.828   6.093
19630TIP3    H158770   8.374   5.752   6.127
19630TIP3    H258771   8.503   5.779   6.054
19631TIP3   OH258772   9.105   6.142   7.690
19631TIP3    H158773   9.063   6.082   7.756
19631TIP3    H258774   9.158   6.197   7.748
19632TIP3   OH258775   8.865   5.874   5.999
19632TIP3    H158776   8.913   5.810   6.054
19632TIP3    H258777   8.918   5.874   5.916
19633TIP3   OH258778   8.094   5.691   8.114
19633TIP3    H158779   8.110   5.595   8.121
19633TIP3    H258780   8.005   5.693   8.073
19634TIP3   OH258781   8.069   5.347   6.307
19634TIP3    H158782   8.123   5.310   6.378
19634TIP3    H258783   8.136   5.351   6.235
19635TIP3   OH258784   8.704   5.776   7.887
19635TIP3    H158785   8.659   5.787   7.802
19635TIP3    H258786   8.734   5.682   7.884
19636TIP3   OH258787   8.579   5.540   6.114
19636TIP3    H158788   8.579   5.553   6.210
19636TIP3    H258789   8.573   5.442   6.109
19637TIP3   OH258790   9.193   5.780   7.494
19637TIP3    H158791   9.266   5.826   7.448
19637TIP3    H258792   9.121   5.845   7.482
19638TIP3   OH258793   8.213   5.422   8.095
19638TIP3    H158794   8.286   5.361   8.082
19638TIP3    H258795   8.234   5.458   8.184
19639TIP3   OH258796   8.282   5.245   6.533
19639TIP3    H158797   8.253   5.205   6.616
19639TIP3    H258798   8.315   5.168   6.483
19640TIP3   OH258799   8.547   5.310   7.759
19640TIP3    H158800   8.470   5.371   7.765
19640TIP3    H258801   8.593   5.343   7.679
19641TIP3   OH258802   8.377   5.035   6.373
19641TIP3    H158803   8.350   5.040   6.278
19641TIP3    H258804   8.474   5.046   6.365
19642TIP3   OH258805   9.064   5.714   7.893
19642TIP3    H158806   9.148   5.696   7.848
19642TIP3    H258807   9.063   5.645   7.962
19643TIP3   OH258808   9.204   5.372   6.030
19643TIP3    H158809   9.181   5.325   5.948
19643TIP3    H258810   9.173   5.463   6.006
19644TIP3   OH258811   8.672   5.097   7.887
19644TIP3    H158812   8.670   5.016   7.832
19644TIP3    H258813   8.627   5.163   7.829
19645TIP3   OH258814   8.673   4.882   7.691
19645TIP3    H158815   8.699   4.925   7.607
19645TIP3    H258816   8.579   4.861   7.674
19646TIP3   OH258817   8.706   5.422   7.563
19646TIP3    H158818   8.786   5.428   7.510
19646TIP3    H258819   8.648   5.490   7.522
19647TIP3   OH258820   9.294   5.388   7.958
19647TIP3    H158821   9.341   5.305   7.944
19647TIP3    H258822   9.359   5.453   7.925
19648TIP3   OH258823   9.326   5.637   7.679
19648TIP3    H158824   9.267   5.690   7.620
19648TIP3    H258825   9.413   5.657   7.637
19649TIP3   OH258826   8.545   5.216   8.111
19649TIP3    H158827   8.477   5.148   8.127
19649TIP3    H258828   8.582   5.187   8.025
19650TIP3   OH258829   8.806   4.649   7.756
19650TIP3    H158830   8.757   4.732   7.735
19650TIP3    H258831   8.735   4.582   7.746
19651TIP3   OH258832   8.932   5.156   7.975
19651TIP3    H158833   8.920   5.146   8.071
19651TIP3    H258834   8.841   5.131   7.946
19652TIP3   OH258835   9.172   5.103   7.830
19652TIP3    H158836   9.095   5.105   7.890
19652TIP3    H258837   9.243   5.072   7.890
19653TIP3   OH258838   9.390   5.042   7.994
19653TIP3    H158839   9.405   4.946   8.009
19653TIP3    H258840   9.393   5.080   8.084
19654TIP3   OH258841   8.388   4.995   8.164
19654TIP3    H158842   8.396   4.904   8.130
19654TIP3    H258843   8.422   4.983   8.255
19655TIP3   OH258844   8.902   4.659   8.013
19655TIP3    H158845   8.969   4.588   8.008
19655TIP3    H258846   8.861   4.652   7.924
19656TIP3   OH258847   8.967   4.875   8.174
19656TIP3    H158848   8.943   4.804   8.110
19656TIP3    H258849   8.890   4.935   8.169
19657TIP3   OH258850   7.666   5.486   6.489
19657TIP3    H158851   7.762   5.506   6.479
19657TIP3    H258852   7.661   5.396   6.451
19658TIP3   OH258853   7.577   6.095   6.901
19658TIP3    H158854   7.508   6.032   6.870
19658TIP3    H258855   7.622   6.041   6.970
19659TIP3   OH258856   7.717   5.953   7.089
19659TIP3    H158857   7.705   5.877   7.148
19659TIP3    H258858   7.766   6.013   7.148
19660TIP3   OH258859   9.445   6.333   6.890
19660TIP3    H158860   9.466   6.357   6.982
19660TIP3    H258861   9.497   6.399   6.843
19661TIP3   OH258862   9.491   6.354   7.160
19661TIP3    H158863   9.445   6.267   7.160
19661TIP3    H258864   9.528   6.353   7.249
19662TIP3   OH258865   9.334   5.560   6.367
19662TIP3    H158866   9.405   5.623   6.340
19662TIP3    H258867   9.376   5.520   6.446
19663TIP3   OH258868   9.462   5.428   6.569
19663TIP3    H158869   9.397   5.385   6.629
19663TIP3    H258870   9.527   5.467   6.632
19664TIP3   OH258871   9.514   5.815   7.003
19664TIP3    H158872   9.569   5.755   6.950
19664TIP3    H258873   9.505   5.892   6.943
19665TIP3   OH258874   9.350   6.122   7.199
19665TIP3    H158875   9.279   6.162   7.254
19665TIP3    H258876   9.298   6.072   7.132
19666TIP3   OH258877   9.401   5.334   6.218
19666TIP3    H158878   9.330   5.338   6.150
19666TIP3    H258879   9.375   5.410   6.274
19667TIP3   OH258880   9.273   5.007   6.174
19667TIP3    H158881   9.233   5.050   6.097
19667TIP3    H258882   9.244   4.914   6.161
19668TIP3   OH258883   9.278   5.281   6.718
19668TIP3    H158884   9.287   5.185   6.715
19668TIP3    H258885   9.266   5.297   6.815
19669TIP3   OH258886   7.906   5.356   7.463
19669TIP3    H158887   7.904   5.329   7.368
19669TIP3    H258888   8.003   5.357   7.479
19670TIP3   OH258889   9.560   5.704   7.563
19670TIP3    H158890   9.640   5.649   7.575
19670TIP3    H258891   9.599   5.786   7.530
19671TIP3   OH258892   9.763   5.528   7.595
19671TIP3    H158893   9.684   5.476   7.622
19671TIP3    H258894   9.832   5.461   7.613
19672TIP3   OH258895   9.216   4.741   6.161
19672TIP3    H158896   9.295   4.714   6.213
19672TIP3    H258897   9.146   4.682   6.191
19673TIP3   OH258898   9.272   4.997   6.615
19673TIP3    H158899   9.313   4.908   6.630
19673TIP3    H258900   9.332   5.031   6.546
19674TIP3   OH258901   9.436   5.177   7.107
19674TIP3    H158902   9.523   5.202   7.068
19674TIP3    H258903   9.450   5.212   7.197
19675TIP3   OH258904   9.502   5.317   7.341
19675TIP3    H158905   9.423   5.351   7.389
19675TIP3    H258906   9.535   5.398   7.297
19676TIP3   OH258907   8.121   5.044   8.136
19676TIP3    H158908   8.218   5.037   8.139
19676TIP3    H258909   8.096   4.961   8.181
19677TIP3   OH258910   9.995   4.935   7.875
19677TIP3    H158911  10.011   4.845   7.839
19677TIP3    H258912   9.936   4.975   7.807
19678TIP3   OH258913   9.383   4.747   6.650
19678TIP3    H158914   9.432   4.733   6.734
19678TIP3    H258915   9.323   4.670   6.650
19679TIP3   OH258916   8.083   4.734   7.467
19679TIP3    H158917   8.146   4.660   7.480
19679TIP3    H258918   8.144   4.810   7.465
19680TIP3   OH258919   7.889   5.010   7.544
19680TIP3    H158920   7.936   5.002   7.459
19680TIP3    H258921   7.915   5.098   7.573
19681TIP3   OH258922   9.818   5.041   7.704
19681TIP3    H158923   9.731   5.086   7.710
19681TIP3    H258924   9.795   4.975   7.636
19682TIP3   OH258925   9.465   4.687   6.279
19682TIP3    H158926   9.507   4.612   6.232
19682TIP3    H258927   9.534   4.757   6.273
19683TIP3   OH258928   7.868   4.514   7.043
19683TIP3    H158929   7.774   4.511   7.070
19683TIP3    H258930   7.866   4.573   6.965
19684TIP3   OH258931   9.025   6.217   6.546
19684TIP3    H158932   9.080   6.197   6.467
19684TIP3    H258933   9.082   6.278   6.595
19685TIP3   OH258934   8.088   4.592   7.858
19685TIP3    H158935   8.039   4.587   7.942
19685TIP3    H258936   8.021   4.631   7.799
19686TIP3   OH258937   8.129   6.020   7.940
19686TIP3    H158938   8.039   5.988   7.919
19686TIP3    H258939   8.136   5.996   8.033
19687TIP3   OH258940   8.306   6.048   7.484
19687TIP3    H158941   8.256   6.122   7.445
19687TIP3    H258942   8.392   6.063   7.439
19688TIP3   OH258943   8.746   6.297   7.604
19688TIP3    H158944   8.782   6.292   7.696
19688TIP3    H258945   8.819   6.344   7.559
19689TIP3   OH258946   8.942   6.441   7.477
19689TIP3    H158947   9.006   6.382   7.433
19689TIP3    H258948   8.998   6.518   7.491
19690TIP3   OH258949   9.725   4.810   7.579
19690TIP3    H158950   9.634   4.807   7.545
19690TIP3    H258951   9.754   4.716   7.565
19691TIP3   OH258952   7.985   6.312   7.504
19691TIP3    H158953   7.896   6.347   7.480
19691TIP3    H258954   7.986   6.331   7.598
19692TIP3   OH258955   8.222   6.287   7.363
19692TIP3    H158956   8.136   6.301   7.408
19692TIP3    H258957   8.203   6.319   7.273
19693TIP3   OH258958   8.650   6.318   7.160
19693TIP3    H158959   8.577   6.336   7.096
19693TIP3    H258960   8.660   6.407   7.200
19694TIP3   OH258961   8.914   6.256   7.213
19694TIP3    H158962   8.820   6.274   7.191
19694TIP3    H258963   8.959   6.331   7.171
19695TIP3   OH258964   9.113   6.448   7.125
19695TIP3    H158965   9.103   6.534   7.079
19695TIP3    H258966   9.137   6.388   7.052
19696TIP3   OH258967   7.896   6.104   7.252
19696TIP3    H158968   7.923   6.078   7.343
19696TIP3    H258969   7.967   6.059   7.201
19697TIP3   OH258970   8.086   5.973   7.105
19697TIP3    H158971   8.103   5.890   7.154
19697TIP3    H258972   8.176   6.012   7.100
19698TIP3   OH258973   8.350   6.067   7.108
19698TIP3    H158974   8.386   5.977   7.098
19698TIP3    H258975   8.393   6.093   7.191
19699TIP3   OH258976   8.929   4.726   7.194
19699TIP3    H158977   8.886   4.659   7.250
19699TIP3    H258978   9.002   4.675   7.152
19700TIP3   OH258979   9.457   4.603   7.104
19700TIP3    H158980   9.494   4.657   7.031
19700TIP3    H258981   9.362   4.623   7.098
19701TIP3   OH258982   9.549   4.708   6.867
19701TIP3    H158983   9.623   4.657   6.827
19701TIP3    H258984   9.583   4.800   6.853
19702TIP3   OH258985   8.181   4.435   7.215
19702TIP3    H158986   8.088   4.402   7.216
19702TIP3    H258987   8.230   4.350   7.212
19703TIP3   OH258988   7.964   4.304   6.863
19703TIP3    H158989   7.988   4.366   6.793
19703TIP3    H258990   7.932   4.363   6.933
19704TIP3   OH258991   8.620   4.469   7.093
19704TIP3    H158992   8.681   4.521   7.039
19704TIP3    H258993   8.637   4.505   7.181
19705TIP3   OH258994   9.174   4.612   7.080
19705TIP3    H158995   9.168   4.579   6.990
19705TIP3    H258996   9.157   4.531   7.133
19706TIP3   OH258997   9.199   4.533   6.639
19706TIP3    H158998   9.112   4.575   6.649
19706TIP3    H258999   9.185   4.449   6.689
19707TIP3   OH259000   7.686   5.869   6.641
19707TIP3    H159001   7.600   5.837   6.608
19707TIP3    H259002   7.671   5.964   6.635
19708TIP3   OH259003   8.084   4.466   6.616
19708TIP3    H159004   8.148   4.394   6.613
19708TIP3    H259005   8.138   4.534   6.661
19709TIP3   OH259006   8.597   4.636   6.724
19709TIP3    H159007   8.656   4.590   6.786
19709TIP3    H259008   8.617   4.729   6.750
19710TIP3   OH259009   8.449   6.068   6.222
19710TIP3    H159010   8.540   6.086   6.191
19710TIP3    H259011   8.431   5.988   6.168
19711TIP3   OH259012   9.170   6.180   6.316
19711TIP3    H159013   9.164   6.082   6.303
19711TIP3    H259014   9.132   6.211   6.231
19712TIP3   OH259015   8.388   4.715   8.104
19712TIP3    H159016   8.354   4.646   8.163
19712TIP3    H259017   8.482   4.717   8.132
19713TIP3   OH259018   8.636   4.712   8.224
19713TIP3    H159019   8.721   4.686   8.186
19713TIP3    H259020   8.623   4.643   8.292
19714TIP3   OH259021   7.794   5.926   6.294
19714TIP3    H159022   7.743   5.953   6.372
19714TIP3    H259023   7.825   5.838   6.320
19715TIP3   OH259024   9.458   4.774   8.009
19715TIP3    H159025   9.478   4.741   8.100
19715TIP3    H259026   9.547   4.770   7.967
19716TIP3   OH259027   9.967   5.576   6.995
19716TIP3    H159028   9.995   5.510   7.062
19716TIP3    H259029  10.012   5.655   7.030
19717TIP3   OH259030   9.932   6.001   6.753
19717TIP3    H159031   9.927   5.903   6.754
19717TIP3    H259032  10.027   6.013   6.737
19718TIP3   OH259033   9.642   5.208   6.531
19718TIP3    H159034   9.594   5.292   6.543
19718TIP3    H259035   9.570   5.151   6.497
19719TIP3   OH259036   9.703   5.494   6.695
19719TIP3    H159037   9.751   5.418   6.736
19719TIP3    H259038   9.762   5.517   6.622
19720TIP3   OH259039  10.402   5.925   6.667
19720TIP3    H159040  10.441   5.860   6.606
19720TIP3    H259041  10.471   5.931   6.736
19721TIP3   OH259042  10.196   5.087   6.709
19721TIP3    H159043  10.195   5.152   6.637
19721TIP3    H259044  10.165   5.008   6.661
19722TIP3   OH259045   9.844   5.288   6.803
19722TIP3    H159046   9.926   5.269   6.853
19722TIP3    H259047   9.859   5.231   6.725
19723TIP3   OH259048  10.250   5.503   6.577
19723TIP3    H159049  10.345   5.486   6.595
19723TIP3    H259050  10.219   5.413   6.554
19724TIP3   OH259051  10.198   5.065   7.132
19724TIP3    H159052  10.139   5.103   7.064
19724TIP3    H259053  10.147   5.083   7.213
19725TIP3   OH259054  10.272   5.842   6.937
19725TIP3    H159055  10.220   5.905   6.989
19725TIP3    H259056  10.350   5.895   6.914
19726TIP3   OH259057  10.067   5.182   6.923
19726TIP3    H159058  10.132   5.253   6.944
19726TIP3    H259059  10.115   5.140   6.847
19727TIP3   OH259060   9.542   5.724   6.262
19727TIP3    H159061   9.500   5.750   6.178
19727TIP3    H259062   9.569   5.810   6.300
19728TIP3   OH259063  10.051   5.649   6.475
19728TIP3    H159064  10.014   5.586   6.410
19728TIP3    H259065  10.127   5.597   6.511
19729TIP3   OH259066  10.180   6.061   6.624
19729TIP3    H159067  10.150   6.017   6.543
19729TIP3    H259068  10.260   6.008   6.645
19730TIP3   OH259069  10.236   5.591   6.844
19730TIP3    H159070  10.240   5.592   6.747
19730TIP3    H259071  10.250   5.686   6.867
19731TIP3   OH259072  10.020   5.759   7.197
19731TIP3    H159073  10.030   5.846   7.238
19731TIP3    H259074   9.948   5.718   7.250
19732TIP3   OH259075  10.399   6.203   6.209
19732TIP3    H159076  10.463   6.272   6.225
19732TIP3    H259077  10.342   6.240   6.140
19733TIP3   OH259078   9.941   5.469   6.291
19733TIP3    H159079   9.876   5.515   6.234
19733TIP3    H259080   9.896   5.386   6.309
19734TIP3   OH259081   9.722   5.852   7.202
19734TIP3    H159082   9.657   5.832   7.132
19734TIP3    H259083   9.750   5.763   7.230
19735TIP3   OH259084   9.578   6.045   6.841
19735TIP3    H159085   9.673   6.045   6.824
19735TIP3    H259086   9.565   6.130   6.886
19736TIP3   OH259087  10.305   6.400   5.989
19736TIP3    H159088  10.270   6.380   5.900
19736TIP3    H259089  10.269   6.488   6.006
19737TIP3   OH259090   9.744   6.266   6.357
19737TIP3    H159091   9.793   6.255   6.441
19737TIP3    H259092   9.688   6.187   6.360
19738TIP3   OH259093   9.906   6.052   7.192
19738TIP3    H159094   9.949   6.036   7.278
19738TIP3    H259095   9.840   5.979   7.190
19739TIP3   OH259096  10.317   4.860   6.981
19739TIP3    H159097  10.228   4.832   6.956
19739TIP3    H259098  10.298   4.946   7.020
19740TIP3   OH259099  10.258   5.362   6.977
19740TIP3    H159100  10.231   5.398   7.064
19740TIP3    H259101  10.250   5.444   6.923
19741TIP3   OH259102  10.143   5.261   6.505
19741TIP3    H159103  10.052   5.234   6.531
19741TIP3    H259104  10.146   5.228   6.413
19742TIP3   OH259105  10.058   5.401   7.206
19742TIP3    H159106  10.093   5.455   7.277
19742TIP3    H259107  10.051   5.314   7.249
19743TIP3   OH259108  10.113   4.905   5.914
19743TIP3    H159109  10.085   4.879   6.003
19743TIP3    H259110  10.031   4.933   5.872
19744TIP3   OH259111   9.672   4.932   6.780
19744TIP3    H159112   9.747   4.963   6.836
19744TIP3    H259113   9.715   4.897   6.702
19745TIP3   OH259114   9.652   4.912   6.303
19745TIP3    H159115   9.695   4.952   6.224
19745TIP3    H259116   9.590   4.984   6.326
19746TIP3   OH259117   9.905   5.143   6.577
19746TIP3    H159118   9.810   5.148   6.551
19746TIP3    H259119   9.930   5.051   6.558
19747TIP3   OH259120  10.153   5.166   6.248
19747TIP3    H159121  10.229   5.181   6.192
19747TIP3    H259122  10.080   5.174   6.182
19748TIP3   OH259123   9.993   5.175   6.038
19748TIP3    H159124   9.926   5.130   5.982
19748TIP3    H259125  10.058   5.201   5.969
19749TIP3   OH259126  10.077   4.906   6.535
19749TIP3    H159127  10.046   4.828   6.586
19749TIP3    H259128  10.137   4.867   6.471
19750TIP3   OH259129  10.237   5.716   6.047
19750TIP3    H159130  10.179   5.638   6.050
19750TIP3    H259131  10.253   5.736   6.141
19751TIP3   OH259132   9.963   5.727   6.733
19751TIP3    H159133   9.992   5.696   6.645
19751TIP3    H259134   9.991   5.656   6.793
19752TIP3   OH259135   9.831   5.634   7.350
19752TIP3    H159136   9.824   5.612   7.446
19752TIP3    H259137   9.762   5.576   7.314
19753TIP3   OH259138  10.059   6.025   6.354
19753TIP3    H159139  10.066   6.106   6.300
19753TIP3    H259140   9.963   6.012   6.355
19754TIP3   OH259141   9.622   5.332   6.051
19754TIP3    H159142   9.670   5.415   6.071
19754TIP3    H259143   9.546   5.338   6.113
19755TIP3   OH259144  10.229   5.806   6.321
19755TIP3    H159145  10.177   5.889   6.320
19755TIP3    H259146  10.171   5.750   6.376
19756TIP3   OH259147   9.980   6.262   6.204
19756TIP3    H159148   9.894   6.272   6.250
19756TIP3    H259149  10.013   6.355   6.207
19757TIP3   OH259150  10.047   5.148   7.346
19757TIP3    H159151   9.953   5.160   7.370
19757TIP3    H259152  10.078   5.093   7.420
19758TIP3   OH259153   9.772   6.235   6.989
19758TIP3    H159154   9.797   6.147   7.022
19758TIP3    H259155   9.818   6.292   7.053
19759TIP3   OH259156  10.064   5.877   5.661
19759TIP3    H159157  10.081   5.786   5.633
19759TIP3    H259158  10.047   5.865   5.757
19760TIP3   OH259159  10.008   5.880   5.936
19760TIP3    H159160  10.090   5.850   5.977
19760TIP3    H259161  10.013   5.978   5.946
19761TIP3   OH259162   9.743   5.579   6.136
19761TIP3    H159163   9.677   5.624   6.193
19761TIP3    H259164   9.760   5.648   6.070
19762TIP3   OH259165  10.264   6.109   5.899
19762TIP3    H159166  10.172   6.127   5.925
19762TIP3    H259167  10.276   6.171   5.827
19763TIP3   OH259168   9.999   6.158   5.947
19763TIP3    H159169   9.971   6.229   5.885
19763TIP3    H259170   9.988   6.201   6.034
19764TIP3   OH259171  10.116   4.877   6.194
19764TIP3    H159172  10.083   4.958   6.234
19764TIP3    H259173  10.201   4.909   6.158
19765TIP3   OH259174   9.729   5.794   5.944
19765TIP3    H159175   9.794   5.866   5.956
19765TIP3    H259176   9.777   5.741   5.877
19766TIP3   OH259177   9.677   5.063   6.078
19766TIP3    H159178   9.677   5.161   6.070
19766TIP3    H259179   9.593   5.040   6.037
19767TIP3   OH259180  10.052   4.784   6.954
19767TIP3    H159181  10.028   4.750   6.865
19767TIP3    H259182  10.050   4.704   7.009
19768TIP3   OH259183   9.607   6.011   6.340
19768TIP3    H159184   9.522   6.039   6.378
19768TIP3    H259185   9.595   6.041   6.248
19769TIP3   OH259186  10.211   6.093   5.578
19769TIP3    H159187  10.159   6.015   5.611
19769TIP3    H259188  10.303   6.058   5.587
19770TIP3   OH259189   9.862   5.602   5.797
19770TIP3    H159190   9.919   5.571   5.869
19770TIP3    H259191   9.928   5.612   5.726
19771TIP3   OH259192  10.072   5.495   6.022
19771TIP3    H159193  10.045   5.458   6.107
19771TIP3    H259194  10.105   5.417   5.974
19772TIP3   OH259195  10.322   5.534   7.188
19772TIP3    H159196  10.302   5.596   7.261
19772TIP3    H259197  10.334   5.594   7.114
19773TIP3   OH259198  10.174   5.289   5.867
19773TIP3    H159199  10.132   5.284   5.779
19773TIP3    H259200  10.267   5.304   5.844
19774TIP3   OH259201  10.451   5.329   7.315
19774TIP3    H159202  10.464   5.238   7.279
19774TIP3    H259203  10.376   5.362   7.262
19775TIP3   OH259204  10.460   5.108   7.170
19775TIP3    H159205  10.492   5.115   7.079
19775TIP3    H259206  10.367   5.079   7.158
19776TIP3   OH259207  10.164   5.276   7.596
19776TIP3    H159208  10.175   5.179   7.601
19776TIP3    H259209  10.205   5.309   7.678
19777TIP3   OH259210   9.979   6.361   5.760
19777TIP3    H159211  10.074   6.362   5.742
19777TIP3    H259212   9.946   6.407   5.681
19778TIP3   OH259213   9.463   5.740   5.982
19778TIP3    H159214   9.557   5.764   5.967
19778TIP3    H259215   9.458   5.652   5.939
19779TIP3   OH259216   9.372   6.351   6.394
19779TIP3    H159217   9.306   6.289   6.355
19779TIP3    H259218   9.409   6.293   6.465
19780TIP3   OH259219   9.479   6.198   6.592
19780TIP3    H159220   9.480   6.114   6.640
19780TIP3    H259221   9.520   6.256   6.659
19781TIP3   OH259222   9.702   5.614   6.948
19781TIP3    H159223   9.697   5.586   6.854
19781TIP3    H259224   9.800   5.609   6.961
19782TIP3   OH259225   9.892   5.291   7.603
19782TIP3    H159226   9.990   5.302   7.602
19782TIP3    H259227   9.882   5.219   7.668
19783TIP3   OH259228   9.873   4.992   6.958
19783TIP3    H159229   9.935   4.917   6.967
19783TIP3    H259230   9.937   5.066   6.952
19784TIP3   OH259231   9.682   5.268   7.029
19784TIP3    H159232   9.732   5.257   6.946
19784TIP3    H259233   9.717   5.353   7.060
19785TIP3   OH259234   9.664   4.768   6.529
19785TIP3    H159235   9.570   4.769   6.556
19785TIP3    H259236   9.664   4.828   6.452
19786TIP3   OH259237   9.882   4.849   7.346
19786TIP3    H159238   9.831   4.845   7.429
19786TIP3    H259239   9.816   4.889   7.285
19787TIP3   OH259240   9.692   6.354   6.734
19787TIP3    H159241   9.723   6.333   6.824
19787TIP3    H259242   9.757   6.301   6.681
19788TIP3   OH259243   9.878   6.221   6.587
19788TIP3    H159244   9.901   6.142   6.640
19788TIP3    H259245   9.966   6.262   6.572
19789TIP3   OH259246  10.128   6.322   6.558
19789TIP3    H159247  10.161   6.230   6.567
19789TIP3    H259248  10.150   6.361   6.644
19790TIP3   OH259249   9.971   4.699   6.697
19790TIP3    H159250   9.878   4.669   6.699
19790TIP3    H259251  10.015   4.612   6.702
19791TIP3   OH259252   9.758   4.559   6.343
19791TIP3    H159253   9.789   4.621   6.275
19791TIP3    H259254   9.731   4.620   6.415
19792TIP3   OH259255   9.477   6.127   6.134
19792TIP3    H159256   9.394   6.095   6.094
19792TIP3    H259257   9.468   6.222   6.117
19793TIP3   OH259258   9.872   4.725   6.116
19793TIP3    H159259   9.917   4.660   6.059
19793TIP3    H259260   9.947   4.772   6.157
19794TIP3   OH259261  10.251   6.330   5.709
19794TIP3    H159262  10.346   6.343   5.694
19794TIP3    H259263  10.230   6.255   5.648
19795TIP3   OH259264  10.150   4.992   7.590
19795TIP3    H159265  10.107   4.920   7.637
19795TIP3    H259266  10.241   4.956   7.585
19796TIP3   OH259267  10.380   4.874   7.664
19796TIP3    H159268  10.446   4.937   7.628
19796TIP3    H259269  10.378   4.906   7.755
19797TIP3   OH259270   9.555   6.156   5.771
19797TIP3    H159271   9.554   6.192   5.860
19797TIP3    H259272   9.645   6.118   5.763
19798TIP3   OH259273   1.322   6.226   8.476
19798TIP3    H159274   1.298   6.320   8.461
19798TIP3    H259275   1.242   6.182   8.445
19799TIP3   OH259276   1.328   6.223   8.844
19799TIP3    H159277   1.349   6.200   8.936
19799TIP3    H259278   1.279   6.144   8.815
19800TIP3   OH259279   1.560   6.530   8.535
19800TIP3    H159280   1.552   6.460   8.601
19800TIP3    H259281   1.591   6.605   8.589
19801TIP3   OH259282   1.209   6.995   8.547
19801TIP3    H159283   1.257   6.920   8.505
19801TIP3    H259284   1.195   6.962   8.637
19802TIP3   OH259285   1.113   6.408   8.880
19802TIP3    H159286   1.190   6.358   8.846
19802TIP3    H259287   1.159   6.483   8.921
19803TIP3   OH259288   2.127   5.776   8.899
19803TIP3    H159289   2.156   5.856   8.948
19803TIP3    H259290   2.151   5.800   8.808
19804TIP3   OH259291   1.530   5.958   8.939
19804TIP3    H159292   1.575   5.873   8.957
19804TIP3    H259293   1.502   5.944   8.847
19805TIP3   OH259294   0.898   5.618   8.905
19805TIP3    H159295   0.863   5.695   8.854
19805TIP3    H259296   0.866   5.544   8.849
19806TIP3   OH259297   1.561   5.706   8.526
19806TIP3    H159298   1.634   5.689   8.591
19806TIP3    H259299   1.613   5.742   8.452
19807TIP3   OH259300   0.946   6.023   8.816
19807TIP3    H159301   1.039   5.992   8.818
19807TIP3    H259302   0.901   5.949   8.771
19808TIP3   OH259303   2.200   5.976   9.075
19808TIP3    H159304   2.120   6.031   9.057
19808TIP3    H259305   2.225   6.007   9.163
19809TIP3   OH259306   1.218   6.450   8.345
19809TIP3    H159307   1.174   6.425   8.263
19809TIP3    H259308   1.176   6.535   8.366
19810TIP3   OH259309   1.776   5.707   8.693
19810TIP3    H159310   1.773   5.654   8.774
19810TIP3    H259311   1.832   5.782   8.719
19811TIP3   OH259312   1.635   6.770   8.704
19811TIP3    H159313   1.546   6.763   8.745
19811TIP3    H259314   1.629   6.857   8.661
19812TIP3   OH259315   1.921   5.678   9.066
19812TIP3    H159316   1.836   5.708   9.031
19812TIP3    H259317   1.984   5.707   8.997
19813TIP3   OH259318   1.230   5.316   9.046
19813TIP3    H159319   1.212   5.222   9.064
19813TIP3    H259320   1.150   5.356   9.088
19814TIP3   OH259321   1.340   6.820   8.380
19814TIP3    H159322   1.391   6.738   8.359
19814TIP3    H259323   1.401   6.886   8.340
19815TIP3   OH259324   1.481   6.606   8.283
19815TIP3    H159325   1.443   6.527   8.243
19815TIP3    H259326   1.515   6.570   8.368
19816TIP3   OH259327   1.861   6.690   9.048
19816TIP3    H159328   1.852   6.611   8.990
19816TIP3    H259329   1.848   6.764   8.985
19817TIP3   OH259330   1.152   6.078   8.302
19817TIP3    H159331   1.073   6.130   8.277
19817TIP3    H259332   1.202   6.077   8.219
19818TIP3   OH259333   1.112   5.863   8.025
19818TIP3    H159334   1.180   5.913   8.074
19818TIP3    H259335   1.169   5.799   7.978
19819TIP3   OH259336   2.055   6.318   8.890
19819TIP3    H159337   1.975   6.374   8.898
19819TIP3    H259338   2.087   6.345   8.801
19820TIP3   OH259339   1.499   6.161   8.278
19820TIP3    H159340   1.446   6.187   8.357
19820TIP3    H259341   1.583   6.136   8.322
19821TIP3   OH259342   1.737   6.199   9.189
19821TIP3    H159343   1.739   6.283   9.239
19821TIP3    H259344   1.652   6.210   9.141
19822TIP3   OH259345   0.873   6.125   9.057
19822TIP3    H159346   0.912   6.089   8.974
19822TIP3    H259347   0.929   6.203   9.072
19823TIP3   OH259348   1.394   6.774   8.825
19823TIP3    H159349   1.379   6.846   8.888
19823TIP3    H259350   1.381   6.694   8.880
19824TIP3   OH259351   1.342   6.021   8.103
19824TIP3    H159352   1.401   6.079   8.157
19824TIP3    H259353   1.369   6.047   8.011
19825TIP3   OH259354   1.077   6.706   8.381
19825TIP3    H159355   1.160   6.749   8.408
19825TIP3    H259356   1.031   6.780   8.338
19826TIP3   OH259357   1.857   5.264   8.149
19826TIP3    H159358   1.776   5.281   8.202
19826TIP3    H259359   1.868   5.349   8.102
19827TIP3   OH259360   1.654   6.631   7.697
19827TIP3    H159361   1.663   6.728   7.685
19827TIP3    H259362   1.747   6.602   7.686
19828TIP3   OH259363   2.101   7.028   9.090
19828TIP3    H159364   2.100   6.932   9.107
19828TIP3    H259365   2.017   7.054   9.134
19829TIP3   OH259366   1.208   6.771   9.248
19829TIP3    H159367   1.222   6.869   9.249
19829TIP3    H259368   1.114   6.767   9.223
19830TIP3   OH259369   0.989   6.931   8.201
19830TIP3    H159370   0.959   6.911   8.110
19830TIP3    H259371   0.967   7.024   8.211
19831TIP3   OH259372   1.170   6.849   7.821
19831TIP3    H159373   1.227   6.779   7.782
19831TIP3    H259374   1.209   6.858   7.911
19832TIP3   OH259375   1.230   6.890   8.089
19832TIP3    H159376   1.147   6.894   8.141
19832TIP3    H259377   1.290   6.850   8.155
19833TIP3   OH259378   1.997   6.162   9.365
19833TIP3    H159379   1.914   6.184   9.321
19833TIP3    H259380   2.005   6.066   9.346
19834TIP3   OH259381   0.985   5.398   9.143
19834TIP3    H159382   0.921   5.346   9.193
19834TIP3    H259383   0.989   5.481   9.192
19835TIP3   OH259384   1.445   5.517   9.335
19835TIP3    H159385   1.515   5.502   9.402
19835TIP3    H259386   1.364   5.512   9.387
19836TIP3   OH259387   1.738   5.933   9.317
19836TIP3    H159388   1.766   5.962   9.407
19836TIP3    H259389   1.734   6.018   9.269
19837TIP3   OH259390   1.416   6.071   7.847
19837TIP3    H159391   1.385   6.043   7.758
19837TIP3    H259392   1.495   6.124   7.823
19838TIP3   OH259393   1.130   5.447   8.147
19838TIP3    H159394   1.101   5.444   8.240
19838TIP3    H259395   1.094   5.362   8.115
19839TIP3   OH259396   0.907   5.893   9.198
19839TIP3    H159397   0.873   5.927   9.281
19839TIP3    H259398   0.895   5.971   9.140
19840TIP3   OH259399   0.792   5.786   8.712
19840TIP3    H159400   0.697   5.794   8.698
19840TIP3    H259401   0.818   5.745   8.626
19841TIP3   OH259402   1.290   5.880   8.435
19841TIP3    H159403   1.237   5.953   8.396
19841TIP3    H259404   1.346   5.855   8.359
19842TIP3   OH259405   1.449   5.912   8.679
19842TIP3    H159406   1.392   5.945   8.607
19842TIP3    H259407   1.480   5.829   8.637
19843TIP3   OH259408   0.790   5.422   8.117
19843TIP3    H159409   0.782   5.414   8.214
19843TIP3    H259410   0.698   5.430   8.090
19844TIP3   OH259411   1.455   6.162   9.097
19844TIP3    H159412   1.491   6.091   9.039
19844TIP3    H259413   1.431   6.110   9.176
19845TIP3   OH259414   1.136   5.623   8.768
19845TIP3    H159415   1.055   5.622   8.824
19845TIP3    H259416   1.204   5.619   8.837
19846TIP3   OH259417   0.837   5.674   8.463
19846TIP3    H159418   0.934   5.685   8.453
19846TIP3    H259419   0.801   5.710   8.381
19847TIP3   OH259420   1.618   5.694   8.972
19847TIP3    H159421   1.577   5.708   9.060
19847TIP3    H259422   1.557   5.629   8.933
19848TIP3   OH259423   0.653   5.732   8.242
19848TIP3    H159424   0.615   5.643   8.227
19848TIP3    H259425   0.716   5.742   8.167
19849TIP3   OH259426   1.812   7.364   9.159
19849TIP3    H159427   1.795   7.419   9.082
19849TIP3    H259428   1.817   7.429   9.231
19850TIP3   OH259429   1.211   5.943   8.866
19850TIP3    H159430   1.285   5.906   8.816
19850TIP3    H259431   1.226   5.905   8.955
19851TIP3   OH259432   0.769   5.437   8.745
19851TIP3    H159433   0.708   5.363   8.763
19851TIP3    H259434   0.817   5.404   8.668
19852TIP3   OH259435   1.188   5.841   9.159
19852TIP3    H159436   1.098   5.877   9.167
19852TIP3    H259437   1.243   5.905   9.207
19853TIP3   OH259438   0.929   6.230   8.242
19853TIP3    H159439   0.852   6.168   8.240
19853TIP3    H259440   0.919   6.268   8.333
19854TIP3   OH259441   1.828   6.470   8.886
19854TIP3    H159442   1.852   6.519   8.803
19854TIP3    H259443   1.741   6.430   8.863
19855TIP3   OH259444   1.383   5.549   8.110
19855TIP3    H159445   1.287   5.534   8.119
19855TIP3    H259446   1.395   5.643   8.137
19856TIP3   OH259447   1.347   6.541   9.242
19856TIP3    H159448   1.322   6.497   9.324
19856TIP3    H259449   1.297   6.625   9.247
19857TIP3   OH259450   1.454   5.792   8.216
19857TIP3    H159451   1.550   5.798   8.234
19857TIP3    H259452   1.438   5.873   8.163
19858TIP3   OH259453   1.076   6.376   8.068
19858TIP3    H159454   1.034   6.465   8.079
19858TIP3    H259455   1.021   6.323   8.129
19859TIP3   OH259456   1.488   6.816   9.136
19859TIP3    H159457   1.396   6.796   9.159
19859TIP3    H259458   1.517   6.863   9.217
19860TIP3   OH259459   1.897   5.879   8.055
19860TIP3    H159460   1.833   5.835   7.994
19860TIP3    H259461   1.894   5.968   8.014
19861TIP3   OH259462   2.112   6.735   9.138
19861TIP3    H159463   2.014   6.735   9.131
19861TIP3    H259464   2.137   6.708   9.047
19862TIP3   OH259465   1.590   6.702   7.961
19862TIP3    H159466   1.572   6.631   8.025
19862TIP3    H259467   1.606   6.654   7.878
19863TIP3   OH259468   1.591   6.331   8.807
19863TIP3    H159469   1.497   6.305   8.817
19863TIP3    H259470   1.626   6.253   8.760
19864TIP3   OH259471   0.901   6.326   8.489
19864TIP3    H159472   0.883   6.419   8.508
19864TIP3    H259473   0.863   6.283   8.567
19865TIP3   OH259474   1.384   6.538   8.975
19865TIP3    H159475   1.374   6.537   9.072
19865TIP3    H259476   1.464   6.485   8.964
19866TIP3   OH259477   1.347   6.426   7.865
19866TIP3    H159478   1.399   6.403   7.945
19866TIP3    H259479   1.257   6.402   7.895
19867TIP3   OH259480   1.621   7.074   9.036
19867TIP3    H159481   1.545   7.013   9.026
19867TIP3    H259482   1.606   7.137   8.962
19868TIP3   OH259483   1.689   6.906   7.687
19868TIP3    H159484   1.728   6.977   7.633
19868TIP3    H259485   1.609   6.952   7.718
19869TIP3   OH259486   1.507   6.364   8.084
19869TIP3    H159487   1.497   6.297   8.155
19869TIP3    H259488   1.604   6.362   8.071
19870TIP3   OH259489   0.768   6.386   7.891
19870TIP3    H159490   0.790   6.300   7.850
19870TIP3    H259491   0.748   6.359   7.981
19871TIP3   OH259492   1.532   5.762   9.224
19871TIP3    H159493   1.620   5.787   9.260
19871TIP3    H259494   1.508   5.681   9.273
19872TIP3   OH259495   1.420   5.503   8.393
19872TIP3    H159496   1.411   5.526   8.299
19872TIP3    H259497   1.462   5.584   8.431
19873TIP3   OH259498   0.938   6.604   8.094
19873TIP3    H159499   0.847   6.624   8.119
19873TIP3    H259500   0.951   6.662   8.017
19874TIP3   OH259501   1.113   5.678   8.498
19874TIP3    H159502   1.180   5.746   8.479
19874TIP3    H259503   1.124   5.668   8.596
19875TIP3   OH259504   1.377   6.003   9.302
19875TIP3    H159505   1.393   6.025   9.395
19875TIP3    H259506   1.426   5.919   9.292
19876TIP3   OH259507   1.262   5.410   8.603
19876TIP3    H159508   1.258   5.485   8.666
19876TIP3    H259509   1.321   5.447   8.534
19877TIP3   OH259510   0.777   5.415   8.400
19877TIP3    H159511   0.799   5.502   8.439
19877TIP3    H259512   0.867   5.375   8.401
19878TIP3   OH259513   2.011   5.900   9.287
19878TIP3    H159514   1.916   5.879   9.286
19878TIP3    H259515   2.039   5.864   9.201
19879TIP3   OH259516   1.676   6.091   8.675
19879TIP3    H159517   1.601   6.030   8.689
19879TIP3    H259518   1.749   6.046   8.722
19880TIP3   OH259519   1.643   7.045   8.628
19880TIP3    H159520   1.603   7.093   8.552
19880TIP3    H259521   1.737   7.063   8.609
19881TIP3   OH259522   0.915   6.604   7.797
19881TIP3    H159523   0.863   6.528   7.827
19881TIP3    H259524   0.972   6.563   7.729
19882TIP3   OH259525   1.531   6.941   9.375
19882TIP3    H159526   1.516   6.884   9.452
19882TIP3    H259527   1.609   6.995   9.405
19883TIP3   OH259528   1.317   6.658   7.687
19883TIP3    H159529   1.365   6.597   7.746
19883TIP3    H259530   1.373   6.660   7.607
19884TIP3   OH259531   1.179   6.411   9.447
19884TIP3    H159532   1.132   6.495   9.448
19884TIP3    H259533   1.225   6.410   9.533
19885TIP3   OH259534   1.042   6.322   7.798
19885TIP3    H159535   1.041   6.341   7.894
19885TIP3    H259536   1.039   6.224   7.798
19886TIP3   OH259537   1.650   6.566   9.180
19886TIP3    H159538   1.719   6.620   9.138
19886TIP3    H259539   1.573   6.626   9.174
19887TIP3   OH259540   0.738   6.032   8.225
19887TIP3    H159541   0.710   5.978   8.299
19887TIP3    H259542   0.769   5.963   8.162
19888TIP3   OH259543   1.068   6.095   9.415
19888TIP3    H159544   0.983   6.143   9.409
19888TIP3    H259545   1.109   6.120   9.329
19889TIP3   OH259546   0.834   5.824   8.061
19889TIP3    H159547   0.810   5.831   7.966
19889TIP3    H259548   0.932   5.833   8.056
19890TIP3   OH259549   1.573   6.523   9.555
19890TIP3    H159550   1.664   6.528   9.521
19890TIP3    H259551   1.577   6.437   9.598
19891TIP3   OH259552   1.656   6.161   7.720
19891TIP3    H159553   1.633   6.113   7.638
19891TIP3    H259554   1.625   6.251   7.696
19892TIP3   OH259555   1.105   5.644   9.342
19892TIP3    H159556   1.147   5.696   9.270
19892TIP3    H259557   1.015   5.680   9.343
19893TIP3   OH259558   1.148   6.220   9.187
19893TIP3    H159559   1.242   6.210   9.165
19893TIP3    H259560   1.145   6.314   9.210
19894TIP3   OH259561   1.779   6.419   9.362
19894TIP3    H159562   1.720   6.475   9.306
19894TIP3    H259563   1.866   6.446   9.326
19895TIP3   OH259564   1.892   7.141   8.579
19895TIP3    H159565   1.921   7.171   8.667
19895TIP3    H259566   1.955   7.185   8.521
19896TIP3   OH259567   1.925   7.159   8.860
19896TIP3    H159568   1.886   7.070   8.859
19896TIP3    H259569   1.999   7.144   8.921
19897TIP3   OH259570   1.981   6.835   9.418
19897TIP3    H159571   1.903   6.840   9.477
19897TIP3    H259572   2.015   6.926   9.423
19898TIP3   OH259573   1.787   6.349   8.057
19898TIP3    H159574   1.857   6.411   8.030
19898TIP3    H259575   1.828   6.308   8.136
19899TIP3   OH259576   1.914   6.216   8.259
19899TIP3    H159577   1.850   6.173   8.320
19899TIP3    H259578   1.980   6.254   8.320
19900TIP3   OH259579   1.965   6.603   8.690
19900TIP3    H159580   2.022   6.543   8.639
19900TIP3    H259581   1.956   6.680   8.631
19901TIP3   OH259582   1.803   6.907   8.888
19901TIP3    H159583   1.734   6.946   8.945
19901TIP3    H259584   1.750   6.857   8.822
19902TIP3   OH259585   1.854   6.122   7.908
19902TIP3    H159586   1.782   6.126   7.840
19902TIP3    H259587   1.828   6.198   7.964
19903TIP3   OH259588   1.725   5.796   7.863
19903TIP3    H159589   1.685   5.837   7.786
19903TIP3    H259590   1.697   5.702   7.852
19904TIP3   OH259591   1.730   6.069   8.408
19904TIP3    H159592   1.740   5.973   8.405
19904TIP3    H259593   1.718   6.086   8.504
19905TIP3   OH259594   2.019   6.496   9.264
19905TIP3    H159595   2.093   6.432   9.255
19905TIP3    H259596   2.048   6.568   9.205
19906TIP3   OH259597   2.206   6.308   9.284
19906TIP3    H159598   2.135   6.254   9.324
19906TIP3    H259599   2.282   6.247   9.296
19907TIP3   OH259600   1.669   5.530   7.851
19907TIP3    H159601   1.746   5.501   7.903
19907TIP3    H259602   1.598   5.470   7.878
19908TIP3   OH259603   1.724   5.784   8.304
19908TIP3    H159604   1.765   5.696   8.319
19908TIP3    H259605   1.784   5.819   8.236
19909TIP3   OH259606   1.889   5.965   8.797
19909TIP3    H159607   1.975   5.991   8.757
19909TIP3    H259608   1.902   6.001   8.887
19910TIP3   OH259609   1.952   6.104   9.031
19910TIP3    H159610   1.876   6.142   9.079
19910TIP3    H259611   1.987   6.183   8.984
19911TIP3   OH259612   2.395   5.673   9.563
19911TIP3    H159613   2.468   5.624   9.520
19911TIP3    H259614   2.409   5.763   9.530
19912TIP3   OH259615   1.835   5.535   8.340
19912TIP3    H159616   1.884   5.521   8.424
19912TIP3    H259617   1.775   5.458   8.340
19913TIP3   OH259618   2.282   5.854   9.383
19913TIP3    H159619   2.191   5.859   9.416
19913TIP3    H259620   2.277   5.771   9.332
19914TIP3   OH259621   1.918   5.475   7.969
19914TIP3    H159622   1.958   5.400   7.921
19914TIP3    H259623   1.987   5.544   7.962
19915TIP3   OH259624   1.480   7.004   8.240
19915TIP3    H159625   1.529   6.986   8.157
19915TIP3    H259626   1.537   7.069   8.283
19916TIP3   OH259627   1.265   7.035   9.272
19916TIP3    H159628   1.321   7.025   9.351
19916TIP3    H259629   1.317   7.098   9.220
19917TIP3   OH259630   1.400   7.246   9.159
19917TIP3    H159631   1.464   7.188   9.115
19917TIP3    H259632   1.459   7.298   9.216
19918TIP3   OH259633   2.178   5.597   9.252
19918TIP3    H159634   2.087   5.593   9.221
19918TIP3    H259635   2.207   5.503   9.240
19919TIP3   OH259636   1.104   7.118   8.812
19919TIP3    H159637   1.010   7.131   8.793
19919TIP3    H259638   1.126   7.202   8.857
19920TIP3   OH259639   1.364   7.056   8.907
19920TIP3    H159640   1.275   7.059   8.867
19920TIP3    H259641   1.412   7.122   8.855
19921TIP3   OH259642   1.573   7.244   8.816
19921TIP3    H159643   1.561   7.326   8.764
19921TIP3    H259644   1.603   7.180   8.747
19922TIP3   OH259645   1.381   5.514   8.883
19922TIP3    H159646   1.340   5.447   8.942
19922TIP3    H259647   1.454   5.464   8.843
19923TIP3   OH259648   1.909   5.393   8.795
19923TIP3    H159649   1.946   5.445   8.720
19923TIP3    H259650   1.814   5.410   8.787
19924TIP3   OH259651   2.002   5.496   8.557
19924TIP3    H159652   2.075   5.445   8.517
19924TIP3    H259653   2.035   5.588   8.543
19925TIP3   OH259654   1.076   5.261   8.783
19925TIP3    H159655   1.138   5.312   8.729
19925TIP3    H259656   1.096   5.292   8.872
19926TIP3   OH259657   1.626   5.402   8.769
19926TIP3    H159658   1.621   5.366   8.679
19926TIP3    H259659   1.609   5.320   8.823
19927TIP3   OH259660   1.652   5.321   8.330
19927TIP3    H159661   1.563   5.361   8.337
19927TIP3    H259662   1.638   5.237   8.379
19928TIP3   OH259663   0.560   5.181   8.355
19928TIP3    H159664   0.568   5.162   8.260
19928TIP3    H259665   0.597   5.270   8.361
19929TIP3   OH259666   1.053   5.425   8.415
19929TIP3    H159667   1.112   5.377   8.475
19929TIP3    H259668   1.076   5.517   8.440
19930TIP3   OH259669   0.920   6.856   7.944
19930TIP3    H159670   1.007   6.861   7.898
19930TIP3    H259671   0.868   6.817   7.871
19931TIP3   OH259672   1.623   6.968   8.007
19931TIP3    H159673   1.615   6.871   7.992
19931TIP3    H259674   1.581   7.002   7.925
19932TIP3   OH259675   1.860   7.105   9.193
19932TIP3    H159676   1.775   7.076   9.155
19932TIP3    H259677   1.848   7.202   9.185
19933TIP3   OH259678   3.099   6.472   7.985
19933TIP3    H159679   3.106   6.565   7.956
19933TIP3    H259680   3.035   6.437   7.922
19934TIP3   OH259681   3.103   6.491   8.345
19934TIP3    H159682   3.144   6.450   8.424
19934TIP3    H259683   3.080   6.414   8.291
19935TIP3   OH259684   2.418   6.383   8.706
19935TIP3    H159685   2.450   6.317   8.771
19935TIP3    H259686   2.494   6.443   8.703
19936TIP3   OH259687   3.342   6.805   8.023
19936TIP3    H159688   3.358   6.715   8.055
19936TIP3    H259689   3.384   6.860   8.091
19937TIP3   OH259690   2.385   6.788   8.433
19937TIP3    H159691   2.378   6.691   8.438
19937TIP3    H259692   2.482   6.799   8.431
19938TIP3   OH259693   2.095   5.995   8.220
19938TIP3    H159694   2.049   6.080   8.233
19938TIP3    H259695   2.023   5.940   8.187
19939TIP3   OH259696   2.154   6.280   8.383
19939TIP3    H159697   2.203   6.206   8.425
19939TIP3    H259698   2.218   6.311   8.317
19940TIP3   OH259699   3.005   7.250   8.038
19940TIP3    H159700   3.054   7.178   7.991
19940TIP3    H259701   3.004   7.216   8.128
19941TIP3   OH259702   2.916   6.711   8.388
19941TIP3    H159703   2.954   6.632   8.345
19941TIP3    H259704   3.001   6.756   8.411
19942TIP3   OH259705   3.929   6.031   8.388
19942TIP3    H159706   3.956   6.114   8.433
19942TIP3    H259707   3.942   6.055   8.295
19943TIP3   OH259708   3.315   6.209   8.433
19943TIP3    H159709   3.368   6.128   8.446
19943TIP3    H259710   3.307   6.210   8.336
19944TIP3   OH259711   2.661   5.871   8.390
19944TIP3    H159712   2.644   5.946   8.328
19944TIP3    H259713   2.610   5.801   8.345
19945TIP3   OH259714   3.357   5.958   8.012
19945TIP3    H159715   3.430   5.944   8.077
19945TIP3    H259716   3.408   6.002   7.941
19946TIP3   OH259717   2.299   6.076   8.494
19946TIP3    H159718   2.382   6.057   8.543
19946TIP3    H259719   2.313   6.019   8.415
19947TIP3   OH259720   2.742   6.273   8.285
19947TIP3    H159721   2.836   6.248   8.298
19947TIP3    H259722   2.704   6.188   8.254
19948TIP3   OH259723   4.001   6.238   8.559
19948TIP3    H159724   3.919   6.287   8.537
19948TIP3    H259725   4.012   6.262   8.652
19949TIP3   OH259726   2.662   5.854   8.821
19949TIP3    H159727   2.601   5.894   8.756
19949TIP3    H259728   2.613   5.871   8.904
19950TIP3   OH259729   3.016   6.705   7.828
19950TIP3    H159730   2.966   6.681   7.750
19950TIP3    H259731   2.974   6.790   7.853
19951TIP3   OH259732   2.769   6.629   8.622
19951TIP3    H159733   2.704   6.693   8.661
19951TIP3    H259734   2.811   6.684   8.552
19952TIP3   OH259735   3.573   5.959   8.181
19952TIP3    H159736   3.565   5.917   8.267
19952TIP3    H259737   3.624   6.039   8.203
19953TIP3   OH259738   2.531   5.971   8.608
19953TIP3    H159739   2.593   6.044   8.633
19953TIP3    H259740   2.581   5.930   8.534
19954TIP3   OH259741   2.593   6.821   8.714
19954TIP3    H159742   2.569   6.908   8.677
19954TIP3    H259743   2.516   6.807   8.773
19955TIP3   OH259744   1.995   6.513   7.952
19955TIP3    H159745   1.952   6.541   7.869
19955TIP3    H259746   2.024   6.598   7.991
19956TIP3   OH259747   3.435   7.030   8.198
19956TIP3    H159748   3.343   7.018   8.234
19956TIP3    H259749   3.424   7.113   8.149
19957TIP3   OH259750   3.720   5.932   8.554
19957TIP3    H159751   3.633   5.964   8.525
19957TIP3    H259752   3.779   5.964   8.481
19958TIP3   OH259753   3.021   5.577   8.533
19958TIP3    H159754   3.011   5.482   8.553
19958TIP3    H259755   2.944   5.615   8.581
19959TIP3   OH259756   3.136   7.078   7.867
19959TIP3    H159757   3.186   6.995   7.851
19959TIP3    H259758   3.197   7.142   7.824
19960TIP3   OH259759   3.279   6.862   7.765
19960TIP3    H159760   3.239   6.780   7.734
19960TIP3    H259761   3.313   6.834   7.853
19961TIP3   OH259762   3.659   6.945   8.534
19961TIP3    H159763   3.647   6.867   8.476
19961TIP3    H259764   3.642   7.019   8.471
19962TIP3   OH259765   2.946   6.334   7.786
19962TIP3    H159766   2.868   6.390   7.765
19962TIP3    H259767   3.000   6.341   7.706
19963TIP3   OH259768   2.912   6.116   7.512
19963TIP3    H159769   2.973   6.167   7.569
19963TIP3    H259770   2.977   6.064   7.459
19964TIP3   OH259771   3.854   6.580   8.379
19964TIP3    H159772   3.770   6.631   8.386
19964TIP3    H259773   3.881   6.603   8.288
19965TIP3   OH259774   3.533   6.461   8.671
19965TIP3    H159775   3.528   6.545   8.721
19965TIP3    H259776   3.447   6.464   8.624
19966TIP3   OH259777   2.529   6.418   8.181
19966TIP3    H159778   2.490   6.360   8.112
19966TIP3    H259779   2.607   6.367   8.209
19967TIP3   OH259780   2.660   6.830   8.329
19967TIP3    H159781   2.640   6.779   8.249
19967TIP3    H259782   2.750   6.799   8.349
19968TIP3   OH259783   2.666   6.389   8.533
19968TIP3    H159784   2.702   6.371   8.444
19968TIP3    H259785   2.709   6.474   8.556
19969TIP3   OH259786   3.189   7.028   8.310
19969TIP3    H159787   3.178   7.105   8.367
19969TIP3    H259788   3.177   6.952   8.372
19970TIP3   OH259789   2.801   6.947   8.857
19970TIP3    H159790   2.743   7.009   8.906
19970TIP3    H259791   2.735   6.893   8.811
19971TIP3   OH259792   3.151   6.284   7.596
19971TIP3    H159793   3.213   6.344   7.642
19971TIP3    H259794   3.170   6.306   7.502
19972TIP3   OH259795   2.554   6.507   8.953
19972TIP3    H159796   2.560   6.591   9.004
19972TIP3    H259797   2.459   6.487   8.965
19973TIP3   OH259798   2.875   6.961   7.862
19973TIP3    H159799   2.955   7.011   7.889
19973TIP3    H259800   2.816   7.031   7.830
19974TIP3   OH259801   2.597   7.117   8.945
19974TIP3    H159802   2.560   7.112   8.855
19974TIP3    H259803   2.519   7.095   9.001
19975TIP3   OH259804   3.653   5.521   7.635
19975TIP3    H159805   3.574   5.540   7.689
19975TIP3    H259806   3.666   5.606   7.589
19976TIP3   OH259807   2.397   6.258   7.981
19976TIP3    H159808   2.332   6.305   7.925
19976TIP3    H259809   2.349   6.177   8.002
19977TIP3   OH259810   3.450   6.888   7.183
19977TIP3    H159811   3.459   6.985   7.172
19977TIP3    H259812   3.542   6.859   7.170
19978TIP3   OH259813   2.176   6.644   8.892
19978TIP3    H159814   2.114   6.618   8.822
19978TIP3    H259815   2.214   6.558   8.921
19979TIP3   OH259816   2.030   6.837   8.526
19979TIP3    H159817   2.126   6.829   8.517
19979TIP3    H259818   2.023   6.916   8.582
19980TIP3   OH259819   3.896   7.286   8.578
19980TIP3    H159820   3.894   7.189   8.592
19980TIP3    H259821   3.813   7.312   8.624
19981TIP3   OH259822   3.001   7.076   8.714
19981TIP3    H159823   3.003   7.168   8.747
19981TIP3    H259824   2.930   7.037   8.770
19982TIP3   OH259825   2.757   7.205   7.666
19982TIP3    H159826   2.714   7.186   7.581
19982TIP3    H259827   2.727   7.296   7.686
19983TIP3   OH259828   2.198   7.055   8.049
19983TIP3    H159829   2.248   7.045   8.133
19983TIP3    H259830   2.135   6.981   8.058
19984TIP3   OH259831   2.963   7.104   7.309
19984TIP3    H159832   3.023   7.035   7.272
19984TIP3    H259833   2.996   7.113   7.400
19985TIP3   OH259834   3.010   7.152   7.580
19985TIP3    H159835   2.923   7.160   7.625
19985TIP3    H259836   3.063   7.109   7.650
19986TIP3   OH259837   3.787   6.421   8.853
19986TIP3    H159838   3.707   6.436   8.800
19986TIP3    H259839   3.800   6.325   8.843
19987TIP3   OH259840   2.381   6.827   8.884
19987TIP3    H159841   2.432   6.812   8.967
19987TIP3    H259842   2.308   6.763   8.893
19988TIP3   OH259843   2.781   5.651   8.662
19988TIP3    H159844   2.690   5.622   8.640
19988TIP3    H259845   2.760   5.735   8.706
19989TIP3   OH259846   3.314   5.766   8.857
19989TIP3    H159847   3.381   5.741   8.924
19989TIP3    H259848   3.229   5.747   8.903
19990TIP3   OH259849   3.557   6.196   8.777
19990TIP3    H159850   3.507   6.191   8.862
19990TIP3    H259851   3.531   6.283   8.742
19991TIP3   OH259852   3.209   6.326   7.334
19991TIP3    H159853   3.183   6.300   7.244
19991TIP3    H259854   3.289   6.379   7.316
19992TIP3   OH259855   2.709   6.166   8.682
19992TIP3    H159856   2.663   6.191   8.765
19992TIP3    H259857   2.696   6.247   8.628
19993TIP3   OH259858   2.597   6.050   8.195
19993TIP3    H159859   2.503   6.026   8.212
19993TIP3    H259860   2.611   6.008   8.108
19994TIP3   OH259861   3.081   6.130   7.917
19994TIP3    H159862   3.030   6.209   7.886
19994TIP3    H259863   3.145   6.120   7.845
19995TIP3   OH259864   3.260   6.420   9.013
19995TIP3    H159865   3.239   6.346   9.075
19995TIP3    H259866   3.355   6.434   9.033
19996TIP3   OH259867   3.241   6.167   8.167
19996TIP3    H159868   3.194   6.211   8.095
19996TIP3    H259869   3.269   6.085   8.121
19997TIP3   OH259870   2.528   6.196   8.894
19997TIP3    H159871   2.560   6.259   8.961
19997TIP3    H259872   2.521   6.114   8.946
19998TIP3   OH259873   2.623   5.671   7.619
19998TIP3    H159874   2.585   5.672   7.710
19998TIP3    H259875   2.544   5.701   7.570
19999TIP3   OH259876   2.124   5.720   8.471
19999TIP3    H159877   2.200   5.751   8.525
19999TIP3    H259878   2.166   5.685   8.391
20000TIP3   OH259879   2.105   5.701   7.991
20000TIP3    H159880   2.149   5.741   7.914
20000TIP3    H259881   2.043   5.773   8.014
20001TIP3   OH259882   3.256   6.416   8.590
20001TIP3    H159883   3.285   6.342   8.532
20001TIP3    H259884   3.227   6.365   8.668
20002TIP3   OH259885   2.917   5.867   8.258
20002TIP3    H159886   2.838   5.873   8.314
20002TIP3    H259887   2.988   5.883   8.323
20003TIP3   OH259888   2.358   5.929   8.267
20003TIP3    H159889   2.263   5.937   8.242
20003TIP3    H259890   2.380   5.837   8.245
20004TIP3   OH259891   2.634   5.917   7.954
20004TIP3    H159892   2.730   5.933   7.942
20004TIP3    H259893   2.593   5.954   7.873
20005TIP3   OH259894   3.418   5.948   8.460
20005TIP3    H159895   3.381   5.962   8.550
20005TIP3    H259896   3.351   5.890   8.421
20006TIP3   OH259897   2.465   5.955   7.734
20006TIP3    H159898   2.390   5.915   7.686
20006TIP3    H259899   2.515   5.994   7.660
20007TIP3   OH259900   3.582   7.639   8.678
20007TIP3    H159901   3.582   7.663   8.583
20007TIP3    H259902   3.659   7.689   8.711
20008TIP3   OH259903   2.543   6.750   9.102
20008TIP3    H159904   2.623   6.780   9.150
20008TIP3    H259905   2.478   6.748   9.175
20009TIP3   OH259906   3.004   6.191   8.352
20009TIP3    H159907   3.085   6.169   8.302
20009TIP3    H259908   3.027   6.161   8.442
20010TIP3   OH259909   2.527   5.692   8.229
20010TIP3    H159910   2.497   5.613   8.279
20010TIP3    H259911   2.601   5.657   8.178
20011TIP3   OH259912   2.983   6.092   8.654
20011TIP3    H159913   2.896   6.135   8.660
20011TIP3    H259914   3.043   6.155   8.698
20012TIP3   OH259915   2.720   6.492   7.740
20012TIP3    H159916   2.648   6.427   7.731
20012TIP3    H259917   2.705   6.525   7.832
20013TIP3   OH259918   3.624   6.727   8.373
20013TIP3    H159919   3.645   6.774   8.290
20013TIP3    H259920   3.538   6.683   8.352
20014TIP3   OH259921   3.157   5.808   7.600
20014TIP3    H159922   3.073   5.855   7.596
20014TIP3    H259923   3.217   5.885   7.616
20015TIP3   OH259924   3.122   6.808   8.739
20015TIP3    H159925   3.138   6.783   8.830
20015TIP3    H259926   3.082   6.896   8.746
20016TIP3   OH259927   3.254   6.042   7.687
20016TIP3    H159928   3.347   6.048   7.719
20016TIP3    H259929   3.239   6.130   7.647
20017TIP3   OH259930   2.409   6.507   8.419
20017TIP3    H159931   2.450   6.482   8.334
20017TIP3    H259932   2.452   6.448   8.482
20018TIP3   OH259933   2.863   6.639   7.556
20018TIP3    H159934   2.819   6.726   7.566
20018TIP3    H259935   2.811   6.585   7.619
20019TIP3   OH259936   2.291   6.435   9.030
20019TIP3    H159937   2.318   6.424   9.124
20019TIP3    H259938   2.225   6.365   9.021
20020TIP3   OH259939   3.016   6.545   9.048
20020TIP3    H159940   2.960   6.485   8.997
20020TIP3    H259941   3.105   6.513   9.022
20021TIP3   OH259942   3.282   7.071   8.630
20021TIP3    H159943   3.186   7.066   8.643
20021TIP3    H259944   3.309   7.120   8.711
20022TIP3   OH259945   3.699   6.136   7.538
20022TIP3    H159946   3.629   6.092   7.484
20022TIP3    H259947   3.690   6.226   7.499
20023TIP3   OH259948   3.909   6.995   8.623
20023TIP3    H159949   3.811   6.991   8.616
20023TIP3    H259950   3.934   6.964   8.533
20024TIP3   OH259951   3.389   6.959   7.449
20024TIP3    H159952   3.368   6.892   7.516
20024TIP3    H259953   3.401   6.907   7.367
20025TIP3   OH259954   3.387   6.595   8.304
20025TIP3    H159955   3.293   6.570   8.305
20025TIP3    H259956   3.424   6.514   8.262
20026TIP3   OH259957   2.511   6.813   8.040
20026TIP3    H159958   2.516   6.896   7.989
20026TIP3    H259959   2.416   6.803   8.050
20027TIP3   OH259960   2.074   6.120   7.741
20027TIP3    H159961   2.122   6.203   7.762
20027TIP3    H259962   1.998   6.126   7.803
20028TIP3   OH259963   2.653   6.582   7.984
20028TIP3    H159964   2.619   6.671   8.004
20028TIP3    H259965   2.621   6.532   8.062
20029TIP3   OH259966   2.780   7.160   8.513
20029TIP3    H159967   2.823   7.232   8.462
20029TIP3    H259968   2.856   7.125   8.562
20030TIP3   OH259969   2.433   7.054   7.894
20030TIP3    H159970   2.347   7.061   7.940
20030TIP3    H259971   2.464   7.147   7.898
20031TIP3   OH259972   3.175   6.796   8.469
20031TIP3    H159973   3.168   6.789   8.566
20031TIP3    H259974   3.252   6.739   8.451
20032TIP3   OH259975   3.142   6.681   7.352
20032TIP3    H159976   3.196   6.655   7.431
20032TIP3    H259977   3.054   6.662   7.386
20033TIP3   OH259978   3.421   7.330   8.522
20033TIP3    H159979   3.343   7.271   8.514
20033TIP3    H259980   3.403   7.394   8.449
20034TIP3   OH259981   3.487   7.163   7.174
20034TIP3    H159982   3.523   7.236   7.120
20034TIP3    H259983   3.406   7.208   7.206
20035TIP3   OH259984   2.508   5.935   9.039
20035TIP3    H159985   2.414   5.946   9.062
20035TIP3    H259986   2.540   5.881   9.113
20036TIP3   OH259987   3.297   6.615   7.569
20036TIP3    H159988   3.311   6.574   7.658
20036TIP3    H259989   3.391   6.620   7.546
20037TIP3   OH259990   2.220   7.024   8.672
20037TIP3    H159991   2.273   6.947   8.701
20037TIP3    H259992   2.248   7.090   8.737
20038TIP3   OH259993   2.511   6.668   7.350
20038TIP3    H159994   2.529   6.577   7.321
20038TIP3    H259995   2.495   6.655   7.446
20039TIP3   OH259996   2.459   6.671   7.625
20039TIP3    H159997   2.529   6.644   7.686
20039TIP3    H259998   2.464   6.769   7.630
20040TIP3   OH259999   2.195   6.366   7.826
20040TIP3    H160000   2.130   6.412   7.884
20040TIP3    H260001   2.211   6.437   7.761
20041TIP3   OH260002   3.339   6.002   8.718
20041TIP3    H160003   3.418   6.041   8.758
20041TIP3    H260004   3.324   5.922   8.772
20042TIP3   OH260005   3.222   5.757   7.878
20042TIP3    H160006   3.209   5.793   7.789
20042TIP3    H260007   3.261   5.835   7.924
20043TIP3   OH260008   2.721   6.869   7.571
20043TIP3    H160009   2.636   6.900   7.609
20043TIP3    H260010   2.741   6.941   7.510
20044TIP3   OH260011   2.909   5.925   7.978
20044TIP3    H160012   2.974   5.997   7.961
20044TIP3    H260013   2.917   5.913   8.074
20045TIP3   OH260014   3.179   6.254   8.796
20045TIP3    H160015   3.195   6.308   8.875
20045TIP3    H260016   3.236   6.177   8.812
20046TIP3   OH260017   3.063   5.663   8.094
20046TIP3    H160018   3.050   5.738   8.154
20046TIP3    H260019   3.115   5.706   8.023
20047TIP3   OH260020   2.462   6.945   7.638
20047TIP3    H160021   2.432   7.015   7.575
20047TIP3    H260022   2.447   6.988   7.724
20048TIP3   OH260023   2.572   5.656   7.883
20048TIP3    H160024   2.557   5.750   7.910
20048TIP3    H260025   2.645   5.634   7.943
20049TIP3   OH260026   3.824   6.152   8.773
20049TIP3    H160027   3.726   6.150   8.782
20049TIP3    H260028   3.833   6.117   8.684
20050TIP3   OH260029   3.465   6.354   8.207
20050TIP3    H160030   3.406   6.296   8.158
20050TIP3    H260031   3.547   6.301   8.212
20051TIP3   OH260032   2.182   6.581   7.633
20051TIP3    H160033   2.244   6.655   7.644
20051TIP3    H260034   2.231   6.529   7.566
20052TIP3   OH260035   2.131   5.852   7.764
20052TIP3    H160036   2.128   5.949   7.759
20052TIP3    H260037   2.045   5.828   7.730
20053TIP3   OH260038   3.439   7.302   8.114
20053TIP3    H160039   3.397   7.349   8.038
20053TIP3    H260040   3.534   7.320   8.093
20054TIP3   OH260041   2.515   5.572   8.642
20054TIP3    H160042   2.484   5.538   8.556
20054TIP3    H260043   2.506   5.493   8.700
20055TIP3   OH260044   2.059   6.789   8.027
20055TIP3    H160045   1.980   6.823   8.070
20055TIP3    H260046   2.046   6.826   7.937
20056TIP3   OH260047   2.209   7.323   9.089
20056TIP3    H160048   2.296   7.323   9.136
20056TIP3    H260049   2.190   7.227   9.089
20057TIP3   OH260050   2.699   7.300   9.136
20057TIP3    H160051   2.792   7.275   9.142
20057TIP3    H260052   2.670   7.243   9.061
20058TIP3   OH260053   2.676   6.873   7.266
20058TIP3    H160054   2.619   6.802   7.304
20058TIP3    H260055   2.751   6.820   7.235
20059TIP3   OH260056   3.333   7.201   8.869
20059TIP3    H160057   3.324   7.131   8.938
20059TIP3    H260058   3.410   7.252   8.900
20060TIP3   OH260059   3.112   6.914   7.174
20060TIP3    H160060   3.159   6.853   7.233
20060TIP3    H260061   3.169   6.916   7.095
20061TIP3   OH260062   2.342   6.732   9.291
20061TIP3    H160063   2.360   6.636   9.297
20061TIP3    H260064   2.254   6.733   9.248
20062TIP3   OH260065   2.318   6.390   7.483
20062TIP3    H160066   2.372   6.357   7.556
20062TIP3    H260067   2.387   6.395   7.413
20063TIP3   OH260068   2.953   6.820   9.064
20063TIP3    H160069   2.909   6.832   8.978
20063TIP3    H260070   2.983   6.727   9.061
20064TIP3   OH260071   2.821   6.585   7.289
20064TIP3    H160072   2.828   6.600   7.385
20064TIP3    H260073   2.820   6.487   7.286
20065TIP3   OH260074   3.444   6.826   8.673
20065TIP3    H160075   3.516   6.873   8.626
20065TIP3    H260076   3.370   6.888   8.659
20066TIP3   OH260077   2.462   6.465   9.270
20066TIP3    H160078   2.534   6.402   9.261
20066TIP3    H260079   2.484   6.503   9.358
20067TIP3   OH260080   2.528   6.289   7.707
20067TIP3    H160081   2.502   6.252   7.793
20067TIP3    H260082   2.563   6.211   7.660
20068TIP3   OH260083   2.794   6.352   8.932
20068TIP3    H160084   2.720   6.416   8.941
20068TIP3    H260085   2.843   6.388   8.855
20069TIP3   OH260086   2.626   6.077   7.549
20069TIP3    H160087   2.599   6.084   7.455
20069TIP3    H260088   2.723   6.091   7.542
20070TIP3   OH260089   3.313   6.758   9.071
20070TIP3    H160090   3.394   6.739   9.023
20070TIP3    H260091   3.313   6.689   9.139
20071TIP3   OH260092   3.452   6.417   7.206
20071TIP3    H160093   3.428   6.370   7.124
20071TIP3    H260094   3.420   6.507   7.182
20072TIP3   OH260095   2.921   6.141   9.063
20072TIP3    H160096   2.919   6.061   9.009
20072TIP3    H260097   2.876   6.207   9.005
20073TIP3   OH260098   2.921   5.925   8.868
20073TIP3    H160099   2.949   5.971   8.786
20073TIP3    H260100   2.827   5.905   8.850
20074TIP3   OH260101   2.954   6.466   8.739
20074TIP3    H160102   3.035   6.472   8.687
20074TIP3    H260103   2.898   6.535   8.698
20075TIP3   OH260104   3.534   6.434   9.126
20075TIP3    H160105   3.584   6.351   9.134
20075TIP3    H260106   3.602   6.494   9.092
20076TIP3   OH260107   3.575   6.685   8.861
20076TIP3    H160108   3.516   6.737   8.801
20076TIP3    H260109   3.661   6.704   8.819
20077TIP3   OH260110   2.794   6.264   9.284
20077TIP3    H160111   2.724   6.199   9.305
20077TIP3    H260112   2.831   6.228   9.201
20078TIP3   OH260113   3.055   5.694   8.934
20078TIP3    H160114   3.007   5.777   8.913
20078TIP3    H260115   2.984   5.627   8.923
20079TIP3   OH260116   3.180   6.201   9.152
20079TIP3    H160117   3.169   6.191   9.249
20079TIP3    H260118   3.090   6.176   9.124
20080TIP3   OH260119   3.419   6.146   9.006
20080TIP3    H160120   3.343   6.150   9.068
20080TIP3    H260121   3.492   6.116   9.065
20081TIP3   OH260122   3.650   6.087   9.159
20081TIP3    H160123   3.660   5.992   9.180
20081TIP3    H260124   3.645   6.129   9.247
20082TIP3   OH260125   2.633   6.043   9.330
20082TIP3    H160126   2.647   5.951   9.302
20082TIP3    H260127   2.675   6.040   9.419
20083TIP3   OH260128   3.150   5.702   9.191
20083TIP3    H160129   3.219   5.633   9.183
20083TIP3    H260130   3.109   5.696   9.103
20084TIP3   OH260131   3.215   5.922   9.347
20084TIP3    H160132   3.189   5.851   9.284
20084TIP3    H260133   3.137   5.982   9.345
20085TIP3   OH260134   2.433   7.148   7.451
20085TIP3    H160135   2.528   7.146   7.433
20085TIP3    H260136   2.402   7.194   7.371
20086TIP3   OH260137   1.914   6.529   7.670
20086TIP3    H160138   2.009   6.552   7.657
20086TIP3    H260139   1.911   6.440   7.628
20087TIP3   OH260140   1.827   7.141   8.080
20087TIP3    H160141   1.759   7.079   8.047
20087TIP3    H260142   1.871   7.087   8.149
20088TIP3   OH260143   1.964   6.999   8.268
20088TIP3    H160144   1.956   6.921   8.326
20088TIP3    H260145   2.015   7.058   8.326
20089TIP3   OH260146   3.690   7.397   8.065
20089TIP3    H160147   3.716   7.427   8.154
20089TIP3    H260148   3.751   7.445   8.008
20090TIP3   OH260149   3.723   7.414   8.346
20090TIP3    H160150   3.679   7.326   8.344
20090TIP3    H260151   3.796   7.395   8.407
20091TIP3   OH260152   3.768   7.090   8.922
20091TIP3    H160153   3.694   7.098   8.984
20091TIP3    H260154   3.808   7.180   8.926
20092TIP3   OH260155   3.596   6.611   7.521
20092TIP3    H160156   3.676   6.663   7.539
20092TIP3    H260157   3.571   6.580   7.612
20093TIP3   OH260158   3.767   6.864   8.182
20093TIP3    H160159   3.813   6.797   8.129
20093TIP3    H260160   3.747   6.933   8.117
20094TIP3   OH260161   3.600   7.165   8.375
20094TIP3    H160162   3.529   7.204   8.429
20094TIP3    H260163   3.549   7.115   8.308
20095TIP3   OH260164   3.652   6.373   7.391
20095TIP3    H160165   3.578   6.380   7.327
20095TIP3    H260166   3.630   6.450   7.449
20096TIP3   OH260167   3.520   6.053   7.350
20096TIP3    H160168   3.482   6.095   7.272
20096TIP3    H260169   3.491   5.959   7.338
20097TIP3   OH260170   2.154   6.402   8.639
20097TIP3    H160171   2.154   6.375   8.545
20097TIP3    H260172   2.251   6.403   8.657
20098TIP3   OH260173   3.815   6.751   8.750
20098TIP3    H160174   3.889   6.687   8.742
20098TIP3    H260175   3.842   6.822   8.689
20099TIP3   OH260176   4.003   6.561   8.773
20099TIP3    H160177   3.928   6.510   8.811
20099TIP3    H260178   4.075   6.496   8.785
20100TIP3   OH260179   3.464   5.787   7.341
20100TIP3    H160180   3.547   5.762   7.386
20100TIP3    H260181   3.402   5.719   7.370
20101TIP3   OH260182   3.508   6.029   7.783
20101TIP3    H160183   3.562   5.948   7.797
20101TIP3    H260184   3.573   6.089   7.743
20102TIP3   OH260185   3.692   6.210   8.283
20102TIP3    H160186   3.776   6.243   8.244
20102TIP3    H260187   3.697   6.253   8.370
20103TIP3   OH260188   3.752   6.361   8.518
20103TIP3    H160189   3.672   6.395   8.564
20103TIP3    H260190   3.783   6.441   8.472
20104TIP3   OH260191   2.370   6.096   9.304
20104TIP3    H160192   2.468   6.091   9.313
20104TIP3    H260193   2.345   6.012   9.349
20105TIP3   OH260194   4.204   5.950   9.074
20105TIP3    H160195   4.262   5.884   9.029
20105TIP3    H260196   4.177   6.007   8.999
20106TIP3   OH260197   3.637   5.788   7.825
20106TIP3    H160198   3.682   5.777   7.911
20106TIP3    H260199   3.574   5.713   7.828
20107TIP3   OH260200   2.331   5.779   8.645
20107TIP3    H160201   2.394   5.705   8.658
20107TIP3    H260202   2.392   5.855   8.642
20108TIP3   OH260203   2.135   6.054   8.719
20108TIP3    H160204   2.185   6.048   8.635
20108TIP3    H260205   2.165   6.140   8.752
20109TIP3   OH260206   4.079   6.095   8.882
20109TIP3    H160207   3.991   6.132   8.904
20109TIP3    H260208   4.052   6.024   8.820
20110TIP3   OH260209   3.713   5.732   7.454
20110TIP3    H160210   3.756   5.657   7.408
20110TIP3    H260211   3.783   5.801   7.450
20111TIP3   OH260212   2.117   5.558   8.219
20111TIP3    H160213   2.023   5.557   8.245
20111TIP3    H260214   2.116   5.617   8.141
20112TIP3   OH260215   3.274   7.261   7.724
20112TIP3    H160216   3.327   7.242   7.644
20112TIP3    H260217   3.330   7.324   7.771
20113TIP3   OH260218   2.340   5.635   9.024
20113TIP3    H160219   2.293   5.632   9.109
20113TIP3    H260220   2.274   5.678   8.967
20114TIP3   OH260221   2.378   7.061   9.117
20114TIP3    H160222   2.287   7.032   9.098
20114TIP3    H260223   2.386   7.042   9.211
20115TIP3   OH260224   2.553   7.091   8.659
20115TIP3    H160225   2.506   7.168   8.621
20115TIP3    H260226   2.640   7.106   8.616
20116TIP3   OH260227   3.004   7.342   8.798
20116TIP3    H160228   3.045   7.344   8.887
20116TIP3    H260229   3.070   7.392   8.746
20117TIP3   OH260230   3.182   7.491   8.652
20117TIP3    H160231   3.254   7.439   8.614
20117TIP3    H260232   3.231   7.548   8.715
20118TIP3   OH260233   3.974   5.856   8.757
20118TIP3    H160234   3.883   5.855   8.723
20118TIP3    H260235   4.001   5.763   8.743
20119TIP3   OH260236   2.234   7.353   8.681
20119TIP3    H160237   2.145   7.389   8.659
20119TIP3    H260238   2.243   7.385   8.771
20120TIP3   OH260239   2.469   7.332   8.539
20120TIP3    H160240   2.384   7.344   8.585
20120TIP3    H260241   2.448   7.365   8.450
20121TIP3   OH260242   2.896   7.364   8.336
20121TIP3    H160243   2.826   7.387   8.272
20121TIP3    H260244   2.909   7.449   8.382
20122TIP3   OH260245   3.163   7.303   8.388
20122TIP3    H160246   3.068   7.318   8.367
20122TIP3    H260247   3.204   7.382   8.349
20123TIP3   OH260248   3.374   7.496   8.307
20123TIP3    H160249   3.360   7.579   8.257
20123TIP3    H260250   3.397   7.433   8.235
20124TIP3   OH260251   2.144   7.148   8.428
20124TIP3    H160252   2.171   7.125   8.520
20124TIP3    H260253   2.216   7.103   8.379
20125TIP3   OH260254   2.336   7.018   8.281
20125TIP3    H160255   2.353   6.934   8.330
20125TIP3    H260256   2.426   7.056   8.277
20126TIP3   OH260257   2.601   7.115   8.284
20126TIP3    H160258   2.634   7.024   8.272
20126TIP3    H260259   2.642   7.136   8.370
20127TIP3   OH260260   3.178   5.771   8.371
20127TIP3    H160261   3.134   5.703   8.426
20127TIP3    H260262   3.251   5.721   8.329
20128TIP3   OH260263   3.705   5.647   8.280
20128TIP3    H160264   3.742   5.702   8.207
20128TIP3    H260265   3.611   5.670   8.276
20129TIP3   OH260266   3.800   5.752   8.045
20129TIP3    H160267   3.872   5.702   8.003
20129TIP3    H260268   3.831   5.845   8.030
20130TIP3   OH260269   2.430   5.479   8.390
20130TIP3    H160270   2.337   5.446   8.392
20130TIP3    H260271   2.479   5.394   8.390
20131TIP3   OH260272   2.213   5.348   8.037
20131TIP3    H160273   2.240   5.408   7.966
20131TIP3    H260274   2.183   5.410   8.106
20132TIP3   OH260275   2.866   5.516   8.268
20132TIP3    H160276   2.929   5.567   8.214
20132TIP3    H260277   2.887   5.549   8.356
20133TIP3   OH260278   3.421   5.656   8.259
20133TIP3    H160279   3.417   5.624   8.168
20133TIP3    H260280   3.404   5.574   8.310
20134TIP3   OH260281   3.446   5.577   7.815
20134TIP3    H160282   3.362   5.623   7.833
20134TIP3    H260283   3.434   5.494   7.866
20135TIP3   OH260284   1.931   6.915   7.822
20135TIP3    H160285   1.847   6.883   7.785
20135TIP3    H260286   1.919   7.010   7.810
20136TIP3   OH260287   2.326   5.509   7.802
20136TIP3    H160288   2.376   5.445   7.747
20136TIP3    H260289   2.397   5.563   7.841
20137TIP3   OH260290   2.703   7.113   7.399
20137TIP3    H160291   2.793   7.132   7.366
20137TIP3    H260292   2.681   7.036   7.342
20138TIP3   OH260293   3.422   7.225   7.492
20138TIP3    H160294   3.413   7.127   7.480
20138TIP3    H260295   3.377   7.258   7.412
20139TIP3   OH260296   2.634   5.758   9.274
20139TIP3    H160297   2.605   5.686   9.333
20139TIP3    H260298   2.729   5.763   9.300
20140TIP3   OH260299   2.885   5.751   9.380
20140TIP3    H160300   2.976   5.731   9.352
20140TIP3    H260301   2.876   5.699   9.462
20141TIP3   OH260302   2.008   6.947   7.460
20141TIP3    H160303   2.006   6.975   7.553
20141TIP3    H260304   2.097   6.907   7.452
20142TIP3   OH260305   3.708   5.815   9.190
20142TIP3    H160306   3.729   5.784   9.281
20142TIP3    H260307   3.796   5.813   9.147
20143TIP3   OH260308   3.652   7.372   8.680
20143TIP3    H160309   3.572   7.338   8.636
20143TIP3    H260310   3.631   7.468   8.683
20144TIP3   OH260311   4.917   6.739   7.452
20144TIP3    H160312   4.890   6.832   7.437
20144TIP3    H260313   4.839   6.692   7.419
20145TIP3   OH260314   4.909   6.742   7.827
20145TIP3    H160315   4.941   6.711   7.913
20145TIP3    H260316   4.870   6.660   7.790
20146TIP3   OH260317   4.217   6.640   8.190
20146TIP3    H160318   4.246   6.573   8.254
20146TIP3    H260319   4.293   6.700   8.190
20147TIP3   OH260320   5.152   7.044   7.509
20147TIP3    H160321   5.145   6.972   7.573
20147TIP3    H260322   5.183   7.118   7.565
20148TIP3   OH260323   4.182   7.049   7.917
20148TIP3    H160324   4.171   6.951   7.923
20148TIP3    H260325   4.278   7.054   7.932
20149TIP3   OH260326   3.889   6.268   7.712
20149TIP3    H160327   3.836   6.341   7.748
20149TIP3    H260328   3.819   6.209   7.679
20150TIP3   OH260329   3.981   6.553   7.879
20150TIP3    H160330   4.010   6.466   7.915
20150TIP3    H260331   4.003   6.545   7.786
20151TIP3   OH260332   4.796   7.503   7.521
20151TIP3    H160333   4.849   7.431   7.479
20151TIP3    H260334   4.799   7.479   7.614
20152TIP3   OH260335   4.713   6.968   7.873
20152TIP3    H160336   4.750   6.889   7.831
20152TIP3    H260337   4.798   7.012   7.898
20153TIP3   OH260338   5.722   6.290   7.873
20153TIP3    H160339   5.752   6.371   7.918
20153TIP3    H260340   5.744   6.310   7.781
20154TIP3   OH260341   5.125   6.472   7.912
20154TIP3    H160342   5.167   6.386   7.933
20154TIP3    H260343   5.095   6.456   7.820
20155TIP3   OH260344   4.459   6.129   7.876
20155TIP3    H160345   4.438   6.202   7.814
20155TIP3    H260346   4.412   6.055   7.832
20156TIP3   OH260347   5.154   6.220   7.500
20156TIP3    H160348   5.226   6.202   7.564
20156TIP3    H260349   5.205   6.255   7.426
20157TIP3   OH260350   4.095   6.328   7.982
20157TIP3    H160351   4.178   6.309   8.030
20157TIP3    H260352   4.107   6.272   7.903
20158TIP3   OH260353   4.538   6.531   7.768
20158TIP3    H160354   4.630   6.503   7.786
20158TIP3    H260355   4.497   6.446   7.740
20159TIP3   OH260356   5.798   6.496   8.044
20159TIP3    H160357   5.714   6.543   8.025
20159TIP3    H260358   5.808   6.515   8.138
20160TIP3   OH260359   4.459   6.112   8.309
20160TIP3    H160360   4.398   6.149   8.243
20160TIP3    H260361   4.409   6.130   8.391
20161TIP3   OH260362   4.811   6.961   7.327
20161TIP3    H160363   4.772   6.927   7.246
20161TIP3    H260364   4.770   7.048   7.337
20162TIP3   OH260365   4.565   6.887   8.109
20162TIP3    H160366   4.499   6.947   8.149
20162TIP3    H260367   4.608   6.944   8.043
20163TIP3   OH260368   5.369   6.219   7.666
20163TIP3    H160369   5.363   6.167   7.747
20163TIP3    H260370   5.424   6.294   7.694
20164TIP3   OH260371   4.329   6.227   8.095
20164TIP3    H160372   4.391   6.300   8.118
20164TIP3    H260373   4.377   6.186   8.020
20165TIP3   OH260374   4.388   7.078   8.198
20165TIP3    H160375   4.364   7.167   8.166
20165TIP3    H260376   4.312   7.062   8.259
20166TIP3   OH260377   3.811   6.776   7.436
20166TIP3    H160378   3.740   6.794   7.372
20166TIP3    H260379   3.825   6.864   7.477
20167TIP3   OH260380   5.228   7.284   7.679
20167TIP3    H160381   5.138   7.276   7.719
20167TIP3    H260382   5.221   7.371   7.635
20168TIP3   OH260383   5.516   6.191   8.042
20168TIP3    H160384   5.428   6.220   8.012
20168TIP3    H260385   5.574   6.220   7.969
20169TIP3   OH260386   4.819   5.835   8.022
20169TIP3    H160387   4.807   5.739   8.039
20169TIP3    H260388   4.740   5.871   8.068
20170TIP3   OH260389   4.928   7.330   7.350
20170TIP3    H160390   4.982   7.249   7.330
20170TIP3    H260391   4.989   7.398   7.313
20171TIP3   OH260392   5.071   7.117   7.257
20171TIP3    H160393   5.048   7.035   7.211
20171TIP3    H260394   5.106   7.082   7.342
20172TIP3   OH260395   5.455   7.202   8.022
20172TIP3    H160396   5.444   7.124   7.964
20172TIP3    H260397   5.439   7.276   7.959
20173TIP3   OH260398   4.746   6.597   7.276
20173TIP3    H160399   4.663   6.638   7.248
20173TIP3    H260400   4.794   6.586   7.192
20174TIP3   OH260401   4.704   6.376   7.001
20174TIP3    H160402   4.776   6.426   7.045
20174TIP3    H260403   4.757   6.310   6.952
20175TIP3   OH260404   5.650   6.836   7.866
20175TIP3    H160405   5.567   6.888   7.873
20175TIP3    H260406   5.678   6.859   7.774
20176TIP3   OH260407   5.093   6.676   7.252
20176TIP3    H160408   5.039   6.700   7.331
20176TIP3    H260409   5.176   6.648   7.295
20177TIP3   OH260410   5.329   6.719   8.158
20177TIP3    H160411   5.325   6.801   8.210
20177TIP3    H260412   5.241   6.722   8.114
20178TIP3   OH260413   4.330   6.680   7.659
20178TIP3    H160414   4.283   6.618   7.599
20178TIP3    H260415   4.403   6.623   7.693
20179TIP3   OH260416   4.464   7.091   7.795
20179TIP3    H160417   4.440   7.006   7.756
20179TIP3    H260418   4.552   7.068   7.832
20180TIP3   OH260419   4.472   6.642   8.023
20180TIP3    H160420   4.498   6.628   7.930
20180TIP3    H260421   4.507   6.731   8.043
20181TIP3   OH260422   4.985   7.283   7.796
20181TIP3    H160423   4.973   7.362   7.851
20181TIP3    H260424   4.973   7.210   7.861
20182TIP3   OH260425   4.597   7.204   8.343
20182TIP3    H160426   4.539   7.265   8.392
20182TIP3    H260427   4.530   7.149   8.298
20183TIP3   OH260428   4.933   6.536   7.077
20183TIP3    H160429   4.993   6.593   7.130
20183TIP3    H260430   4.961   6.560   6.985
20184TIP3   OH260431   4.350   6.763   8.440
20184TIP3    H160432   4.354   6.847   8.491
20184TIP3    H260433   4.255   6.742   8.451
20185TIP3   OH260434   4.656   7.230   7.337
20185TIP3    H160435   4.744   7.255   7.372
20185TIP3    H260436   4.619   7.317   7.317
20186TIP3   OH260437   4.393   7.373   8.431
20186TIP3    H160438   4.356   7.368   8.341
20186TIP3    H260439   4.316   7.351   8.487
20187TIP3   OH260440   5.450   5.778   7.123
20187TIP3    H160441   5.369   5.795   7.175
20187TIP3    H260442   5.460   5.862   7.074
20188TIP3   OH260443   4.191   6.518   7.473
20188TIP3    H160444   4.125   6.559   7.414
20188TIP3    H260445   4.151   6.432   7.490
20189TIP3   OH260446   5.246   7.145   6.673
20189TIP3    H160447   5.256   7.242   6.658
20189TIP3    H260448   5.339   7.115   6.660
20190TIP3   OH260449   3.974   6.901   8.378
20190TIP3    H160450   3.908   6.879   8.309
20190TIP3    H260451   4.008   6.813   8.404
20191TIP3   OH260452   3.825   7.100   8.005
20191TIP3    H160453   3.920   7.086   8.006
20191TIP3    H260454   3.815   7.174   8.067
20192TIP3   OH260455   5.692   7.542   8.065
20192TIP3    H160456   5.691   7.446   8.079
20192TIP3    H260457   5.609   7.568   8.111
20193TIP3   OH260458   4.797   7.333   8.200
20193TIP3    H160459   4.799   7.425   8.234
20193TIP3    H260460   4.726   7.294   8.256
20194TIP3   OH260461   4.540   7.449   7.158
20194TIP3    H160462   4.517   7.442   7.063
20194TIP3    H260463   4.522   7.543   7.178
20195TIP3   OH260464   3.990   7.311   7.533
20195TIP3    H160465   4.046   7.302   7.613
20195TIP3    H260466   3.929   7.236   7.547
20196TIP3   OH260467   4.760   7.360   6.795
20196TIP3    H160468   4.820   7.292   6.757
20196TIP3    H260469   4.795   7.369   6.886
20197TIP3   OH260470   4.805   7.410   7.069
20197TIP3    H160471   4.719   7.415   7.115
20197TIP3    H260472   4.863   7.375   7.138
20198TIP3   OH260473   5.583   6.678   8.339
20198TIP3    H160474   5.502   6.691   8.288
20198TIP3    H260475   5.597   6.582   8.330
20199TIP3   OH260476   4.178   7.083   8.370
20199TIP3    H160477   4.228   7.067   8.453
20199TIP3    H260478   4.105   7.019   8.378
20200TIP3   OH260479   4.578   5.909   8.148
20200TIP3    H160480   4.488   5.877   8.125
20200TIP3    H260481   4.554   5.992   8.194
20201TIP3   OH260482   5.109   6.025   8.345
20201TIP3    H160483   5.177   5.997   8.410
20201TIP3    H260484   5.025   6.003   8.389
20202TIP3   OH260485   5.354   6.453   8.265
20202TIP3    H160486   5.304   6.447   8.349
20202TIP3    H260487   5.326   6.540   8.230
20203TIP3   OH260488   5.010   6.589   6.822
20203TIP3    H160489   4.976   6.558   6.737
20203TIP3    H260490   5.091   6.635   6.794
20204TIP3   OH260491   4.724   5.960   7.122
20204TIP3    H160492   4.692   5.957   7.214
20204TIP3    H260493   4.686   5.876   7.088
20205TIP3   OH260494   4.509   6.421   8.172
20205TIP3    H160495   4.457   6.444   8.252
20205TIP3    H260496   4.494   6.501   8.117
20206TIP3   OH260497   4.392   6.310   7.684
20206TIP3    H160498   4.299   6.283   7.701
20206TIP3    H260499   4.406   6.268   7.596
20207TIP3   OH260500   4.884   6.397   7.410
20207TIP3    H160501   4.830   6.468   7.370
20207TIP3    H260502   4.937   6.367   7.333
20208TIP3   OH260503   5.057   6.677   8.500
20208TIP3    H160504   5.035   6.603   8.561
20208TIP3    H260505   5.151   6.690   8.521
20209TIP3   OH260506   5.042   6.426   7.651
20209TIP3    H160507   4.983   6.455   7.579
20209TIP3    H260508   5.074   6.343   7.611
20210TIP3   OH260509   4.328   6.453   8.379
20210TIP3    H160510   4.350   6.516   8.449
20210TIP3    H260511   4.315   6.370   8.429
20211TIP3   OH260512   4.379   5.930   7.088
20211TIP3    H160513   4.373   5.926   7.186
20211TIP3    H260514   4.296   5.977   7.066
20212TIP3   OH260515   3.921   5.976   7.956
20212TIP3    H160516   3.997   6.006   8.012
20212TIP3    H260517   3.964   5.939   7.878
20213TIP3   OH260518   3.901   5.956   7.478
20213TIP3    H160519   3.947   5.996   7.401
20213TIP3    H260520   3.838   6.028   7.500
20214TIP3   OH260521   5.052   6.673   8.075
20214TIP3    H160522   5.084   6.599   8.018
20214TIP3    H260523   5.024   6.623   8.154
20215TIP3   OH260524   4.717   6.136   7.747
20215TIP3    H160525   4.633   6.130   7.797
20215TIP3    H260526   4.783   6.133   7.817
20216TIP3   OH260527   4.154   6.186   7.752
20216TIP3    H160528   4.059   6.194   7.727
20216TIP3    H260529   4.176   6.094   7.731
20217TIP3   OH260530   4.427   6.186   7.441
20217TIP3    H160531   4.521   6.198   7.421
20217TIP3    H260532   4.381   6.208   7.357
20218TIP3   OH260533   5.211   6.208   7.945
20218TIP3    H160534   5.176   6.218   8.037
20218TIP3    H260535   5.147   6.144   7.909
20219TIP3   OH260536   4.260   6.219   7.222
20219TIP3    H160537   4.186   6.174   7.177
20219TIP3    H260538   4.312   6.250   7.145
20220TIP3   OH260539   5.378   7.895   8.164
20220TIP3    H160540   5.378   7.918   8.070
20220TIP3    H260541   5.454   7.946   8.197
20221TIP3   OH260542   4.340   7.007   8.588
20221TIP3    H160543   4.419   7.036   8.638
20221TIP3    H260544   4.274   7.005   8.661
20222TIP3   OH260545   4.804   6.459   7.843
20222TIP3    H160546   4.874   6.416   7.793
20222TIP3    H260547   4.815   6.419   7.932
20223TIP3   OH260548   4.330   5.949   7.717
20223TIP3    H160549   4.298   5.868   7.763
20223TIP3    H260550   4.385   5.912   7.647
20224TIP3   OH260551   4.781   6.353   8.133
20224TIP3    H160552   4.691   6.390   8.146
20224TIP3    H260553   4.838   6.413   8.185
20225TIP3   OH260554   4.515   6.754   7.225
20225TIP3    H160555   4.445   6.686   7.215
20225TIP3    H260556   4.499   6.782   7.319
20226TIP3   OH260557   5.419   6.984   7.860
20226TIP3    H160558   5.442   7.032   7.777
20226TIP3    H260559   5.334   6.942   7.837
20227TIP3   OH260560   4.976   6.062   7.086
20227TIP3    H160561   4.879   6.045   7.094
20227TIP3    H260562   4.985   6.156   7.110
20228TIP3   OH260563   4.919   7.067   8.224
20228TIP3    H160564   4.934   7.038   8.315
20228TIP3    H260565   4.877   7.154   8.235
20229TIP3   OH260566   5.046   6.307   7.191
20229TIP3    H160567   5.142   6.310   7.208
20229TIP3    H260568   5.031   6.385   7.135
20230TIP3   OH260569   4.224   6.778   7.907
20230TIP3    H160570   4.246   6.736   7.822
20230TIP3    H260571   4.230   6.704   7.969
20231TIP3   OH260572   4.659   6.895   7.041
20231TIP3    H160573   4.642   6.983   7.075
20231TIP3    H260574   4.606   6.838   7.101
20232TIP3   OH260575   4.088   6.689   8.516
20232TIP3    H160576   4.108   6.675   8.611
20232TIP3    H260577   4.018   6.624   8.501
20233TIP3   OH260578   4.812   6.802   8.536
20233TIP3    H160579   4.754   6.742   8.486
20233TIP3    H260580   4.901   6.769   8.509
20234TIP3   OH260581   5.078   7.327   8.116
20234TIP3    H160582   4.982   7.322   8.131
20234TIP3    H260583   5.106   7.376   8.197
20235TIP3   OH260584   5.489   6.393   7.029
20235TIP3    H160585   5.426   6.347   6.969
20235TIP3    H260586   5.486   6.481   6.987
20236TIP3   OH260587   5.706   7.252   8.111
20236TIP3    H160588   5.607   7.248   8.104
20236TIP3    H260589   5.730   7.221   8.020
20237TIP3   OH260590   5.183   7.215   6.936
20237TIP3    H160591   5.166   7.142   6.997
20237TIP3    H260592   5.199   7.170   6.851
20238TIP3   OH260593   5.183   6.845   7.779
20238TIP3    H160594   5.090   6.818   7.792
20238TIP3    H260595   5.218   6.765   7.734
20239TIP3   OH260596   4.286   7.098   7.467
20239TIP3    H160597   4.322   7.163   7.529
20239TIP3    H260598   4.213   7.062   7.521
20240TIP3   OH260599   3.871   6.378   7.227
20240TIP3    H160600   3.918   6.460   7.252
20240TIP3    H260601   3.794   6.380   7.289
20241TIP3   OH260602   4.456   6.846   7.474
20241TIP3    H160603   4.408   6.927   7.491
20241TIP3    H260604   4.421   6.786   7.544
20242TIP3   OH260605   4.577   7.416   7.999
20242TIP3    H160606   4.618   7.490   7.949
20242TIP3    H260607   4.653   7.383   8.050
20243TIP3   OH260608   4.970   7.050   7.956
20243TIP3    H160609   4.962   7.049   8.054
20243TIP3    H260610   5.050   6.997   7.943
20244TIP3   OH260611   4.939   6.941   6.839
20244TIP3    H160612   4.993   6.917   6.918
20244TIP3    H260613   4.852   6.909   6.867
20245TIP3   OH260614   5.217   7.586   8.008
20245TIP3    H160615   5.139   7.528   8.001
20245TIP3    H260616   5.200   7.650   7.936
20246TIP3   OH260617   5.282   7.419   6.660
20246TIP3    H160618   5.319   7.490   6.604
20246TIP3    H260619   5.201   7.466   6.692
20247TIP3   OH260620   4.303   6.195   8.528
20247TIP3    H160621   4.206   6.201   8.543
20247TIP3    H260622   4.330   6.133   8.597
20248TIP3   OH260623   5.098   6.881   7.062
20248TIP3    H160624   5.090   6.810   7.129
20248TIP3    H260625   5.195   6.876   7.044
20249TIP3   OH260626   4.020   7.281   8.157
20249TIP3    H160627   4.066   7.202   8.191
20249TIP3    H260628   4.044   7.346   8.225
20250TIP3   OH260629   4.313   6.918   6.857
20250TIP3    H160630   4.328   6.854   6.786
20250TIP3    H260631   4.295   6.858   6.929
20251TIP3   OH260632   3.994   6.622   7.311
20251TIP3    H160633   3.929   6.665   7.371
20251TIP3    H260634   4.006   6.695   7.247
20252TIP3   OH260635   5.136   6.259   8.204
20252TIP3    H160636   5.215   6.296   8.247
20252TIP3    H260637   5.119   6.179   8.259
20253TIP3   OH260638   5.013   6.015   7.368
20253TIP3    H160639   5.002   6.037   7.273
20253TIP3    H260640   5.054   6.097   7.404
20254TIP3   OH260641   4.709   6.189   7.472
20254TIP3    H160642   4.776   6.259   7.455
20254TIP3    H260643   4.713   6.182   7.570
20255TIP3   OH260644   4.978   6.512   8.281
20255TIP3    H160645   4.992   6.565   8.362
20255TIP3    H260646   5.032   6.433   8.299
20256TIP3   OH260647   4.854   5.923   7.578
20256TIP3    H160648   4.850   5.999   7.639
20256TIP3    H260649   4.913   5.959   7.507
20257TIP3   OH260650   4.363   5.913   7.364
20257TIP3    H160651   4.361   6.003   7.402
20257TIP3    H260652   4.458   5.893   7.374
20258TIP3   OH260653   5.620   6.410   8.258
20258TIP3    H160654   5.523   6.408   8.269
20258TIP3    H260655   5.628   6.368   8.171
20259TIP3   OH260656   5.268   6.605   7.649
20259TIP3    H160657   5.193   6.544   7.662
20259TIP3    H260658   5.341   6.558   7.696
20260TIP3   OH260659   3.984   6.836   7.128
20260TIP3    H160660   4.000   6.926   7.098
20260TIP3    H260661   4.029   6.783   7.058
20261TIP3   OH260662   3.929   6.109   7.251
20261TIP3    H160663   3.923   6.207   7.246
20261TIP3    H260664   3.842   6.083   7.219
20262TIP3   OH260665   5.236   7.556   7.600
20262TIP3    H160666   5.194   7.604   7.525
20262TIP3    H260667   5.330   7.575   7.579
20263TIP3   OH260668   4.313   5.828   8.129
20263TIP3    H160669   4.281   5.796   8.042
20263TIP3    H260670   4.302   5.749   8.186
20264TIP3   OH260671   3.855   7.050   7.512
20264TIP3    H160672   3.780   7.078   7.566
20264TIP3    H260673   3.831   7.088   7.425
20265TIP3   OH260674   4.005   7.582   8.577
20265TIP3    H160675   4.091   7.582   8.625
20265TIP3    H260676   3.983   7.488   8.578
20266TIP3   OH260677   4.495   7.558   8.620
20266TIP3    H160678   4.588   7.533   8.631
20266TIP3    H260679   4.468   7.499   8.547
20267TIP3   OH260680   4.473   7.127   6.760
20267TIP3    H160681   4.421   7.050   6.792
20267TIP3    H260682   4.548   7.082   6.716
20268TIP3   OH260683   5.131   7.456   8.354
20268TIP3    H160684   5.120   7.388   8.424
20268TIP3    H260685   5.207   7.508   8.387
20269TIP3   OH260686   4.909   7.171   6.661
20269TIP3    H160687   4.959   7.110   6.717
20269TIP3    H260688   4.963   7.175   6.580
20270TIP3   OH260689   4.139   6.992   8.778
20270TIP3    H160690   4.155   6.896   8.783
20270TIP3    H260691   4.050   6.995   8.737
20271TIP3   OH260692   4.122   6.661   6.972
20271TIP3    H160693   4.164   6.606   7.040
20271TIP3    H260694   4.187   6.651   6.898
20272TIP3   OH260695   4.749   7.077   8.551
20272TIP3    H160696   4.704   7.088   8.465
20272TIP3    H260697   4.779   6.983   8.548
20273TIP3   OH260698   4.612   6.840   6.774
20273TIP3    H160699   4.623   6.852   6.870
20273TIP3    H260700   4.618   6.742   6.768
20274TIP3   OH260701   5.240   7.081   8.156
20274TIP3    H160702   5.312   7.130   8.113
20274TIP3    H260703   5.166   7.144   8.148
20275TIP3   OH260704   4.258   6.725   8.759
20275TIP3    H160705   4.330   6.662   8.745
20275TIP3    H260706   4.279   6.759   8.848
20276TIP3   OH260707   4.331   6.549   7.197
20276TIP3    H160708   4.298   6.506   7.278
20276TIP3    H260709   4.362   6.472   7.146
20277TIP3   OH260710   4.593   6.613   8.424
20277TIP3    H160711   4.515   6.672   8.429
20277TIP3    H260712   4.638   6.644   8.343
20278TIP3   OH260713   4.422   6.341   7.036
20278TIP3    H160714   4.396   6.337   6.941
20278TIP3    H260715   4.519   6.346   7.029
20279TIP3   OH260716   5.109   7.014   8.557
20279TIP3    H160717   5.191   6.996   8.511
20279TIP3    H260718   5.107   6.946   8.626
20280TIP3   OH260719   5.248   6.674   6.695
20280TIP3    H160720   5.227   6.625   6.613
20280TIP3    H260721   5.216   6.764   6.668
20281TIP3   OH260722   4.716   6.398   8.551
20281TIP3    H160723   4.714   6.317   8.496
20281TIP3    H260724   4.672   6.464   8.493
20282TIP3   OH260725   4.718   6.185   8.355
20282TIP3    H160726   4.744   6.226   8.270
20282TIP3    H260727   4.623   6.162   8.338
20283TIP3   OH260728   4.751   6.724   8.227
20283TIP3    H160729   4.830   6.728   8.173
20283TIP3    H260730   4.693   6.791   8.185
20284TIP3   OH260731   5.330   6.690   8.611
20284TIP3    H160732   5.378   6.607   8.624
20284TIP3    H260733   5.399   6.749   8.580
20285TIP3   OH260734   5.371   6.941   8.347
20285TIP3    H160735   5.312   6.993   8.287
20285TIP3    H260736   5.458   6.961   8.305
20286TIP3   OH260737   4.591   6.518   8.776
20286TIP3    H160738   4.522   6.449   8.791
20286TIP3    H260739   4.627   6.490   8.690
20287TIP3   OH260740   4.850   5.951   8.419
20287TIP3    H160741   4.801   6.033   8.399
20287TIP3    H260742   4.780   5.883   8.409
20288TIP3   OH260743   4.976   6.458   8.638
20288TIP3    H160744   4.968   6.447   8.734
20288TIP3    H260745   4.886   6.432   8.611
20289TIP3   OH260746   5.216   6.403   8.493
20289TIP3    H160747   5.140   6.406   8.554
20289TIP3    H260748   5.289   6.372   8.551
20290TIP3   OH260749   5.447   6.343   8.645
20290TIP3    H160750   5.457   6.248   8.666
20290TIP3    H260751   5.442   6.385   8.733
20291TIP3   OH260752   4.433   6.297   8.828
20291TIP3    H160753   4.441   6.206   8.792
20291TIP3    H260754   4.467   6.283   8.919
20292TIP3   OH260755   4.946   5.961   8.676
20292TIP3    H160756   5.014   5.890   8.672
20292TIP3    H260757   4.906   5.952   8.587
20293TIP3   OH260758   5.011   6.175   8.838
20293TIP3    H160759   4.988   6.105   8.773
20293TIP3    H260760   4.934   6.235   8.831
20294TIP3   OH260761   4.233   7.386   6.945
20294TIP3    H160762   4.327   7.396   6.920
20294TIP3    H260763   4.193   7.436   6.871
20295TIP3   OH260764   3.709   6.789   7.144
20295TIP3    H160765   3.806   6.802   7.150
20295TIP3    H260766   3.704   6.697   7.112
20296TIP3   OH260767   3.624   7.398   7.567
20296TIP3    H160768   3.556   7.336   7.534
20296TIP3    H260769   3.668   7.342   7.635
20297TIP3   OH260770   3.761   7.253   7.754
20297TIP3    H160771   3.750   7.177   7.814
20297TIP3    H260772   3.810   7.313   7.813
20298TIP3   OH260773   5.486   7.651   7.553
20298TIP3    H160774   5.513   7.684   7.641
20298TIP3    H260775   5.545   7.700   7.494
20299TIP3   OH260776   5.519   7.671   7.834
20299TIP3    H160777   5.476   7.583   7.830
20299TIP3    H260778   5.592   7.650   7.894
20300TIP3   OH260779   5.564   7.347   8.408
20300TIP3    H160780   5.490   7.354   8.471
20300TIP3    H260781   5.604   7.436   8.413
20301TIP3   OH260782   5.378   6.863   7.031
20301TIP3    H160783   5.450   6.924   7.004
20301TIP3    H260784   5.419   6.821   7.110
20302TIP3   OH260785   5.506   6.730   7.233
20302TIP3    H160786   5.442   6.685   7.292
20302TIP3    H260787   5.571   6.768   7.296
20303TIP3   OH260788   5.559   7.118   7.666
20303TIP3    H160789   5.613   7.056   7.614
20303TIP3    H260790   5.549   7.193   7.604
20304TIP3   OH260791   5.395   7.420   7.862
20304TIP3    H160792   5.324   7.462   7.915
20304TIP3    H260793   5.344   7.371   7.794
20305TIP3   OH260794   5.447   6.637   6.882
20305TIP3    H160795   5.375   6.638   6.814
20305TIP3    H260796   5.418   6.712   6.937
20306TIP3   OH260797   5.316   6.311   6.837
20306TIP3    H160798   5.278   6.348   6.757
20306TIP3    H260799   5.290   6.216   6.829
20307TIP3   OH260800   5.323   6.582   7.381
20307TIP3    H160801   5.331   6.486   7.376
20307TIP3    H260802   5.310   6.597   7.478
20308TIP3   OH260803   3.950   6.658   8.129
20308TIP3    H160804   3.947   6.630   8.034
20308TIP3    H260805   4.047   6.657   8.144
20309TIP3   OH260806   5.611   7.008   8.236
20309TIP3    H160807   5.685   6.943   8.229
20309TIP3    H260808   5.640   7.079   8.176
20310TIP3   OH260809   5.799   6.818   8.260
20310TIP3    H160810   5.724   6.767   8.298
20310TIP3    H260811   5.872   6.752   8.272
20311TIP3   OH260812   5.261   6.045   6.827
20311TIP3    H160813   5.338   6.012   6.878
20311TIP3    H260814   5.189   5.984   6.850
20312TIP3   OH260815   5.318   6.299   7.278
20312TIP3    H160816   5.357   6.210   7.294
20312TIP3    H260817   5.378   6.330   7.208
20313TIP3   OH260818   5.482   6.478   7.770
20313TIP3    H160819   5.568   6.504   7.732
20313TIP3    H260820   5.494   6.512   7.861
20314TIP3   OH260821   5.547   6.617   8.005
20314TIP3    H160822   5.469   6.651   8.053
20314TIP3    H260823   5.580   6.698   7.960
20315TIP3   OH260824   4.166   6.346   8.801
20315TIP3    H160825   4.264   6.338   8.802
20315TIP3    H260826   4.141   6.262   8.844
20316TIP3   OH260827   6.001   6.207   8.560
20316TIP3    H160828   6.059   6.141   8.516
20316TIP3    H260829   5.974   6.264   8.486
20317TIP3   OH260830   5.427   6.049   7.314
20317TIP3    H160831   5.476   6.033   7.398
20317TIP3    H260832   5.367   5.971   7.313
20318TIP3   OH260833   4.128   6.035   8.130
20318TIP3    H160834   4.191   5.961   8.143
20318TIP3    H260835   4.188   6.111   8.129
20319TIP3   OH260836   3.936   6.311   8.210
20319TIP3    H160837   3.981   6.302   8.124
20319TIP3    H260838   3.958   6.401   8.234
20320TIP3   OH260839   5.875   6.352   8.368
20320TIP3    H160840   5.787   6.388   8.391
20320TIP3    H260841   5.848   6.280   8.307
20321TIP3   OH260842   5.512   5.988   6.944
20321TIP3    H160843   5.550   5.912   6.895
20321TIP3    H260844   5.580   6.056   6.934
20322TIP3   OH260845   3.913   5.814   7.706
20322TIP3    H160846   3.820   5.814   7.733
20322TIP3    H260847   3.912   5.873   7.628
20323TIP3   OH260848   5.071   7.513   7.213
20323TIP3    H160849   5.122   7.498   7.131
20323TIP3    H260850   5.123   7.582   7.257
20324TIP3   OH260851   4.134   5.893   8.522
20324TIP3    H160852   4.083   5.889   8.605
20324TIP3    H260853   4.067   5.933   8.462
20325TIP3   OH260854   4.174   7.319   8.601
20325TIP3    H160855   4.083   7.289   8.582
20325TIP3    H260856   4.182   7.301   8.695
20326TIP3   OH260857   4.350   7.347   8.145
20326TIP3    H160858   4.300   7.423   8.109
20326TIP3    H260859   4.436   7.365   8.102
20327TIP3   OH260860   4.800   7.598   8.284
20327TIP3    H160861   4.840   7.600   8.374
20327TIP3    H260862   4.867   7.649   8.233
20328TIP3   OH260863   4.979   7.747   8.140
20328TIP3    H160864   5.052   7.696   8.102
20328TIP3    H260865   5.028   7.805   8.202
20329TIP3   OH260866   5.770   6.113   8.243
20329TIP3    H160867   5.679   6.109   8.211
20329TIP3    H260868   5.798   6.019   8.230
20330TIP3   OH260869   4.030   7.611   8.168
20330TIP3    H160870   3.942   7.647   8.144
20330TIP3    H260871   4.035   7.637   8.260
20331TIP3   OH260872   4.265   7.587   8.024
20331TIP3    H160873   4.180   7.600   8.072
20331TIP3    H260874   4.244   7.623   7.936
20332TIP3   OH260875   4.692   7.621   7.822
20332TIP3    H160876   4.622   7.643   7.758
20332TIP3    H260877   4.705   7.707   7.867
20333TIP3   OH260878   4.959   7.558   7.871
20333TIP3    H160879   4.864   7.575   7.854
20333TIP3    H260880   5.000   7.639   7.836
20334TIP3   OH260881   5.170   7.752   7.793
20334TIP3    H160882   5.155   7.837   7.745
20334TIP3    H260883   5.193   7.691   7.720
20335TIP3   OH260884   3.942   7.406   7.914
20335TIP3    H160885   3.967   7.380   8.006
20335TIP3    H260886   4.012   7.358   7.864
20336TIP3   OH260887   4.134   7.272   7.764
20336TIP3    H160888   4.147   7.191   7.820
20336TIP3    H260889   4.223   7.313   7.769
20337TIP3   OH260890   4.400   7.366   7.770
20337TIP3    H160891   4.435   7.275   7.770
20337TIP3    H260892   4.436   7.398   7.854
20338TIP3   OH260893   4.974   6.027   7.858
20338TIP3    H160894   4.930   5.960   7.914
20338TIP3    H260895   5.045   5.976   7.815
20339TIP3   OH260896   5.502   5.908   7.769
20339TIP3    H160897   5.538   5.959   7.693
20339TIP3    H260898   5.406   5.923   7.761
20340TIP3   OH260899   5.595   6.010   7.531
20340TIP3    H160900   5.667   5.958   7.490
20340TIP3    H260901   5.628   6.102   7.516
20341TIP3   OH260902   4.225   5.737   7.879
20341TIP3    H160903   4.133   5.703   7.879
20341TIP3    H260904   4.274   5.652   7.876
20342TIP3   OH260905   4.006   5.604   7.523
20342TIP3    H160906   4.039   5.663   7.453
20342TIP3    H260907   3.979   5.668   7.592
20343TIP3   OH260908   4.664   5.771   7.757
20343TIP3    H160909   4.726   5.821   7.702
20343TIP3    H260910   4.684   5.805   7.845
20344TIP3   OH260911   5.220   5.913   7.742
20344TIP3    H160912   5.212   5.879   7.653
20344TIP3    H260913   5.203   5.833   7.797
20345TIP3   OH260914   5.244   5.835   7.304
20345TIP3    H160915   5.156   5.874   7.311
20345TIP3    H260916   5.231   5.750   7.352
20346TIP3   OH260917   3.733   7.170   7.304
20346TIP3    H160918   3.647   7.138   7.270
20346TIP3    H260919   3.716   7.266   7.298
20347TIP3   OH260920   4.125   5.766   7.289
20347TIP3    H160921   4.175   5.702   7.234
20347TIP3    H260922   4.198   5.819   7.327
20348TIP3   OH260923   4.640   5.939   7.389
20348TIP3    H160924   4.699   5.890   7.448
20348TIP3    H260925   4.664   6.031   7.414
20349TIP3   OH260926   4.502   7.372   6.891
20349TIP3    H160927   4.591   7.390   6.853
20349TIP3    H260928   4.483   7.289   6.842
20350TIP3   OH260929   5.216   7.482   6.980
20350TIP3    H160930   5.207   7.384   6.966
20350TIP3    H260931   5.173   7.515   6.899
20351TIP3   OH260932   4.432   6.017   8.769
20351TIP3    H160933   4.399   5.947   8.827
20351TIP3    H260934   4.527   6.018   8.795
20352TIP3   OH260935   4.681   6.014   8.889
20352TIP3    H160936   4.766   5.987   8.849
20352TIP3    H260937   4.668   5.943   8.956
20353TIP3   OH260938   3.805   7.206   6.945
20353TIP3    H160939   3.794   7.235   7.037
20353TIP3    H260940   3.893   7.164   6.944
20354TIP3   OH260941   5.504   6.072   8.677
20354TIP3    H160942   5.524   6.041   8.768
20354TIP3    H260943   5.592   6.068   8.635
20355TIP3   OH260944   5.448   7.628   8.167
20355TIP3    H160945   5.368   7.594   8.123
20355TIP3    H260946   5.427   7.724   8.170
20356TIP3   OH260947   6.712   6.999   6.937
20356TIP3    H160948   6.683   7.091   6.918
20356TIP3    H260949   6.635   6.950   6.904
20357TIP3   OH260950   6.708   6.998   7.312
20357TIP3    H160951   6.737   6.966   7.399
20357TIP3    H260952   6.666   6.919   7.275
20358TIP3   OH260953   6.011   6.897   7.679
20358TIP3    H160954   6.042   6.830   7.743
20358TIP3    H260955   6.088   6.955   7.675
20359TIP3   OH260956   6.946   7.299   6.995
20359TIP3    H160957   6.937   7.223   7.054
20359TIP3    H260958   6.974   7.368   7.055
20360TIP3   OH260959   5.979   7.303   7.407
20360TIP3    H160960   5.969   7.205   7.412
20360TIP3    H260961   6.075   7.311   7.406
20361TIP3   OH260962   5.688   6.511   7.195
20361TIP3    H160963   5.636   6.594   7.205
20361TIP3    H260964   5.619   6.451   7.162
20362TIP3   OH260965   5.749   6.796   7.359
20362TIP3    H160966   5.795   6.719   7.399
20362TIP3    H260967   5.805   6.816   7.284
20363TIP3   OH260968   6.623   7.750   7.040
20363TIP3    H160969   6.623   7.663   6.997
20363TIP3    H260970   6.579   7.731   7.125
20364TIP3   OH260971   6.509   7.225   7.361
20364TIP3    H160972   6.545   7.147   7.316
20364TIP3    H260973   6.594   7.269   7.384
20365TIP3   OH260974   7.519   6.547   7.361
20365TIP3    H160975   7.549   6.630   7.403
20365TIP3    H260976   7.541   6.565   7.268
20366TIP3   OH260977   6.922   6.729   7.399
20366TIP3    H160978   6.963   6.642   7.419
20366TIP3    H260979   6.891   6.714   7.308
20367TIP3   OH260980   6.256   6.386   7.363
20367TIP3    H160981   6.234   6.458   7.300
20367TIP3    H260982   6.209   6.311   7.319
20368TIP3   OH260983   6.950   6.477   6.988
20368TIP3    H160984   7.023   6.459   7.051
20368TIP3    H260985   7.001   6.512   6.912
20369TIP3   OH260986   5.892   6.590   7.468
20369TIP3    H160987   5.974   6.568   7.516
20369TIP3    H260988   5.902   6.532   7.389
20370TIP3   OH260989   6.334   6.787   7.258
20370TIP3    H160990   6.427   6.759   7.273
20370TIP3    H260991   6.293   6.702   7.228
20371TIP3   OH260992   7.597   6.756   7.530
20371TIP3    H160993   7.512   6.801   7.509
20371TIP3    H260994   7.595   6.761   7.627
20372TIP3   OH260995   6.256   6.370   7.796
20372TIP3    H160996   6.193   6.406   7.730
20372TIP3    H260997   6.205   6.386   7.878
20373TIP3   OH260998   6.606   7.221   6.806
20373TIP3    H160999   6.562   7.187   6.727
20373TIP3    H261000   6.561   7.307   6.817
20374TIP3   OH261001   6.362   7.143   7.596
20374TIP3    H161002   6.296   7.205   7.635
20374TIP3    H261003   6.402   7.199   7.526
20375TIP3   OH261004   7.166   6.476   7.152
20375TIP3    H161005   7.158   6.423   7.233
20375TIP3    H261006   7.221   6.551   7.182
20376TIP3   OH261007   6.124   6.484   7.582
20376TIP3    H161008   6.188   6.556   7.604
20376TIP3    H261009   6.172   6.442   7.507
20377TIP3   OH261010   6.186   7.334   7.689
20377TIP3    H161011   6.161   7.420   7.650
20377TIP3    H261012   6.108   7.319   7.747
20378TIP3   OH261013   5.587   7.026   6.926
20378TIP3    H161014   5.544   7.052   6.842
20378TIP3    H261015   5.615   7.111   6.963
20379TIP3   OH261016   7.312   6.450   7.530
20379TIP3    H161017   7.224   6.476   7.499
20379TIP3    H261018   7.370   6.477   7.455
20380TIP3   OH261019   6.615   6.091   7.509
20380TIP3    H161020   6.603   5.996   7.525
20380TIP3    H261021   6.536   6.127   7.555
20381TIP3   OH261022   6.767   7.606   6.864
20381TIP3    H161023   6.787   7.512   6.839
20381TIP3    H261024   6.805   7.650   6.784
20382TIP3   OH261025   6.863   7.380   6.746
20382TIP3    H161026   6.830   7.301   6.700
20382TIP3    H261027   6.900   7.340   6.827
20383TIP3   OH261028   7.245   7.462   7.507
20383TIP3    H161029   7.243   7.376   7.461
20383TIP3    H261030   7.234   7.521   7.429
20384TIP3   OH261031   6.543   6.853   6.764
20384TIP3    H161032   6.460   6.899   6.740
20384TIP3    H261033   6.587   6.845   6.678
20385TIP3   OH261034   6.500   6.633   6.487
20385TIP3    H161035   6.571   6.682   6.532
20385TIP3    H261036   6.553   6.567   6.438
20386TIP3   OH261037   7.449   7.095   7.358
20386TIP3    H161038   7.364   7.145   7.357
20386TIP3    H261039   7.478   7.113   7.265
20387TIP3   OH261040   6.889   6.934   6.738
20387TIP3    H161041   6.834   6.958   6.816
20387TIP3    H261042   6.971   6.905   6.783
20388TIP3   OH261043   7.125   6.977   7.644
20388TIP3    H161044   7.119   7.060   7.694
20388TIP3    H261045   7.037   6.976   7.601
20389TIP3   OH261046   6.122   6.934   7.152
20389TIP3    H161047   6.078   6.875   7.087
20389TIP3    H261048   6.198   6.878   7.181
20390TIP3   OH261049   6.254   7.347   7.300
20390TIP3    H161050   6.229   7.292   7.224
20390TIP3    H261051   6.343   7.312   7.321
20391TIP3   OH261052   6.261   6.901   7.509
20391TIP3    H161053   6.292   6.883   7.417
20391TIP3    H261054   6.302   6.988   7.529
20392TIP3   OH261055   6.758   7.541   7.269
20392TIP3    H161056   6.778   7.618   7.325
20392TIP3    H261057   6.770   7.466   7.330
20393TIP3   OH261058   6.394   7.461   7.831
20393TIP3    H161059   6.334   7.522   7.879
20393TIP3    H261060   6.328   7.406   7.784
20394TIP3   OH261061   6.732   6.791   6.563
20394TIP3    H161062   6.790   6.850   6.616
20394TIP3    H261063   6.758   6.816   6.471
20395TIP3   OH261064   6.147   7.020   7.928
20395TIP3    H161065   6.151   7.104   7.978
20395TIP3    H261066   6.052   6.998   7.937
20396TIP3   OH261067   6.483   7.476   6.818
20396TIP3    H161068   6.521   7.529   6.888
20396TIP3    H261069   6.404   7.526   6.792
20397TIP3   OH261070   6.189   7.631   7.919
20397TIP3    H161071   6.154   7.626   7.828
20397TIP3    H261072   6.111   7.608   7.973
20398TIP3   OH261073   7.246   6.033   6.611
20398TIP3    H161074   7.164   6.049   6.662
20398TIP3    H261075   7.255   6.118   6.563
20399TIP3   OH261076   5.986   6.775   6.962
20399TIP3    H161077   5.922   6.818   6.901
20399TIP3    H261078   5.946   6.688   6.973
20400TIP3   OH261079   7.043   7.403   6.161
20400TIP3    H161080   7.053   7.499   6.145
20400TIP3    H261081   7.134   7.370   6.146
20401TIP3   OH261082   5.770   7.157   7.866
20401TIP3    H161083   5.705   7.133   7.796
20401TIP3    H261084   5.806   7.070   7.893
20402TIP3   OH261085   5.622   7.350   7.500
20402TIP3    H161086   5.718   7.344   7.491
20402TIP3    H261087   5.612   7.430   7.553
20403TIP3   OH261088   7.475   7.788   7.550
20403TIP3    H161089   7.475   7.692   7.563
20403TIP3    H261090   7.390   7.814   7.591
20404TIP3   OH261091   6.593   7.589   7.688
20404TIP3    H161092   6.594   7.682   7.721
20404TIP3    H261093   6.522   7.550   7.743
20405TIP3   OH261094   6.355   7.720   6.640
20405TIP3    H161095   6.307   7.696   6.558
20405TIP3    H261096   6.320   7.809   6.660
20406TIP3   OH261097   5.792   7.568   7.022
20406TIP3    H161098   5.839   7.557   7.107
20406TIP3    H261099   5.728   7.495   7.028
20407TIP3   OH261100   6.557   7.619   6.283
20407TIP3    H161101   6.616   7.550   6.244
20407TIP3    H261102   6.592   7.626   6.374
20408TIP3   OH261103   6.608   7.667   6.558
20408TIP3    H161104   6.516   7.680   6.593
20408TIP3    H261105   6.638   7.595   6.616
20409TIP3   OH261106   7.384   6.941   7.820
20409TIP3    H161107   7.300   6.950   7.774
20409TIP3    H261108   7.397   6.844   7.817
20410TIP3   OH261109   5.974   7.341   7.858
20410TIP3    H161110   6.024   7.323   7.940
20410TIP3    H261111   5.900   7.276   7.865
20411TIP3   OH261112   6.374   6.165   7.635
20411TIP3    H161113   6.284   6.133   7.611
20411TIP3    H261114   6.349   6.248   7.680
20412TIP3   OH261115   6.905   6.282   7.832
20412TIP3    H161116   6.972   6.253   7.897
20412TIP3    H261117   6.821   6.260   7.876
20413TIP3   OH261118   7.152   6.712   7.754
20413TIP3    H161119   7.100   6.704   7.837
20413TIP3    H261120   7.121   6.796   7.717
20414TIP3   OH261121   6.807   6.845   6.309
20414TIP3    H161122   6.772   6.813   6.223
20414TIP3    H261123   6.887   6.893   6.280
20415TIP3   OH261124   6.521   6.216   6.609
20415TIP3    H161125   6.487   6.212   6.700
20415TIP3    H261126   6.483   6.132   6.574
20416TIP3   OH261127   6.305   6.679   7.658
20416TIP3    H161128   6.253   6.701   7.738
20416TIP3    H261129   6.289   6.759   7.603
20417TIP3   OH261130   6.188   6.566   7.171
20417TIP3    H161131   6.096   6.540   7.187
20417TIP3    H261132   6.203   6.526   7.082
20418TIP3   OH261133   6.681   6.654   6.897
20418TIP3    H161134   6.625   6.724   6.857
20418TIP3    H261135   6.733   6.624   6.821
20419TIP3   OH261136   6.854   6.934   7.987
20419TIP3    H161137   6.831   6.860   8.047
20419TIP3    H261138   6.948   6.946   8.008
20420TIP3   OH261139   6.839   6.684   7.138
20420TIP3    H161140   6.779   6.712   7.066
20420TIP3    H261141   6.870   6.600   7.098
20421TIP3   OH261142   6.124   6.710   7.866
20421TIP3    H161143   6.148   6.772   7.936
20421TIP3    H261144   6.112   6.627   7.916
20422TIP3   OH261145   6.174   6.188   6.575
20422TIP3    H161146   6.169   6.182   6.672
20422TIP3    H261147   6.091   6.234   6.554
20423TIP3   OH261148   5.716   6.236   7.445
20423TIP3    H161149   5.794   6.262   7.497
20423TIP3    H261150   5.754   6.197   7.364
20424TIP3   OH261151   5.697   6.214   6.967
20424TIP3    H161152   5.742   6.252   6.888
20424TIP3    H261153   5.635   6.286   6.987
20425TIP3   OH261154   6.852   6.930   7.563
20425TIP3    H161155   6.881   6.856   7.505
20425TIP3    H261156   6.820   6.879   7.641
20426TIP3   OH261157   6.514   6.393   7.234
20426TIP3    H161158   6.430   6.386   7.283
20426TIP3    H261159   6.579   6.389   7.306
20427TIP3   OH261160   5.951   6.442   7.242
20427TIP3    H161161   5.856   6.449   7.215
20427TIP3    H261162   5.974   6.350   7.219
20428TIP3   OH261163   6.223   6.445   6.928
20428TIP3    H161164   6.318   6.454   6.906
20428TIP3    H261165   6.177   6.465   6.843
20429TIP3   OH261166   7.007   6.464   7.433
20429TIP3    H161167   6.971   6.475   7.524
20429TIP3    H261168   6.944   6.400   7.396
20430TIP3   OH261169   6.056   6.475   6.709
20430TIP3    H161170   5.983   6.430   6.663
20430TIP3    H261171   6.108   6.507   6.633
20431TIP3   OH261172   7.186   8.153   7.658
20431TIP3    H161173   7.178   8.178   7.565
20431TIP3    H261174   7.261   8.212   7.685
20432TIP3   OH261175   6.136   7.264   8.075
20432TIP3    H161176   6.215   7.293   8.125
20432TIP3    H261177   6.070   7.261   8.148
20433TIP3   OH261178   6.601   6.717   7.331
20433TIP3    H161179   6.669   6.672   7.279
20433TIP3    H261180   6.611   6.674   7.418
20434TIP3   OH261181   6.127   6.205   7.204
20434TIP3    H161182   6.094   6.125   7.249
20434TIP3    H261183   6.180   6.169   7.132
20435TIP3   OH261184   6.577   6.610   7.619
20435TIP3    H161185   6.487   6.646   7.633
20435TIP3    H261186   6.634   6.669   7.672
20436TIP3   OH261187   6.312   7.006   6.715
20436TIP3    H161188   6.241   6.939   6.704
20436TIP3    H261189   6.295   7.037   6.807
20437TIP3   OH261190   7.221   7.244   7.338
20437TIP3    H161191   7.215   7.314   7.269
20437TIP3    H261192   7.136   7.198   7.328
20438TIP3   OH261193   6.772   6.319   6.574
20438TIP3    H161194   6.675   6.300   6.581
20438TIP3    H261195   6.779   6.413   6.598
20439TIP3   OH261196   6.718   7.324   7.710
20439TIP3    H161197   6.728   7.294   7.801
20439TIP3    H261198   6.673   7.409   7.720
20440TIP3   OH261199   6.842   6.564   6.679
20440TIP3    H161200   6.939   6.568   6.694
20440TIP3    H261201   6.825   6.642   6.624
20441TIP3   OH261202   6.007   7.027   7.393
20441TIP3    H161203   6.042   6.995   7.307
20441TIP3    H261204   6.039   6.958   7.454
20442TIP3   OH261205   6.458   7.155   6.535
20442TIP3    H161206   6.411   7.241   6.544
20442TIP3    H261207   6.404   7.098   6.593
20443TIP3   OH261208   5.884   6.947   8.004
20443TIP3    H161209   5.906   6.933   8.098
20443TIP3    H261210   5.815   6.880   7.989
20444TIP3   OH261211   6.609   7.059   8.023
20444TIP3    H161212   6.550   6.999   7.973
20444TIP3    H261213   6.697   7.025   7.996
20445TIP3   OH261214   6.873   7.584   7.604
20445TIP3    H161215   6.777   7.577   7.616
20445TIP3    H261216   6.898   7.634   7.684
20446TIP3   OH261217   7.286   6.649   6.515
20446TIP3    H161218   7.222   6.604   6.454
20446TIP3    H261219   7.282   6.737   6.474
20447TIP3   OH261220   7.498   7.504   7.599
20447TIP3    H161221   7.400   7.504   7.588
20447TIP3    H261222   7.525   7.479   7.508
20448TIP3   OH261223   6.986   7.475   6.425
20448TIP3    H161224   6.960   7.403   6.485
20448TIP3    H261225   6.994   7.429   6.339
20449TIP3   OH261226   6.979   7.101   7.268
20449TIP3    H161227   6.886   7.074   7.280
20449TIP3    H261228   7.014   7.023   7.221
20450TIP3   OH261229   6.103   7.328   7.012
20450TIP3    H161230   6.101   7.411   6.961
20450TIP3    H261231   6.009   7.311   7.024
20451TIP3   OH261232   5.667   6.634   6.715
20451TIP3    H161233   5.714   6.716   6.737
20451TIP3    H261234   5.591   6.639   6.777
20452TIP3   OH261235   6.251   7.099   6.963
20452TIP3    H161236   6.210   7.185   6.981
20452TIP3    H261237   6.214   7.044   7.035
20453TIP3   OH261238   6.372   7.673   7.488
20453TIP3    H161239   6.413   7.746   7.437
20453TIP3    H261240   6.449   7.638   7.535
20454TIP3   OH261241   6.028   7.567   6.870
20454TIP3    H161242   5.941   7.573   6.914
20454TIP3    H261243   6.057   7.661   6.871
20455TIP3   OH261244   6.769   7.308   7.440
20455TIP3    H161245   6.759   7.307   7.538
20455TIP3    H261246   6.848   7.253   7.428
20456TIP3   OH261247   6.735   7.200   6.326
20456TIP3    H161248   6.786   7.174   6.405
20456TIP3    H261249   6.646   7.171   6.352
20457TIP3   OH261250   7.004   7.862   7.513
20457TIP3    H161251   6.967   7.774   7.494
20457TIP3    H261252   6.995   7.907   7.426
20458TIP3   OH261253   7.079   7.681   6.145
20458TIP3    H161254   7.088   7.732   6.063
20458TIP3    H261255   6.999   7.723   6.183
20459TIP3   OH261256   6.099   6.452   8.014
20459TIP3    H161257   6.003   6.457   8.030
20459TIP3    H261258   6.126   6.389   8.083
20460TIP3   OH261259   6.896   7.139   6.547
20460TIP3    H161260   6.884   7.069   6.614
20460TIP3    H261261   6.992   7.132   6.532
20461TIP3   OH261262   5.815   7.538   7.645
20461TIP3    H161263   5.863   7.459   7.674
20461TIP3    H261264   5.842   7.601   7.713
20462TIP3   OH261265   6.107   7.181   6.324
20462TIP3    H161266   6.118   7.089   6.292
20462TIP3    H261267   6.086   7.165   6.419
20463TIP3   OH261268   6.051   7.185   6.597
20463TIP3    H161269   6.119   7.156   6.660
20463TIP3    H261270   6.057   7.283   6.605
20464TIP3   OH261271   5.789   6.881   6.800
20464TIP3    H161272   5.722   6.924   6.857
20464TIP3    H261273   5.802   6.951   6.733
20465TIP3   OH261274   6.932   6.517   7.692
20465TIP3    H161275   7.011   6.552   7.734
20465TIP3    H261276   6.914   6.436   7.745
20466TIP3   OH261277   6.809   6.272   6.855
20466TIP3    H161278   6.797   6.293   6.760
20466TIP3    H261279   6.849   6.354   6.890
20467TIP3   OH261280   6.317   7.387   6.551
20467TIP3    H161281   6.228   7.413   6.582
20467TIP3    H261282   6.328   7.448   6.476
20468TIP3   OH261283   6.507   6.446   6.959
20468TIP3    H161284   6.572   6.517   6.942
20468TIP3    H261285   6.509   6.440   7.057
20469TIP3   OH261286   6.774   6.769   7.768
20469TIP3    H161287   6.788   6.821   7.849
20469TIP3    H261288   6.827   6.689   7.785
20470TIP3   OH261289   6.651   6.181   7.066
20470TIP3    H161290   6.644   6.259   7.124
20470TIP3    H261291   6.709   6.216   6.995
20471TIP3   OH261292   6.058   7.459   6.612
20471TIP3    H161293   6.026   7.526   6.548
20471TIP3    H261294   6.039   7.502   6.698
20472TIP3   OH261295   6.158   6.170   6.852
20472TIP3    H161296   6.159   6.260   6.888
20472TIP3    H261297   6.253   6.148   6.860
20473TIP3   OH261298   7.418   6.667   7.741
20473TIP3    H161299   7.321   6.668   7.756
20473TIP3    H261300   7.420   6.619   7.657
20474TIP3   OH261301   7.065   6.861   7.136
20474TIP3    H161302   6.989   6.801   7.148
20474TIP3    H261303   7.136   6.814   7.183
20475TIP3   OH261304   5.775   7.093   6.607
20475TIP3    H161305   5.836   7.168   6.615
20475TIP3    H261306   5.823   7.040   6.540
20476TIP3   OH261307   5.723   6.365   6.740
20476TIP3    H161308   5.719   6.463   6.732
20476TIP3    H261309   5.640   6.338   6.700
20477TIP3   OH261310   6.108   6.086   7.616
20477TIP3    H161311   6.077   6.052   7.529
20477TIP3    H261312   6.098   6.007   7.673
20478TIP3   OH261313   5.652   7.306   7.000
20478TIP3    H161314   5.572   7.336   7.045
20478TIP3    H261315   5.636   7.340   6.910
20479TIP3   OH261316   5.801   7.839   8.064
20479TIP3    H161317   5.887   7.837   8.111
20479TIP3    H261318   5.778   7.744   8.063
20480TIP3   OH261319   6.295   7.814   8.107
20480TIP3    H161320   6.386   7.783   8.114
20480TIP3    H261321   6.263   7.758   8.034
20481TIP3   OH261322   6.271   7.385   6.244
20481TIP3    H161323   6.211   7.314   6.277
20481TIP3    H261324   6.342   7.331   6.206
20482TIP3   OH261325   6.925   7.713   7.840
20482TIP3    H161326   6.913   7.641   7.907
20482TIP3    H261327   7.001   7.762   7.874
20483TIP3   OH261328   6.708   7.431   6.150
20483TIP3    H161329   6.750   7.362   6.204
20483TIP3    H261330   6.759   7.428   6.067
20484TIP3   OH261331   5.935   7.250   8.265
20484TIP3    H161332   5.952   7.154   8.271
20484TIP3    H261333   5.846   7.251   8.224
20485TIP3   OH261334   5.911   6.905   6.456
20485TIP3    H161335   5.963   6.866   6.528
20485TIP3    H261336   5.979   6.908   6.385
20486TIP3   OH261337   6.544   7.333   8.038
20486TIP3    H161338   6.500   7.344   7.952
20486TIP3    H261339   6.575   7.240   8.035
20487TIP3   OH261340   6.418   7.100   6.264
20487TIP3    H161341   6.419   7.112   6.361
20487TIP3    H261342   6.417   7.002   6.258
20488TIP3   OH261343   7.037   7.338   7.644
20488TIP3    H161344   7.106   7.391   7.600
20488TIP3    H261345   6.961   7.397   7.634
20489TIP3   OH261346   6.054   6.982   8.245
20489TIP3    H161347   6.125   6.918   8.232
20489TIP3    H261348   6.075   7.015   8.334
20490TIP3   OH261349   6.125   6.804   6.685
20490TIP3    H161350   6.094   6.759   6.765
20490TIP3    H261351   6.157   6.728   6.631
20491TIP3   OH261352   6.389   6.869   7.911
20491TIP3    H161353   6.310   6.929   7.915
20491TIP3    H261354   6.434   6.901   7.830
20492TIP3   OH261355   6.218   6.597   6.523
20492TIP3    H161356   6.191   6.594   6.429
20492TIP3    H261357   6.315   6.603   6.515
20493TIP3   OH261358   6.906   7.271   8.045
20493TIP3    H161359   6.984   7.247   7.994
20493TIP3    H261360   6.903   7.201   8.113
20494TIP3   OH261361   7.046   6.932   6.181
20494TIP3    H161362   7.023   6.882   6.100
20494TIP3    H261363   7.013   7.021   6.154
20495TIP3   OH261364   6.512   6.655   8.038
20495TIP3    H161365   6.510   6.574   7.983
20495TIP3    H261366   6.468   6.720   7.979
20496TIP3   OH261367   6.514   6.442   7.842
20496TIP3    H161368   6.540   6.482   7.757
20496TIP3    H261369   6.420   6.419   7.825
20497TIP3   OH261370   6.547   6.981   7.715
20497TIP3    H161371   6.626   6.984   7.659
20497TIP3    H261372   6.489   7.048   7.672
20498TIP3   OH261373   7.128   6.948   8.098
20498TIP3    H161374   7.172   6.863   8.115
20498TIP3    H261375   7.201   7.001   8.063
20499TIP3   OH261376   7.167   7.202   7.838
20499TIP3    H161377   7.108   7.252   7.777
20499TIP3    H261378   7.253   7.217   7.794
20500TIP3   OH261379   6.387   6.775   8.262
20500TIP3    H161380   6.319   6.706   8.278
20500TIP3    H261381   6.423   6.746   8.176
20501TIP3   OH261382   6.647   6.208   7.906
20501TIP3    H161383   6.597   6.290   7.885
20501TIP3    H261384   6.577   6.140   7.896
20502TIP3   OH261385   6.772   6.715   8.125
20502TIP3    H161386   6.764   6.703   8.221
20502TIP3    H261387   6.682   6.689   8.098
20503TIP3   OH261388   7.012   6.661   7.980
20503TIP3    H161389   6.936   6.662   8.041
20503TIP3    H261390   7.085   6.628   8.037
20504TIP3   OH261391   7.241   6.598   8.131
20504TIP3    H161392   7.252   6.503   8.154
20504TIP3    H261393   7.236   6.641   8.219
20505TIP3   OH261394   6.230   6.553   8.315
20505TIP3    H161395   6.236   6.462   8.279
20505TIP3    H261396   6.264   6.540   8.406
20506TIP3   OH261397   6.743   6.218   8.163
20506TIP3    H161398   6.810   6.147   8.159
20506TIP3    H261399   6.702   6.209   8.074
20507TIP3   OH261400   6.808   6.432   8.324
20507TIP3    H161401   6.784   6.361   8.260
20507TIP3    H261402   6.730   6.492   8.318
20508TIP3   OH261403   6.026   7.662   6.426
20508TIP3    H161404   6.121   7.662   6.404
20508TIP3    H261405   5.991   7.706   6.347
20509TIP3   OH261406   5.507   7.041   6.644
20509TIP3    H161407   5.602   7.064   6.630
20509TIP3    H261408   5.502   6.953   6.602
20510TIP3   OH261409   5.420   7.655   7.053
20510TIP3    H161410   5.352   7.592   7.020
20510TIP3    H261411   5.464   7.599   7.121
20511TIP3   OH261412   5.557   7.512   7.241
20511TIP3    H161413   5.547   7.434   7.298
20511TIP3    H261414   5.606   7.571   7.301
20512TIP3   OH261415   7.244   7.932   7.034
20512TIP3    H161416   7.282   7.922   7.123
20512TIP3    H261417   7.323   7.948   6.981
20513TIP3   OH261418   7.314   7.917   7.315
20513TIP3    H161419   7.286   7.824   7.300
20513TIP3    H261420   7.385   7.903   7.380
20514TIP3   OH261421   7.355   7.590   7.875
20514TIP3    H161422   7.284   7.602   7.941
20514TIP3    H261423   7.401   7.674   7.868
20515TIP3   OH261424   7.175   7.119   6.518
20515TIP3    H161425   7.248   7.179   6.491
20515TIP3    H261426   7.215   7.077   6.597
20516TIP3   OH261427   7.303   6.987   6.720
20516TIP3    H161428   7.238   6.942   6.779
20516TIP3    H261429   7.366   7.025   6.783
20517TIP3   OH261430   7.243   6.893   6.368
20517TIP3    H161431   7.172   6.895   6.300
20517TIP3    H261432   7.214   6.968   6.424
20518TIP3   OH261433   7.115   6.566   6.322
20518TIP3    H161434   7.072   6.605   6.245
20518TIP3    H261435   7.087   6.472   6.314
20519TIP3   OH261436   7.120   6.839   6.868
20519TIP3    H161437   7.126   6.742   6.863
20519TIP3    H261438   7.107   6.853   6.965
20520TIP3   OH261439   5.746   6.916   7.612
20520TIP3    H161440   5.745   6.887   7.518
20520TIP3    H261441   5.843   6.916   7.630
20521TIP3   OH261442   7.405   7.260   7.715
20521TIP3    H161443   7.482   7.199   7.709
20521TIP3    H261444   7.433   7.335   7.659
20522TIP3   OH261445   7.606   7.080   7.748
20522TIP3    H161446   7.525   7.034   7.781
20522TIP3    H261447   7.670   7.006   7.760
20523TIP3   OH261448   7.058   6.300   6.311
20523TIP3    H161449   7.131   6.268   6.367
20523TIP3    H261450   6.983   6.242   6.335
20524TIP3   OH261451   7.115   6.556   6.765
20524TIP3    H161452   7.154   6.466   6.781
20524TIP3    H261453   7.174   6.587   6.695
20525TIP3   OH261454   7.279   6.735   7.257
20525TIP3    H161455   7.366   6.761   7.219
20525TIP3    H261456   7.291   6.769   7.348
20526TIP3   OH261457   7.344   6.874   7.491
20526TIP3    H161458   7.266   6.907   7.539
20526TIP3    H261459   7.376   6.955   7.447
20527TIP3   OH261460   5.963   6.604   8.289
20527TIP3    H161461   6.060   6.594   8.289
20527TIP3    H261462   5.937   6.520   8.331
20528TIP3   OH261463   7.795   6.456   8.042
20528TIP3    H161464   7.855   6.392   7.998
20528TIP3    H261465   7.772   6.517   7.969
20529TIP3   OH261466   7.224   6.305   6.800
20529TIP3    H161467   7.271   6.289   6.885
20529TIP3    H261468   7.163   6.229   6.799
20530TIP3   OH261469   5.923   6.293   7.620
20530TIP3    H161470   5.985   6.217   7.630
20530TIP3    H261471   5.986   6.367   7.615
20531TIP3   OH261472   5.729   6.569   7.694
20531TIP3    H161473   5.777   6.558   7.609
20531TIP3    H261474   5.760   6.655   7.723
20532TIP3   OH261475   7.672   6.610   7.851
20532TIP3    H161476   7.585   6.644   7.878
20532TIP3    H261477   7.644   6.535   7.794
20533TIP3   OH261478   7.308   6.245   6.432
20533TIP3    H161479   7.347   6.170   6.381
20533TIP3    H261480   7.375   6.314   6.421
20534TIP3   OH261481   5.709   6.077   7.198
20534TIP3    H161482   5.614   6.070   7.218
20534TIP3    H261483   5.709   6.131   7.116
20535TIP3   OH261484   6.895   7.783   6.713
20535TIP3    H161485   6.927   7.750   6.627
20535TIP3    H261486   6.925   7.876   6.707
20536TIP3   OH261487   5.930   6.152   8.009
20536TIP3    H161488   5.880   6.145   8.092
20536TIP3    H261489   5.862   6.189   7.949
20537TIP3   OH261490   5.970   7.578   8.089
20537TIP3    H161491   5.880   7.546   8.068
20537TIP3    H261492   5.977   7.555   8.183
20538TIP3   OH261493   6.146   7.605   7.634
20538TIP3    H161494   6.096   7.680   7.595
20538TIP3    H261495   6.232   7.621   7.590
20539TIP3   OH261496   6.598   7.855   7.773
20539TIP3    H161497   6.641   7.856   7.861
20539TIP3    H261498   6.663   7.904   7.718
20540TIP3   OH261499   6.775   7.997   7.620
20540TIP3    H161500   6.852   7.948   7.587
20540TIP3    H261501   6.820   8.058   7.682
20541TIP3   OH261502   7.567   6.369   7.729
20541TIP3    H161503   7.475   6.365   7.698
20541TIP3    H261504   7.595   6.276   7.718
20542TIP3   OH261505   5.827   7.868   7.654
20542TIP3    H161506   5.738   7.904   7.630
20542TIP3    H261507   5.829   7.891   7.748
20543TIP3   OH261508   6.062   7.844   7.511
20543TIP3    H161509   5.977   7.858   7.559
20543TIP3    H261510   6.040   7.879   7.423
20544TIP3   OH261511   6.485   7.877   7.306
20544TIP3    H161512   6.411   7.902   7.248
20544TIP3    H261513   6.501   7.962   7.354
20545TIP3   OH261514   6.757   7.822   7.326
20545TIP3    H161515   6.661   7.836   7.327
20545TIP3    H261516   6.791   7.912   7.338
20546TIP3   OH261517   6.972   8.013   7.276
20546TIP3    H161518   6.948   8.100   7.238
20546TIP3    H261519   7.022   7.974   7.203
20547TIP3   OH261520   5.737   7.662   7.403
20547TIP3    H161521   5.763   7.637   7.494
20547TIP3    H261522   5.808   7.616   7.352
20548TIP3   OH261523   5.928   7.531   7.256
20548TIP3    H161524   5.944   7.447   7.304
20548TIP3    H261525   6.018   7.569   7.250
20549TIP3   OH261526   6.198   7.629   7.255
20549TIP3    H161527   6.226   7.535   7.247
20549TIP3    H261528   6.234   7.649   7.343
20550TIP3   OH261529   6.772   6.285   7.348
20550TIP3    H161530   6.727   6.217   7.402
20550TIP3    H261531   6.838   6.233   7.300
20551TIP3   OH261532   7.299   6.166   7.257
20551TIP3    H161533   7.334   6.217   7.180
20551TIP3    H261534   7.203   6.178   7.248
20552TIP3   OH261535   7.392   6.266   7.018
20552TIP3    H161536   7.464   6.215   6.976
20552TIP3    H261537   7.424   6.358   7.002
20553TIP3   OH261538   6.021   5.994   7.367
20553TIP3    H161539   5.929   5.960   7.366
20553TIP3    H261540   6.070   5.909   7.363
20554TIP3   OH261541   5.805   5.860   7.011
20554TIP3    H161542   5.836   5.918   6.940
20554TIP3    H261543   5.775   5.924   7.078
20555TIP3   OH261544   6.460   6.028   7.244
20555TIP3    H161545   6.523   6.077   7.188
20555TIP3    H261546   6.481   6.062   7.332
20556TIP3   OH261547   7.019   6.170   7.228
20556TIP3    H161548   7.005   6.135   7.139
20556TIP3    H261549   7.000   6.090   7.283
20557TIP3   OH261550   7.042   6.091   6.791
20557TIP3    H161551   6.952   6.129   6.795
20557TIP3    H261552   7.027   6.007   6.839
20558TIP3   OH261553   5.524   7.429   6.796
20558TIP3    H161554   5.440   7.396   6.759
20558TIP3    H261555   5.511   7.524   6.781
20559TIP3   OH261556   5.921   6.023   6.776
20559TIP3    H161557   5.970   5.958   6.721
20559TIP3    H261558   5.994   6.075   6.814
20560TIP3   OH261559   6.435   6.197   6.875
20560TIP3    H161560   6.493   6.145   6.933
20560TIP3    H261561   6.461   6.287   6.902
20561TIP3   OH261562   6.296   7.627   6.373
20561TIP3    H161563   6.384   7.647   6.336
20561TIP3    H261564   6.273   7.550   6.316
20562TIP3   OH261565   7.014   7.744   6.469
20562TIP3    H161566   7.011   7.646   6.456
20562TIP3    H261567   6.969   7.774   6.388
20563TIP3   OH261568   6.229   6.275   8.256
20563TIP3    H161569   6.195   6.204   8.313
20563TIP3    H261570   6.323   6.275   8.283
20564TIP3   OH261571   6.477   6.270   8.376
20564TIP3    H161572   6.562   6.243   8.336
20564TIP3    H261573   6.464   6.200   8.443
20565TIP3   OH261574   5.601   7.461   6.433
20565TIP3    H161575   5.597   7.489   6.526
20565TIP3    H261576   5.689   7.420   6.427
20566TIP3   OH261577   7.300   6.328   8.164
20566TIP3    H161578   7.320   6.297   8.255
20566TIP3    H261579   7.388   6.324   8.122
20567TIP3   OH261580   7.240   7.881   7.660
20567TIP3    H161581   7.160   7.856   7.609
20567TIP3    H261582   7.231   7.979   7.656
20568TIP3   OH261583   8.507   7.257   6.423
20568TIP3    H161584   8.480   7.349   6.405
20568TIP3    H261585   8.429   7.209   6.390
20569TIP3   OH261586   8.497   7.255   6.799
20569TIP3    H161587   8.531   7.227   6.887
20569TIP3    H261588   8.461   7.171   6.766
20570TIP3   OH261589   7.810   7.155   7.166
20570TIP3    H161590   7.844   7.089   7.230
20570TIP3    H261591   7.888   7.210   7.152
20571TIP3   OH261592   8.743   7.559   6.480
20571TIP3    H161593   8.741   7.481   6.537
20571TIP3    H261594   8.759   7.630   6.543
20572TIP3   OH261595   7.775   7.562   6.891
20572TIP3    H161596   7.765   7.464   6.897
20572TIP3    H261597   7.871   7.570   6.894
20573TIP3   OH261598   7.484   6.768   6.682
20573TIP3    H161599   7.432   6.850   6.692
20573TIP3    H261600   7.414   6.708   6.649
20574TIP3   OH261601   7.546   7.054   6.845
20574TIP3    H161602   7.591   6.978   6.888
20574TIP3    H261603   7.602   7.069   6.768
20575TIP3   OH261604   8.415   8.012   6.524
20575TIP3    H161605   8.457   7.953   6.458
20575TIP3    H261606   8.395   7.946   6.593
20576TIP3   OH261607   8.295   7.474   6.848
20576TIP3    H161608   8.331   7.396   6.801
20576TIP3    H261609   8.379   7.522   6.862
20577TIP3   OH261610   9.302   6.803   6.846
20577TIP3    H161611   9.336   6.890   6.874
20577TIP3    H261612   9.322   6.805   6.751
20578TIP3   OH261613   8.729   6.987   6.884
20578TIP3    H161614   8.761   6.897   6.904
20578TIP3    H261615   8.688   6.972   6.797
20579TIP3   OH261616   8.742   6.727   6.475
20579TIP3    H161617   8.814   6.707   6.540
20579TIP3    H261618   8.793   6.762   6.402
20580TIP3   OH261619   7.689   6.848   6.957
20580TIP3    H161620   7.772   6.824   7.002
20580TIP3    H261621   7.697   6.791   6.877
20581TIP3   OH261622   8.129   7.043   6.751
20581TIP3    H161623   8.220   7.010   6.761
20581TIP3    H261624   8.085   6.964   6.712
20582TIP3   OH261625   8.052   6.630   7.283
20582TIP3    H161626   7.988   6.659   7.216
20582TIP3    H261627   8.000   6.644   7.365
20583TIP3   OH261628   8.411   7.486   6.288
20583TIP3    H161629   8.360   7.447   6.216
20583TIP3    H261630   8.357   7.564   6.310
20584TIP3   OH261631   8.162   7.400   7.088
20584TIP3    H161632   8.091   7.461   7.119
20584TIP3    H261633   8.196   7.448   7.010
20585TIP3   OH261634   8.962   6.728   6.636
20585TIP3    H161635   8.948   6.676   6.716
20585TIP3    H261636   9.005   6.808   6.673
20586TIP3   OH261637   7.929   6.738   7.056
20586TIP3    H161638   7.995   6.806   7.078
20586TIP3    H261639   7.970   6.696   6.979
20587TIP3   OH261640   7.972   7.583   7.160
20587TIP3    H161641   7.948   7.671   7.124
20587TIP3    H261642   7.896   7.571   7.221
20588TIP3   OH261643   7.383   7.280   6.412
20588TIP3    H161644   7.339   7.305   6.328
20588TIP3    H261645   7.410   7.366   6.449
20589TIP3   OH261646   9.100   6.704   7.018
20589TIP3    H161647   9.014   6.724   6.977
20589TIP3    H261648   9.165   6.730   6.950
20590TIP3   OH261649   8.421   6.351   7.008
20590TIP3    H161650   8.398   6.256   7.005
20590TIP3    H261651   8.336   6.388   7.038
20591TIP3   OH261652   8.522   7.850   6.330
20591TIP3    H161653   8.573   7.768   6.313
20591TIP3    H261654   8.576   7.915   6.280
20592TIP3   OH261655   8.684   7.641   6.224
20592TIP3    H161656   8.632   7.568   6.187
20592TIP3    H261657   8.706   7.601   6.312
20593TIP3   OH261658   8.335   7.112   6.253
20593TIP3    H161659   8.253   7.158   6.225
20593TIP3    H261660   8.382   7.102   6.168
20594TIP3   OH261661   8.300   6.890   5.970
20594TIP3    H161662   8.368   6.941   6.017
20594TIP3    H261663   8.357   6.822   5.929
20595TIP3   OH261664   8.685   7.190   6.224
20595TIP3    H161665   8.630   7.215   6.303
20595TIP3    H261666   8.768   7.163   6.268
20596TIP3   OH261667   7.919   7.189   6.639
20596TIP3    H161668   7.874   7.131   6.572
20596TIP3    H261669   7.993   7.132   6.668
20597TIP3   OH261670   8.051   7.604   6.785
20597TIP3    H161671   8.022   7.551   6.710
20597TIP3    H261672   8.138   7.566   6.806
20598TIP3   OH261673   8.060   7.157   6.999
20598TIP3    H161674   8.085   7.135   6.906
20598TIP3    H261675   8.098   7.246   7.011
20599TIP3   OH261676   8.545   7.823   6.761
20599TIP3    H161677   8.603   7.865   6.825
20599TIP3    H261678   8.550   7.729   6.786
20600TIP3   OH261679   8.112   7.749   7.340
20600TIP3    H161680   8.066   7.833   7.325
20600TIP3    H261681   8.071   7.693   7.272
20601TIP3   OH261682   8.525   7.038   6.056
20601TIP3    H161683   8.589   7.091   6.108
20601TIP3    H261684   8.553   7.060   5.964
20602TIP3   OH261685   7.942   7.264   7.410
20602TIP3    H161686   7.936   7.352   7.454
20602TIP3    H261687   7.847   7.241   7.413
20603TIP3   OH261688   8.265   7.729   6.327
20603TIP3    H161689   8.340   7.786   6.350
20603TIP3    H261690   8.203   7.789   6.283
20604TIP3   OH261691   9.043   6.291   6.097
20604TIP3    H161692   8.959   6.310   6.141
20604TIP3    H261693   9.058   6.372   6.044
20605TIP3   OH261694   7.783   7.039   6.444
20605TIP3    H161695   7.712   7.071   6.385
20605TIP3    H261696   7.754   6.949   6.463
20606TIP3   OH261697   8.840   7.661   5.657
20606TIP3    H161698   8.848   7.754   5.626
20606TIP3    H261699   8.930   7.627   5.637
20607TIP3   OH261700   7.569   7.412   7.355
20607TIP3    H161701   7.507   7.396   7.282
20607TIP3    H261702   7.602   7.322   7.376
20608TIP3   OH261703   7.435   7.651   6.960
20608TIP3    H161704   7.502   7.585   6.978
20608TIP3    H261705   7.374   7.638   7.036
20609TIP3   OH261706   8.148   7.975   6.127
20609TIP3    H161707   8.103   7.953   6.043
20609TIP3    H261708   8.119   8.066   6.144
20610TIP3   OH261709   7.576   7.842   6.509
20610TIP3    H161710   7.625   7.830   6.593
20610TIP3    H261711   7.522   7.761   6.511
20611TIP3   OH261712   8.353   7.877   5.768
20611TIP3    H161713   8.412   7.807   5.731
20611TIP3    H261714   8.382   7.880   5.862
20612TIP3   OH261715   8.397   7.917   6.040
20612TIP3    H161716   8.307   7.931   6.077
20612TIP3    H261717   8.441   7.876   6.116
20613TIP3   OH261718   7.769   7.591   7.336
20613TIP3    H161719   7.808   7.585   7.425
20613TIP3    H261720   7.691   7.533   7.345
20614TIP3   OH261721   8.170   6.419   7.123
20614TIP3    H161722   8.080   6.388   7.100
20614TIP3    H261723   8.147   6.504   7.164
20615TIP3   OH261724   8.699   6.539   7.319
20615TIP3    H161725   8.763   6.508   7.384
20615TIP3    H261726   8.613   6.516   7.360
20616TIP3   OH261727   8.600   7.101   5.798
20616TIP3    H161728   8.568   7.070   5.711
20616TIP3    H261729   8.684   7.144   5.772
20617TIP3   OH261730   8.349   6.454   6.093
20617TIP3    H161731   8.314   6.479   6.181
20617TIP3    H261732   8.294   6.378   6.075
20618TIP3   OH261733   8.106   6.939   7.150
20618TIP3    H161734   8.043   6.953   7.223
20618TIP3    H261735   8.086   7.015   7.090
20619TIP3   OH261736   7.972   6.846   6.643
20619TIP3    H161737   7.894   6.802   6.680
20619TIP3    H261738   8.019   6.770   6.603
20620TIP3   OH261739   8.480   6.922   6.382
20620TIP3    H161740   8.410   6.985   6.355
20620TIP3    H261741   8.529   6.916   6.299
20621TIP3   OH261742   8.638   6.941   6.623
20621TIP3    H161743   8.576   6.969   6.553
20621TIP3    H261744   8.663   6.853   6.586
20622TIP3   OH261745   7.931   6.968   7.357
20622TIP3    H161746   7.924   7.028   7.433
20622TIP3    H261747   7.912   6.882   7.399
20623TIP3   OH261748   7.976   6.444   6.063
20623TIP3    H161749   7.967   6.447   6.161
20623TIP3    H261750   7.895   6.494   6.037
20624TIP3   OH261751   7.513   6.492   6.931
20624TIP3    H161752   7.591   6.519   6.985
20624TIP3    H261753   7.553   6.452   6.852
20625TIP3   OH261754   7.494   6.471   6.452
20625TIP3    H161755   7.538   6.511   6.374
20625TIP3    H261756   7.431   6.542   6.474
20626TIP3   OH261757   8.613   7.175   7.042
20626TIP3    H161758   8.665   7.113   6.986
20626TIP3    H261759   8.597   7.118   7.120
20627TIP3   OH261760   7.746   6.699   6.736
20627TIP3    H161761   7.653   6.711   6.707
20627TIP3    H261762   7.766   6.610   6.705
20628TIP3   OH261763   8.024   6.679   6.397
20628TIP3    H161764   8.113   6.717   6.392
20628TIP3    H261765   7.974   6.726   6.328
20629TIP3   OH261766   8.802   6.719   6.919
20629TIP3    H161767   8.771   6.729   7.011
20629TIP3    H261768   8.735   6.656   6.885
20630TIP3   OH261769   7.844   6.740   6.192
20630TIP3    H161770   7.775   6.690   6.144
20630TIP3    H261771   7.901   6.767   6.117
20631TIP3   OH261772   7.928   7.494   7.547
20631TIP3    H161773   7.968   7.582   7.567
20631TIP3    H261774   7.858   7.491   7.616
20632TIP3   OH261775   8.403   6.975   6.822
20632TIP3    H161776   8.456   6.917   6.766
20632TIP3    H261777   8.402   6.924   6.906
20633TIP3   OH261778   8.375   6.865   7.109
20633TIP3    H161779   8.285   6.901   7.119
20633TIP3    H261780   8.431   6.927   7.158
20634TIP3   OH261781   8.107   7.263   6.201
20634TIP3    H161782   8.037   7.195   6.191
20634TIP3    H261783   8.090   7.294   6.294
20635TIP3   OH261784   7.807   7.285   6.879
20635TIP3    H161785   7.839   7.253   6.792
20635TIP3    H261786   7.831   7.211   6.937
20636TIP3   OH261787   8.254   7.411   6.022
20636TIP3    H161788   8.208   7.498   6.031
20636TIP3    H261789   8.199   7.355   6.081
20637TIP3   OH261790   7.682   7.193   7.489
20637TIP3    H161791   7.688   7.175   7.585
20637TIP3    H261792   7.606   7.137   7.464
20638TIP3   OH261793   9.077   6.907   6.004
20638TIP3    H161794   9.017   6.864   5.939
20638TIP3    H261795   9.082   6.994   5.960
20639TIP3   OH261796   8.788   7.685   5.925
20639TIP3    H161797   8.729   7.610   5.948
20639TIP3    H261798   8.802   7.667   5.829
20640TIP3   OH261799   8.760   7.358   6.745
20640TIP3    H161800   8.671   7.321   6.761
20640TIP3    H261801   8.806   7.283   6.705
20641TIP3   OH261802   7.900   7.583   6.501
20641TIP3    H161803   7.900   7.665   6.449
20641TIP3    H261804   7.806   7.565   6.510
20642TIP3   OH261805   7.463   6.889   6.203
20642TIP3    H161806   7.511   6.972   6.223
20642TIP3    H261807   7.387   6.895   6.264
20643TIP3   OH261808   8.049   7.355   6.450
20643TIP3    H161809   8.008   7.441   6.469
20643TIP3    H261810   8.010   7.300   6.521
20644TIP3   OH261811   8.163   7.929   6.969
20644TIP3    H161812   8.200   8.013   6.940
20644TIP3    H261813   8.226   7.909   7.039
20645TIP3   OH261814   7.818   7.825   6.357
20645TIP3    H161815   7.732   7.834   6.403
20645TIP3    H261816   7.852   7.917   6.362
20646TIP3   OH261817   8.542   7.582   6.904
20646TIP3    H161818   8.550   7.585   7.001
20646TIP3    H261819   8.618   7.523   6.885
20647TIP3   OH261820   8.532   7.459   5.814
20647TIP3    H161821   8.581   7.426   5.892
20647TIP3    H261822   8.443   7.430   5.836
20648TIP3   OH261823   8.865   7.934   5.631
20648TIP3    H161824   8.908   7.996   5.569
20648TIP3    H261825   8.790   7.989   5.659
20649TIP3   OH261826   7.893   6.711   7.502
20649TIP3    H161827   7.796   6.713   7.516
20649TIP3    H261828   7.920   6.644   7.567
20650TIP3   OH261829   8.694   7.399   6.032
20650TIP3    H161830   8.678   7.328   6.098
20650TIP3    H261831   8.791   7.387   6.018
20651TIP3   OH261832   7.624   7.815   7.149
20651TIP3    H161833   7.646   7.721   7.149
20651TIP3    H261834   7.656   7.839   7.237
20652TIP3   OH261835   7.903   7.437   5.812
20652TIP3    H161836   7.914   7.346   5.779
20652TIP3    H261837   7.882   7.421   5.906
20653TIP3   OH261838   7.846   7.441   6.085
20653TIP3    H161839   7.916   7.412   6.146
20653TIP3    H261840   7.854   7.539   6.091
20654TIP3   OH261841   7.582   7.136   6.283
20654TIP3    H161842   7.517   7.180   6.343
20654TIP3    H261843   7.598   7.207   6.219
20655TIP3   OH261844   8.736   6.776   7.186
20655TIP3    H161845   8.799   6.808   7.253
20655TIP3    H261846   8.708   6.692   7.227
20656TIP3   OH261847   8.114   7.643   6.037
20656TIP3    H161848   8.025   7.670   6.069
20656TIP3    H261849   8.125   7.704   5.963
20657TIP3   OH261850   8.311   6.701   6.428
20657TIP3    H161851   8.373   6.776   6.438
20657TIP3    H261852   8.286   6.681   6.522
20658TIP3   OH261853   8.574   7.020   7.261
20658TIP3    H161854   8.584   7.049   7.354
20658TIP3    H261855   8.625   6.937   7.265
20659TIP3   OH261856   8.464   6.445   6.550
20659TIP3    H161857   8.419   6.492   6.623
20659TIP3    H261858   8.505   6.519   6.504
20660TIP3   OH261859   7.854   7.715   6.098
20660TIP3    H161860   7.823   7.783   6.034
20660TIP3    H261861   7.836   7.760   6.184
20661TIP3   OH261862   7.957   6.422   6.336
20661TIP3    H161863   7.953   6.512   6.374
20661TIP3    H261864   8.051   6.405   6.355
20662TIP3   OH261865   8.856   7.118   6.619
20662TIP3    H161866   8.778   7.062   6.630
20662TIP3    H261867   8.923   7.068   6.670
20663TIP3   OH261868   7.571   7.352   6.093
20663TIP3    H161869   7.636   7.423   6.100
20663TIP3    H261870   7.617   7.296   6.027
20664TIP3   OH261871   7.519   6.620   6.223
20664TIP3    H161872   7.516   6.718   6.219
20664TIP3    H261873   7.431   6.597   6.190
20665TIP3   OH261874   7.904   6.346   7.108
20665TIP3    H161875   7.873   6.313   7.020
20665TIP3    H261876   7.895   6.265   7.162
20666TIP3   OH261877   7.454   7.576   6.487
20666TIP3    H161878   7.371   7.595   6.533
20666TIP3    H261879   7.431   7.602   6.395
20667TIP3   OH261880   8.068   7.642   5.732
20667TIP3    H161881   8.008   7.570   5.764
20667TIP3    H261882   8.138   7.589   5.691
20668TIP3   OH261883   8.507   7.689   5.640
20668TIP3    H161884   8.546   7.613   5.685
20668TIP3    H261885   8.552   7.688   5.553
20669TIP3   OH261886   7.744   7.492   7.742
20669TIP3    H161887   7.744   7.395   7.743
20669TIP3    H261888   7.652   7.513   7.717
20670TIP3   OH261889   7.706   7.162   5.943
20670TIP3    H161890   7.759   7.123   6.015
20670TIP3    H261891   7.774   7.165   5.873
20671TIP3   OH261892   8.217   7.357   5.751
20671TIP3    H161893   8.216   7.368   5.848
20671TIP3    H261894   8.213   7.259   5.745
20672TIP3   OH261895   7.867   7.238   7.737
20672TIP3    H161896   7.919   7.157   7.730
20672TIP3    H261897   7.835   7.234   7.828
20673TIP3   OH261898   7.923   7.060   6.171
20673TIP3    H161899   7.889   7.020   6.253
20673TIP3    H261900   7.952   6.981   6.121
20674TIP3   OH261901   8.189   7.162   7.406
20674TIP3    H161902   8.092   7.181   7.400
20674TIP3    H261903   8.214   7.148   7.313
20675TIP3   OH261904   8.015   6.849   6.009
20675TIP3    H161905   7.987   6.853   5.915
20675TIP3    H261906   8.112   6.861   6.001
20676TIP3   OH261907   8.838   7.188   5.670
20676TIP3    H161908   8.824   7.134   5.590
20676TIP3    H261909   8.807   7.275   5.638
20677TIP3   OH261910   8.274   6.892   7.511
20677TIP3    H161911   8.291   6.812   7.457
20677TIP3    H261912   8.256   6.958   7.443
20678TIP3   OH261913   8.310   6.698   7.327
20678TIP3    H161914   8.338   6.733   7.240
20678TIP3    H261915   8.216   6.674   7.310
20679TIP3   OH261916   8.354   7.260   7.216
20679TIP3    H161917   8.425   7.238   7.152
20679TIP3    H261918   8.292   7.310   7.157
20680TIP3   OH261919   8.149   7.018   7.715
20680TIP3    H161920   8.092   6.947   7.750
20680TIP3    H261921   8.188   6.974   7.636
20681TIP3   OH261922   8.442   6.466   7.395
20681TIP3    H161923   8.392   6.547   7.372
20681TIP3    H261924   8.374   6.397   7.381
20682TIP3   OH261925   8.538   6.943   7.558
20682TIP3    H161926   8.578   6.905   7.638
20682TIP3    H261927   8.450   6.900   7.559
20683TIP3   OH261928   8.022   6.798   7.808
20683TIP3    H161929   8.026   6.711   7.763
20683TIP3    H261930   8.050   6.770   7.898
20684TIP3   OH261931   8.536   6.468   7.653
20684TIP3    H161932   8.603   6.398   7.644
20684TIP3    H261933   8.495   6.465   7.564
20685TIP3   OH261934   8.606   6.699   7.780
20685TIP3    H161935   8.592   6.610   7.741
20685TIP3    H261936   8.512   6.727   7.790
20686TIP3   OH261937   7.821   7.918   5.914
20686TIP3    H161938   7.917   7.918   5.893
20686TIP3    H261939   7.788   7.962   5.834
20687TIP3   OH261940   7.303   7.299   6.131
20687TIP3    H161941   7.398   7.320   6.116
20687TIP3    H261942   7.297   7.210   6.090
20688TIP3   OH261943   7.355   7.794   6.727
20688TIP3    H161944   7.338   7.701   6.748
20688TIP3    H261945   7.392   7.818   6.813
20689TIP3   OH261946   8.969   7.382   6.006
20689TIP3    H161947   9.044   7.437   5.975
20689TIP3    H261948   9.011   7.337   6.083
20690TIP3   OH261949   9.094   7.246   6.205
20690TIP3    H161950   9.036   7.200   6.268
20690TIP3    H261951   9.168   7.279   6.261
20691TIP3   OH261952   9.038   7.150   5.859
20691TIP3    H161953   8.968   7.150   5.789
20691TIP3    H261954   9.010   7.228   5.911
20692TIP3   OH261955   8.897   6.827   5.817
20692TIP3    H161956   8.880   6.862   5.728
20692TIP3    H261957   8.874   6.733   5.804
20693TIP3   OH261958   8.914   7.094   6.355
20693TIP3    H161959   8.929   6.999   6.362
20693TIP3    H261960   8.900   7.116   6.450
20694TIP3   OH261961   7.543   7.157   7.111
20694TIP3    H161962   7.532   7.147   7.014
20694TIP3    H261963   7.640   7.166   7.119
20695TIP3   OH261964   8.840   6.563   5.871
20695TIP3    H161965   8.931   6.528   5.854
20695TIP3    H261966   8.785   6.496   5.826
20696TIP3   OH261967   8.881   6.774   6.212
20696TIP3    H161968   8.944   6.715   6.261
20696TIP3    H261969   8.943   6.843   6.181
20697TIP3   OH261970   9.046   6.976   6.753
20697TIP3    H161971   9.133   6.997   6.712
20697TIP3    H261972   9.060   7.010   6.842
20698TIP3   OH261973   7.762   6.864   7.782
20698TIP3    H161974   7.858   6.845   7.779
20698TIP3    H261975   7.730   6.779   7.819
20699TIP3   OH261976   9.016   6.556   6.291
20699TIP3    H161977   9.071   6.548   6.372
20699TIP3    H261978   8.965   6.472   6.296
20700TIP3   OH261979   7.719   6.551   7.110
20700TIP3    H161980   7.779   6.474   7.117
20700TIP3    H261981   7.784   6.623   7.100
20701TIP3   OH261982   7.527   6.826   7.183
20701TIP3    H161983   7.573   6.813   7.098
20701TIP3    H261984   7.550   6.918   7.202
20702TIP3   OH261985   9.107   6.499   5.917
20702TIP3    H161986   9.147   6.425   5.866
20702TIP3    H261987   9.173   6.570   5.906
20703TIP3   OH261988   7.504   6.330   6.682
20703TIP3    H161989   7.410   6.325   6.705
20703TIP3    H261990   7.503   6.386   6.602
20704TIP3   OH261991   8.643   8.033   6.177
20704TIP3    H161992   8.703   8.020   6.102
20704TIP3    H261993   8.697   8.081   6.241
20705TIP3   OH261994   7.727   6.412   7.497
20705TIP3    H161995   7.676   6.401   7.579
20705TIP3    H261996   7.658   6.446   7.437
20706TIP3   OH261997   7.747   7.807   7.591
20706TIP3    H161998   7.654   7.813   7.563
20706TIP3    H261999   7.739   7.811   7.688
20707TIP3   OH262000   7.945   7.849   7.109
20707TIP3    H162001   7.883   7.917   7.077
20707TIP3    H262002   8.026   7.875   7.062
20708TIP3   OH262003   9.350   6.583   7.237
20708TIP3    H162004   9.256   6.576   7.215
20708TIP3    H262005   9.386   6.501   7.200
20709TIP3   OH262006   7.612   8.160   7.154
20709TIP3    H162007   7.523   8.185   7.187
20709TIP3    H262008   7.653   8.124   7.234
20710TIP3   OH262009   7.821   8.072   6.981
20710TIP3    H162010   7.828   8.130   7.059
20710TIP3    H262011   7.851   8.130   6.909
20711TIP3   OH262012   7.546   7.923   6.917
20711TIP3    H162013   7.558   7.867   6.999
20711TIP3    H262014   7.602   7.869   6.857
20712TIP3   OH262015   7.718   7.794   6.741
20712TIP3    H162016   7.730   7.708   6.788
20712TIP3    H262017   7.811   7.827   6.739
20713TIP3   OH262018   7.992   7.884   6.740
20713TIP3    H162019   8.020   7.791   6.729
20713TIP3    H262020   8.027   7.900   6.830
20714TIP3   OH262021   8.591   6.543   6.844
20714TIP3    H162022   8.519   6.492   6.884
20714TIP3    H262023   8.637   6.477   6.790
20715TIP3   OH262024   9.098   6.422   6.742
20715TIP3    H162025   9.130   6.473   6.665
20715TIP3    H262026   9.001   6.434   6.735
20716TIP3   OH262027   9.187   6.522   6.502
20716TIP3    H162028   9.260   6.469   6.464
20716TIP3    H262029   9.221   6.613   6.486
20717TIP3   OH262030   7.810   6.250   6.872
20717TIP3    H162031   7.721   6.213   6.858
20717TIP3    H262032   7.866   6.174   6.848
20718TIP3   OH262033   7.603   6.117   6.493
20718TIP3    H162034   7.628   6.183   6.426
20718TIP3    H262035   7.571   6.174   6.566
20719TIP3   OH262036   8.270   6.269   6.735
20719TIP3    H162037   8.288   6.346   6.679
20719TIP3    H262038   8.239   6.317   6.813
20720TIP3   OH262039   8.824   6.422   6.713
20720TIP3    H162040   8.803   6.386   6.627
20720TIP3    H262041   8.800   6.347   6.772
20721TIP3   OH262042   8.828   6.346   6.277
20721TIP3    H162043   8.734   6.354   6.297
20721TIP3    H262044   8.844   6.260   6.321
20722TIP3   OH262045   7.322   7.688   6.277
20722TIP3    H162046   7.240   7.643   6.249
20722TIP3    H262047   7.300   7.778   6.252
20723TIP3   OH262048   7.713   6.287   6.266
20723TIP3    H162049   7.768   6.215   6.235
20723TIP3    H262050   7.780   6.346   6.306
20724TIP3   OH262051   8.237   6.442   6.360
20724TIP3    H162052   8.285   6.407   6.436
20724TIP3    H262053   8.241   6.537   6.383
20725TIP3   OH262054   8.092   7.883   5.862
20725TIP3    H162055   8.179   7.906   5.823
20725TIP3    H262056   8.070   7.807   5.804
20726TIP3   OH262057   8.798   7.959   5.949
20726TIP3    H162058   8.759   7.892   5.889
20726TIP3    H262059   8.783   8.036   5.888
20727TIP3   OH262060   8.027   6.531   7.743
20727TIP3    H162061   7.993   6.460   7.800
20727TIP3    H262062   8.122   6.530   7.769
20728TIP3   OH262063   8.281   6.525   7.860
20728TIP3    H162064   8.361   6.492   7.817
20728TIP3    H262065   8.264   6.456   7.927
20729TIP3   OH262066   7.400   7.718   5.924
20729TIP3    H162067   7.409   7.735   6.019
20729TIP3    H262068   7.485   7.672   5.904
20730TIP3   OH262069   9.273   7.018   6.171
20730TIP3    H162070   9.230   7.105   6.177
20730TIP3    H262071   9.203   6.966   6.127
20731TIP3   OH262072   9.341   7.307   6.309
20731TIP3    H162073   9.395   7.241   6.355
20731TIP3    H262074   9.400   7.336   6.239
20732TIP3   OH262075   9.864   6.875   6.319
20732TIP3    H162076   9.863   6.955   6.263
20732TIP3    H262077   9.796   6.821   6.276
20733TIP3   OH262078   9.454   7.069   6.444
20733TIP3    H162079   9.548   7.063   6.466
20733TIP3    H262080   9.457   7.024   6.357
20734TIP3   OH262081   9.175   7.542   5.900
20734TIP3    H162082   9.141   7.565   5.811
20734TIP3    H262083   9.205   7.629   5.936
20735TIP3   OH262084  10.119   7.349   5.680
20735TIP3    H162085  10.044   7.412   5.681
20735TIP3    H262086  10.181   7.398   5.625
20736TIP3   OH262087  10.089   7.148   5.452
20736TIP3    H162088  10.139   7.179   5.530
20736TIP3    H262089  10.150   7.085   5.410
20737TIP3   OH262090   9.565   7.279   5.931
20737TIP3    H162091   9.503   7.323   5.870
20737TIP3    H262092   9.527   7.192   5.942
20738TIP3   OH262093  10.127   6.731   5.582
20738TIP3    H162094  10.092   6.726   5.674
20738TIP3    H262095  10.082   6.653   5.545
20739TIP3   OH262096   9.776   7.060   6.123
20739TIP3    H162097   9.683   7.047   6.149
20739TIP3    H262098   9.777   7.021   6.034
20740TIP3   OH262099   9.771   6.701   5.548
20740TIP3    H162100   9.758   6.695   5.645
20740TIP3    H262101   9.688   6.746   5.522
20741TIP3   OH262102   9.299   6.749   6.410
20741TIP3    H162103   9.376   6.767   6.468
20741TIP3    H262104   9.339   6.711   6.330
20742TIP3   OH262105   9.288   6.728   5.943
20742TIP3    H162106   9.329   6.765   5.862
20742TIP3    H262107   9.226   6.801   5.963
20743TIP3   OH262108   9.537   6.946   6.210
20743TIP3    H162109   9.445   6.950   6.176
20743TIP3    H262110   9.569   6.858   6.182
20744TIP3   OH262111   9.803   6.937   5.885
20744TIP3    H162112   9.893   6.962   5.859
20744TIP3    H262113   9.748   6.968   5.809
20745TIP3   OH262114   9.643   6.992   5.679
20745TIP3    H162115   9.572   6.945   5.632
20745TIP3    H262116   9.697   7.022   5.603
20746TIP3   OH262117   9.701   6.715   6.166
20746TIP3    H162118   9.680   6.633   6.217
20746TIP3    H262119   9.768   6.684   6.104
20747TIP3   OH262120   9.898   7.519   5.671
20747TIP3    H162121   9.831   7.447   5.672
20747TIP3    H262122   9.889   7.557   5.760
20748TIP3   OH262123  10.368   6.860   5.546
20748TIP3    H162124  10.277   6.824   5.560
20748TIP3    H262125  10.352   6.955   5.542
20749TIP3   OH262126   9.257   7.154   5.683
20749TIP3    H162127   9.307   7.233   5.709
20749TIP3    H262128   9.185   7.152   5.748
20750TIP3   OH262129   9.707   7.688   5.302
20750TIP3    H162130   9.708   7.598   5.265
20750TIP3    H262131   9.674   7.671   5.392
20751TIP3   OH262132   9.640   7.703   5.577
20751TIP3    H162133   9.711   7.655   5.622
20751TIP3    H262134   9.669   7.795   5.584
20752TIP3   OH262135   9.376   7.396   5.772
20752TIP3    H162136   9.315   7.441   5.833
20752TIP3    H262137   9.394   7.466   5.707
20753TIP3   OH262138  10.375   6.787   5.819
20753TIP3    H162139  10.389   6.794   5.723
20753TIP3    H262140  10.453   6.833   5.852
20754TIP3   OH262141  10.085   6.967   5.929
20754TIP3    H162142  10.147   7.031   5.891
20754TIP3    H262143  10.044   7.020   6.000
20755TIP3   OH262144  10.238   6.663   6.038
20755TIP3    H162145  10.264   6.736   6.099
20755TIP3    H262146  10.296   6.688   5.963
20756TIP3   OH262147   9.750   6.677   5.823
20756TIP3    H162148   9.749   6.769   5.857
20756TIP3    H262149   9.846   6.658   5.832
20757TIP3   OH262150   9.366   7.608   5.580
20757TIP3    H162151   9.430   7.681   5.584
20757TIP3    H262152   9.412   7.551   5.514
20758TIP3   OH262153   9.306   6.880   5.715
20758TIP3    H162154   9.307   6.976   5.695
20758TIP3    H262155   9.256   6.847   5.639
20759TIP3   OH262156   9.700   6.593   6.592
20759TIP3    H162157   9.685   6.570   6.497
20759TIP3    H262158   9.724   6.505   6.628
20760TIP3   OH262159   9.226   7.807   5.992
20760TIP3    H162160   9.192   7.895   6.011
20760TIP3    H262161   9.277   7.830   5.913
20761TIP3   OH262162   9.860   7.898   5.214
20761TIP3    H162163   9.802   7.828   5.252
20761TIP3    H262164   9.935   7.846   5.183
20762TIP3   OH262165   9.504   7.420   5.430
20762TIP3    H162166   9.552   7.376   5.502
20762TIP3    H262167   9.573   7.420   5.360
20763TIP3   OH262168  10.010   7.614   5.239
20763TIP3    H162169   9.981   7.625   5.331
20763TIP3    H262170  10.010   7.515   5.233
20764TIP3   OH262171   9.710   7.317   5.655
20764TIP3    H162172   9.692   7.285   5.746
20764TIP3    H262173   9.741   7.236   5.610
20765TIP3   OH262174   9.811   7.107   5.496
20765TIP3    H162175   9.779   7.106   5.403
20765TIP3    H262176   9.906   7.123   5.483
20766TIP3   OH262177   3.966   2.522  -0.256
20766TIP3    H162178   4.058   2.512  -0.281
20766TIP3    H262179   3.929   2.559  -0.338
20767TIP3   OH262180   9.099   7.555   5.621
20767TIP3    H162181   9.193   7.578   5.603
20767TIP3    H262182   9.094   7.467   5.578
20768TIP3   OH262183   8.984   8.149   6.037
20768TIP3    H162184   8.917   8.085   6.012
20768TIP3    H262185   8.993   8.135   6.133
20769TIP3   OH262186   9.498   6.776   6.597
20769TIP3    H162187   9.564   6.704   6.602
20769TIP3    H262188   9.557   6.846   6.562
20770TIP3   OH262189   9.288   7.044   6.665
20770TIP3    H162190   9.324   7.034   6.575
20770TIP3    H262191   9.320   7.136   6.682
20771TIP3   OH262192   9.302   6.587   6.171
20771TIP3    H162193   9.206   6.584   6.186
20771TIP3    H262194   9.308   6.643   6.090
20772TIP3   OH262195   9.557   6.596   6.855
20772TIP3    H162196   9.604   6.572   6.773
20772TIP3    H262197   9.483   6.650   6.822
20773TIP3   OH262198   9.614   6.505   6.340
20773TIP3    H162199   9.521   6.472   6.340
20773TIP3    H262200   9.662   6.419   6.336
20774TIP3   OH262201   9.399   6.372   5.984
20774TIP3    H162202   9.433   6.428   5.912
20774TIP3    H262203   9.371   6.439   6.049
20775TIP3   OH262204  10.046   6.529   6.214
20775TIP3    H162205  10.109   6.577   6.157
20775TIP3    H262206  10.053   6.576   6.298
20776TIP3   OH262207   9.090   7.943   5.785
20776TIP3    H162208   9.019   7.918   5.724
20776TIP3    H262209   9.110   8.032   5.753
20777TIP3   OH262210   9.513   6.525   5.765
20777TIP3    H162211   9.560   6.473   5.697
20777TIP3    H262212   9.584   6.585   5.795
20778TIP3   OH262213  10.030   6.707   5.846
20778TIP3    H162214  10.089   6.661   5.908
20778TIP3    H262215  10.044   6.799   5.874
20779TIP3   OH262216   9.192   7.969   5.409
20779TIP3    H162217   9.196   8.011   5.496
20779TIP3    H262218   9.282   7.931   5.398
20780TIP3   OH262219   1.755   7.570   8.521
20780TIP3    H162220   1.789   7.644   8.576
20780TIP3    H262221   1.784   7.599   8.433
20781TIP3   OH262222   1.252   7.760   8.552
20781TIP3    H162223   1.276   7.667   8.569
20781TIP3    H262224   1.210   7.753   8.465
20782TIP3   OH262225   1.196   7.514   8.164
20782TIP3    H162226   1.273   7.501   8.225
20782TIP3    H262227   1.243   7.550   8.086
20783TIP3   OH262228   1.843   7.764   8.682
20783TIP3    H162229   1.818   7.851   8.648
20783TIP3    H262230   1.897   7.790   8.760
20784TIP3   OH262231   1.415   7.521   8.327
20784TIP3    H162232   1.409   7.471   8.410
20784TIP3    H262233   1.472   7.596   8.352
20785TIP3   OH262234   1.552   7.507   8.705
20785TIP3    H162235   1.467   7.509   8.657
20785TIP3    H262236   1.617   7.523   8.633
20786TIP3   OH262237   1.135   8.420   7.895
20786TIP3    H162238   1.077   8.351   7.859
20786TIP3    H262239   1.143   8.395   7.987
20787TIP3   OH262240   1.649   8.103   8.480
20787TIP3    H162241   1.635   8.179   8.537
20787TIP3    H262242   1.698   8.144   8.405
20788TIP3   OH262243   1.147   7.989   7.911
20788TIP3    H162244   1.079   7.991   7.981
20788TIP3    H262245   1.222   7.946   7.955
20789TIP3   OH262246   1.046   7.802   7.727
20789TIP3    H162247   1.043   7.874   7.793
20789TIP3    H262248   1.015   7.848   7.648
20790TIP3   OH262249   1.494   7.078   7.786
20790TIP3    H162250   1.414   7.097   7.839
20790TIP3    H262251   1.506   7.163   7.739
20791TIP3   OH262252   1.291   8.446   7.335
20791TIP3    H162253   1.304   8.543   7.322
20791TIP3    H262254   1.382   8.413   7.321
20792TIP3   OH262255   1.171   7.316   8.992
20792TIP3    H162256   1.246   7.273   9.038
20792TIP3    H262257   1.096   7.285   9.046
20793TIP3   OH262258   1.043   7.909   7.464
20793TIP3    H162259   1.031   7.853   7.385
20793TIP3    H262260   1.138   7.933   7.455
20794TIP3   OH262261   1.104   7.728   8.311
20794TIP3    H162262   1.022   7.752   8.265
20794TIP3    H262263   1.125   7.644   8.265
20795TIP3   OH262264   1.281   7.487   8.592
20795TIP3    H162265   1.240   7.506   8.679
20795TIP3    H262266   1.214   7.425   8.557
20796TIP3   OH262267   0.982   7.367   7.743
20796TIP3    H162268   0.902   7.418   7.762
20796TIP3    H262269   1.049   7.437   7.764
20797TIP3   OH262270   1.124   7.570   7.837
20797TIP3    H162271   1.207   7.607   7.871
20797TIP3    H262272   1.080   7.652   7.805
20798TIP3   OH262273   1.534   7.693   7.692
20798TIP3    H162274   1.471   7.648   7.631
20798TIP3    H262275   1.531   7.782   7.651
20799TIP3   OH262276   1.237   8.515   7.602
20799TIP3    H162277   1.206   8.449   7.666
20799TIP3    H262278   1.248   8.464   7.520
20800TIP3   OH262279   1.321   8.725   7.326
20800TIP3    H162280   1.372   8.789   7.272
20800TIP3    H262281   1.233   8.763   7.318
20801TIP3   OH262282   1.142   8.182   7.709
20801TIP3    H162283   1.128   8.112   7.776
20801TIP3    H262284   1.240   8.177   7.702
20802TIP3   OH262285   1.173   7.538   8.833
20802TIP3    H162286   1.196   7.595   8.908
20802TIP3    H262287   1.157   7.454   8.879
20803TIP3   OH262288   1.073   7.305   8.017
20803TIP3    H162289   1.046   7.351   7.936
20803TIP3    H262290   1.095   7.380   8.075
20804TIP3   OH262291   1.655   7.714   8.900
20804TIP3    H162292   1.589   7.674   8.958
20804TIP3    H262293   1.677   7.642   8.839
20805TIP3   OH262294   1.315   7.914   8.306
20805TIP3    H162295   1.241   7.850   8.310
20805TIP3    H262296   1.386   7.866   8.354
20806TIP3   OH262297   1.293   7.978   7.357
20806TIP3    H162298   1.276   7.926   7.276
20806TIP3    H262299   1.267   8.066   7.324
20807TIP3   OH262300   1.425   8.165   7.694
20807TIP3    H162301   1.499   8.223   7.668
20807TIP3    H262302   1.462   8.121   7.773
20808TIP3   OH262303   1.550   8.033   7.897
20808TIP3    H162304   1.487   7.985   7.955
20808TIP3    H262305   1.617   8.068   7.960
20809TIP3   OH262306   1.492   7.938   7.544
20809TIP3    H162307   1.420   7.940   7.478
20809TIP3    H262308   1.463   8.012   7.601
20810TIP3   OH262309   1.368   7.609   7.495
20810TIP3    H162310   1.323   7.649   7.420
20810TIP3    H262311   1.337   7.516   7.489
20811TIP3   OH262312   1.372   7.881   8.044
20811TIP3    H162313   1.380   7.784   8.036
20811TIP3    H262314   1.362   7.894   8.141
20812TIP3   OH262315   1.305   7.345   7.492
20812TIP3    H162316   1.388   7.318   7.537
20812TIP3    H262317   1.241   7.280   7.522
20813TIP3   OH262318   1.376   7.607   7.952
20813TIP3    H162319   1.411   7.516   7.964
20813TIP3    H262320   1.427   7.634   7.873
20814TIP3   OH262321   1.527   7.781   8.425
20814TIP3    H162322   1.618   7.806   8.398
20814TIP3    H262323   1.521   7.824   8.511
20815TIP3   OH262324   2.065   7.503   9.241
20815TIP3    H162325   2.100   7.438   9.177
20815TIP3    H262326   2.030   7.571   9.181
20816TIP3   OH262327   1.474   7.350   7.976
20816TIP3    H162328   1.521   7.335   8.060
20816TIP3    H262329   1.412   7.274   7.975
20817TIP3   OH262330   1.933   7.638   9.037
20817TIP3    H162331   1.851   7.654   9.088
20817TIP3    H262332   1.903   7.572   8.972
20818TIP3   OH262333   1.555   7.290   7.605
20818TIP3    H162334   1.596   7.214   7.559
20818TIP3    H262335   1.624   7.358   7.599
20819TIP3   OH262336   1.810   7.419   8.888
20819TIP3    H162337   1.718   7.394   8.870
20819TIP3    H262338   1.851   7.329   8.893
20820TIP3   OH262339   1.066   7.306   8.544
20820TIP3    H162340   1.038   7.228   8.594
20820TIP3    H262341   1.138   7.267   8.489
20821TIP3   OH262342   1.548   7.211   8.434
20821TIP3    H162343   1.586   7.262   8.359
20821TIP3    H262344   1.452   7.226   8.422
20822TIP3   OH262345   1.639   7.311   8.194
20822TIP3    H162346   1.713   7.260   8.154
20822TIP3    H262347   1.672   7.403   8.180
20823TIP3   OH262348   1.272   7.208   8.397
20823TIP3    H162349   1.271   7.173   8.307
20823TIP3    H262350   1.257   7.126   8.450
20824TIP3   OH262351   1.290   7.137   7.964
20824TIP3    H162352   1.205   7.184   7.979
20824TIP3    H262353   1.275   7.053   8.013
20825TIP3   OH262354   1.249   8.780   7.644
20825TIP3    H162355   1.255   8.682   7.637
20825TIP3    H262356   1.230   8.803   7.553
20826TIP3   OH262357   2.757   8.295   7.604
20826TIP3    H162358   2.728   8.387   7.587
20826TIP3    H262359   2.680   8.247   7.569
20827TIP3   OH262360   2.745   8.301   7.980
20827TIP3    H162361   2.781   8.270   8.065
20827TIP3    H262362   2.712   8.218   7.941
20828TIP3   OH262363   2.069   8.216   8.357
20828TIP3    H162364   2.091   8.143   8.418
20828TIP3    H262365   2.155   8.229   8.313
20829TIP3   OH262366   2.990   8.605   7.661
20829TIP3    H162367   2.989   8.529   7.721
20829TIP3    H262368   3.030   8.674   7.716
20830TIP3   OH262369   2.043   8.603   8.080
20830TIP3    H162370   2.019   8.508   8.084
20830TIP3    H262371   2.139   8.595   8.064
20831TIP3   OH262372   1.732   7.813   7.858
20831TIP3    H162373   1.681   7.895   7.868
20831TIP3    H262374   1.663   7.753   7.827
20832TIP3   OH262375   1.793   8.097   8.018
20832TIP3    H162376   1.838   8.022   8.063
20832TIP3    H262377   1.851   8.112   7.943
20833TIP3   OH262378   2.633   9.044   7.683
20833TIP3    H162379   2.678   8.985   7.617
20833TIP3    H262380   2.645   8.989   7.762
20834TIP3   OH262381   2.556   8.527   8.025
20834TIP3    H162382   2.587   8.444   7.984
20834TIP3    H262383   2.643   8.568   8.041
20835TIP3   OH262384   3.562   7.848   8.023
20835TIP3    H162385   3.592   7.929   8.070
20835TIP3    H262386   3.586   7.870   7.931
20836TIP3   OH262387   2.965   8.031   8.061
20836TIP3    H162388   3.007   7.946   8.085
20836TIP3    H262389   2.936   8.013   7.970
20837TIP3   OH262390   2.299   7.687   8.026
20837TIP3    H162391   2.279   7.759   7.963
20837TIP3    H262392   2.253   7.613   7.982
20838TIP3   OH262393   2.995   7.777   7.650
20838TIP3    H162394   3.067   7.760   7.715
20838TIP3    H262395   3.047   7.813   7.576
20839TIP3   OH262396   1.937   7.893   8.130
20839TIP3    H162397   2.018   7.868   8.180
20839TIP3    H262398   1.946   7.835   8.053
20840TIP3   OH262399   2.377   8.088   7.927
20840TIP3    H162400   2.471   8.062   7.938
20840TIP3    H262401   2.338   8.004   7.893
20841TIP3   OH262402   3.638   8.053   8.194
20841TIP3    H162403   3.555   8.101   8.176
20841TIP3    H262404   3.650   8.072   8.288
20842TIP3   OH262405   2.301   7.667   8.452
20842TIP3    H162406   2.237   7.705   8.390
20842TIP3    H262407   2.252   7.681   8.536
20843TIP3   OH262408   2.643   8.507   7.474
20843TIP3    H162409   2.614   8.479   7.387
20843TIP3    H262410   2.630   8.602   7.472
20844TIP3   OH262411   2.397   8.452   8.260
20844TIP3    H162412   2.343   8.514   8.311
20844TIP3    H262413   2.440   8.508   8.194
20845TIP3   OH262414   3.210   7.777   7.816
20845TIP3    H162415   3.204   7.725   7.897
20845TIP3    H262416   3.265   7.852   7.844
20846TIP3   OH262417   2.167   7.787   8.244
20846TIP3    H162418   2.233   7.855   8.269
20846TIP3    H262419   2.216   7.743   8.170
20847TIP3   OH262420   1.632   8.325   7.588
20847TIP3    H162421   1.589   8.349   7.504
20847TIP3    H262422   1.659   8.410   7.626
20848TIP3   OH262423   3.062   8.834   7.830
20848TIP3    H162424   2.970   8.836   7.862
20848TIP3    H262425   3.067   8.917   7.779
20849TIP3   OH262426   3.357   7.748   8.191
20849TIP3    H162427   3.270   7.780   8.163
20849TIP3    H262428   3.416   7.779   8.119
20850TIP3   OH262429   2.659   7.392   8.170
20850TIP3    H162430   2.650   7.297   8.190
20850TIP3    H262431   2.581   7.428   8.218
20851TIP3   OH262432   2.762   8.899   7.494
20851TIP3    H162433   2.809   8.813   7.484
20851TIP3    H262434   2.831   8.959   7.457
20852TIP3   OH262435   2.897   8.676   7.411
20852TIP3    H162436   2.895   8.596   7.357
20852TIP3    H262437   2.939   8.643   7.494
20853TIP3   OH262438   3.297   8.758   8.175
20853TIP3    H162439   3.288   8.681   8.116
20853TIP3    H262440   3.285   8.832   8.111
20854TIP3   OH262441   2.587   8.154   7.427
20854TIP3    H162442   2.505   8.199   7.399
20854TIP3    H262443   2.635   8.145   7.342
20855TIP3   OH262444   2.545   7.934   7.150
20855TIP3    H162445   2.616   7.984   7.195
20855TIP3    H262446   2.599   7.869   7.102
20856TIP3   OH262447   3.490   8.392   8.015
20856TIP3    H162448   3.409   8.446   8.022
20856TIP3    H262449   3.520   8.416   7.925
20857TIP3   OH262450   2.933   8.234   7.402
20857TIP3    H162451   2.880   8.257   7.482
20857TIP3    H262452   3.017   8.206   7.444
20858TIP3   OH262453   3.169   8.275   8.308
20858TIP3    H162454   3.167   8.356   8.363
20858TIP3    H262455   3.082   8.283   8.264
20859TIP3   OH262456   2.169   8.236   7.815
20859TIP3    H162457   2.124   8.176   7.750
20859TIP3    H262458   2.243   8.180   7.845
20860TIP3   OH262459   2.298   8.635   7.964
20860TIP3    H162460   2.281   8.583   7.884
20860TIP3    H262461   2.391   8.610   7.983
20861TIP3   OH262462   2.298   8.205   8.177
20861TIP3    H162463   2.332   8.179   8.089
20861TIP3    H262464   2.346   8.288   8.195
20862TIP3   OH262465   2.812   8.853   7.944
20862TIP3    H162466   2.833   8.914   8.015
20862TIP3    H262467   2.812   8.767   7.991
20863TIP3   OH262468   2.774   8.094   7.227
20863TIP3    H162469   2.834   8.150   7.280
20863TIP3    H262470   2.802   8.118   7.135
20864TIP3   OH262471   3.290   7.335   7.273
20864TIP3    H162472   3.210   7.352   7.326
20864TIP3    H262473   3.301   7.420   7.226
20865TIP3   OH262474   2.030   8.077   7.626
20865TIP3    H162475   1.966   8.118   7.565
20865TIP3    H262476   1.993   7.989   7.638
20866TIP3   OH262477   3.089   8.703   6.825
20866TIP3    H162478   3.099   8.800   6.807
20866TIP3    H262479   3.181   8.672   6.811
20867TIP3   OH262480   3.540   9.097   8.207
20867TIP3    H162481   3.533   9.001   8.227
20867TIP3    H262482   3.469   9.135   8.260
20868TIP3   OH262483   1.837   8.878   7.680
20868TIP3    H162484   1.892   8.844   7.754
20868TIP3    H262485   1.775   8.803   7.671
20869TIP3   OH262486   2.603   8.915   6.946
20869TIP3    H162487   2.659   8.847   6.902
20869TIP3    H262488   2.653   8.931   7.028
20870TIP3   OH262489   2.635   8.975   7.231
20870TIP3    H162490   2.570   8.903   7.232
20870TIP3    H262491   2.708   8.938   7.284
20871TIP3   OH262492   3.423   8.236   8.490
20871TIP3    H162493   3.342   8.247   8.439
20871TIP3    H262494   3.438   8.139   8.482
20872TIP3   OH262495   2.418   7.466   8.297
20872TIP3    H162496   2.328   7.435   8.275
20872TIP3    H262497   2.395   7.548   8.345
20873TIP3   OH262498   2.951   7.582   8.494
20873TIP3    H162499   3.019   7.555   8.559
20873TIP3    H262500   2.867   7.561   8.540
20874TIP3   OH262501   3.193   8.010   8.414
20874TIP3    H162502   3.145   8.003   8.500
20874TIP3    H262503   3.166   8.098   8.382
20875TIP3   OH262504   2.850   8.147   6.972
20875TIP3    H162505   2.817   8.116   6.886
20875TIP3    H262506   2.933   8.192   6.944
20876TIP3   OH262507   2.564   7.518   7.272
20876TIP3    H162508   2.533   7.515   7.364
20876TIP3    H262509   2.527   7.434   7.239
20877TIP3   OH262510   2.346   7.979   8.322
20877TIP3    H162511   2.305   8.005   8.407
20877TIP3    H262512   2.334   8.060   8.269
20878TIP3   OH262513   2.232   7.869   7.834
20878TIP3    H162514   2.140   7.840   7.851
20878TIP3    H262515   2.248   7.827   7.746
20879TIP3   OH262516   2.725   7.954   7.560
20879TIP3    H162517   2.670   8.025   7.519
20879TIP3    H262518   2.779   7.925   7.484
20880TIP3   OH262519   2.913   8.227   8.638
20880TIP3    H162520   2.883   8.159   8.703
20880TIP3    H262521   3.003   8.243   8.669
20881TIP3   OH262522   2.883   7.984   7.801
20881TIP3    H162523   2.824   8.012   7.728
20881TIP3    H262524   2.915   7.900   7.762
20882TIP3   OH262525   2.170   8.024   8.540
20882TIP3    H162526   2.198   8.073   8.621
20882TIP3    H262527   2.159   7.935   8.577
20883TIP3   OH262528   2.219   7.487   7.238
20883TIP3    H162529   2.214   7.483   7.336
20883TIP3    H262530   2.137   7.535   7.217
20884TIP3   OH262531   1.761   7.535   8.108
20884TIP3    H162532   1.838   7.563   8.162
20884TIP3    H262533   1.802   7.497   8.028
20885TIP3   OH262534   1.741   7.514   7.629
20885TIP3    H162535   1.787   7.553   7.552
20885TIP3    H262536   1.679   7.587   7.651
20886TIP3   OH262537   2.887   8.231   8.223
20886TIP3    H162538   2.923   8.158   8.168
20886TIP3    H262539   2.866   8.181   8.305
20887TIP3   OH262540   2.557   7.696   7.897
20887TIP3    H162541   2.475   7.688   7.950
20887TIP3    H262542   2.625   7.689   7.965
20888TIP3   OH262543   1.996   7.744   7.904
20888TIP3    H162544   1.901   7.750   7.878
20888TIP3    H262545   2.019   7.651   7.883
20889TIP3   OH262546   2.267   7.745   7.592
20889TIP3    H162547   2.363   7.756   7.572
20889TIP3    H262548   2.223   7.766   7.507
20890TIP3   OH262549   3.051   7.767   8.095
20890TIP3    H162550   3.018   7.777   8.187
20890TIP3    H262551   2.989   7.702   8.059
20891TIP3   OH262552   2.101   7.777   7.372
20891TIP3    H162553   2.028   7.732   7.326
20891TIP3    H262554   2.153   7.809   7.296
20892TIP3   OH262555   2.644   8.017   7.993
20892TIP3    H162556   2.715   7.975   7.943
20892TIP3    H262557   2.656   7.977   8.081
20893TIP3   OH262558   2.170   7.507   7.867
20893TIP3    H162559   2.139   7.427   7.913
20893TIP3    H262560   2.228   7.470   7.799
20894TIP3   OH262561   2.622   7.912   8.283
20894TIP3    H162562   2.533   7.950   8.299
20894TIP3    H262563   2.681   7.969   8.335
20895TIP3   OH262564   2.354   8.310   7.376
20895TIP3    H162565   2.285   8.240   7.367
20895TIP3    H262566   2.341   8.338   7.470
20896TIP3   OH262567   3.262   8.543   8.009
20896TIP3    H162568   3.286   8.590   7.926
20896TIP3    H262569   3.176   8.502   7.986
20897TIP3   OH262570   2.817   7.620   7.234
20897TIP3    H162571   2.720   7.604   7.244
20897TIP3    H262572   2.827   7.714   7.261
20898TIP3   OH262573   2.786   8.582   8.350
20898TIP3    H162574   2.788   8.558   8.444
20898TIP3    H262575   2.718   8.649   8.350
20899TIP3   OH262576   2.887   7.864   7.341
20899TIP3    H162577   2.983   7.868   7.359
20899TIP3    H262578   2.872   7.943   7.286
20900TIP3   OH262579   2.054   8.329   8.053
20900TIP3    H162580   2.088   8.298   7.966
20900TIP3    H262581   2.085   8.260   8.112
20901TIP3   OH262582   2.499   8.461   7.199
20901TIP3    H162583   2.454   8.546   7.214
20901TIP3    H262584   2.447   8.401   7.256
20902TIP3   OH262585   2.673   8.353   8.641
20902TIP3    H162586   2.639   8.299   8.568
20902TIP3    H262587   2.768   8.327   8.640
20903TIP3   OH262588   2.948   8.869   8.274
20903TIP3    H162589   2.859   8.874   8.312
20903TIP3    H262590   2.999   8.927   8.333
20904TIP3   OH262591   3.329   7.951   7.180
20904TIP3    H162592   3.266   7.906   7.119
20904TIP3    H262593   3.327   8.039   7.138
20905TIP3   OH262594   3.545   8.808   8.263
20905TIP3    H162595   3.447   8.802   8.251
20905TIP3    H262596   3.573   8.781   8.172
20906TIP3   OH262597   3.013   8.771   7.084
20906TIP3    H162598   3.014   8.695   7.144
20906TIP3    H262599   3.039   8.731   6.999
20907TIP3   OH262600   3.020   8.405   7.928
20907TIP3    H162601   2.929   8.372   7.942
20907TIP3    H262602   3.060   8.327   7.885
20908TIP3   OH262603   2.148   8.624   7.671
20908TIP3    H162604   2.143   8.710   7.625
20908TIP3    H262605   2.056   8.611   7.695
20909TIP3   OH262606   1.713   7.934   7.380
20909TIP3    H162607   1.760   8.017   7.401
20909TIP3    H262608   1.636   7.940   7.441
20910TIP3   OH262609   2.298   8.399   7.627
20910TIP3    H162610   2.252   8.484   7.644
20910TIP3    H262611   2.262   8.343   7.698
20911TIP3   OH262612   2.070   8.864   7.533
20911TIP3    H162613   1.981   8.868   7.574
20911TIP3    H262614   2.100   8.955   7.545
20912TIP3   OH262615   2.824   8.609   8.083
20912TIP3    H162616   2.825   8.591   8.180
20912TIP3    H262617   2.901   8.556   8.056
20913TIP3   OH262618   2.779   8.499   6.991
20913TIP3    H162619   2.833   8.477   7.070
20913TIP3    H262620   2.692   8.468   7.019
20914TIP3   OH262621   3.076   9.115   8.116
20914TIP3    H162622   2.988   9.103   8.152
20914TIP3    H262623   3.067   9.195   8.063
20915TIP3   OH262624   3.122   8.978   6.810
20915TIP3    H162625   3.166   9.048   6.760
20915TIP3    H262626   3.041   9.026   6.837
20916TIP3   OH262627   2.155   7.740   8.668
20916TIP3    H162628   2.076   7.776   8.714
20916TIP3    H262629   2.187   7.679   8.736
20917TIP3   OH262630   2.941   8.443   7.216
20917TIP3    H162631   2.931   8.369   7.280
20917TIP3    H262632   3.036   8.434   7.195
20918TIP3   OH262633   2.150   8.482   6.988
20918TIP3    H162634   2.163   8.391   6.954
20918TIP3    H262635   2.129   8.464   7.082
20919TIP3   OH262636   2.096   8.486   7.261
20919TIP3    H162637   2.162   8.452   7.324
20919TIP3    H262638   2.104   8.583   7.272
20920TIP3   OH262639   1.834   8.181   7.462
20920TIP3    H162640   1.768   8.224   7.520
20920TIP3    H262641   1.847   8.252   7.396
20921TIP3   OH262642   2.976   7.817   8.354
20921TIP3    H162643   3.054   7.855   8.397
20921TIP3    H262644   2.960   7.737   8.409
20922TIP3   OH262645   2.855   7.573   7.517
20922TIP3    H162646   2.844   7.597   7.423
20922TIP3    H262647   2.895   7.654   7.555
20923TIP3   OH262648   2.374   8.710   7.228
20923TIP3    H162649   2.279   8.721   7.248
20923TIP3    H262650   2.375   8.740   7.136
20924TIP3   OH262651   2.549   7.747   7.622
20924TIP3    H162652   2.616   7.817   7.605
20924TIP3    H262653   2.554   7.739   7.720
20925TIP3   OH262654   2.819   8.069   8.431
20925TIP3    H162655   2.840   8.120   8.512
20925TIP3    H262656   2.871   7.988   8.446
20926TIP3   OH262657   2.695   7.481   7.727
20926TIP3    H162658   2.695   7.554   7.791
20926TIP3    H262659   2.753   7.517   7.657
20927TIP3   OH262660   2.106   8.759   7.274
20927TIP3    H162661   2.074   8.824   7.208
20927TIP3    H262662   2.076   8.800   7.358
20928TIP3   OH262663   2.204   7.471   7.514
20928TIP3    H162664   2.202   7.561   7.552
20928TIP3    H262665   2.299   7.451   7.524
20929TIP3   OH262666   3.460   7.968   8.409
20929TIP3    H162667   3.363   7.965   8.419
20929TIP3    H262668   3.469   7.926   8.323
20930TIP3   OH262669   3.109   8.164   7.800
20930TIP3    H162670   3.035   8.102   7.813
20930TIP3    H262671   3.182   8.118   7.846
20931TIP3   OH262672   1.820   8.395   7.271
20931TIP3    H162673   1.884   8.468   7.276
20931TIP3    H262674   1.865   8.339   7.204
20932TIP3   OH262675   1.768   7.666   7.403
20932TIP3    H162676   1.764   7.764   7.396
20932TIP3    H262677   1.683   7.640   7.365
20933TIP3   OH262678   3.083   9.084   7.718
20933TIP3    H162679   3.047   9.144   7.649
20933TIP3    H262680   3.178   9.111   7.713
20934TIP3   OH262681   2.153   7.387   8.280
20934TIP3    H162682   2.121   7.352   8.193
20934TIP3    H262683   2.143   7.308   8.338
20935TIP3   OH262684   1.702   8.625   7.667
20935TIP3    H162685   1.615   8.635   7.707
20935TIP3    H262686   1.681   8.647   7.574
20936TIP3   OH262687   2.318   8.684   6.914
20936TIP3    H162688   2.258   8.610   6.939
20936TIP3    H262689   2.389   8.634   6.870
20937TIP3   OH262690   2.750   8.731   6.812
20937TIP3    H162691   2.799   8.669   6.868
20937TIP3    H262692   2.804   8.733   6.730
20938TIP3   OH262693   1.956   8.209   7.121
20938TIP3    H162694   2.008   8.166   7.191
20938TIP3    H262695   2.023   8.211   7.049
20939TIP3   OH262696   2.460   8.400   6.928
20939TIP3    H162697   2.465   8.411   7.025
20939TIP3    H262698   2.461   8.302   6.921
20940TIP3   OH262699   3.088   8.632   8.300
20940TIP3    H162700   3.160   8.683   8.258
20940TIP3    H262701   3.015   8.696   8.293
20941TIP3   OH262702   2.171   8.105   7.349
20941TIP3    H162703   2.140   8.059   7.429
20941TIP3    H262704   2.203   8.029   7.295
20942TIP3   OH262705   2.450   8.156   8.563
20942TIP3    H162706   2.377   8.208   8.602
20942TIP3    H262707   2.480   8.209   8.486
20943TIP3   OH262708   2.263   7.898   7.186
20943TIP3    H162709   2.236   7.896   7.092
20943TIP3    H262710   2.360   7.904   7.179
20944TIP3   OH262711   2.962   8.581   8.697
20944TIP3    H162712   3.040   8.550   8.650
20944TIP3    H262713   2.949   8.509   8.762
20945TIP3   OH262714   3.087   8.232   6.846
20945TIP3    H162715   3.068   8.183   6.763
20945TIP3    H262716   3.057   8.322   6.818
20946TIP3   OH262717   2.573   7.942   8.672
20946TIP3    H162718   2.569   7.863   8.615
20946TIP3    H262719   2.529   8.010   8.616
20947TIP3   OH262720   2.559   7.734   8.496
20947TIP3    H162721   2.585   7.778   8.412
20947TIP3    H262722   2.464   7.715   8.480
20948TIP3   OH262723   2.588   8.277   8.365
20948TIP3    H162724   2.674   8.277   8.319
20948TIP3    H262725   2.542   8.353   8.326
20949TIP3   OH262726   3.177   8.244   8.763
20949TIP3    H162727   3.226   8.161   8.770
20949TIP3    H262728   3.246   8.306   8.735
20950TIP3   OH262729   3.211   8.493   8.489
20950TIP3    H162730   3.152   8.545   8.430
20950TIP3    H262731   3.298   8.514   8.447
20951TIP3   OH262732   2.457   8.036   8.896
20951TIP3    H162733   2.377   7.980   8.903
20951TIP3    H262734   2.494   8.005   8.810
20952TIP3   OH262735   2.692   7.506   8.568
20952TIP3    H162736   2.643   7.589   8.547
20952TIP3    H262737   2.621   7.439   8.560
20953TIP3   OH262738   2.816   8.020   8.781
20953TIP3    H162739   2.817   8.005   8.878
20953TIP3    H262740   2.727   7.987   8.757
20954TIP3   OH262741   3.057   7.957   8.643
20954TIP3    H162742   2.983   7.965   8.706
20954TIP3    H262743   3.130   7.927   8.701
20955TIP3   OH262744   3.290   7.896   8.787
20955TIP3    H162745   3.299   7.800   8.808
20955TIP3    H262746   3.283   7.935   8.877
20956TIP3   OH262747   2.269   7.839   8.938
20956TIP3    H162748   2.284   7.746   8.912
20956TIP3    H262749   2.274   7.831   9.035
20957TIP3   OH262750   2.785   7.515   8.825
20957TIP3    H162751   2.855   7.447   8.822
20957TIP3    H262752   2.747   7.506   8.735
20958TIP3   OH262753   2.856   7.725   8.986
20958TIP3    H162754   2.825   7.657   8.922
20958TIP3    H262755   2.784   7.791   8.985
20959TIP3   OH262756   2.074   8.962   7.093
20959TIP3    H162757   2.169   8.965   7.072
20959TIP3    H262758   2.038   9.007   7.014
20960TIP3   OH262759   1.551   8.343   7.309
20960TIP3    H162760   1.646   8.365   7.293
20960TIP3    H262761   1.545   8.254   7.266
20961TIP3   OH262762   3.316   9.215   7.701
20961TIP3    H162763   3.344   9.242   7.791
20961TIP3    H262764   3.385   9.257   7.648
20962TIP3   OH262765   3.362   9.217   7.971
20962TIP3    H162766   3.334   9.125   7.984
20962TIP3    H262767   3.433   9.226   8.036
20963TIP3   OH262768   3.389   8.902   8.537
20963TIP3    H162769   3.297   8.891   8.568
20963TIP3    H262770   3.383   8.985   8.489
20964TIP3   OH262771   3.218   8.422   7.182
20964TIP3    H162772   3.289   8.482   7.153
20964TIP3    H262773   3.261   8.380   7.260
20965TIP3   OH262774   3.346   8.288   7.383
20965TIP3    H162775   3.284   8.244   7.444
20965TIP3    H262776   3.414   8.325   7.443
20966TIP3   OH262777   3.395   8.673   7.811
20966TIP3    H162778   3.454   8.614   7.761
20966TIP3    H262779   3.394   8.754   7.755
20967TIP3   OH262780   3.253   8.958   8.001
20967TIP3    H162781   3.190   9.013   8.053
20967TIP3    H262782   3.192   8.914   7.939
20968TIP3   OH262783   3.287   8.194   7.032
20968TIP3    H162784   3.215   8.197   6.965
20968TIP3    H262785   3.261   8.270   7.087
20969TIP3   OH262786   3.156   7.868   6.988
20969TIP3    H162787   3.120   7.907   6.908
20969TIP3    H262788   3.130   7.774   6.978
20970TIP3   OH262789   3.162   8.140   7.532
20970TIP3    H162790   3.173   8.044   7.528
20970TIP3    H262791   3.151   8.155   7.629
20971TIP3   OH262792   1.798   8.201   8.280
20971TIP3    H162793   1.789   8.193   8.183
20971TIP3    H262794   1.894   8.215   8.291
20972TIP3   OH262795   3.451   8.564   8.383
20972TIP3    H162796   3.525   8.499   8.377
20972TIP3    H262797   3.482   8.635   8.324
20973TIP3   OH262798   3.639   8.376   8.413
20973TIP3    H162799   3.565   8.323   8.449
20973TIP3    H262800   3.713   8.312   8.424
20974TIP3   OH262801   3.102   7.602   6.975
20974TIP3    H162802   3.179   7.572   7.027
20974TIP3    H262803   3.031   7.541   7.002
20975TIP3   OH262804   3.158   7.856   7.428
20975TIP3    H162805   3.198   7.767   7.444
20975TIP3    H262806   3.218   7.888   7.358
20976TIP3   OH262807   3.322   8.037   7.920
20976TIP3    H162808   3.409   8.063   7.881
20976TIP3    H262809   3.335   8.070   8.011
20977TIP3   OH262810   3.388   8.174   8.155
20977TIP3    H162811   3.310   8.209   8.203
20977TIP3    H262812   3.421   8.255   8.109
20978TIP3   OH262813   2.006   7.845   8.873
20978TIP3    H162814   2.098   7.870   8.898
20978TIP3    H262815   1.983   7.788   8.949
20979TIP3   OH262816   3.841   7.763   8.710
20979TIP3    H162817   3.899   7.698   8.666
20979TIP3    H262818   3.816   7.822   8.636
20980TIP3   OH262819   3.268   7.606   7.464
20980TIP3    H162820   3.317   7.592   7.547
20980TIP3    H262821   3.208   7.529   7.464
20981TIP3   OH262822   1.967   7.593   8.281
20981TIP3    H162823   2.030   7.518   8.295
20981TIP3    H262824   2.029   7.668   8.281
20982TIP3   OH262825   1.783   7.861   8.364
20982TIP3    H162826   1.829   7.859   8.278
20982TIP3    H262827   1.780   7.956   8.384
20983TIP3   OH262828   3.716   7.910   8.517
20983TIP3    H162829   3.629   7.946   8.543
20983TIP3    H262830   3.688   7.837   8.458
20984TIP3   OH262831   3.352   7.546   7.093
20984TIP3    H162832   3.392   7.471   7.045
20984TIP3    H262833   3.420   7.615   7.086
20985TIP3   OH262834   1.754   7.374   7.859
20985TIP3    H162835   1.659   7.372   7.883
20985TIP3    H262836   1.753   7.431   7.779
20986TIP3   OH262837   2.912   9.081   7.363
20986TIP3    H162838   2.960   9.058   7.280
20986TIP3    H262839   2.977   9.140   7.405
20987TIP3   OH262840   1.976   7.447   8.666
20987TIP3    H162841   1.927   7.446   8.750
20987TIP3    H262842   1.909   7.485   8.606
20988TIP3   OH262843   3.612   7.670   8.392
20988TIP3    H162844   3.519   7.666   8.362
20988TIP3    H262845   3.640   7.577   8.381
20989TIP3   OH262846   2.793   9.142   8.050
20989TIP3    H162847   2.708   9.119   8.008
20989TIP3    H262848   2.846   9.179   7.977
20990TIP3   OH262849   3.007   9.293   7.883
20990TIP3    H162850   3.025   9.366   7.823
20990TIP3    H262851   3.054   9.221   7.836
20991TIP3   OH262852   1.990   8.777   7.878
20991TIP3    H162853   2.017   8.697   7.929
20991TIP3    H262854   2.013   8.849   7.939
20992TIP3   OH262855   2.272   8.896   7.855
20992TIP3    H162856   2.261   8.804   7.886
20992TIP3    H262857   2.181   8.930   7.853
20993TIP3   OH262858   2.811   7.583   8.004
20993TIP3    H162859   2.771   7.517   8.063
20993TIP3    H262860   2.887   7.534   7.966
20994TIP3   OH262861   3.343   7.464   7.917
20994TIP3    H162862   3.378   7.517   7.842
20994TIP3    H262863   3.247   7.482   7.911
20995TIP3   OH262864   3.436   7.568   7.680
20995TIP3    H162865   3.509   7.516   7.640
20995TIP3    H262866   3.469   7.659   7.666
20996TIP3   OH262867   2.066   7.294   8.029
20996TIP3    H162868   1.974   7.261   8.030
20996TIP3    H262869   2.116   7.210   8.026
20997TIP3   OH262870   1.847   7.162   7.673
20997TIP3    H162871   1.880   7.221   7.603
20997TIP3    H262872   1.820   7.225   7.742
20998TIP3   OH262873   2.504   7.330   7.908
20998TIP3    H162874   2.567   7.379   7.853
20998TIP3    H262875   2.527   7.362   7.997
20999TIP3   OH262876   3.059   7.472   7.893
20999TIP3    H162877   3.055   7.434   7.804
20999TIP3    H262878   3.043   7.391   7.949
21000TIP3   OH262879   3.085   7.392   7.453
21000TIP3    H162880   2.997   7.431   7.462
21000TIP3    H262881   3.072   7.308   7.504
21001TIP3   OH262882   1.569   8.726   7.458
21001TIP3    H162883   1.485   8.692   7.423
21001TIP3    H262884   1.558   8.820   7.438
21002TIP3   OH262885   1.966   7.324   7.440
21002TIP3    H162886   2.016   7.261   7.384
21002TIP3    H262887   2.038   7.378   7.478
21003TIP3   OH262888   2.481   7.497   7.539
21003TIP3    H162889   2.541   7.449   7.599
21003TIP3    H262890   2.504   7.589   7.565
21004TIP3   OH262891   2.342   8.931   7.033
21004TIP3    H162892   2.432   8.949   6.999
21004TIP3    H262893   2.320   8.852   6.979
21005TIP3   OH262894   3.049   9.037   7.132
21005TIP3    H162895   3.044   8.940   7.115
21005TIP3    H262896   3.017   9.072   7.046
21006TIP3   OH262897   2.276   7.563   8.910
21006TIP3    H162898   2.238   7.499   8.974
21006TIP3    H262899   2.369   7.564   8.941
21007TIP3   OH262900   2.519   7.563   9.031
21007TIP3    H162901   2.608   7.545   8.997
21007TIP3    H262902   2.512   7.496   9.102
21008TIP3   OH262903   1.648   8.767   7.096
21008TIP3    H162904   1.642   8.789   7.190
21008TIP3    H262905   1.735   8.721   7.090
21009TIP3   OH262906   3.345   7.627   8.826
21009TIP3    H162907   3.364   7.599   8.918
21009TIP3    H262908   3.434   7.624   8.786
21010TIP3   OH262909   4.551   8.555   7.088
21010TIP3    H162910   4.527   8.648   7.069
21010TIP3    H262911   4.472   8.510   7.054
21011TIP3   OH262912   4.553   8.555   7.460
21011TIP3    H162913   4.578   8.523   7.549
21011TIP3    H262914   4.507   8.478   7.424
21012TIP3   OH262915   3.851   8.455   7.832
21012TIP3    H162916   3.885   8.388   7.894
21012TIP3    H262917   3.927   8.514   7.824
21013TIP3   OH262918   4.793   8.853   7.145
21013TIP3    H162919   4.779   8.789   7.215
21013TIP3    H262920   4.815   8.933   7.194
21014TIP3   OH262921   3.819   8.858   7.559
21014TIP3    H162922   3.813   8.761   7.563
21014TIP3    H262923   3.915   8.870   7.551
21015TIP3   OH262924   3.528   8.067   7.345
21015TIP3    H162925   3.481   8.151   7.356
21015TIP3    H262926   3.457   8.010   7.311
21016TIP3   OH262927   3.587   8.352   7.508
21016TIP3    H162928   3.636   8.277   7.548
21016TIP3    H262929   3.650   8.382   7.440
21017TIP3   OH262930   4.458   9.326   7.181
21017TIP3    H162931   4.487   9.259   7.117
21017TIP3    H262932   4.441   9.273   7.259
21018TIP3   OH262933   4.350   8.780   7.515
21018TIP3    H162934   4.387   8.707   7.462
21018TIP3    H262935   4.435   8.825   7.537
21019TIP3   OH262936   5.361   8.104   7.511
21019TIP3    H162937   5.389   8.186   7.555
21019TIP3    H262938   5.380   8.125   7.418
21020TIP3   OH262939   4.761   8.285   7.550
21020TIP3    H162940   4.804   8.199   7.569
21020TIP3    H262941   4.732   8.272   7.458
21021TIP3   OH262942   4.097   7.943   7.514
21021TIP3    H162943   4.076   8.016   7.451
21021TIP3    H262944   4.048   7.870   7.469
21022TIP3   OH262945   4.791   8.032   7.138
21022TIP3    H162946   4.865   8.017   7.201
21022TIP3    H262947   4.840   8.070   7.063
21023TIP3   OH262948   3.733   8.147   7.618
21023TIP3    H162949   3.815   8.127   7.666
21023TIP3    H262950   3.745   8.090   7.539
21024TIP3   OH262951   4.175   8.344   7.408
21024TIP3    H162952   4.268   8.317   7.423
21024TIP3    H262953   4.135   8.260   7.378
21025TIP3   OH262954   5.435   8.310   7.681
21025TIP3    H162955   5.353   8.359   7.660
21025TIP3    H262956   5.441   8.328   7.776
21026TIP3   OH262957   4.096   7.927   7.946
21026TIP3    H162958   4.035   7.964   7.880
21026TIP3    H262959   4.046   7.943   8.028
21027TIP3   OH262960   4.448   8.779   6.956
21027TIP3    H162961   4.401   8.760   6.875
21027TIP3    H262962   4.408   8.865   6.981
21028TIP3   OH262963   4.203   8.700   7.747
21028TIP3    H162964   4.138   8.764   7.784
21028TIP3    H262965   4.242   8.753   7.674
21029TIP3   OH262966   5.008   8.032   7.304
21029TIP3    H162967   4.998   7.985   7.387
21029TIP3    H262968   5.060   8.110   7.330
21030TIP3   OH262969   3.965   8.042   7.732
21030TIP3    H162970   4.028   8.114   7.755
21030TIP3    H262971   4.014   8.001   7.657
21031TIP3   OH262972   4.029   8.892   7.839
21031TIP3    H162973   4.005   8.978   7.799
21031TIP3    H262974   3.950   8.879   7.896
21032TIP3   OH262975   3.426   8.584   7.077
21032TIP3    H162976   3.388   8.612   6.991
21032TIP3    H262977   3.457   8.669   7.115
21033TIP3   OH262978   4.868   9.100   7.318
21033TIP3    H162979   4.778   9.092   7.357
21033TIP3    H262980   4.859   9.184   7.269
21034TIP3   OH262981   5.154   8.005   7.678
21034TIP3    H162982   5.066   8.035   7.649
21034TIP3    H262983   5.211   8.035   7.605
21035TIP3   OH262984   4.457   7.649   7.659
21035TIP3    H162985   4.443   7.554   7.677
21035TIP3    H262986   4.378   7.687   7.704
21036TIP3   OH262987   4.576   9.143   7.006
21036TIP3    H162988   4.625   9.069   6.967
21036TIP3    H262989   4.611   9.216   6.950
21037TIP3   OH262990   4.718   8.929   6.888
21037TIP3    H162991   4.662   8.856   6.858
21037TIP3    H262992   4.747   8.896   6.976
21038TIP3   OH262993   5.095   9.015   7.660
21038TIP3    H162994   5.082   8.938   7.600
21038TIP3    H262995   5.074   9.090   7.599
21039TIP3   OH262996   4.381   8.406   6.914
21039TIP3    H162997   4.302   8.459   6.893
21039TIP3    H262998   4.429   8.407   6.829
21040TIP3   OH262999   4.342   8.190   6.636
21040TIP3    H163000   4.409   8.241   6.684
21040TIP3    H263001   4.399   8.127   6.588
21041TIP3   OH263002   5.287   8.650   7.503
21041TIP3    H163003   5.204   8.703   7.509
21041TIP3    H263004   5.316   8.674   7.412
21042TIP3   OH263005   4.729   8.488   6.890
21042TIP3    H163006   4.674   8.516   6.968
21042TIP3    H263007   4.813   8.465   6.935
21043TIP3   OH263008   4.966   8.533   7.796
21043TIP3    H163009   4.961   8.617   7.844
21043TIP3    H263010   4.879   8.535   7.750
21044TIP3   OH263011   3.961   8.489   7.305
21044TIP3    H163012   3.920   8.432   7.237
21044TIP3    H263013   4.040   8.437   7.331
21045TIP3   OH263014   4.088   8.893   7.457
21045TIP3    H163015   4.070   8.855   7.370
21045TIP3    H263016   4.181   8.866   7.473
21046TIP3   OH263017   4.101   8.460   7.658
21046TIP3    H163018   4.132   8.443   7.567
21046TIP3    H263019   4.142   8.546   7.680
21047TIP3   OH263020   4.627   9.097   7.437
21047TIP3    H163021   4.607   9.178   7.487
21047TIP3    H263022   4.610   9.025   7.501
21048TIP3   OH263023   4.235   9.016   7.984
21048TIP3    H163024   4.174   9.079   8.029
21048TIP3    H263025   4.170   8.963   7.933
21049TIP3   OH263026   4.574   8.347   6.714
21049TIP3    H163027   4.630   8.407   6.767
21049TIP3    H263028   4.600   8.373   6.622
21050TIP3   OH263029   3.989   8.575   8.080
21050TIP3    H163030   3.993   8.661   8.127
21050TIP3    H263031   3.893   8.558   8.086
21051TIP3   OH263032   4.311   9.036   6.993
21051TIP3    H163033   4.393   9.084   7.014
21051TIP3    H263034   4.267   9.108   6.942
21052TIP3   OH263035   4.032   9.187   8.071
21052TIP3    H163036   3.996   9.188   7.980
21052TIP3    H263037   3.954   9.163   8.125
21053TIP3   OH263038   5.087   7.592   6.761
21053TIP3    H163039   5.006   7.611   6.812
21053TIP3    H263040   5.099   7.676   6.711
21054TIP3   OH263041   3.828   8.330   7.110
21054TIP3    H163042   3.766   8.377   7.050
21054TIP3    H263043   3.783   8.246   7.123
21055TIP3   OH263044   4.882   8.959   6.306
21055TIP3    H163045   4.890   9.057   6.296
21055TIP3    H263046   4.976   8.931   6.297
21056TIP3   OH263047   3.608   8.714   8.019
21056TIP3    H163048   3.549   8.691   7.945
21056TIP3    H263049   3.646   8.628   8.045
21057TIP3   OH263050   3.464   8.908   7.654
21057TIP3    H163051   3.559   8.901   7.640
21057TIP3    H263052   3.460   8.988   7.708
21058TIP3   OH263053   5.330   9.359   7.703
21058TIP3    H163054   5.327   9.262   7.714
21058TIP3    H263055   5.246   9.384   7.748
21059TIP3   OH263056   4.437   9.144   7.841
21059TIP3    H163057   4.436   9.238   7.871
21059TIP3    H263058   4.363   9.107   7.893
21060TIP3   OH263059   3.627   9.126   7.174
21060TIP3    H163060   3.683   9.118   7.255
21060TIP3    H263061   3.567   9.051   7.188
21061TIP3   OH263062   4.396   9.171   6.433
21061TIP3    H163063   4.456   9.104   6.394
21061TIP3    H263064   4.430   9.178   6.524
21062TIP3   OH263065   5.221   8.494   7.976
21062TIP3    H163066   5.140   8.508   7.925
21062TIP3    H263067   5.234   8.398   7.966
21063TIP3   OH263068   3.815   8.897   8.007
21063TIP3    H163069   3.864   8.884   8.091
21063TIP3    H263070   3.741   8.834   8.017
21064TIP3   OH263071   4.215   7.723   7.785
21064TIP3    H163072   4.125   7.692   7.762
21064TIP3    H263073   4.192   7.806   7.830
21065TIP3   OH263074   4.747   7.838   7.982
21065TIP3    H163075   4.814   7.811   8.048
21065TIP3    H263076   4.662   7.818   8.027
21066TIP3   OH263077   4.991   8.268   7.902
21066TIP3    H163078   4.941   8.262   7.986
21066TIP3    H263079   4.963   8.354   7.866
21067TIP3   OH263080   4.646   8.396   6.457
21067TIP3    H163081   4.615   8.370   6.369
21067TIP3    H263082   4.721   8.454   6.435
21068TIP3   OH263083   4.360   7.773   6.758
21068TIP3    H163084   4.329   7.772   6.851
21068TIP3    H263085   4.322   7.689   6.727
21069TIP3   OH263086   4.145   8.237   7.807
21069TIP3    H163087   4.095   8.260   7.888
21069TIP3    H263088   4.130   8.317   7.752
21070TIP3   OH263089   4.031   8.122   7.321
21070TIP3    H163090   3.937   8.098   7.337
21070TIP3    H263091   4.044   8.082   7.232
21071TIP3   OH263092   4.520   8.209   7.046
21071TIP3    H163093   4.465   8.281   7.008
21071TIP3    H263094   4.574   8.183   6.969
21072TIP3   OH263095   4.695   8.492   8.138
21072TIP3    H163096   4.672   8.418   8.198
21072TIP3    H263097   4.789   8.504   8.158
21073TIP3   OH263098   4.679   8.240   7.290
21073TIP3    H163099   4.621   8.274   7.218
21073TIP3    H263100   4.709   8.157   7.247
21074TIP3   OH263101   3.964   8.267   8.017
21074TIP3    H163102   3.990   8.331   8.085
21074TIP3    H263103   3.953   8.185   8.068
21075TIP3   OH263104   4.015   7.742   6.725
21075TIP3    H163105   4.009   7.741   6.823
21075TIP3    H263106   3.935   7.794   6.703
21076TIP3   OH263107   3.558   7.793   7.594
21076TIP3    H163108   3.634   7.821   7.649
21076TIP3    H263109   3.599   7.755   7.515
21077TIP3   OH263110   3.537   7.771   7.116
21077TIP3    H163111   3.583   7.810   7.039
21077TIP3    H263112   3.476   7.844   7.138
21078TIP3   OH263113   4.691   8.487   7.714
21078TIP3    H163114   4.722   8.414   7.656
21078TIP3    H263115   4.661   8.435   7.792
21079TIP3   OH263116   4.354   7.945   7.383
21079TIP3    H163117   4.270   7.943   7.433
21079TIP3    H263118   4.419   7.951   7.455
21080TIP3   OH263119   3.791   8.000   7.393
21080TIP3    H163120   3.697   8.007   7.366
21080TIP3    H263121   3.815   7.908   7.369
21081TIP3   OH263122   4.065   7.999   7.078
21081TIP3    H163123   4.159   8.015   7.057
21081TIP3    H263124   4.018   8.023   6.994
21082TIP3   OH263125   4.849   8.021   7.582
21082TIP3    H163126   4.814   8.033   7.674
21082TIP3    H263127   4.783   7.959   7.546
21083TIP3   OH263128   3.898   8.029   6.859
21083TIP3    H163129   3.825   7.988   6.810
21083TIP3    H263130   3.950   8.066   6.784
21084TIP3   OH263131   5.014   9.711   7.801
21084TIP3    H163132   5.012   9.731   7.706
21084TIP3    H263133   5.098   9.755   7.828
21085TIP3   OH263134   3.976   8.819   8.226
21085TIP3    H163135   4.055   8.853   8.273
21085TIP3    H263136   3.912   8.819   8.300
21086TIP3   OH263137   4.440   8.271   7.480
21086TIP3    H163138   4.514   8.234   7.429
21086TIP3    H263139   4.454   8.232   7.568
21087TIP3   OH263140   3.966   7.763   7.354
21087TIP3    H163141   3.935   7.682   7.400
21087TIP3    H263142   4.024   7.728   7.285
21088TIP3   OH263143   4.418   8.166   7.773
21088TIP3    H163144   4.329   8.205   7.783
21088TIP3    H263145   4.475   8.227   7.822
21089TIP3   OH263146   4.155   8.561   6.866
21089TIP3    H163147   4.081   8.498   6.854
21089TIP3    H263148   4.137   8.596   6.957
21090TIP3   OH263149   5.057   8.797   7.497
21090TIP3    H163150   5.080   8.846   7.415
21090TIP3    H263151   4.970   8.757   7.474
21091TIP3   OH263152   4.613   7.875   6.723
21091TIP3    H163153   4.516   7.862   6.729
21091TIP3    H263154   4.625   7.970   6.746
21092TIP3   OH263155   4.557   8.880   7.863
21092TIP3    H163156   4.567   8.855   7.955
21092TIP3    H263157   4.516   8.968   7.868
21093TIP3   OH263158   4.684   8.120   6.827
21093TIP3    H163159   4.780   8.128   6.844
21093TIP3    H263160   4.665   8.200   6.775
21094TIP3   OH263161   3.842   8.578   7.544
21094TIP3    H163162   3.881   8.553   7.457
21094TIP3    H263163   3.885   8.515   7.604
21095TIP3   OH263164   4.298   8.712   6.682
21095TIP3    H163165   4.251   8.799   6.687
21095TIP3    H263166   4.244   8.658   6.745
21096TIP3   OH263167   3.723   8.505   8.156
21096TIP3    H163168   3.750   8.489   8.249
21096TIP3    H263169   3.657   8.435   8.141
21097TIP3   OH263170   4.449   8.616   8.173
21097TIP3    H163171   4.391   8.558   8.122
21097TIP3    H263172   4.538   8.584   8.146
21098TIP3   OH263173   4.718   9.135   7.761
21098TIP3    H163174   4.621   9.135   7.767
21098TIP3    H263175   4.741   9.192   7.837
21099TIP3   OH263176   5.127   8.207   6.666
21099TIP3    H163177   5.063   8.163   6.605
21099TIP3    H263178   5.123   8.297   6.625
21100TIP3   OH263179   5.345   9.065   7.749
21100TIP3    H163180   5.247   9.063   7.742
21100TIP3    H263181   5.369   9.036   7.658
21101TIP3   OH263182   4.825   9.029   6.572
21101TIP3    H163183   4.797   8.963   6.638
21101TIP3    H263184   4.835   8.978   6.490
21102TIP3   OH263185   4.821   8.657   7.421
21102TIP3    H163186   4.727   8.632   7.430
21102TIP3    H263187   4.854   8.581   7.371
21103TIP3   OH263188   3.947   8.883   7.166
21103TIP3    H163189   3.958   8.965   7.114
21103TIP3    H263190   3.851   8.878   7.171
21104TIP3   OH263191   3.508   8.191   6.865
21104TIP3    H163192   3.556   8.274   6.885
21104TIP3    H263193   3.432   8.198   6.927
21105TIP3   OH263194   4.090   8.652   7.112
21105TIP3    H163195   4.056   8.743   7.127
21105TIP3    H263196   4.051   8.605   7.187
21106TIP3   OH263197   4.214   9.231   7.636
21106TIP3    H163198   4.250   9.305   7.583
21106TIP3    H263199   4.293   9.201   7.682
21107TIP3   OH263200   3.868   9.122   7.021
21107TIP3    H163201   3.781   9.138   7.064
21107TIP3    H263202   3.905   9.213   7.020
21108TIP3   OH263203   4.606   8.863   7.594
21108TIP3    H163204   4.600   8.861   7.692
21108TIP3    H263205   4.687   8.812   7.579
21109TIP3   OH263206   4.575   8.751   6.475
21109TIP3    H163207   4.628   8.728   6.554
21109TIP3    H263208   4.486   8.734   6.508
21110TIP3   OH263209   4.853   9.402   7.644
21110TIP3    H163210   4.774   9.347   7.633
21110TIP3    H263211   4.840   9.467   7.572
21111TIP3   OH263212   4.919   9.234   6.298
21111TIP3    H163213   4.953   9.305   6.241
21111TIP3    H263214   4.839   9.279   6.331
21112TIP3   OH263215   3.940   8.009   8.164
21112TIP3    H163216   3.845   8.016   8.181
21112TIP3    H263217   3.968   7.948   8.235
21113TIP3   OH263218   4.735   8.685   6.690
21113TIP3    H163219   4.727   8.623   6.765
21113TIP3    H263220   4.832   8.690   6.681
21114TIP3   OH263221   3.652   9.090   7.796
21114TIP3    H163222   3.711   9.023   7.833
21114TIP3    H263223   3.674   9.168   7.850
21115TIP3   OH263224   3.944   8.736   6.475
21115TIP3    H163225   3.962   8.645   6.447
21115TIP3    H263226   3.928   8.725   6.570
21116TIP3   OH263227   3.891   8.741   6.749
21116TIP3    H163228   3.964   8.721   6.810
21116TIP3    H263229   3.893   8.840   6.751
21117TIP3   OH263230   3.628   8.437   6.951
21117TIP3    H163231   3.564   8.484   7.008
21117TIP3    H263232   3.646   8.507   6.884
21118TIP3   OH263233   4.774   8.072   7.841
21118TIP3    H163234   4.852   8.111   7.884
21118TIP3    H263235   4.757   7.993   7.896
21119TIP3   OH263236   4.654   7.827   7.003
21119TIP3    H163237   4.639   7.852   6.910
21119TIP3    H263238   4.691   7.910   7.041
21120TIP3   OH263239   4.153   8.942   6.690
21120TIP3    H163240   4.073   8.973   6.735
21120TIP3    H263241   4.179   9.025   6.646
21121TIP3   OH263242   4.348   8.001   7.108
21121TIP3    H163243   4.412   8.074   7.090
21121TIP3    H263244   4.351   7.997   7.206
21122TIP3   OH263245   4.614   8.325   7.919
21122TIP3    H163246   4.627   8.380   7.999
21122TIP3    H263247   4.670   8.248   7.937
21123TIP3   OH263248   4.497   7.736   7.216
21123TIP3    H163249   4.486   7.814   7.273
21123TIP3    H263250   4.552   7.774   7.144
21124TIP3   OH263251   3.887   9.013   6.762
21124TIP3    H163252   3.867   9.084   6.698
21124TIP3    H263253   3.882   9.061   6.847
21125TIP3   OH263254   4.001   7.728   7.002
21125TIP3    H163255   3.997   7.818   7.038
21125TIP3    H263256   4.097   7.710   7.012
21126TIP3   OH263257   5.258   8.224   7.895
21126TIP3    H163258   5.160   8.223   7.906
21126TIP3    H263259   5.264   8.183   7.808
21127TIP3   OH263260   4.906   8.418   7.286
21127TIP3    H163261   4.830   8.359   7.299
21127TIP3    H263262   4.978   8.371   7.334
21128TIP3   OH263263   3.615   8.652   6.758
21128TIP3    H163264   3.676   8.727   6.768
21128TIP3    H263265   3.664   8.602   6.690
21129TIP3   OH263266   3.564   7.923   6.890
21129TIP3    H163267   3.562   8.020   6.883
21129TIP3    H263268   3.479   7.898   6.851
21130TIP3   OH263269   4.875   9.371   7.240
21130TIP3    H163270   4.827   9.415   7.165
21130TIP3    H263271   4.967   9.391   7.214
21131TIP3   OH263272   3.950   7.643   7.766
21131TIP3    H163273   3.918   7.610   7.679
21131TIP3    H263274   3.939   7.565   7.823
21132TIP3   OH263275   3.491   8.855   7.153
21132TIP3    H163276   3.411   8.895   7.189
21132TIP3    H263277   3.490   8.893   7.064
21133TIP3   OH263278   3.686   9.366   8.189
21133TIP3    H163279   3.765   9.347   8.241
21133TIP3    H263280   3.647   9.278   8.184
21134TIP3   OH263281   4.166   9.374   8.247
21134TIP3    H163282   4.243   9.316   8.245
21134TIP3    H263283   4.106   9.327   8.185
21135TIP3   OH263284   4.109   8.938   6.381
21135TIP3    H163285   4.052   8.874   6.428
21135TIP3    H263286   4.185   8.882   6.358
21136TIP3   OH263287   4.761   9.277   7.998
21136TIP3    H163288   4.757   9.203   8.062
21136TIP3    H263289   4.845   9.321   8.022
21137TIP3   OH263290   4.545   8.984   6.298
21137TIP3    H163291   4.595   8.924   6.355
21137TIP3    H263292   4.602   8.990   6.219
21138TIP3   OH263293   3.777   8.785   8.413
21138TIP3    H163294   3.793   8.689   8.404
21138TIP3    H263295   3.689   8.795   8.370
21139TIP3   OH263296   3.750   8.460   6.607
21139TIP3    H163297   3.806   8.427   6.680
21139TIP3    H263298   3.818   8.466   6.536
21140TIP3   OH263299   4.387   8.892   8.187
21140TIP3    H163300   4.341   8.905   8.103
21140TIP3    H263301   4.415   8.798   8.182
21141TIP3   OH263302   4.256   8.657   6.414
21141TIP3    H163303   4.261   8.672   6.510
21141TIP3    H263304   4.254   8.559   6.411
21142TIP3   OH263305   4.878   8.896   7.796
21142TIP3    H163306   4.949   8.944   7.750
21142TIP3    H263307   4.804   8.958   7.785
21143TIP3   OH263308   3.894   8.532   8.396
21143TIP3    H163309   3.970   8.474   8.380
21143TIP3    H263310   3.918   8.571   8.482
21144TIP3   OH263311   3.961   8.361   6.833
21144TIP3    H163312   3.936   8.319   6.916
21144TIP3    H263313   3.996   8.285   6.781
21145TIP3   OH263314   4.229   8.426   8.060
21145TIP3    H163315   4.152   8.486   8.066
21145TIP3    H263316   4.275   8.459   7.979
21146TIP3   OH263317   4.059   8.151   6.674
21146TIP3    H163318   4.032   8.154   6.580
21146TIP3    H263319   4.156   8.162   6.667
21147TIP3   OH263320   4.747   8.830   8.198
21147TIP3    H163321   4.825   8.808   8.144
21147TIP3    H263322   4.746   8.758   8.263
21148TIP3   OH263323   4.888   8.488   6.330
21148TIP3    H163324   4.862   8.441   6.248
21148TIP3    H263325   4.855   8.578   6.307
21149TIP3   OH263326   4.354   8.213   8.188
21149TIP3    H163327   4.351   8.132   8.133
21149TIP3    H263328   4.309   8.278   8.129
21150TIP3   OH263329   4.355   7.998   7.992
21150TIP3    H163330   4.381   8.041   7.908
21150TIP3    H263331   4.261   7.977   7.975
21151TIP3   OH263332   4.388   8.538   7.864
21151TIP3    H163333   4.467   8.545   7.810
21151TIP3    H263334   4.330   8.606   7.824
21152TIP3   OH263335   4.968   8.505   8.249
21152TIP3    H163336   5.015   8.421   8.261
21152TIP3    H263337   5.037   8.563   8.215
21153TIP3   OH263338   5.008   8.757   7.986
21153TIP3    H163339   4.949   8.808   7.926
21153TIP3    H263340   5.094   8.776   7.944
21154TIP3   OH263341   4.227   8.333   8.412
21154TIP3    H163342   4.159   8.264   8.428
21154TIP3    H263343   4.264   8.303   8.326
21155TIP3   OH263344   4.488   7.764   8.055
21155TIP3    H163345   4.439   7.848   8.036
21155TIP3    H263346   4.416   7.698   8.046
21156TIP3   OH263347   4.614   8.273   8.275
21156TIP3    H163348   4.604   8.261   8.372
21156TIP3    H263349   4.523   8.247   8.248
21157TIP3   OH263350   4.853   8.218   8.130
21157TIP3    H163351   4.777   8.220   8.191
21157TIP3    H263352   4.925   8.186   8.188
21158TIP3   OH263353   5.085   8.157   8.282
21158TIP3    H163354   5.094   8.062   8.304
21158TIP3    H263355   5.079   8.199   8.371
21159TIP3   OH263356   4.070   8.111   8.465
21159TIP3    H163357   4.078   8.020   8.430
21159TIP3    H263358   4.104   8.099   8.556
21160TIP3   OH263359   4.584   7.776   8.313
21160TIP3    H163360   4.651   7.705   8.309
21160TIP3    H263361   4.543   7.766   8.224
21161TIP3   OH263362   4.649   7.990   8.474
21161TIP3    H163363   4.625   7.919   8.410
21161TIP3    H263364   4.571   8.050   8.469
21162TIP3   OH263365   3.863   9.215   6.574
21162TIP3    H163366   3.961   9.211   6.568
21162TIP3    H263367   3.845   9.265   6.492
21163TIP3   OH263368   3.348   8.599   6.795
21163TIP3    H163369   3.442   8.624   6.780
21163TIP3    H263370   3.345   8.511   6.753
21164TIP3   OH263371   3.253   9.211   7.208
21164TIP3    H163372   3.191   9.144   7.173
21164TIP3    H263373   3.304   9.158   7.274
21165TIP3   OH263374   3.394   9.069   7.392
21165TIP3    H163375   3.394   8.992   7.450
21165TIP3    H263376   3.448   9.130   7.446
21166TIP3   OH263377   5.127   9.460   7.191
21166TIP3    H163378   5.150   9.501   7.276
21166TIP3    H263379   5.176   9.515   7.128
21167TIP3   OH263380   5.155   9.486   7.473
21167TIP3    H163381   5.113   9.398   7.465
21167TIP3    H263382   5.231   9.463   7.529
21168TIP3   OH263383   5.197   9.154   8.045
21168TIP3    H163384   5.122   9.167   8.107
21168TIP3    H263385   5.243   9.241   8.052
21169TIP3   OH263386   5.018   8.675   6.667
21169TIP3    H163387   5.086   8.740   6.641
21169TIP3    H263388   5.059   8.635   6.747
21170TIP3   OH263389   5.146   8.542   6.870
21170TIP3    H163390   5.079   8.501   6.928
21170TIP3    H263391   5.207   8.584   6.933
21171TIP3   OH263392   5.198   8.932   7.306
21171TIP3    H163393   5.249   8.872   7.249
21171TIP3    H263394   5.185   9.009   7.248
21172TIP3   OH263395   5.032   9.233   7.502
21172TIP3    H163396   4.960   9.279   7.549
21172TIP3    H263397   4.983   9.187   7.430
21173TIP3   OH263398   5.084   8.449   6.519
21173TIP3    H163399   5.013   8.453   6.450
21173TIP3    H263400   5.057   8.525   6.574
21174TIP3   OH263401   4.957   8.122   6.473
21174TIP3    H163402   4.914   8.167   6.400
21174TIP3    H263403   4.927   8.029   6.461
21175TIP3   OH263404   4.961   8.397   7.019
21175TIP3    H163405   4.968   8.300   7.015
21175TIP3    H263406   4.948   8.413   7.115
21176TIP3   OH263407   3.587   8.474   7.763
21176TIP3    H163408   3.587   8.447   7.669
21176TIP3    H263409   3.684   8.474   7.780
21177TIP3   OH263410   5.249   8.821   7.874
21177TIP3    H163411   5.324   8.759   7.864
21177TIP3    H263412   5.272   8.892   7.811
21178TIP3   OH263413   5.439   8.633   7.899
21178TIP3    H163414   5.362   8.584   7.935
21178TIP3    H263415   5.509   8.565   7.911
21179TIP3   OH263416   4.899   7.857   6.461
21179TIP3    H163417   4.974   7.827   6.516
21179TIP3    H263418   4.826   7.798   6.488
21180TIP3   OH263419   4.955   8.113   6.916
21180TIP3    H163420   4.996   8.024   6.930
21180TIP3    H263421   5.013   8.147   6.846
21181TIP3   OH263422   5.120   8.290   7.408
21181TIP3    H163423   5.205   8.318   7.369
21181TIP3    H263424   5.131   8.327   7.498
21182TIP3   OH263425   5.185   8.432   7.642
21182TIP3    H163426   5.106   8.466   7.689
21182TIP3    H263427   5.217   8.513   7.596
21183TIP3   OH263428   3.803   8.162   8.437
21183TIP3    H163429   3.901   8.153   8.439
21183TIP3    H263430   3.778   8.078   8.481
21184TIP3   OH263431   5.639   8.021   8.197
21184TIP3    H163432   5.695   7.955   8.152
21184TIP3    H263433   5.611   8.079   8.123
21185TIP3   OH263434   5.066   7.863   6.950
21185TIP3    H163435   5.113   7.848   7.035
21185TIP3    H263436   5.005   7.786   6.950
21186TIP3   OH263437   3.764   7.850   7.770
21186TIP3    H163438   3.826   7.776   7.781
21186TIP3    H263439   3.826   7.925   7.765
21187TIP3   OH263440   3.569   8.126   7.843
21187TIP3    H163441   3.618   8.118   7.759
21187TIP3    H263442   3.600   8.212   7.874
21188TIP3   OH263443   5.513   8.166   8.004
21188TIP3    H163444   5.425   8.203   8.028
21188TIP3    H263445   5.485   8.095   7.944
21189TIP3   OH263446   5.149   7.801   6.583
21189TIP3    H163447   5.188   7.728   6.531
21189TIP3    H263448   5.215   7.872   6.572
21190TIP3   OH263449   3.550   7.630   7.345
21190TIP3    H163450   3.456   7.628   7.369
21190TIP3    H263451   3.550   7.688   7.265
21191TIP3   OH263452   4.709   9.323   6.847
21191TIP3    H163453   4.762   9.311   6.766
21191TIP3    H263454   4.753   9.397   6.890
21192TIP3   OH263455   3.771   7.709   8.158
21192TIP3    H163456   3.722   7.702   8.242
21192TIP3    H263457   3.702   7.747   8.100
21193TIP3   OH263458   3.817   9.121   8.248
21193TIP3    H163459   3.726   9.096   8.223
21193TIP3    H263460   3.812   9.104   8.345
21194TIP3   OH263461   3.988   9.163   7.784
21194TIP3    H163462   3.938   9.239   7.747
21194TIP3    H263463   4.072   9.179   7.737
21195TIP3   OH263464   4.439   9.409   7.925
21195TIP3    H163465   4.482   9.418   8.012
21195TIP3    H263466   4.501   9.460   7.868
21196TIP3   OH263467   4.613   9.559   7.781
21196TIP3    H163468   4.684   9.513   7.733
21196TIP3    H263469   4.665   9.620   7.837
21197TIP3   OH263470   5.408   7.927   7.880
21197TIP3    H163471   5.316   7.925   7.848
21197TIP3    H263472   5.435   7.833   7.868
21198TIP3   OH263473   3.669   9.403   7.798
21198TIP3    H163474   3.580   9.435   7.771
21198TIP3    H263475   3.674   9.454   7.881
21199TIP3   OH263476   3.905   9.400   7.662
21199TIP3    H163477   3.818   9.410   7.707
21199TIP3    H263478   3.885   9.439   7.574
21200TIP3   OH263479   4.325   9.432   7.467
21200TIP3    H163480   4.266   9.451   7.392
21200TIP3    H263481   4.340   9.522   7.502
21201TIP3   OH263482   4.595   9.374   7.515
21201TIP3    H163483   4.500   9.388   7.492
21201TIP3    H263484   4.636   9.447   7.465
21202TIP3   OH263485   4.810   9.567   7.430
21202TIP3    H163486   4.792   9.651   7.382
21202TIP3    H263487   4.829   9.506   7.356
21203TIP3   OH263488   3.572   9.216   7.551
21203TIP3    H163489   3.601   9.199   7.643
21203TIP3    H263490   3.647   9.173   7.503
21204TIP3   OH263491   3.767   9.088   7.404
21204TIP3    H163492   3.787   9.006   7.454
21204TIP3    H263493   3.856   9.129   7.399
21205TIP3   OH263494   4.029   9.186   7.409
21205TIP3    H163495   4.068   9.099   7.392
21205TIP3    H263496   4.072   9.209   7.493
21206TIP3   OH263497   4.613   7.843   7.498
21206TIP3    H163498   4.568   7.776   7.552
21206TIP3    H263499   4.682   7.791   7.453
21207TIP3   OH263500   5.139   7.720   7.405
21207TIP3    H163501   5.176   7.773   7.331
21207TIP3    H263502   5.044   7.739   7.399
21208TIP3   OH263503   5.232   7.823   7.168
21208TIP3    H163504   5.305   7.773   7.126
21208TIP3    H263505   5.264   7.915   7.154
21209TIP3   OH263506   3.863   7.551   7.516
21209TIP3    H163507   3.771   7.516   7.517
21209TIP3    H263508   3.913   7.466   7.511
21210TIP3   OH263509   3.646   7.419   7.158
21210TIP3    H163510   3.677   7.480   7.089
21210TIP3    H263511   3.617   7.481   7.228
21211TIP3   OH263512   4.302   7.594   7.381
21211TIP3    H163513   4.369   7.651   7.340
21211TIP3    H263514   4.312   7.617   7.475
21212TIP3   OH263515   4.858   7.727   7.382
21212TIP3    H163516   4.848   7.697   7.290
21212TIP3    H263517   4.839   7.645   7.433
21213TIP3   OH263518   4.881   7.649   6.940
21213TIP3    H163519   4.795   7.693   6.948
21213TIP3    H263520   4.865   7.566   6.988
21214TIP3   OH263521   3.360   8.987   6.952
21214TIP3    H163522   3.279   8.956   6.908
21214TIP3    H263523   3.354   9.082   6.934
21215TIP3   OH263524   3.762   7.580   6.928
21215TIP3    H163525   3.812   7.519   6.870
21215TIP3    H263526   3.833   7.635   6.965
21216TIP3   OH263527   4.278   7.751   7.027
21216TIP3    H163528   4.336   7.706   7.090
21216TIP3    H263529   4.299   7.844   7.050
21217TIP3   OH263530   4.124   9.179   6.511
21217TIP3    H163531   4.215   9.210   6.497
21217TIP3    H263532   4.122   9.101   6.452
21218TIP3   OH263533   4.858   9.296   6.615
21218TIP3    H163534   4.848   9.199   6.602
21218TIP3    H263535   4.810   9.331   6.537
21219TIP3   OH263536   4.070   7.831   8.405
21219TIP3    H163537   4.035   7.762   8.463
21219TIP3    H263538   4.164   7.832   8.433
21220TIP3   OH263539   4.318   7.828   8.525
21220TIP3    H163540   4.403   7.800   8.488
21220TIP3    H263541   4.304   7.759   8.594
21221TIP3   OH263542   3.440   9.014   6.586
21221TIP3    H163543   3.448   9.049   6.676
21221TIP3    H263544   3.529   8.975   6.571
21222TIP3   OH263545   5.141   7.886   8.314
21222TIP3    H163546   5.161   7.856   8.405
21222TIP3    H263547   5.229   7.882   8.272
21223TIP3   OH263548   5.084   9.443   7.805
21223TIP3    H163549   5.006   9.410   7.757
21223TIP3    H263550   5.065   9.538   7.806
21224TIP3   OH263551   6.348   8.811   6.573
21224TIP3    H163552   6.324   8.904   6.558
21224TIP3    H263553   6.267   8.767   6.542
21225TIP3   OH263554   6.341   8.812   6.939
21225TIP3    H163555   6.365   8.790   7.032
21225TIP3    H263556   6.297   8.730   6.912
21226TIP3   OH263557   5.649   8.712   7.317
21226TIP3    H163558   5.683   8.645   7.380
21226TIP3    H263559   5.727   8.769   7.308
21227TIP3   OH263560   6.586   9.112   6.630
21227TIP3    H163561   6.578   9.046   6.701
21227TIP3    H263562   6.616   9.190   6.681
21228TIP3   OH263563   5.618   9.117   7.048
21228TIP3    H163564   5.608   9.020   7.051
21228TIP3    H263565   5.714   9.125   7.039
21229TIP3   OH263566   5.325   8.324   6.833
21229TIP3    H163567   5.277   8.407   6.844
21229TIP3    H263568   5.254   8.267   6.797
21230TIP3   OH263569   5.386   8.611   6.997
21230TIP3    H163570   5.434   8.534   7.035
21230TIP3    H263571   5.443   8.635   6.922
21231TIP3   OH263572   6.239   9.579   6.648
21231TIP3    H163573   6.287   9.507   6.602
21231TIP3    H263574   6.229   9.542   6.737
21232TIP3   OH263575   6.146   9.037   7.000
21232TIP3    H163576   6.183   8.962   6.950
21232TIP3    H263577   6.231   9.081   7.023
21233TIP3   OH263578   7.163   8.359   6.989
21233TIP3    H163579   7.188   8.434   7.048
21233TIP3    H263580   7.160   8.404   6.904
21234TIP3   OH263581   6.561   8.544   7.033
21234TIP3    H163582   6.602   8.460   7.058
21234TIP3    H263583   6.530   8.525   6.943
21235TIP3   OH263584   5.895   8.199   7.000
21235TIP3    H163585   5.872   8.273   6.939
21235TIP3    H263586   5.846   8.126   6.956
21236TIP3   OH263587   6.589   8.287   6.627
21236TIP3    H163588   6.665   8.276   6.688
21236TIP3    H263589   6.634   8.327   6.550
21237TIP3   OH263590   5.529   8.403   7.106
21237TIP3    H163591   5.611   8.382   7.153
21237TIP3    H263592   5.539   8.346   7.026
21238TIP3   OH263593   5.971   8.600   6.894
21238TIP3    H163594   6.064   8.573   6.911
21238TIP3    H263595   5.931   8.516   6.865
21239TIP3   OH263596   7.209   8.555   7.170
21239TIP3    H163597   7.126   8.603   7.150
21239TIP3    H263598   7.200   8.546   7.267
21240TIP3   OH263599   5.892   8.183   7.433
21240TIP3    H163600   5.832   8.221   7.367
21240TIP3    H263601   5.842   8.202   7.515
21241TIP3   OH263602   6.246   9.035   6.441
21241TIP3    H163603   6.196   9.011   6.362
21241TIP3    H263604   6.202   9.120   6.464
21242TIP3   OH263605   5.998   8.957   7.233
21242TIP3    H163606   5.933   9.020   7.271
21242TIP3    H263607   6.041   9.010   7.163
21243TIP3   OH263608   6.809   8.290   6.787
21243TIP3    H163609   6.798   8.238   6.868
21243TIP3    H263610   6.850   8.372   6.822
21244TIP3   OH263611   5.762   8.298   7.219
21244TIP3    H163612   5.824   8.371   7.242
21244TIP3    H263613   5.811   8.257   7.144
21245TIP3   OH263614   5.824   9.149   7.328
21245TIP3    H163615   5.799   9.234   7.285
21245TIP3    H263616   5.745   9.136   7.384
21246TIP3   OH263617   5.226   8.841   6.563
21246TIP3    H163618   5.180   8.867   6.481
21246TIP3    H263619   5.252   8.927   6.601
21247TIP3   OH263620   6.650   9.330   6.785
21247TIP3    H163621   6.567   9.335   6.837
21247TIP3    H263622   6.656   9.422   6.753
21248TIP3   OH263623   6.949   8.258   7.158
21248TIP3    H163624   6.861   8.296   7.138
21248TIP3    H263625   7.004   8.291   7.085
21249TIP3   OH263626   6.252   7.903   7.145
21249TIP3    H163627   6.235   7.809   7.166
21249TIP3    H263628   6.175   7.944   7.190
21250TIP3   OH263629   6.366   9.405   6.476
21250TIP3    H163630   6.418   9.324   6.457
21250TIP3    H263631   6.426   9.472   6.436
21251TIP3   OH263632   6.510   9.189   6.379
21251TIP3    H163633   6.462   9.113   6.345
21251TIP3    H263634   6.542   9.155   6.465
21252TIP3   OH263635   6.177   8.662   6.400
21252TIP3    H163636   6.097   8.715   6.380
21252TIP3    H263637   6.223   8.663   6.315
21253TIP3   OH263638   6.138   8.447   6.123
21253TIP3    H163639   6.206   8.498   6.171
21253TIP3    H263640   6.195   8.383   6.075
21254TIP3   OH263641   7.080   8.883   6.971
21254TIP3    H163642   7.007   8.946   6.988
21254TIP3    H263643   7.120   8.924   6.891
21255TIP3   OH263644   6.526   8.745   6.376
21255TIP3    H163645   6.470   8.773   6.453
21255TIP3    H263646   6.609   8.722   6.422
21256TIP3   OH263647   6.676   8.791   7.276
21256TIP3    H163648   6.740   8.861   7.296
21256TIP3    H263649   6.631   8.826   7.198
21257TIP3   OH263650   5.758   8.747   6.791
21257TIP3    H163651   5.716   8.689   6.723
21257TIP3    H263652   5.836   8.694   6.817
21258TIP3   OH263653   5.887   9.155   6.942
21258TIP3    H163654   5.866   9.110   6.858
21258TIP3    H263655   5.978   9.124   6.959
21259TIP3   OH263656   5.898   8.715   7.146
21259TIP3    H163657   5.929   8.700   7.054
21259TIP3    H263658   5.939   8.802   7.168
21260TIP3   OH263659   6.417   9.356   6.923
21260TIP3    H163660   6.408   9.434   6.979
21260TIP3    H263661   6.404   9.281   6.984
21261TIP3   OH263662   6.031   9.275   7.467
21261TIP3    H163663   5.965   9.335   7.509
21261TIP3    H263664   5.970   9.216   7.418
21262TIP3   OH263665   6.371   8.602   6.200
21262TIP3    H163666   6.426   8.664   6.254
21262TIP3    H263667   6.396   8.629   6.109
21263TIP3   OH263668   5.785   8.830   7.568
21263TIP3    H163669   5.787   8.917   7.613
21263TIP3    H263670   5.689   8.812   7.571
21264TIP3   OH263671   6.107   9.287   6.477
21264TIP3    H163672   6.183   9.343   6.499
21264TIP3    H263673   6.045   9.350   6.439
21265TIP3   OH263674   5.830   9.436   7.561
21265TIP3    H163675   5.795   9.443   7.470
21265TIP3    H263676   5.748   9.421   7.613
21266TIP3   OH263677   6.884   7.849   6.249
21266TIP3    H163678   6.802   7.865   6.300
21266TIP3    H263679   6.894   7.934   6.200
21267TIP3   OH263680   5.625   8.586   6.596
21267TIP3    H163681   5.562   8.635   6.538
21267TIP3    H263682   5.577   8.504   6.610
21268TIP3   OH263683   6.679   9.216   5.795
21268TIP3    H163684   6.687   9.313   5.782
21268TIP3    H263685   6.772   9.187   5.784
21269TIP3   OH263686   5.407   8.972   7.503
21269TIP3    H163687   5.341   8.952   7.433
21269TIP3    H263688   5.441   8.884   7.527
21270TIP3   OH263689   5.260   9.162   7.143
21270TIP3    H163690   5.355   9.164   7.127
21270TIP3    H263691   5.245   9.247   7.187
21271TIP3   OH263692   6.219   9.412   7.318
21271TIP3    H163693   6.233   9.489   7.376
21271TIP3    H263694   6.154   9.362   7.371
21272TIP3   OH263695   5.990   9.533   6.276
21272TIP3    H163696   5.943   9.514   6.193
21272TIP3    H263697   5.957   9.622   6.300
21273TIP3   OH263698   5.429   9.382   6.658
21273TIP3    H163699   5.476   9.371   6.744
21273TIP3    H263700   5.360   9.314   6.668
21274TIP3   OH263701   6.193   9.433   5.919
21274TIP3    H163702   6.252   9.363   5.883
21274TIP3    H263703   6.226   9.441   6.011
21275TIP3   OH263704   6.242   9.479   6.191
21275TIP3    H163705   6.153   9.490   6.231
21275TIP3    H263706   6.290   9.437   6.264
21276TIP3   OH263707   6.935   8.748   7.371
21276TIP3    H163708   6.924   8.824   7.430
21276TIP3    H263709   7.008   8.701   7.414
21277TIP3   OH263710   5.609   9.157   7.495
21277TIP3    H163711   5.660   9.135   7.576
21277TIP3    H263712   5.536   9.091   7.499
21278TIP3   OH263713   6.012   7.980   7.270
21278TIP3    H163714   5.922   7.948   7.249
21278TIP3    H263715   5.988   8.063   7.316
21279TIP3   OH263716   6.544   8.092   7.468
21279TIP3    H163717   6.610   8.070   7.536
21279TIP3    H263718   6.459   8.075   7.514
21280TIP3   OH263719   6.774   8.511   7.376
21280TIP3    H163720   6.729   8.519   7.463
21280TIP3    H263721   6.772   8.604   7.345
21281TIP3   OH263722   6.444   8.652   5.944
21281TIP3    H163723   6.411   8.627   5.856
21281TIP3    H263724   6.518   8.710   5.920
21282TIP3   OH263725   6.159   8.028   6.245
21282TIP3    H163726   6.124   8.028   6.336
21282TIP3    H263727   6.118   7.946   6.212
21283TIP3   OH263728   5.941   8.493   7.294
21283TIP3    H163729   5.891   8.516   7.374
21283TIP3    H263730   5.928   8.574   7.239
21284TIP3   OH263731   5.827   8.378   6.808
21284TIP3    H163732   5.733   8.356   6.824
21284TIP3    H263733   5.839   8.339   6.718
21285TIP3   OH263734   6.316   8.465   6.532
21285TIP3    H163735   6.261   8.538   6.496
21285TIP3    H263736   6.369   8.441   6.454
21286TIP3   OH263737   6.479   8.752   7.618
21286TIP3    H163738   6.457   8.670   7.669
21286TIP3    H263739   6.575   8.746   7.612
21287TIP3   OH263740   6.473   8.495   6.777
21287TIP3    H163741   6.417   8.532   6.706
21287TIP3    H263742   6.502   8.413   6.732
21288TIP3   OH263743   5.761   8.524   7.503
21288TIP3    H163744   5.785   8.588   7.571
21288TIP3    H263745   5.749   8.442   7.555
21289TIP3   OH263746   5.812   8.000   6.213
21289TIP3    H163747   5.804   7.997   6.310
21289TIP3    H263748   5.732   8.050   6.189
21290TIP3   OH263749   5.353   8.048   7.083
21290TIP3    H163750   5.431   8.077   7.135
21290TIP3    H263751   5.392   8.013   7.001
21291TIP3   OH263752   5.335   8.029   6.603
21291TIP3    H163753   5.379   8.068   6.525
21291TIP3    H263754   5.272   8.100   6.625
21292TIP3   OH263755   6.423   8.730   7.181
21292TIP3    H163756   6.483   8.666   7.135
21292TIP3    H263757   6.453   8.715   7.272
21293TIP3   OH263758   6.152   8.194   6.873
21293TIP3    H163759   6.065   8.197   6.917
21293TIP3    H263760   6.210   8.219   6.946
21294TIP3   OH263761   5.587   8.257   6.879
21294TIP3    H163762   5.493   8.266   6.853
21294TIP3    H263763   5.608   8.165   6.855
21295TIP3   OH263764   5.862   8.256   6.564
21295TIP3    H163765   5.955   8.273   6.540
21295TIP3    H263766   5.812   8.279   6.482
21296TIP3   OH263767   6.641   8.274   7.064
21296TIP3    H163768   6.615   8.289   7.158
21296TIP3    H263769   6.569   8.214   7.037
21297TIP3   OH263770   5.696   8.285   6.347
21297TIP3    H163771   5.621   8.244   6.300
21297TIP3    H263772   5.746   8.321   6.271
21298TIP3   OH263773   5.764   9.074   7.709
21298TIP3    H163774   5.843   9.110   7.754
21298TIP3    H263775   5.701   9.075   7.783
21299TIP3   OH263776   6.234   8.522   6.963
21299TIP3    H163777   6.314   8.492   6.917
21299TIP3    H263778   6.253   8.497   7.055
21300TIP3   OH263779   5.766   8.019   6.842
21300TIP3    H163780   5.731   7.938   6.886
21300TIP3    H263781   5.813   7.983   6.766
21301TIP3   OH263782   6.214   8.420   7.261
21301TIP3    H163783   6.126   8.462   7.270
21301TIP3    H263784   6.273   8.480   7.311
21302TIP3   OH263785   5.952   8.818   6.353
21302TIP3    H163786   5.879   8.754   6.341
21302TIP3    H263787   5.933   8.852   6.444
21303TIP3   OH263788   6.853   9.039   6.987
21303TIP3    H163789   6.879   9.092   6.908
21303TIP3    H263790   6.765   9.005   6.958
21304TIP3   OH263791   6.410   8.132   6.210
21304TIP3    H163792   6.313   8.116   6.217
21304TIP3    H263793   6.419   8.227   6.233
21305TIP3   OH263794   6.337   9.126   7.350
21305TIP3    H163795   6.381   9.106   7.435
21305TIP3    H263796   6.309   9.217   7.362
21306TIP3   OH263797   6.481   8.376   6.314
21306TIP3    H163798   6.577   8.386   6.330
21306TIP3    H263799   6.459   8.457   6.263
21307TIP3   OH263800   5.642   8.838   7.030
21307TIP3    H163801   5.678   8.811   6.944
21307TIP3    H263802   5.679   8.771   7.090
21308TIP3   OH263803   6.095   8.968   6.171
21308TIP3    H163804   6.049   9.055   6.178
21308TIP3    H263805   6.040   8.913   6.232
21309TIP3   OH263806   5.519   8.759   7.641
21309TIP3    H163807   5.537   8.743   7.735
21309TIP3    H263808   5.449   8.694   7.622
21310TIP3   OH263809   6.238   8.871   7.670
21310TIP3    H163810   6.180   8.816   7.616
21310TIP3    H263811   6.326   8.839   7.641
21311TIP3   OH263812   6.486   9.380   7.265
21311TIP3    H163813   6.390   9.379   7.248
21311TIP3    H263814   6.487   9.418   7.354
21312TIP3   OH263815   6.926   8.464   6.151
21312TIP3    H163816   6.862   8.419   6.091
21312TIP3    H263817   6.920   8.553   6.110
21313TIP3   OH263818   6.621   9.286   6.060
21313TIP3    H163819   6.594   9.217   6.122
21313TIP3    H263820   6.632   9.238   5.976
21314TIP3   OH263821   6.608   8.912   6.910
21314TIP3    H163822   6.513   8.885   6.911
21314TIP3    H263823   6.647   8.838   6.859
21315TIP3   OH263824   5.741   9.141   6.651
21315TIP3    H163825   5.744   9.224   6.600
21315TIP3    H263826   5.645   9.129   6.660
21316TIP3   OH263827   5.305   8.447   6.353
21316TIP3    H163828   5.351   8.532   6.372
21316TIP3    H263829   5.227   8.454   6.413
21317TIP3   OH263830   5.887   8.911   6.599
21317TIP3    H163831   5.850   9.000   6.615
21317TIP3    H263832   5.848   8.861   6.673
21318TIP3   OH263833   6.008   9.485   7.124
21318TIP3    H163834   6.042   9.564   7.078
21318TIP3    H263835   6.087   9.454   7.170
21319TIP3   OH263836   5.665   9.380   6.507
21319TIP3    H163837   5.578   9.388   6.550
21319TIP3    H263838   5.696   9.473   6.508
21320TIP3   OH263839   6.401   9.122   7.079
21320TIP3    H163840   6.392   9.110   7.176
21320TIP3    H263841   6.482   9.072   7.061
21321TIP3   OH263842   6.372   9.008   5.961
21321TIP3    H163843   6.423   8.986   6.042
21321TIP3    H263844   6.282   8.989   5.992
21322TIP3   OH263845   6.716   9.490   5.785
21322TIP3    H163846   6.755   9.563   5.733
21322TIP3    H263847   6.635   9.536   5.815
21323TIP3   OH263848   5.735   8.266   7.653
21323TIP3    H163849   5.639   8.272   7.665
21323TIP3    H263850   5.761   8.201   7.720
21324TIP3   OH263851   6.532   8.945   6.179
21324TIP3    H163852   6.522   8.881   6.252
21324TIP3    H263853   6.629   8.946   6.168
21325TIP3   OH263854   5.452   9.353   7.282
21325TIP3    H163855   5.500   9.274   7.310
21325TIP3    H263856   5.482   9.418   7.347
21326TIP3   OH263857   5.744   8.994   5.961
21326TIP3    H163858   5.756   8.902   5.931
21326TIP3    H263859   5.725   8.982   6.056
21327TIP3   OH263860   5.690   8.999   6.233
21327TIP3    H163861   5.756   8.974   6.300
21327TIP3    H263862   5.692   9.097   6.239
21328TIP3   OH263863   5.426   8.696   6.438
21328TIP3    H163864   5.359   8.740   6.495
21328TIP3    H263865   5.439   8.765   6.370
21329TIP3   OH263866   6.572   8.323   7.319
21329TIP3    H163867   6.643   8.376   7.360
21329TIP3    H263868   6.558   8.250   7.384
21330TIP3   OH263869   6.450   8.084   6.490
21330TIP3    H163870   6.433   8.107   6.397
21330TIP3    H263871   6.486   8.167   6.526
21331TIP3   OH263872   5.953   9.198   6.184
21331TIP3    H163873   5.866   9.226   6.220
21331TIP3    H263874   5.969   9.268   6.119
21332TIP3   OH263875   6.149   8.255   6.597
21332TIP3    H163876   6.209   8.331   6.577
21332TIP3    H263877   6.146   8.257   6.694
21333TIP3   OH263878   6.398   8.567   7.416
21333TIP3    H163879   6.417   8.636   7.482
21333TIP3    H263880   6.474   8.508   7.427
21334TIP3   OH263881   6.297   7.997   6.710
21334TIP3    H163882   6.269   8.079   6.756
21334TIP3    H263883   6.348   8.034   6.634
21335TIP3   OH263884   5.693   9.272   6.249
21335TIP3    H163885   5.663   9.340   6.185
21335TIP3    H263886   5.677   9.316   6.335
21336TIP3   OH263887   5.796   7.984   6.490
21336TIP3    H163888   5.793   8.076   6.523
21336TIP3    H263889   5.892   7.966   6.498
21337TIP3   OH263890   7.042   8.463   7.378
21337TIP3    H163891   6.947   8.479   7.397
21337TIP3    H263892   7.034   8.435   7.286
21338TIP3   OH263893   6.702   8.673   6.771
21338TIP3    H163894   6.625   8.617   6.789
21338TIP3    H263895   6.774   8.628   6.820
21339TIP3   OH263896   5.412   8.906   6.246
21339TIP3    H163897   5.468   8.985   6.254
21339TIP3    H263898   5.461   8.857   6.177
21340TIP3   OH263899   5.360   8.179   6.376
21340TIP3    H163900   5.357   8.277   6.370
21340TIP3    H263901   5.274   8.155   6.339
21341TIP3   OH263902   6.645   9.595   6.702
21341TIP3    H163903   6.604   9.661   6.643
21341TIP3    H263904   6.735   9.628   6.705
21342TIP3   OH263905   5.747   7.899   7.252
21342TIP3    H163906   5.714   7.867   7.166
21342TIP3    H263907   5.736   7.821   7.310
21343TIP3   OH263908   5.287   9.114   6.637
21343TIP3    H163909   5.209   9.150   6.683
21343TIP3    H263910   5.273   9.154   6.548
21344TIP3   OH263911   5.435   9.648   7.693
21344TIP3    H163912   5.519   9.648   7.742
21344TIP3    H263913   5.410   9.554   7.698
21345TIP3   OH263914   5.906   9.200   5.878
21345TIP3    H163915   5.848   9.130   5.914
21345TIP3    H263916   5.979   9.146   5.843
21346TIP3   OH263917   6.342   9.243   5.786
21346TIP3    H163918   6.391   9.180   5.842
21346TIP3    H263919   6.396   9.246   5.704
21347TIP3   OH263920   5.574   9.055   7.908
21347TIP3    H163921   5.589   8.959   7.896
21347TIP3    H263922   5.486   9.065   7.865
21348TIP3   OH263923   5.548   8.718   6.092
21348TIP3    H163924   5.601   8.684   6.166
21348TIP3    H263925   5.617   8.723   6.022
21349TIP3   OH263926   6.172   9.141   7.674
21349TIP3    H163927   6.150   9.167   7.583
21349TIP3    H263928   6.218   9.055   7.660
21350TIP3   OH263929   6.056   8.914   5.901
21350TIP3    H163930   6.056   8.928   5.997
21350TIP3    H263931   6.051   8.816   5.897
21351TIP3   OH263932   6.638   9.129   7.280
21351TIP3    H163933   6.713   9.173   7.236
21351TIP3    H263934   6.573   9.200   7.283
21352TIP3   OH263935   5.690   8.798   7.885
21352TIP3    H163936   5.756   8.731   7.865
21352TIP3    H263937   5.712   8.823   7.976
21353TIP3   OH263938   5.762   8.617   6.321
21353TIP3    H163939   5.730   8.576   6.403
21353TIP3    H263940   5.793   8.541   6.269
21354TIP3   OH263941   6.026   8.683   7.548
21354TIP3    H163942   5.948   8.743   7.549
21354TIP3    H263943   6.075   8.715   7.469
21355TIP3   OH263944   5.855   8.408   6.161
21355TIP3    H163945   5.827   8.411   6.066
21355TIP3    H263946   5.952   8.419   6.152
21356TIP3   OH263947   6.685   8.744   5.817
21356TIP3    H163948   6.658   8.697   5.735
21356TIP3    H263949   6.652   8.834   5.794
21357TIP3   OH263950   6.145   8.467   7.677
21357TIP3    H163951   6.148   8.389   7.619
21357TIP3    H263952   6.107   8.535   7.617
21358TIP3   OH263953   6.151   8.254   7.480
21358TIP3    H163954   6.178   8.300   7.398
21358TIP3    H263955   6.057   8.234   7.461
21359TIP3   OH263956   6.185   8.792   7.352
21359TIP3    H163957   6.263   8.788   7.294
21359TIP3    H263958   6.132   8.863   7.310
21360TIP3   OH263959   6.026   8.594   7.900
21360TIP3    H163960   5.958   8.526   7.916
21360TIP3    H263961   6.060   8.569   7.812
21361TIP3   OH263962   6.283   8.021   7.542
21361TIP3    H163963   6.235   8.104   7.522
21361TIP3    H263964   6.212   7.954   7.532
21362TIP3   OH263965   6.402   8.534   7.756
21362TIP3    H163966   6.409   8.513   7.852
21362TIP3    H263967   6.310   8.507   7.738
21363TIP3   OH263968   6.625   8.490   7.600
21363TIP3    H163969   6.551   8.483   7.664
21363TIP3    H263970   6.693   8.436   7.648
21364TIP3   OH263971   6.798   8.353   7.748
21364TIP3    H163972   6.862   8.286   7.778
21364TIP3    H263973   6.827   8.433   7.797
21365TIP3   OH263974   5.868   8.370   7.952
21365TIP3    H163975   5.872   8.280   7.913
21365TIP3    H263976   5.902   8.352   8.042
21366TIP3   OH263977   6.380   8.030   7.798
21366TIP3    H163978   6.448   7.960   7.793
21366TIP3    H263979   6.340   8.022   7.709
21367TIP3   OH263980   6.427   8.239   7.967
21367TIP3    H163981   6.413   8.168   7.900
21367TIP3    H263982   6.358   8.304   7.945
21368TIP3   OH263983   5.662   9.473   6.061
21368TIP3    H163984   5.758   9.475   6.041
21368TIP3    H263985   5.628   9.521   5.983
21369TIP3   OH263986   5.144   8.855   6.282
21369TIP3    H163987   5.239   8.879   6.268
21369TIP3    H263988   5.140   8.767   6.238
21370TIP3   OH263989   5.060   9.469   6.689
21370TIP3    H163990   4.990   9.409   6.655
21370TIP3    H263991   5.101   9.413   6.758
21371TIP3   OH263992   5.197   9.325   6.876
21371TIP3    H163993   5.179   9.250   6.935
21371TIP3    H263994   5.244   9.385   6.937
21372TIP3   OH263995   6.814   8.932   6.154
21372TIP3    H163996   6.883   8.996   6.128
21372TIP3    H263997   6.855   8.891   6.233
21373TIP3   OH263998   6.939   8.795   6.353
21373TIP3    H163999   6.874   8.756   6.415
21373TIP3    H264000   7.004   8.837   6.412
21374TIP3   OH264001   6.965   9.171   6.781
21374TIP3    H164002   7.051   9.147   6.743
21374TIP3    H264003   6.951   9.261   6.750
21375TIP3   OH264004   6.880   8.705   6.006
21375TIP3    H164005   6.809   8.709   5.937
21375TIP3    H264006   6.853   8.781   6.061
21376TIP3   OH264007   6.755   8.377   5.961
21376TIP3    H164008   6.711   8.425   5.889
21376TIP3    H264009   6.722   8.286   5.946
21377TIP3   OH264010   6.758   8.653   6.505
21377TIP3    H164011   6.761   8.556   6.504
21377TIP3    H264012   6.744   8.671   6.601
21378TIP3   OH264013   5.384   8.724   7.251
21378TIP3    H164014   5.382   8.701   7.156
21378TIP3    H264015   5.481   8.729   7.267
21379TIP3   OH264016   6.698   8.110   5.950
21379TIP3    H164017   6.765   8.080   6.013
21379TIP3    H264018   6.619   8.057   5.971
21380TIP3   OH264019   6.752   8.369   6.403
21380TIP3    H164020   6.792   8.280   6.416
21380TIP3    H264021   6.809   8.403   6.331
21381TIP3   OH264022   6.917   8.536   6.884
21381TIP3    H164023   7.002   8.570   6.849
21381TIP3    H264024   6.918   8.579   6.972
21382TIP3   OH264025   6.973   8.675   7.112
21382TIP3    H164026   6.943   8.708   7.199
21382TIP3    H264027   7.007   8.758   7.072
21383TIP3   OH264028   5.601   8.419   7.930
21383TIP3    H164029   5.698   8.407   7.926
21383TIP3    H264030   5.574   8.334   7.969
21384TIP3   OH264031   6.854   8.120   6.446
21384TIP3    H164032   6.896   8.100   6.533
21384TIP3    H264033   6.796   8.041   6.436
21385TIP3   OH264034   5.561   8.106   7.256
21385TIP3    H164035   5.624   8.033   7.267
21385TIP3    H264036   5.622   8.182   7.252
21386TIP3   OH264037   5.367   8.382   7.332
21386TIP3    H164038   5.414   8.374   7.247
21386TIP3    H264039   5.392   8.472   7.358
21387TIP3   OH264040   7.298   8.405   7.448
21387TIP3    H164041   7.205   8.434   7.452
21387TIP3    H264042   7.285   8.314   7.416
21388TIP3   OH264043   6.963   8.052   6.078
21388TIP3    H164044   6.982   7.990   6.004
21388TIP3    H264045   7.012   8.132   6.054
21389TIP3   OH264046   5.346   7.888   6.833
21389TIP3    H164047   5.252   7.885   6.856
21389TIP3    H264048   5.346   7.945   6.752
21390TIP3   OH264049   6.508   9.588   6.338
21390TIP3    H164050   6.553   9.568   6.253
21390TIP3    H264051   6.567   9.654   6.376
21391TIP3   OH264052   5.567   7.966   7.646
21391TIP3    H164053   5.517   7.959   7.729
21391TIP3    H264054   5.500   8.004   7.586
21392TIP3   OH264055   5.608   9.390   7.737
21392TIP3    H164056   5.520   9.361   7.706
21392TIP3    H264057   5.602   9.369   7.832
21393TIP3   OH264058   5.785   9.422   7.275
21393TIP3    H164059   5.733   9.494   7.233
21393TIP3    H264060   5.869   9.436   7.227
21394TIP3   OH264061   7.206   8.170   7.354
21394TIP3    H164062   7.111   8.173   7.332
21394TIP3    H264063   7.225   8.074   7.347
21395TIP3   OH264064   5.462   9.684   7.296
21395TIP3    H164065   5.375   9.717   7.265
21395TIP3    H264066   5.456   9.705   7.390
21396TIP3   OH264067   5.692   9.650   7.147
21396TIP3    H164068   5.608   9.668   7.194
21396TIP3    H264069   5.674   9.689   7.059
21397TIP3   OH264070   6.127   9.699   6.949
21397TIP3    H164071   6.057   9.710   6.882
21397TIP3    H264072   6.106   9.772   7.009
21398TIP3   OH264073   6.394   9.641   6.986
21398TIP3    H164074   6.297   9.648   6.981
21398TIP3    H264075   6.420   9.683   6.902
21399TIP3   OH264076   5.374   9.477   7.039
21399TIP3    H164077   5.400   9.451   7.130
21399TIP3    H264078   5.446   9.432   6.988
21400TIP3   OH264079   5.565   9.345   6.893
21400TIP3    H164080   5.583   9.262   6.942
21400TIP3    H264081   5.654   9.385   6.886
21401TIP3   OH264082   5.831   9.443   6.893
21401TIP3    H164083   5.864   9.352   6.881
21401TIP3    H264084   5.869   9.464   6.980
21402TIP3   OH264085   6.421   8.099   6.996
21402TIP3    H164086   6.361   8.040   7.046
21402TIP3    H264087   6.448   8.043   6.922
21403TIP3   OH264088   7.015   8.054   6.656
21403TIP3    H164089   7.093   8.003   6.633
21403TIP3    H264090   7.051   8.144   6.663
21404TIP3   OH264091   5.659   7.807   7.003
21404TIP3    H164092   5.566   7.775   7.003
21404TIP3    H264093   5.707   7.722   7.000
21405TIP3   OH264094   5.444   7.675   6.648
21405TIP3    H164095   5.473   7.733   6.576
21405TIP3    H264096   5.412   7.738   6.715
21406TIP3   OH264097   6.103   7.837   6.881
21406TIP3    H164098   6.159   7.897   6.829
21406TIP3    H264099   6.109   7.877   6.969
21407TIP3   OH264100   6.698   7.948   6.869
21407TIP3    H164101   6.659   7.976   6.785
21407TIP3    H264102   6.625   7.907   6.916
21408TIP3   OH264103   6.677   7.905   6.427
21408TIP3    H164104   6.590   7.950   6.434
21408TIP3    H264105   6.660   7.822   6.476
21409TIP3   OH264106   5.162   9.243   6.433
21409TIP3    H164107   5.077   9.212   6.397
21409TIP3    H264108   5.150   9.338   6.419
21410TIP3   OH264109   5.558   7.836   6.415
21410TIP3    H164110   5.608   7.774   6.358
21410TIP3    H264111   5.630   7.890   6.452
21411TIP3   OH264112   6.073   8.009   6.512
21411TIP3    H164113   6.130   7.959   6.573
21411TIP3    H264114   6.097   8.101   6.537
21412TIP3   OH264115   5.933   9.440   6.011
21412TIP3    H164116   6.022   9.461   5.975
21412TIP3    H264117   5.910   9.364   5.953
21413TIP3   OH264118   6.650   9.553   6.104
21413TIP3    H164119   6.643   9.455   6.090
21413TIP3    H264120   6.607   9.586   6.023
21414TIP3   OH264121   5.865   8.090   7.895
21414TIP3    H164122   5.832   8.018   7.950
21414TIP3    H264123   5.960   8.090   7.920
21415TIP3   OH264124   6.115   8.087   8.014
21415TIP3    H164125   6.199   8.058   7.974
21415TIP3    H264126   6.101   8.016   8.081
21416TIP3   OH264127   5.236   9.273   6.070
21416TIP3    H164128   5.229   9.307   6.161
21416TIP3    H264129   5.326   9.236   6.066
21417TIP3   OH264130   6.943   8.121   7.796
21417TIP3    H164131   6.959   8.087   7.887
21417TIP3    H264132   7.032   8.127   7.757
21418TIP3   OH264133   7.117   8.568   6.324
21418TIP3    H164134   7.081   8.657   6.340
21418TIP3    H264135   7.045   8.529   6.272
21419TIP3   OH264136   7.177   8.861   6.468
21419TIP3    H164137   7.227   8.796   6.521
21419TIP3    H264138   7.247   8.905   6.418
21420TIP3   OH264139   7.686   8.452   6.489
21420TIP3    H164140   7.668   8.524   6.425
21420TIP3    H264141   7.634   8.380   6.449
21421TIP3   OH264142   8.357   8.524   6.097
21421TIP3    H164143   8.396   8.546   6.183
21421TIP3    H264144   8.383   8.600   6.042
21422TIP3   OH264145   7.323   8.662   6.588
21422TIP3    H164146   7.404   8.645   6.639
21422TIP3    H264147   7.337   8.604   6.511
21423TIP3   OH264148   7.747   8.854   6.383
21423TIP3    H164149   7.844   8.846   6.386
21423TIP3    H264150   7.721   8.765   6.351
21424TIP3   OH264151   7.652   8.408   6.891
21424TIP3    H164152   7.611   8.473   6.830
21424TIP3    H264153   7.641   8.456   6.975
21425TIP3   OH264154   7.559   8.580   6.701
21425TIP3    H164155   7.606   8.662   6.725
21425TIP3    H264156   7.614   8.543   6.629
21426TIP3   OH264157   7.022   9.096   6.049
21426TIP3    H164158   6.977   9.122   5.966
21426TIP3    H264159   7.048   9.183   6.086
21427TIP3   OH264160   8.046   8.160   6.618
21427TIP3    H164161   8.046   8.068   6.650
21427TIP3    H264162   7.975   8.198   6.674
21428TIP3   OH264163   7.961   8.906   5.874
21428TIP3    H164164   7.892   8.972   5.857
21428TIP3    H264165   8.020   8.918   5.799
21429TIP3   OH264166   7.932   8.690   5.624
21429TIP3    H164167   7.997   8.750   5.663
21429TIP3    H264168   7.989   8.639   5.563
21430TIP3   OH264169   7.565   9.016   6.266
21430TIP3    H164170   7.512   8.955   6.211
21430TIP3    H264171   7.631   8.955   6.306
21431TIP3   OH264172   8.178   8.869   5.689
21431TIP3    H164173   8.241   8.935   5.721
21431TIP3    H264174   8.188   8.884   5.591
21432TIP3   OH264175   8.687   8.111   5.748
21432TIP3    H164176   8.598   8.126   5.787
21432TIP3    H264177   8.693   8.186   5.684
21433TIP3   OH264178   7.418   8.844   6.091
21433TIP3    H164179   7.362   8.896   6.029
21433TIP3    H264180   7.368   8.761   6.093
21434TIP3   OH264181   7.220   9.636   6.164
21434TIP3    H164182   7.236   9.637   6.259
21434TIP3    H264183   7.145   9.575   6.161
21435TIP3   OH264184   7.993   9.689   5.413
21435TIP3    H164185   8.047   9.624   5.363
21435TIP3    H264186   8.029   9.678   5.501
21436TIP3   OH264187   7.818   8.241   6.754
21436TIP3    H164188   7.729   8.205   6.739
21436TIP3    H264189   7.792   8.324   6.799
21437TIP3   OH264190   8.245   8.917   5.435
21437TIP3    H164191   8.202   8.888   5.352
21437TIP3    H264192   8.327   8.957   5.399
21438TIP3   OH264193   7.956   8.282   5.733
21438TIP3    H164194   7.920   8.283   5.824
21438TIP3    H264195   7.914   8.202   5.698
21439TIP3   OH264196   7.623   8.626   6.296
21439TIP3    H164197   7.526   8.619   6.305
21439TIP3    H264198   7.636   8.597   6.203
21440TIP3   OH264199   8.093   8.703   6.004
21440TIP3    H164200   8.047   8.783   5.972
21440TIP3    H264201   8.147   8.678   5.926
21441TIP3   OH264202   7.608   8.257   5.701
21441TIP3    H164203   7.596   8.254   5.798
21441TIP3    H264204   7.529   8.308   5.674
21442TIP3   OH264205   7.193   8.261   6.532
21442TIP3    H164206   7.230   8.311   6.609
21442TIP3    H264207   7.171   8.336   6.473
21443TIP3   OH264208   7.143   8.284   6.102
21443TIP3    H164209   7.177   8.326   6.019
21443TIP3    H264210   7.074   8.348   6.125
21444TIP3   OH264211   7.945   8.453   6.361
21444TIP3    H164212   7.864   8.453   6.414
21444TIP3    H264213   8.012   8.476   6.427
21445TIP3   OH264214   7.377   8.507   6.365
21445TIP3    H164215   7.284   8.529   6.339
21445TIP3    H264216   7.393   8.424   6.317
21446TIP3   OH264217   7.653   8.511   6.051
21446TIP3    H164218   7.748   8.524   6.033
21446TIP3    H264219   7.610   8.537   5.966
21447TIP3   OH264220   7.493   8.542   5.832
21447TIP3    H164221   7.421   8.500   5.782
21447TIP3    H264222   7.544   8.581   5.757
21448TIP3   OH264223   7.557   8.236   6.330
21448TIP3    H164224   7.614   8.157   6.332
21448TIP3    H264225   7.592   8.282   6.252
21449TIP3   OH264226   7.744   9.080   5.838
21449TIP3    H164227   7.675   9.011   5.827
21449TIP3    H264228   7.732   9.108   5.931
21450TIP3   OH264229   8.206   8.388   5.699
21450TIP3    H164230   8.108   8.374   5.699
21450TIP3    H264231   8.214   8.484   5.715
21451TIP3   OH264232   8.272   8.635   5.802
21451TIP3    H164233   8.370   8.634   5.808
21451TIP3    H264234   8.255   8.712   5.744
21452TIP3   OH264235   7.420   9.033   6.502
21452TIP3    H164236   7.466   9.058   6.420
21452TIP3    H264237   7.491   9.000   6.556
21453TIP3   OH264238   7.881   9.223   5.639
21453TIP3    H164239   7.855   9.312   5.672
21453TIP3    H264240   7.844   9.167   5.710
21454TIP3   OH264241   8.715   8.709   5.630
21454TIP3    H164242   8.648   8.665   5.572
21454TIP3    H264243   8.714   8.795   5.581
21455TIP3   OH264244   7.536   9.392   6.157
21455TIP3    H164245   7.572   9.471   6.111
21455TIP3    H264246   7.443   9.394   6.130
21456TIP3   OH264247   7.103   8.703   5.840
21456TIP3    H164248   7.148   8.788   5.858
21456TIP3    H264249   7.024   8.710   5.899
21457TIP3   OH264250   7.703   9.176   6.095
21457TIP3    H164251   7.652   9.258   6.106
21457TIP3    H264252   7.651   9.114   6.150
21458TIP3   OH264253   7.395   9.666   5.955
21458TIP3    H164254   7.323   9.659   6.022
21458TIP3    H264255   7.474   9.675   6.011
21459TIP3   OH264256   8.161   9.272   5.447
21459TIP3    H164257   8.206   9.244   5.527
21459TIP3    H264258   8.071   9.243   5.467
21460TIP3   OH264259   7.463   8.458   7.108
21460TIP3    H164260   7.387   8.514   7.133
21460TIP3    H264261   7.525   8.472   7.181
21461TIP3   OH264262   7.537   9.254   5.450
21461TIP3    H164263   7.551   9.166   5.410
21461TIP3    H264264   7.518   9.230   5.543
21462TIP3   OH264265   7.482   9.256   5.728
21462TIP3    H164266   7.563   9.228   5.772
21462TIP3    H264267   7.490   9.354   5.729
21463TIP3   OH264268   7.224   8.952   5.925
21463TIP3    H164269   7.157   8.997   5.980
21463TIP3    H264270   7.237   9.020   5.856
21464TIP3   OH264271   8.237   8.321   5.968
21464TIP3    H164272   8.222   8.349   5.875
21464TIP3    H264273   8.274   8.404   6.006
21465TIP3   OH264274   7.748   9.468   5.689
21465TIP3    H164275   7.654   9.492   5.700
21465TIP3    H264276   7.769   9.517   5.609
21466TIP3   OH264277   7.930   8.505   6.086
21466TIP3    H164278   7.992   8.576   6.056
21466TIP3    H264279   7.942   8.509   6.183
21467TIP3   OH264280   8.084   8.249   6.190
21467TIP3    H164281   8.068   8.330   6.242
21467TIP3    H264282   8.141   8.283   6.118
21468TIP3   OH264283   7.487   9.533   5.735
21468TIP3    H164284   7.462   9.597   5.665
21468TIP3    H264285   7.445   9.578   5.812
21469TIP3   OH264286   7.589   8.242   5.983
21469TIP3    H164287   7.593   8.337   6.002
21469TIP3    H264288   7.685   8.220   5.987
21470TIP3   OH264289   7.208   9.162   5.731
21470TIP3    H164290   7.269   9.237   5.739
21470TIP3    H264291   7.255   9.110   5.663
21471TIP3   OH264292   7.152   8.434   5.870
21471TIP3    H164293   7.154   8.531   5.861
21471TIP3    H264294   7.072   8.411   5.821
21472TIP3   OH264295   7.543   8.139   6.763
21472TIP3    H164296   7.528   8.156   6.669
21472TIP3    H264297   7.543   8.041   6.765
21473TIP3   OH264298   7.085   9.369   6.121
21473TIP3    H164299   7.010   9.403   6.171
21473TIP3    H264300   7.067   9.409   6.033
21474TIP3   OH264301   7.707   9.452   5.370
21474TIP3    H164302   7.646   9.382   5.402
21474TIP3    H264303   7.776   9.397   5.329
21475TIP3   OH264304   8.139   9.505   5.277
21475TIP3    H164305   8.178   9.431   5.326
21475TIP3    H264306   8.182   9.501   5.189
21476TIP3   OH264307   7.344   8.975   5.578
21476TIP3    H164308   7.401   8.941   5.649
21476TIP3    H264309   7.408   8.972   5.503
21477TIP3   OH264310   7.848   9.171   5.378
21477TIP3    H164311   7.848   9.186   5.475
21477TIP3    H264312   7.852   9.073   5.376
21478TIP3   OH264313   7.559   8.874   5.810
21478TIP3    H164314   7.529   8.823   5.887
21478TIP3    H264315   7.592   8.804   5.750
21479TIP3   OH264316   7.651   8.665   5.643
21479TIP3    H164317   7.633   8.649   5.549
21479TIP3    H264318   7.749   8.676   5.642
21480TIP3   OH264319   8.474   9.000   5.303
21480TIP3    H164320   8.453   8.954   5.219
21480TIP3    H264321   8.450   9.092   5.276
21481TIP3   OH264322   7.461   9.737   5.553
21481TIP3    H164323   7.557   9.732   5.534
21481TIP3    H264324   7.430   9.775   5.469
21482TIP3   OH264325   6.941   9.112   5.770
21482TIP3    H164326   7.035   9.136   5.754
21482TIP3    H264327   6.936   9.024   5.727
21483TIP3   OH264328   6.847   9.726   6.181
21483TIP3    H164329   6.782   9.663   6.144
21483TIP3    H264330   6.898   9.668   6.241
21484TIP3   OH264331   7.004   9.585   6.354
21484TIP3    H164332   6.977   9.519   6.420
21484TIP3    H264333   6.994   9.667   6.405
21485TIP3   OH264334   8.664   8.937   5.487
21485TIP3    H164335   8.600   8.956   5.415
21485TIP3    H264336   8.672   9.025   5.525
21486TIP3   OH264337   8.540   8.634   5.442
21486TIP3    H164338   8.502   8.680   5.366
21486TIP3    H264339   8.508   8.542   5.427
21487TIP3   OH264340   7.185   8.967   6.735
21487TIP3    H164341   7.183   8.957   6.639
21487TIP3    H264342   7.260   9.029   6.749
21488TIP3   OH264343   8.483   8.371   5.432
21488TIP3    H164344   8.560   8.338   5.482
21488TIP3    H264345   8.410   8.311   5.456
21489TIP3   OH264346   8.543   8.622   5.849
21489TIP3    H164347   8.582   8.535   5.871
21489TIP3    H264348   8.615   8.662   5.796
21490TIP3   OH264349   8.647   8.384   5.951
21490TIP3    H164350   8.730   8.349   5.986
21490TIP3    H264351   8.592   8.304   5.936
21491TIP3   OH264352   7.366   8.365   6.722
21491TIP3    H164353   7.427   8.308   6.771
21491TIP3    H264354   7.403   8.453   6.740
21492TIP3   OH264355   7.167   8.632   6.818
21492TIP3    H164356   7.214   8.651   6.734
21492TIP3    H264357   7.167   8.719   6.861
21493TIP3   OH264358   8.729   8.306   5.549
21493TIP3    H164359   8.769   8.235   5.494
21493TIP3    H264360   8.795   8.377   5.539
21494TIP3   OH264361   7.353   8.189   7.108
21494TIP3    H164362   7.308   8.187   7.194
21494TIP3    H264363   7.295   8.254   7.062
21495TIP3   OH264364   8.201   8.360   6.483
21495TIP3    H164365   8.140   8.289   6.512
21495TIP3    H264366   8.262   8.312   6.423
21496TIP3   OH264367   7.251   7.983   6.186
21496TIP3    H164368   7.292   7.992   6.096
21496TIP3    H264369   7.157   7.991   6.158
21497TIP3   OH264370   7.885   8.105   6.374
21497TIP3    H164371   7.944   8.149   6.311
21497TIP3    H264372   7.925   8.130   6.459
21498TIP3   OH264373   8.398   8.237   6.344
21498TIP3    H164374   8.424   8.207   6.256
21498TIP3    H264375   8.419   8.158   6.397
21499TIP3   OH264376   8.474   8.163   5.918
21499TIP3    H164377   8.386   8.207   5.918
21499TIP3    H264378   8.452   8.079   5.964
21500TIP3   OH264379   6.957   9.502   5.923
21500TIP3    H164380   6.874   9.469   5.884
21500TIP3    H264381   6.947   9.597   5.904
21501TIP3   OH264382   7.356   8.082   5.911
21501TIP3    H164383   7.404   8.027   5.844
21501TIP3    H264384   7.427   8.143   5.939
21502TIP3   OH264385   7.865   8.259   6.001
21502TIP3    H164386   7.932   8.214   6.055
21502TIP3    H264387   7.887   8.352   6.024
21503TIP3   OH264388   7.724   9.698   5.487
21503TIP3    H164389   7.815   9.720   5.459
21503TIP3    H264390   7.709   9.617   5.433
21504TIP3   OH264391   7.034   9.530   5.557
21504TIP3    H164392   7.029   9.562   5.649
21504TIP3    H264393   7.124   9.491   5.552
21505TIP3   OH264394   9.410   8.534   5.189
21505TIP3    H164395   9.388   8.501   5.276
21505TIP3    H264396   9.326   8.575   5.159
21506TIP3   OH264397   8.946   8.559   5.584
21506TIP3    H164398   8.971   8.595   5.496
21506TIP3    H264399   8.871   8.618   5.603
21507TIP3   OH264400   8.943   8.689   5.351
21507TIP3    H164401   8.956   8.784   5.341
21507TIP3    H264402   8.863   8.672   5.301
21508TIP3   OH264403   8.918   8.362   5.762
21508TIP3    H164404   8.833   8.397   5.794
21508TIP3    H264405   8.944   8.435   5.700
21509TIP3   OH264406   9.047   8.171   5.612
21509TIP3    H164407   9.071   8.229   5.538
21509TIP3    H264408   9.001   8.233   5.672
21510TIP3   OH264409   9.140   8.338   5.387
21510TIP3    H164410   9.194   8.281   5.329
21510TIP3    H264411   9.205   8.397   5.426
21511TIP3   OH264412   1.222   9.092   7.268
21511TIP3    H164413   1.238   9.021   7.202
21511TIP3    H264414   1.239   9.172   7.218
21512TIP3   OH264415   3.266   9.659   7.653
21512TIP3    H164416   3.249   9.753   7.669
21512TIP3    H264417   3.301   9.664   7.562
21513TIP3   OH264418   2.633   9.562   7.285
21513TIP3    H164419   2.700   9.569   7.356
21513TIP3    H264420   2.662   9.634   7.227
21514TIP3   OH264421   2.843   9.593   7.463
21514TIP3    H164422   2.876   9.544   7.538
21514TIP3    H264423   2.921   9.646   7.440
21515TIP3   OH264424   2.191   9.724   6.820
21515TIP3    H164425   2.253   9.790   6.853
21515TIP3    H264426   2.242   9.687   6.746
21516TIP3   OH264427   2.928   9.151   6.909
21516TIP3    H164428   2.848   9.172   6.962
21516TIP3    H264429   2.941   9.235   6.860
21517TIP3   OH264430   2.196   9.333   6.904
21517TIP3    H164431   2.170   9.328   6.998
21517TIP3    H264432   2.166   9.246   6.875
21518TIP3   OH264433   2.366   9.733   7.128
21518TIP3    H164434   2.334   9.822   7.110
21518TIP3    H264435   2.441   9.725   7.066
21519TIP3   OH264436   1.853   9.300   6.873
21519TIP3    H164437   1.859   9.286   6.970
21519TIP3    H264438   1.770   9.351   6.869
21520TIP3   OH264439   1.943   9.509   7.151
21520TIP3    H164440   2.019   9.564   7.125
21520TIP3    H264441   1.871   9.542   7.093
21521TIP3   OH264442   1.714   9.566   7.010
21521TIP3    H164443   1.653   9.547   6.937
21521TIP3    H264444   1.770   9.636   6.969
21522TIP3   OH264445   1.740   9.268   7.417
21522TIP3    H164446   1.740   9.255   7.514
21522TIP3    H264447   1.833   9.287   7.399
21523TIP3   OH264448   2.454   9.436   6.877
21523TIP3    H164449   2.357   9.424   6.882
21523TIP3    H264450   2.468   9.532   6.889
21524TIP3   OH264451   2.546   9.697   6.930
21524TIP3    H164452   2.633   9.680   6.974
21524TIP3    H264453   2.564   9.782   6.887
21525TIP3   OH264454   2.958   9.758   6.825
21525TIP3    H164455   2.896   9.719   6.759
21525TIP3    H264456   2.972   9.845   6.786
21526TIP3   OH264457   2.485   9.375   7.154
21526TIP3    H164458   2.476   9.404   7.061
21526TIP3    H264459   2.532   9.452   7.194
21527TIP3   OH264460   2.215   9.550   7.266
21527TIP3    H164461   2.269   9.604   7.204
21527TIP3    H264462   2.204   9.619   7.335
21528TIP3   OH264463   2.365   9.298   7.383
21528TIP3    H164464   2.338   9.390   7.402
21528TIP3    H264465   2.408   9.315   7.297
21529TIP3   OH264466   1.843   9.248   7.138
21529TIP3    H164467   1.825   9.335   7.176
21529TIP3    H264468   1.940   9.243   7.153
21530TIP3   OH264469   1.912   9.688   6.871
21530TIP3    H164470   1.872   9.685   6.784
21530TIP3    H264471   2.008   9.700   6.853
21531TIP3   OH264472   2.786   9.689   6.621
21531TIP3    H164473   2.771   9.709   6.528
21531TIP3    H264474   2.766   9.592   6.623
21532TIP3   OH264475   2.812   9.937   7.185
21532TIP3    H164476   2.828   9.841   7.189
21532TIP3    H264477   2.836   9.963   7.276
21533TIP3   OH264478   2.737   9.423   6.619
21533TIP3    H164479   2.821   9.390   6.659
21533TIP3    H264480   2.673   9.354   6.641
21534TIP3   OH264481   2.790   9.666   7.057
21534TIP3    H164482   2.830   9.578   7.077
21534TIP3    H264483   2.857   9.701   6.995
21535TIP3   OH264484   2.906   9.423   7.102
21535TIP3    H164485   2.960   9.407   7.182
21535TIP3    H264486   2.848   9.344   7.102
21536TIP3   OH264487   2.987   9.362   6.726
21536TIP3    H164488   3.033   9.286   6.684
21536TIP3    H264489   3.057   9.430   6.726
21537TIP3   OH264490   2.464   9.332   7.695
21537TIP3    H164491   2.370   9.325   7.654
21537TIP3    H264492   2.512   9.354   7.611
21538TIP3   OH264493   2.977   9.286   7.561
21538TIP3    H164494   3.028   9.330   7.489
21538TIP3    H264495   2.886   9.311   7.538
21539TIP3   OH264496   3.071   9.381   7.323
21539TIP3    H164497   3.142   9.326   7.282
21539TIP3    H264498   3.110   9.471   7.305
21540TIP3   OH264499   1.496   8.955   7.293
21540TIP3    H164500   1.517   9.009   7.214
21540TIP3    H264501   1.454   9.022   7.350
21541TIP3   OH264502   2.207   9.120   7.525
21541TIP3    H164503   2.188   9.199   7.469
21541TIP3    H264504   2.153   9.146   7.604
21542TIP3   OH264505   2.689   9.282   7.530
21542TIP3    H164506   2.710   9.271   7.436
21542TIP3    H264507   2.697   9.192   7.565
21543TIP3   OH264508   2.722   9.208   7.090
21543TIP3    H164509   2.635   9.250   7.093
21543TIP3    H264510   2.705   9.128   7.144
21544TIP3   OH264511   1.596   9.129   7.078
21544TIP3    H164512   1.643   9.068   7.018
21544TIP3    H264513   1.672   9.177   7.116
21545TIP3   OH264514   2.130   9.290   7.176
21545TIP3    H164515   2.203   9.263   7.232
21545TIP3    H264516   2.126   9.386   7.197
21546TIP3   OH264517   3.163   9.891   6.976
21546TIP3    H164518   3.127   9.970   7.019
21546TIP3    H264519   3.086   9.834   6.967
21547TIP3   OH264520   4.999   9.915   7.147
21547TIP3    H164521   5.026   9.998   7.191
21547TIP3    H264522   5.014   9.937   7.054
21548TIP3   OH264523   4.402  10.099   7.178
21548TIP3    H164524   4.442  10.012   7.198
21548TIP3    H264525   4.363  10.081   7.090
21549TIP3   OH264526   3.738   9.752   7.144
21549TIP3    H164527   3.721   9.827   7.083
21549TIP3    H264528   3.686   9.682   7.099
21550TIP3   OH264529   4.426   9.850   6.778
21550TIP3    H164530   4.501   9.828   6.839
21550TIP3    H264531   4.477   9.879   6.700
21551TIP3   OH264532   3.373   9.955   7.256
21551TIP3    H164533   3.452   9.932   7.307
21551TIP3    H264534   3.393   9.909   7.172
21552TIP3   OH264535   3.819  10.161   7.042
21552TIP3    H164536   3.907  10.129   7.068
21552TIP3    H264537   3.775  10.081   7.010
21553TIP3   OH264538   5.080  10.116   7.321
21553TIP3    H164539   5.001  10.167   7.290
21553TIP3    H264540   5.093  10.154   7.409
21554TIP3   OH264541   3.722   9.747   7.587
21554TIP3    H164542   3.659   9.785   7.523
21554TIP3    H264543   3.680   9.778   7.670
21555TIP3   OH264544   4.647   9.848   6.938
21555TIP3    H164545   4.637   9.794   7.017
21555TIP3    H264546   4.696   9.926   6.970
21556TIP3   OH264547   3.606   9.851   7.355
21556TIP3    H164548   3.667   9.921   7.389
21556TIP3    H264549   3.662   9.811   7.284
21557TIP3   OH264550   4.791   9.821   7.317
21557TIP3    H164551   4.702   9.845   7.285
21557TIP3    H264552   4.848   9.848   7.243
21558TIP3   OH264553   4.093   9.465   7.296
21558TIP3    H164554   4.080   9.369   7.309
21558TIP3    H264555   4.015   9.500   7.344
21559TIP3   OH264556   3.963   9.983   6.265
21559TIP3    H164557   4.003  10.049   6.323
21559TIP3    H264558   4.044   9.943   6.226
21560TIP3   OH264559   4.630  10.329   7.422
21560TIP3    H164560   4.642  10.424   7.409
21560TIP3    H264561   4.533  10.322   7.402
21561TIP3   OH264562   4.721   9.404   6.399
21561TIP3    H164563   4.639   9.424   6.449
21561TIP3    H264564   4.735   9.488   6.351
21562TIP3   OH264565   4.852  10.303   7.601
21562TIP3    H164566   4.766  10.295   7.556
21562TIP3    H264567   4.874  10.210   7.616
21563TIP3   OH264568   3.851   9.537   7.427
21563TIP3    H164569   3.761   9.508   7.403
21563TIP3    H264570   3.829   9.623   7.467
21564TIP3   OH264571   4.383   9.655   7.621
21564TIP3    H164572   4.448   9.624   7.686
21564TIP3    H264573   4.297   9.633   7.662
21565TIP3   OH264574   4.632  10.070   7.542
21565TIP3    H164575   4.578  10.072   7.624
21565TIP3    H264576   4.607  10.154   7.499
21566TIP3   OH264577   3.995   9.593   6.393
21566TIP3    H164578   3.970   9.590   6.488
21566TIP3    H264579   3.967   9.503   6.366
21567TIP3   OH264580   3.778  10.050   7.449
21567TIP3    H164581   3.720  10.049   7.527
21567TIP3    H264582   3.755  10.133   7.405
21568TIP3   OH264583   3.667   9.937   6.958
21568TIP3    H164584   3.574   9.908   6.972
21568TIP3    H264585   3.684   9.899   6.869
21569TIP3   OH264586   4.169  10.031   6.686
21569TIP3    H164587   4.088  10.076   6.658
21569TIP3    H264588   4.213  10.011   6.601
21570TIP3   OH264589   4.308  10.048   6.926
21570TIP3    H164590   4.250  10.064   6.848
21570TIP3    H264591   4.350   9.966   6.891
21571TIP3   OH264592   3.645   9.548   6.367
21571TIP3    H164593   3.653   9.551   6.465
21571TIP3    H264594   3.565   9.600   6.353
21572TIP3   OH264595   3.193   9.602   7.231
21572TIP3    H164596   3.264   9.640   7.288
21572TIP3    H264597   3.244   9.571   7.155
21573TIP3   OH264598   3.172   9.582   6.750
21573TIP3    H164599   3.227   9.617   6.677
21573TIP3    H264600   3.120   9.660   6.775
21574TIP3   OH264601   4.355  10.281   7.367
21574TIP3    H164602   4.367  10.217   7.293
21574TIP3    H264603   4.292  10.229   7.422
21575TIP3   OH264604   3.985   9.768   7.017
21575TIP3    H164605   3.908   9.761   7.076
21575TIP3    H264606   4.059   9.761   7.080
21576TIP3   OH264607   3.429   9.815   7.024
21576TIP3    H164608   3.334   9.817   6.997
21576TIP3    H264609   3.457   9.724   7.003
21577TIP3   OH264610   3.704   9.809   6.717
21577TIP3    H164611   3.800   9.825   6.704
21577TIP3    H264612   3.663   9.854   6.642
21578TIP3   OH264613   4.485   9.834   7.220
21578TIP3    H164614   4.446   9.845   7.310
21578TIP3    H264615   4.423   9.769   7.182
21579TIP3   OH264616   3.486   9.832   6.515
21579TIP3    H164617   3.433   9.794   6.443
21579TIP3    H264618   3.560   9.870   6.463
21580TIP3   OH264619   4.071  10.072   7.108
21580TIP3    H164620   4.151  10.041   7.063
21580TIP3    H264621   4.090  10.054   7.201
21581TIP3   OH264622   3.596   9.579   6.986
21581TIP3    H164623   3.577   9.496   7.034
21581TIP3    H264624   3.666   9.552   6.925
21582TIP3   OH264625   4.046   9.965   7.405
21582TIP3    H164626   3.962  10.013   7.413
21582TIP3    H264627   4.110  10.022   7.453
21583TIP3   OH264628   4.245   9.705   6.347
21583TIP3    H164629   4.152   9.680   6.368
21583TIP3    H264630   4.253   9.797   6.379
21584TIP3   OH264631   4.315   9.953   6.451
21584TIP3    H164632   4.405   9.939   6.486
21584TIP3    H264633   4.327  10.033   6.398
21585TIP3   OH264634   4.412   9.890   7.483
21585TIP3    H164635   4.498   9.919   7.517
21585TIP3    H264636   4.397   9.807   7.533
21586TIP3   OH264637   4.311   9.642   6.620
21586TIP3    H164638   4.285   9.684   6.537
21586TIP3    H264639   4.321   9.716   6.682
21587TIP3   OH264640   3.986   9.816   6.747
21587TIP3    H164641   4.060   9.878   6.735
21587TIP3    H264642   3.989   9.802   6.845
21588TIP3   OH264643   4.234  10.107   7.542
21588TIP3    H164644   4.265  10.169   7.611
21588TIP3    H264645   4.301  10.036   7.543
21589TIP3   OH264646   3.637   9.544   6.640
21589TIP3    H164647   3.638   9.636   6.675
21589TIP3    H264648   3.732   9.522   6.652
21590TIP3   OH264649   4.898  10.030   7.539
21590TIP3    H164650   4.799  10.029   7.544
21590TIP3    H264651   4.908  10.003   7.446
21591TIP3   OH264652   4.534  10.218   6.907
21591TIP3    H164653   4.464  10.159   6.937
21591TIP3    H264654   4.609  10.192   6.964
21592TIP3   OH264655   3.198   9.732   6.512
21592TIP3    H164656   3.216   9.827   6.522
21592TIP3    H264657   3.103   9.727   6.495
21593TIP3   OH264658   3.585   9.457   7.405
21593TIP3    H164659   3.555   9.425   7.317
21593TIP3    H264660   3.575   9.378   7.461
21594TIP3   OH264661   3.688   9.891   6.341
21594TIP3    H164662   3.694   9.822   6.273
21594TIP3    H264663   3.779   9.928   6.339
21595TIP3   OH264664   4.012   9.968   7.838
21595TIP3    H164665   3.985   9.904   7.769
21595TIP3    H264666   3.973  10.050   7.803
21596TIP3   OH264667   3.987   9.798   7.619
21596TIP3    H164668   4.012   9.848   7.539
21596TIP3    H264669   3.890   9.787   7.607
21597TIP3   OH264670   4.126   9.580   7.702
21597TIP3    H164671   4.077   9.661   7.673
21597TIP3    H264672   4.057   9.512   7.686
21598TIP3   OH264673   4.494  10.034   7.771
21598TIP3    H164674   4.416  10.011   7.823
21598TIP3    H264675   4.567  10.010   7.830
21599TIP3   OH264676   4.727   9.979   7.939
21599TIP3    H164677   4.731   9.881   7.946
21599TIP3    H264678   4.717  10.008   8.030
21600TIP3   OH264679   4.227   9.588   7.956
21600TIP3    H164680   4.284   9.509   7.945
21600TIP3    H264681   4.178   9.586   7.870
21601TIP3   OH264682   4.400   9.797   8.014
21601TIP3    H164683   4.355   9.717   7.980
21601TIP3    H264684   4.321   9.847   8.040
21602TIP3   OH264685   4.627  10.188   6.657
21602TIP3    H164686   4.620  10.092   6.672
21602TIP3    H264687   4.606  10.220   6.747
21603TIP3   OH264688   5.045  10.474   7.520
21603TIP3    H164689   4.976  10.422   7.566
21603TIP3    H264690   5.121  10.414   7.530
21604TIP3   OH264691   4.540   9.649   6.083
21604TIP3    H164692   4.610   9.654   6.150
21604TIP3    H264693   4.464   9.615   6.132
21605TIP3   OH264694   4.577   9.915   6.554
21605TIP3    H164695   4.623   9.828   6.567
21605TIP3    H264696   4.639   9.958   6.493
21606TIP3   OH264697   4.755  10.101   7.038
21606TIP3    H164698   4.839  10.131   6.996
21606TIP3    H264699   4.771  10.139   7.127
21607TIP3   OH264700   4.836  10.234   7.265
21607TIP3    H164701   4.757  10.263   7.316
21607TIP3    H264702   4.877  10.320   7.241
21608TIP3   OH264703   5.271   9.817   7.832
21608TIP3    H164704   5.329   9.766   7.773
21608TIP3    H264705   5.248   9.895   7.777
21609TIP3   OH264706   4.702   9.675   6.588
21609TIP3    H164707   4.747   9.660   6.674
21609TIP3    H264708   4.638   9.601   6.589
21610TIP3   OH264709   3.398   9.665   7.407
21610TIP3    H164710   3.468   9.596   7.414
21610TIP3    H264711   3.453   9.745   7.409
21611TIP3   OH264712   3.208   9.948   7.485
21611TIP3    H164713   3.252   9.939   7.398
21611TIP3    H264714   3.284   9.983   7.537
21612TIP3   OH264715   5.135   9.978   7.657
21612TIP3    H164716   5.043  10.011   7.649
21612TIP3    H264717   5.128   9.906   7.591
21613TIP3   OH264718   4.788   9.617   6.225
21613TIP3    H164719   4.824   9.545   6.169
21613TIP3    H264720   4.836   9.695   6.192
21614TIP3   OH264721   3.185   9.437   6.976
21614TIP3    H164722   3.092   9.446   7.004
21614TIP3    H264723   3.189   9.498   6.899
21615TIP3   OH264724   3.413   9.482   7.796
21615TIP3    H164725   3.375   9.493   7.884
21615TIP3    H264726   3.364   9.548   7.742
21616TIP3   OH264727   5.044   9.741   7.519
21616TIP3    H164728   4.954   9.742   7.481
21616TIP3    H264729   5.069   9.647   7.503
21617TIP3   OH264730   4.261   9.657   7.145
21617TIP3    H164731   4.207   9.589   7.189
21617TIP3    H264732   4.304   9.605   7.075
21618TIP3   OH264733   4.778   9.538   7.046
21618TIP3    H164734   4.810   9.588   6.969
21618TIP3    H264735   4.681   9.543   7.034
21619TIP3   OH264736   4.871   9.637   6.806
21619TIP3    H164737   4.943   9.588   6.762
21619TIP3    H264738   4.901   9.730   6.791
21620TIP3   OH264739   3.498   9.365   7.155
21620TIP3    H164740   3.407   9.329   7.153
21620TIP3    H264741   3.550   9.282   7.151
21621TIP3   OH264742   3.274   9.233   6.795
21621TIP3    H164743   3.316   9.290   6.728
21621TIP3    H264744   3.254   9.297   6.866
21622TIP3   OH264745   3.930   9.402   7.036
21622TIP3    H164746   4.003   9.421   6.975
21622TIP3    H264747   3.964   9.438   7.118
21623TIP3   OH264748   4.503   9.533   7.006
21623TIP3    H164749   4.456   9.500   6.928
21623TIP3    H264750   4.480   9.461   7.070
21624TIP3   OH264751   4.512   9.461   6.581
21624TIP3    H164752   4.428   9.513   6.590
21624TIP3    H264753   4.496   9.398   6.654
21625TIP3   OH264754   3.401   9.396   6.565
21625TIP3    H164755   3.452   9.334   6.509
21625TIP3    H264756   3.473   9.451   6.602
21626TIP3   OH264757   3.916   9.564   6.662
21626TIP3    H164758   3.984   9.507   6.702
21626TIP3    H264759   3.943   9.652   6.696
21627TIP3   OH264760   3.678   9.566   8.009
21627TIP3    H164761   3.668   9.505   8.085
21627TIP3    H264762   3.774   9.563   7.996
21628TIP3   OH264763   3.951   9.559   8.106
21628TIP3    H164764   4.045   9.555   8.085
21628TIP3    H264765   3.953   9.561   8.203
21629TIP3   OH264766   4.779   9.706   7.948
21629TIP3    H164767   4.802   9.672   8.036
21629TIP3    H264768   4.865   9.703   7.901
21630TIP3   OH264769   4.964  10.154   6.472
21630TIP3    H164770   4.916  10.235   6.493
21630TIP3    H264771   4.894  10.089   6.468
21631TIP3   OH264772   6.141  10.355   6.672
21631TIP3    H164773   6.211  10.294   6.694
21631TIP3    H264774   6.144  10.356   6.575
21632TIP3   OH264775   5.532  10.015   6.637
21632TIP3    H164776   5.510  10.087   6.575
21632TIP3    H264777   5.484   9.941   6.594
21633TIP3   OH264778   6.225  10.099   6.262
21633TIP3    H164779   6.297  10.087   6.327
21633TIP3    H264780   6.273  10.137   6.187
21634TIP3   OH264781   5.158  10.200   6.754
21634TIP3    H164782   5.247  10.189   6.790
21634TIP3    H264783   5.168  10.168   6.663
21635TIP3   OH264784   5.624  10.419   6.518
21635TIP3    H164785   5.705  10.375   6.550
21635TIP3    H264786   5.568  10.344   6.491
21636TIP3   OH264787   5.528   9.998   7.075
21636TIP3    H164788   5.469  10.033   7.005
21636TIP3    H264789   5.475  10.020   7.154
21637TIP3   OH264790   6.442  10.114   6.432
21637TIP3    H164791   6.432  10.038   6.491
21637TIP3    H264792   6.525  10.152   6.463
21638TIP3   OH264793   5.403  10.110   6.858
21638TIP3    H164794   5.461  10.186   6.877
21638TIP3    H264795   5.450  10.070   6.781
21639TIP3   OH264796   5.892   9.719   6.786
21639TIP3    H164797   5.874   9.624   6.798
21639TIP3    H264798   5.814   9.758   6.831
21640TIP3   OH264799   5.794  10.224   5.806
21640TIP3    H164800   5.839  10.306   5.829
21640TIP3    H264801   5.837  10.199   5.722
21641TIP3   OH264802   6.521   9.663   5.885
21641TIP3    H164803   6.438   9.680   5.936
21641TIP3    H264804   6.530   9.747   5.836
21642TIP3   OH264805   5.650   9.792   6.910
21642TIP3    H164806   5.559   9.763   6.887
21642TIP3    H264807   5.628   9.877   6.954
21643TIP3   OH264808   5.798   9.841   5.882
21643TIP3    H164809   5.764   9.843   5.973
21643TIP3    H264810   5.756   9.759   5.850
21644TIP3   OH264811   5.578  10.315   6.925
21644TIP3    H164812   5.530  10.327   7.009
21644TIP3    H264813   5.566  10.402   6.884
21645TIP3   OH264814   5.464  10.193   6.446
21645TIP3    H164815   5.371  10.167   6.461
21645TIP3    H264816   5.477  10.157   6.355
21646TIP3   OH264817   5.968  10.283   6.171
21646TIP3    H164818   5.885  10.332   6.151
21646TIP3    H264819   6.004  10.264   6.082
21647TIP3   OH264820   6.108  10.314   6.401
21647TIP3    H164821   6.048  10.323   6.324
21647TIP3    H264822   6.149  10.229   6.375
21648TIP3   OH264823   5.429  10.334   7.152
21648TIP3    H164824   5.412  10.398   7.221
21648TIP3    H264825   5.387  10.253   7.187
21649TIP3   OH264826   5.451   9.817   5.852
21649TIP3    H164827   5.442   9.814   5.949
21649TIP3    H264828   5.369   9.864   5.828
21650TIP3   OH264829   4.990   9.864   6.717
21650TIP3    H164830   5.066   9.894   6.771
21650TIP3    H264831   5.031   9.826   6.638
21651TIP3   OH264832   4.974   9.863   6.250
21651TIP3    H164833   5.011   9.878   6.161
21651TIP3    H264834   4.898   9.921   6.239
21652TIP3   OH264835   5.788  10.006   6.508
21652TIP3    H164836   5.701  10.011   6.552
21652TIP3    H264837   5.846  10.038   6.578
21653TIP3   OH264838   5.225  10.074   6.512
21653TIP3    H164839   5.130  10.083   6.487
21653TIP3    H264840   5.245   9.982   6.490
21654TIP3   OH264841   5.502  10.070   6.202
21654TIP3    H164842   5.592  10.095   6.176
21654TIP3    H264843   5.448  10.092   6.123
21655TIP3   OH264844   6.267  10.085   6.707
21655TIP3    H164845   6.226  10.078   6.794
21655TIP3    H264846   6.208  10.024   6.658
21656TIP3   OH264847   5.336  10.087   5.983
21656TIP3    H164848   5.261  10.056   5.929
21656TIP3    H264849   5.357  10.171   5.937
21657TIP3   OH264850   5.866  10.311   6.595
21657TIP3    H164851   5.951  10.308   6.549
21657TIP3    H264852   5.896  10.331   6.685
21658TIP3   OH264853   5.405   9.833   6.481
21658TIP3    H164854   5.368   9.752   6.522
21658TIP3    H264855   5.448   9.799   6.401
21659TIP3   OH264856   5.848  10.235   6.914
21659TIP3    H164857   5.754  10.259   6.896
21659TIP3    H264858   5.889  10.322   6.924
21660TIP3   OH264859   6.044   9.956   5.846
21660TIP3    H164860   5.948   9.934   5.856
21660TIP3    H264861   6.048  10.051   5.870
21661TIP3   OH264862   6.117  10.210   5.937
21661TIP3    H164863   6.210  10.200   5.967
21661TIP3    H264864   6.121  10.293   5.887
21662TIP3   OH264865   6.542  10.260   5.799
21662TIP3    H164866   6.481  10.227   5.729
21662TIP3    H264867   6.562  10.348   5.764
21663TIP3   OH264868   5.372  10.084   7.296
21663TIP3    H164869   5.275  10.084   7.303
21663TIP3    H264870   5.396  10.017   7.362
21664TIP3   OH264871   6.088   9.896   6.126
21664TIP3    H164872   6.070   9.922   6.034
21664TIP3    H264873   6.123   9.979   6.165
21665TIP3   OH264874   5.791  10.071   6.234
21665TIP3    H164875   5.854  10.144   6.220
21665TIP3    H264876   5.784  10.068   6.331
21666TIP3   OH264877   5.928   9.809   6.343
21666TIP3    H164878   5.907   9.888   6.396
21666TIP3    H264879   5.983   9.847   6.271
21667TIP3   OH264880   5.434   9.798   6.128
21667TIP3    H164881   5.429   9.891   6.157
21667TIP3    H264882   5.531   9.783   6.136
21668TIP3   OH264883   5.385   9.714   6.889
21668TIP3    H164884   5.351   9.683   6.803
21668TIP3    H264885   5.372   9.635   6.946
21669TIP3   OH264886   5.515  10.226   5.815
21669TIP3    H164887   5.494  10.133   5.798
21669TIP3    H264888   5.612  10.224   5.831
21670TIP3   OH264889   5.792  10.051   7.111
21670TIP3    H164890   5.812  10.113   7.038
21670TIP3    H264891   5.695  10.044   7.105
21671TIP3   OH264892   5.924   9.817   7.134
21671TIP3    H164893   5.873   9.901   7.124
21671TIP3    H264894   5.852   9.753   7.148
21672TIP3   OH264895   6.378  10.200   5.589
21672TIP3    H164896   6.356  10.220   5.497
21672TIP3    H264897   6.357  10.104   5.592
21673TIP3   OH264898   6.391  10.456   6.143
21673TIP3    H164899   6.389  10.359   6.134
21673TIP3    H264900   6.382  10.470   6.238
21674TIP3   OH264901   6.329   9.935   5.588
21674TIP3    H164902   6.408   9.900   5.635
21674TIP3    H264903   6.259   9.872   5.611
21675TIP3   OH264904   6.388  10.184   6.042
21675TIP3    H164905   6.426  10.094   6.056
21675TIP3    H264906   6.444  10.212   5.966
21676TIP3   OH264907   5.233  10.211   7.549
21676TIP3    H164908   5.323  10.196   7.579
21676TIP3    H264909   5.187  10.142   7.601
21677TIP3   OH264910   6.491   9.933   6.076
21677TIP3    H164911   6.543   9.913   6.157
21677TIP3    H264912   6.432   9.855   6.073
21678TIP3   OH264913   5.197   9.918   6.896
21678TIP3    H164914   5.264   9.848   6.904
21678TIP3    H264915   5.253   9.997   6.887
21679TIP3   OH264916   5.003  10.202   6.977
21679TIP3    H164917   5.050  10.190   6.892
21679TIP3    H264918   5.021  10.296   6.994
21680TIP3   OH264919   6.579   9.874   5.700
21680TIP3    H164920   6.621   9.798   5.656
21680TIP3    H264921   6.649   9.942   5.698
21681TIP3   OH264922   4.986   9.703   6.469
21681TIP3    H164923   4.891   9.695   6.489
21681TIP3    H264924   4.985   9.763   6.391
21682TIP3   OH264925   5.204   9.780   7.285
21682TIP3    H164926   5.151   9.776   7.366
21682TIP3    H264927   5.139   9.819   7.222
21683TIP3   OH264928   6.058   9.913   6.633
21683TIP3    H164929   6.000   9.848   6.677
21683TIP3    H264930   6.109   9.857   6.572
21684TIP3   OH264931   6.563   9.810   6.546
21684TIP3    H164932   6.601   9.844   6.462
21684TIP3    H264933   6.467   9.808   6.526
21685TIP3   OH264934   6.655   9.884   6.300
21685TIP3    H164935   6.730   9.830   6.266
21685TIP3    H264936   6.683   9.971   6.264
21686TIP3   OH264937   5.296   9.622   6.642
21686TIP3    H164938   5.203   9.590   6.640
21686TIP3    H264939   5.344   9.536   6.636
21687TIP3   OH264940   5.086   9.488   6.286
21687TIP3    H164941   5.109   9.548   6.213
21687TIP3    H264942   5.046   9.550   6.350
21688TIP3   OH264943   5.740   9.650   6.518
21688TIP3    H164944   5.797   9.708   6.465
21688TIP3    H264945   5.745   9.693   6.605
21689TIP3   OH264946   6.290   9.797   6.495
21689TIP3    H164947   6.270   9.760   6.408
21689TIP3    H264948   6.270   9.720   6.554
21690TIP3   OH264949   6.314   9.719   6.064
21690TIP3    H164950   6.226   9.761   6.073
21690TIP3    H264951   6.299   9.635   6.113
21691TIP3   OH264952   5.195   9.649   6.055
21691TIP3    H164953   5.246   9.591   5.995
21691TIP3    H264954   5.265   9.706   6.092
21692TIP3   OH264955   5.712   9.824   6.148
21692TIP3    H164956   5.769   9.777   6.211
21692TIP3    H264957   5.732   9.917   6.173
21693TIP3   OH264958   5.499   9.902   7.543
21693TIP3    H164959   5.485   9.822   7.596
21693TIP3    H264960   5.595   9.900   7.528
21694TIP3   OH264961   6.761  10.398   5.915
21694TIP3    H164962   6.730  10.478   5.960
21694TIP3    H264963   6.689  10.335   5.929
21695TIP3   OH264964   7.595  10.097   5.355
21695TIP3    H164965   7.585  10.109   5.449
21695TIP3    H264966   7.549  10.012   5.339
21696TIP3   OH264967   7.251  10.079   5.334
21696TIP3    H164968   7.240  10.067   5.430
21696TIP3    H264969   7.166  10.119   5.309
21697TIP3   OH264970   6.753  10.086   6.154
21697TIP3    H164971   6.829  10.129   6.197
21697TIP3    H264972   6.797  10.046   6.077
21698TIP3   OH264973   6.768  10.100   5.722
21698TIP3    H164974   6.815  10.144   5.648
21698TIP3    H264975   6.711  10.173   5.753
21699TIP3   OH264976   7.125  10.326   5.470
21699TIP3    H164977   7.042  10.292   5.432
21699TIP3    H264978   7.128  10.413   5.429
21700TIP3   OH264979   7.225  10.046   5.604
21700TIP3    H164980   7.189  10.113   5.664
21700TIP3    H264981   7.305  10.017   5.650
21701TIP3   OH264982   6.799  10.255   5.492
21701TIP3    H164983   6.794  10.352   5.496
21701TIP3    H264984   6.710  10.229   5.466
21702TIP3   OH264985   7.316  10.435   5.285
21702TIP3    H164986   7.287  10.355   5.334
21702TIP3    H264987   7.393  10.464   5.334
21703TIP3   OH264988   6.773   9.932   5.930
21703TIP3    H164989   6.683   9.946   5.965
21703TIP3    H264990   6.778  10.000   5.859
21704TIP3   OH264991   7.071   9.856   6.056
21704TIP3    H164992   6.980   9.829   6.081
21704TIP3    H264993   7.124   9.782   6.089
21705TIP3   OH264994   6.875   9.738   5.766
21705TIP3    H164995   6.906   9.801   5.698
21705TIP3    H264996   6.845   9.800   5.836
21706TIP3   OH264997   6.988   9.905   5.534
21706TIP3    H164998   7.036   9.840   5.478
21706TIP3    H264999   7.063   9.956   5.570
21707TIP3   OH265000   6.777   2.150   9.534
21707TIP3    H165001   6.790   2.244   9.512
21707TIP3    H265002   6.868   2.115   9.518
21708TIP3   OH265003   6.266   2.374   9.634
21708TIP3    H165004   6.332   2.303   9.618
21708TIP3    H265005   6.262   2.375   9.731
21709TIP3   OH265006   6.554   1.615   9.676
21709TIP3    H165007   6.515   1.567   9.600
21709TIP3    H265008   6.644   1.633   9.642
21710TIP3   OH265009   6.755   2.204   9.799
21710TIP3    H165010   6.691   2.140   9.833
21710TIP3    H265011   6.759   2.179   9.704
21711TIP3   OH265012   6.813   2.420   9.519
21711TIP3    H165013   6.860   2.491   9.471
21711TIP3    H265014   6.732   2.470   9.542
21712TIP3   OH265015   5.981   2.102   9.586
21712TIP3    H165016   5.942   2.070   9.669
21712TIP3    H265017   6.070   2.061   9.591
21713TIP3   OH265018   6.433   2.168   9.504
21713TIP3    H165019   6.485   2.171   9.587
21713TIP3    H265020   6.499   2.174   9.433
21714TIP3   OH265021   6.789   1.682   9.553
21714TIP3    H165022   6.768   1.627   9.475
21714TIP3    H265023   6.756   1.770   9.521
21715TIP3   OH265024   6.813   2.502   9.798
21715TIP3    H165025   6.821   2.409   9.773
21715TIP3    H265026   6.745   2.535   9.736
21716TIP3   OH265027   7.605   2.170   9.197
21716TIP3    H165028   7.654   2.092   9.167
21716TIP3    H265029   7.647   2.189   9.282
21717TIP3   OH265030   7.529   2.450   9.451
21717TIP3    H165031   7.530   2.523   9.385
21717TIP3    H265032   7.594   2.480   9.515
21718TIP3   OH265033   7.301   2.106   9.451
21718TIP3    H165034   7.332   2.183   9.500
21718TIP3    H265035   7.364   2.100   9.379
21719TIP3   OH265036   7.779   2.386   9.076
21719TIP3    H165037   7.734   2.364   9.160
21719TIP3    H265038   7.864   2.340   9.091
21720TIP3   OH265039   7.568   2.666   9.289
21720TIP3    H165040   7.663   2.668   9.270
21720TIP3    H265041   7.533   2.712   9.211
21721TIP3   OH265042   7.028   2.050   9.492
21721TIP3    H165043   7.123   2.071   9.503
21721TIP3    H265044   7.034   1.958   9.459
21722TIP3   OH265045   7.002   2.657   9.916
21722TIP3    H165046   6.929   2.610   9.869
21722TIP3    H265047   7.013   2.598   9.993
21723TIP3   OH265048   7.062   2.420   9.656
21723TIP3    H165049   6.979   2.393   9.614
21723TIP3    H265050   7.046   2.513   9.674
21724TIP3   OH265051   7.835   2.604   9.219
21724TIP3    H165052   7.877   2.662   9.156
21724TIP3    H265053   7.809   2.527   9.165
21725TIP3   OH265054   7.133   2.464   9.303
21725TIP3    H165055   7.126   2.486   9.397
21725TIP3    H265056   7.222   2.424   9.296
21726TIP3   OH265057   4.614   3.712   9.624
21726TIP3    H165058   4.609   3.809   9.615
21726TIP3    H265059   4.708   3.694   9.606
21727TIP3   OH265060   4.629   3.992   9.651
21727TIP3    H165061   4.691   4.039   9.593
21727TIP3    H265062   4.554   4.054   9.649
21728TIP3   OH265063   7.842   5.421   0.541
21728TIP3    H165064   7.845   5.508   0.494
21728TIP3    H265065   7.827   5.364   0.461
21729TIP3   OH265066   6.310   3.851  10.008
21729TIP3    H165067   6.318   3.783  10.076
21729TIP3    H265068   6.342   3.930  10.052
21730TIP3   OH265069   5.963   4.305  10.034
21730TIP3    H165070   6.024   4.247   9.983
21730TIP3    H265071   6.009   4.314  10.118
21731TIP3   OH265072   5.956   3.764   9.836
21731TIP3    H165073   5.945   3.753   9.740
21731TIP3    H265074   5.937   3.860   9.844
21732TIP3   OH265075   6.112   4.151   9.869
21732TIP3    H165076   6.153   4.068   9.835
21732TIP3    H265077   6.168   4.216   9.820
21733TIP3   OH265078   6.229   3.930   9.756
21733TIP3    H165079   6.228   3.852   9.698
21733TIP3    H265080   6.272   3.894   9.837
21734TIP3   OH265081   5.907   3.400   9.746
21734TIP3    H165082   5.820   3.433   9.717
21734TIP3    H265083   5.957   3.396   9.662
21735TIP3   OH265084   5.876   3.190   9.505
21735TIP3    H165085   5.952   3.236   9.545
21735TIP3    H265086   5.925   3.124   9.452
21736TIP3   OH265087   6.259   3.490   9.760
21736TIP3    H165088   6.220   3.488   9.848
21736TIP3    H265089   6.351   3.464   9.784
21737TIP3   OH265090   6.109   3.350   9.571
21737TIP3    H165091   6.168   3.408   9.625
21737TIP3    H265092   6.135   3.376   9.479
21738TIP3   OH265093   5.856   4.023   9.850
21738TIP3    H165094   5.920   4.090   9.879
21738TIP3    H265095   5.779   4.076   9.825
21739TIP3   OH265096   6.617   2.592   9.624
21739TIP3    H165097   6.529   2.608   9.665
21739TIP3    H265098   6.629   2.674   9.571
21740TIP3   OH265099   6.418   3.961   9.176
21740TIP3    H165100   6.430   4.057   9.162
21740TIP3    H265101   6.510   3.928   9.163
21741TIP3   OH265102   5.727   4.280   9.654
21741TIP3    H165103   5.673   4.262   9.575
21741TIP3    H265104   5.694   4.367   9.683
21742TIP3   OH265105   5.932   4.182   9.279
21742TIP3    H165106   5.992   4.104   9.269
21742TIP3    H265107   5.952   4.202   9.374
21743TIP3   OH265108   5.972   4.220   9.558
21743TIP3    H165109   5.888   4.235   9.607
21743TIP3    H265110   6.029   4.187   9.630
21744TIP3   OH265111   6.181   3.410   9.322
21744TIP3    H165112   6.146   3.375   9.238
21744TIP3    H265113   6.265   3.449   9.292
21745TIP3   OH265114   5.888   2.778   9.639
21745TIP3    H165115   5.883   2.755   9.734
21745TIP3    H265116   5.856   2.694   9.601
21746TIP3   OH265117   6.075   3.220   9.876
21746TIP3    H165118   6.022   3.274   9.814
21746TIP3    H265119   6.126   3.165   9.812
21747TIP3   OH265120   5.550   2.739   9.599
21747TIP3    H165121   5.574   2.754   9.691
21747TIP3    H265122   5.474   2.798   9.583
21748TIP3   OH265123   5.389   3.033   9.700
21748TIP3    H165124   5.347   2.991   9.623
21748TIP3    H265125   5.468   3.074   9.659
21749TIP3   OH265126   5.673   3.562   9.726
21749TIP3    H165127   5.607   3.493   9.702
21749TIP3    H265128   5.670   3.553   9.823
21750TIP3   OH265129   6.138   2.878   9.575
21750TIP3    H165130   6.042   2.867   9.593
21750TIP3    H265131   6.158   2.968   9.609
21751TIP3   OH265132   6.229   3.118   9.675
21751TIP3    H165133   6.322   3.123   9.706
21751TIP3    H265134   6.220   3.197   9.619
21752TIP3   OH265135   5.836   3.714   9.556
21752TIP3    H165136   5.789   3.801   9.561
21752TIP3    H265137   5.777   3.659   9.611
21753TIP3   OH265138   6.659   3.206   9.531
21753TIP3    H165139   6.595   3.164   9.468
21753TIP3    H265140   6.658   3.296   9.490
21754TIP3   OH265141   6.348   4.030   9.436
21754TIP3    H165142   6.339   3.957   9.498
21754TIP3    H265143   6.371   3.986   9.352
21755TIP3   OH265144   5.435   4.092   9.859
21755TIP3    H165145   5.358   4.106   9.916
21755TIP3    H265146   5.484   4.174   9.877
21756TIP3   OH265147   6.106   3.763   9.343
21756TIP3    H165148   6.160   3.738   9.421
21756TIP3    H265149   6.020   3.728   9.369
21757TIP3   OH265150   6.451   4.237   9.163
21757TIP3    H165151   6.485   4.308   9.106
21757TIP3    H265152   6.371   4.282   9.196
21758TIP3   OH265153   6.270   3.702   9.570
21758TIP3    H165154   6.261   3.626   9.631
21758TIP3    H265155   6.366   3.695   9.547
21759TIP3   OH265156   5.483   3.740   9.341
21759TIP3    H165157   5.491   3.648   9.308
21759TIP3    H265158   5.459   3.723   9.434
21760TIP3   OH265159   5.428   3.739   9.618
21760TIP3    H165160   5.508   3.720   9.667
21760TIP3    H265161   5.429   3.838   9.614
21761TIP3   OH265162   6.116   2.857   9.850
21761TIP3    H165163   6.128   2.844   9.755
21761TIP3    H265164   6.204   2.889   9.878
21762TIP3   OH265165   5.690   3.941   9.563
21762TIP3    H165166   5.601   3.966   9.594
21762TIP3    H265167   5.708   4.015   9.503
21763TIP3   OH265168   5.430   4.008   9.605
21763TIP3    H165169   5.396   4.083   9.551
21763TIP3    H265170   5.422   4.046   9.696
21764TIP3   OH265171   5.153   3.656   9.608
21764TIP3    H165172   5.221   3.725   9.607
21764TIP3    H265173   5.196   3.589   9.552
21765TIP3   OH265174   6.405   4.371  10.083
21765TIP3    H165175   6.356   4.431  10.022
21765TIP3    H265176   6.495   4.408  10.074
21766TIP3   OH265177   5.645   3.944   9.255
21766TIP3    H165178   5.584   3.878   9.295
21766TIP3    H265179   5.717   3.884   9.228
21767TIP3   OH265180   6.080   3.993   9.161
21767TIP3    H165181   6.121   3.930   9.223
21767TIP3    H265182   6.139   3.984   9.082
21768TIP3   OH265183   5.287   3.461   9.468
21768TIP3    H165184   5.331   3.422   9.545
21768TIP3    H265185   5.361   3.462   9.403
21769TIP3   OH265186   5.793   3.662   9.280
21769TIP3    H165187   5.792   3.671   9.377
21769TIP3    H265188   5.793   3.564   9.272
21770TIP3   OH265189   5.483   3.364   9.678
21770TIP3    H165190   5.466   3.320   9.763
21770TIP3    H265191   5.517   3.288   9.626
21771TIP3   OH265192   5.593   3.149   9.541
21771TIP3    H165193   5.565   3.150   9.447
21771TIP3    H265194   5.690   3.160   9.533
21772TIP3   OH265195   6.413   3.491   9.201
21772TIP3    H165196   6.400   3.440   9.119
21772TIP3    H265197   6.391   3.580   9.169
21773TIP3   OH265198   5.398   4.221   9.439
21773TIP3    H165199   5.493   4.228   9.420
21773TIP3    H265200   5.362   4.269   9.362
21774TIP3   OH265201   4.871   3.620   9.595
21774TIP3    H165202   4.959   3.639   9.634
21774TIP3    H265203   4.876   3.523   9.583
21775TIP3   OH265204   6.661   4.471  10.065
21775TIP3    H165205   6.696   4.539  10.124
21775TIP3    H265206   6.700   4.501   9.982
21776TIP3   OH265207   6.546   3.681   9.535
21776TIP3    H165208   6.618   3.741   9.504
21776TIP3    H265209   6.590   3.639   9.612
21777TIP3   OH265210   6.674   3.548   9.735
21777TIP3    H165211   6.614   3.503   9.798
21777TIP3    H265212   6.746   3.581   9.793
21778TIP3   OH265213   6.717   3.926  10.095
21778TIP3    H165214   6.797   3.870  10.087
21778TIP3    H265215   6.749   4.010  10.055
21779TIP3   OH265216   6.614   3.451   9.387
21779TIP3    H165217   6.545   3.454   9.318
21779TIP3    H265218   6.588   3.529   9.440
21780TIP3   OH265219   6.484   3.126   9.342
21780TIP3    H165220   6.451   3.164   9.260
21780TIP3    H265221   6.458   3.032   9.331
21781TIP3   OH265222   6.489   3.401   9.883
21781TIP3    H165223   6.498   3.307   9.855
21781TIP3    H265224   6.478   3.392   9.979
21782TIP3   OH265225   6.432   2.860   9.330
21782TIP3    H165226   6.507   2.827   9.382
21782TIP3    H265227   6.359   2.800   9.352
21783TIP3   OH265228   6.510   3.146   9.759
21783TIP3    H165229   6.531   3.053   9.783
21783TIP3    H265230   6.571   3.159   9.683
21784TIP3   OH265231   6.597   2.862   9.816
21784TIP3    H165232   6.651   2.853   9.897
21784TIP3    H265233   6.555   2.774   9.808
21785TIP3   OH265234   6.682   2.801   9.450
21785TIP3    H165235   6.723   2.728   9.399
21785TIP3    H265236   6.749   2.872   9.440
21786TIP3   OH265237   6.236   4.326   9.710
21786TIP3    H165238   6.298   4.319   9.634
21786TIP3    H265239   6.278   4.396   9.764
21787TIP3   OH265240   6.400   2.649   9.785
21787TIP3    H165241   6.315   2.694   9.790
21787TIP3    H265242   6.405   2.606   9.872
21788TIP3   OH265243   4.907   4.047   9.771
21788TIP3    H165244   4.917   3.955   9.801
21788TIP3    H265245   4.829   4.078   9.821
21789TIP3   OH265246   5.669   4.183   9.390
21789TIP3    H165247   5.759   4.201   9.358
21789TIP3    H265248   5.645   4.106   9.335
21790TIP3   OH265249   6.387   4.297   9.481
21790TIP3    H165250   6.377   4.200   9.469
21790TIP3    H265251   6.344   4.330   9.400
21791TIP3   OH265252   4.974   4.025   9.459
21791TIP3    H165253   4.972   4.039   9.555
21791TIP3    H265254   5.060   3.980   9.447
21792TIP3   OH265255   7.878   3.818   9.450
21792TIP3    H165256   7.851   3.908   9.422
21792TIP3    H265257   7.807   3.765   9.409
21793TIP3   OH265258   7.794   3.811   9.806
21793TIP3    H165259   7.867   3.802   9.869
21793TIP3    H265260   7.835   3.784   9.722
21794TIP3   OH265261   7.186   3.734  10.189
21794TIP3    H165262   7.197   3.673  10.263
21794TIP3    H265263   7.276   3.738  10.151
21795TIP3   OH265264   8.119   4.116   9.493
21795TIP3    H165265   8.121   4.048   9.560
21795TIP3    H265266   8.145   4.195   9.544
21796TIP3   OH265267   7.149   4.120   9.920
21796TIP3    H165268   7.142   4.022   9.918
21796TIP3    H265269   7.243   4.130   9.901
21797TIP3   OH265270   6.857   3.329   9.696
21797TIP3    H165271   6.807   3.412   9.703
21797TIP3    H265272   6.788   3.267   9.668
21798TIP3   OH265273   6.916   3.604   9.856
21798TIP3    H165274   6.963   3.530   9.902
21798TIP3    H265275   6.978   3.624   9.784
21799TIP3   OH265276   7.764   4.577   9.511
21799TIP3    H165277   7.817   4.506   9.469
21799TIP3    H265278   7.766   4.551   9.604
21800TIP3   OH265279   7.658   4.043   9.870
21800TIP3    H165280   7.688   3.956   9.834
21800TIP3    H265281   7.741   4.091   9.874
21801TIP3   OH265282   7.401   3.212   9.877
21801TIP3    H165283   7.382   3.280   9.809
21801TIP3    H265284   7.369   3.131   9.831
21802TIP3   OH265285   7.062   3.410   9.975
21802TIP3    H165286   7.137   3.380  10.031
21802TIP3    H265287   7.071   3.349   9.900
21803TIP3   OH265288   7.494   3.598   9.760
21803TIP3    H165289   7.584   3.565   9.767
21803TIP3    H265290   7.447   3.519   9.725
21804TIP3   OH265291   7.780   4.036   9.310
21804TIP3    H165292   7.731   4.004   9.233
21804TIP3    H265293   7.735   4.121   9.327
21805TIP3   OH265294   7.517   3.961  10.108
21805TIP3    H165295   7.455   4.031  10.130
21805TIP3    H265296   7.574   4.003  10.041
21806TIP3   OH265297   7.291   3.319  10.102
21806TIP3    H165298   7.359   3.387  10.101
21806TIP3    H265299   7.329   3.257  10.035
21807TIP3   OH265300   6.752   3.842   9.429
21807TIP3    H165301   6.717   3.867   9.342
21807TIP3    H265302   6.785   3.927   9.464
21808TIP3   OH265303   8.173   4.342   9.647
21808TIP3    H165304   8.089   4.344   9.698
21808TIP3    H265305   8.181   4.435   9.619
21809TIP3   OH265306   7.901   4.405   9.347
21809TIP3    H165307   7.950   4.323   9.322
21809TIP3    H265308   7.959   4.472   9.304
21810TIP3   OH265309   8.041   4.192   9.243
21810TIP3    H165310   8.002   4.112   9.204
21810TIP3    H265311   8.074   4.156   9.329
21811TIP3   OH265312   7.715   3.678   9.265
21811TIP3    H165313   7.627   3.715   9.241
21811TIP3    H265314   7.756   3.664   9.178
21812TIP3   OH265315   7.671   3.451   8.988
21812TIP3    H165316   7.742   3.498   9.036
21812TIP3    H265317   7.725   3.384   8.941
21813TIP3   OH265318   8.049   3.746   9.246
21813TIP3    H165319   7.994   3.777   9.321
21813TIP3    H265320   8.125   3.709   9.293
21814TIP3   OH265321   7.291   3.751   9.652
21814TIP3    H165322   7.246   3.691   9.588
21814TIP3    H265323   7.366   3.695   9.683
21815TIP3   OH265324   7.411   4.155   9.805
21815TIP3    H165325   7.396   4.104   9.724
21815TIP3    H265326   7.502   4.126   9.829
21816TIP3   OH265327   7.424   3.718  10.018
21816TIP3    H165328   7.457   3.698   9.928
21816TIP3    H265329   7.475   3.798  10.041
21817TIP3   OH265330   7.956   4.350   9.817
21817TIP3    H165331   7.929   4.444   9.828
21817TIP3    H265332   7.909   4.307   9.889
21818TIP3   OH265333   7.903   3.601   9.066
21818TIP3    H165334   7.958   3.662   9.121
21818TIP3    H265335   7.928   3.628   8.975
21819TIP3   OH265336   7.638   4.293   9.328
21819TIP3    H165337   7.716   4.339   9.364
21819TIP3    H265338   7.575   4.365   9.318
21820TIP3   OH265339   7.155   3.589   9.469
21820TIP3    H165340   7.091   3.633   9.410
21820TIP3    H265341   7.116   3.501   9.477
21821TIP3   OH265342   8.213   4.217   8.662
21821TIP3    H165343   8.222   4.314   8.649
21821TIP3    H265344   8.305   4.187   8.650
21822TIP3   OH265345   6.797   4.177  10.001
21822TIP3    H165346   6.892   4.170   9.986
21822TIP3    H265347   6.790   4.260  10.051
21823TIP3   OH265348   7.515   4.531   9.141
21823TIP3    H165349   7.475   4.520   9.053
21823TIP3    H265350   7.490   4.621   9.166
21824TIP3   OH265351   6.959   4.384   9.526
21824TIP3    H165352   7.012   4.374   9.608
21824TIP3    H265353   6.898   4.310   9.535
21825TIP3   OH265354   7.724   4.429   8.786
21825TIP3    H165355   7.788   4.364   8.749
21825TIP3    H265356   7.759   4.442   8.876
21826TIP3   OH265357   7.772   4.480   9.057
21826TIP3    H165358   7.685   4.490   9.103
21826TIP3    H265359   7.826   4.442   9.128
21827TIP3   OH265360   7.975   3.661   8.812
21827TIP3    H165361   7.943   3.629   8.726
21827TIP3    H265362   8.056   3.707   8.785
21828TIP3   OH265363   7.702   3.026   9.104
21828TIP3    H165364   7.679   3.040   9.197
21828TIP3    H265365   7.648   2.947   9.084
21829TIP3   OH265366   7.351   3.386   9.670
21829TIP3    H165367   7.259   3.357   9.685
21829TIP3    H265368   7.370   3.343   9.584
21830TIP3   OH265369   7.844   3.470   9.394
21830TIP3    H165370   7.790   3.542   9.355
21830TIP3    H265371   7.894   3.437   9.318
21831TIP3   OH265372   7.345   2.999   9.080
21831TIP3    H165373   7.337   2.997   9.177
21831TIP3    H265374   7.267   3.052   9.056
21832TIP3   OH265375   6.910   3.079   9.918
21832TIP3    H165376   6.993   3.086   9.965
21832TIP3    H265377   6.929   3.015   9.846
21833TIP3   OH265378   6.867   3.028   9.471
21833TIP3    H165379   6.911   3.066   9.392
21833TIP3    H265380   6.806   3.101   9.492
21834TIP3   OH265381   7.629   3.260   9.717
21834TIP3    H165382   7.551   3.217   9.758
21834TIP3    H265383   7.695   3.237   9.783
21835TIP3   OH265384   7.119   3.259   9.745
21835TIP3    H165385   7.024   3.266   9.721
21835TIP3    H265386   7.143   3.168   9.722
21836TIP3   OH265387   7.390   3.257   9.431
21836TIP3    H165388   7.485   3.270   9.412
21836TIP3    H265389   7.346   3.281   9.347
21837TIP3   OH265390   7.227   3.286   9.213
21837TIP3    H165391   7.154   3.246   9.163
21837TIP3    H265392   7.280   3.324   9.140
21838TIP3   OH265393   7.303   3.025   9.704
21838TIP3    H165394   7.263   2.946   9.747
21838TIP3    H265395   7.332   2.988   9.619
21839TIP3   OH265396   7.479   3.831   9.216
21839TIP3    H165397   7.419   3.753   9.211
21839TIP3    H265398   7.465   3.858   9.310
21840TIP3   OH265399   7.946   3.140   9.027
21840TIP3    H165400   7.859   3.110   9.060
21840TIP3    H265401   7.967   3.216   9.085
21841TIP3   OH265402   8.028   3.373   9.171
21841TIP3    H165403   8.125   3.380   9.172
21841TIP3    H265404   8.001   3.452   9.123
21842TIP3   OH265405   7.183   3.849   9.889
21842TIP3    H165406   7.219   3.813   9.805
21842TIP3    H265407   7.205   3.779   9.952
21843TIP3   OH265408   7.625   3.973   9.037
21843TIP3    H165409   7.574   4.056   9.050
21843TIP3    H265410   7.576   3.912   9.096
21844TIP3   OH265411   8.464   3.419   8.915
21844TIP3    H165412   8.371   3.401   8.935
21844TIP3    H265413   8.466   3.516   8.915
21845TIP3   OH265414   8.152   4.287   8.926
21845TIP3    H165415   8.129   4.216   8.988
21845TIP3    H265416   8.166   4.239   8.842
21846TIP3   OH265417   7.274   4.140   9.514
21846TIP3    H165418   7.273   4.227   9.469
21846TIP3    H265419   7.180   4.128   9.530
21847TIP3   OH265420   6.837   3.445   9.215
21847TIP3    H165421   6.887   3.527   9.226
21847TIP3    H265422   6.763   3.458   9.278
21848TIP3   OH265423   7.425   3.914   9.468
21848TIP3    H165424   7.381   4.001   9.485
21848TIP3    H265425   7.384   3.859   9.538
21849TIP3   OH265426   7.549   4.480   9.969
21849TIP3    H165427   7.589   4.562   9.935
21849TIP3    H265428   7.610   4.452  10.037
21850TIP3   OH265429   7.205   4.378   9.385
21850TIP3    H165430   7.113   4.387   9.417
21850TIP3    H265431   7.230   4.472   9.375
21851TIP3   OH265432   7.904   4.014   8.829
21851TIP3    H165433   7.958   3.990   8.908
21851TIP3    H265434   7.817   3.984   8.858
21852TIP3   OH265435   8.249   4.492   8.651
21852TIP3    H165436   8.286   4.563   8.596
21852TIP3    H265437   8.169   4.538   8.682
21853TIP3   OH265438   8.062   3.951   9.049
21853TIP3    H165439   8.056   3.883   9.119
21853TIP3    H265440   8.158   3.947   9.029
21854TIP3   OH265441   6.984   4.373  10.132
21854TIP3    H165442   7.028   4.287  10.140
21854TIP3    H265443   7.019   4.416  10.211
21855TIP3   OH265444   7.254   3.996   8.832
21855TIP3    H165445   7.273   3.911   8.788
21855TIP3    H265446   7.241   3.968   8.925
21856TIP3   OH265447   7.218   4.016   9.112
21856TIP3    H165448   7.271   3.943   9.149
21856TIP3    H265449   7.261   4.093   9.151
21857TIP3   OH265450   6.960   3.693   9.308
21857TIP3    H165451   6.894   3.745   9.358
21857TIP3    H265452   6.973   3.748   9.229
21858TIP3   OH265453   7.908   3.112   9.329
21858TIP3    H165454   7.932   3.097   9.237
21858TIP3    H265455   7.995   3.099   9.369
21859TIP3   OH265456   7.460   4.204   9.048
21859TIP3    H165457   7.434   4.266   9.118
21859TIP3    H265458   7.508   4.264   8.990
21860TIP3   OH265459   7.665   3.262   9.448
21860TIP3    H165460   7.744   3.318   9.432
21860TIP3    H265461   7.657   3.267   9.546
21861TIP3   OH265462   7.329   2.987   9.358
21861TIP3    H165463   7.325   3.080   9.389
21861TIP3    H265464   7.426   2.971   9.368
21862TIP3   OH265465   6.946   3.914   9.110
21862TIP3    H165466   7.032   3.959   9.114
21862TIP3    H265467   6.964   3.849   9.037
21863TIP3   OH265468   6.892   3.178   9.244
21863TIP3    H165469   6.892   3.276   9.236
21863TIP3    H265470   6.810   3.156   9.200
21864TIP3   OH265471   8.208   4.618   9.587
21864TIP3    H165472   8.167   4.673   9.516
21864TIP3    H265473   8.303   4.631   9.570
21865TIP3   OH265474   6.821   4.121   9.504
21865TIP3    H165475   6.741   4.153   9.548
21865TIP3    H265476   6.807   4.156   9.414
21866TIP3   OH265477   7.425   4.187   8.745
21866TIP3    H165478   7.423   4.100   8.792
21866TIP3    H265479   7.513   4.176   8.702
21867TIP3   OH265480   7.875   4.243   8.651
21867TIP3    H165481   7.923   4.181   8.709
21867TIP3    H265482   7.932   4.246   8.572
21868TIP3   OH265483   7.574   3.919   8.771
21868TIP3    H165484   7.594   3.921   8.867
21868TIP3    H265485   7.575   3.821   8.757
21869TIP3   OH265486   7.320   3.616   9.207
21869TIP3    H165487   7.264   3.572   9.273
21869TIP3    H265488   7.322   3.549   9.135
21870TIP3   OH265489   7.385   3.406   9.027
21870TIP3    H165490   7.356   3.411   8.933
21870TIP3    H265491   7.481   3.420   9.019
21871TIP3   OH265492   8.212   3.747   8.682
21871TIP3    H165493   8.189   3.698   8.601
21871TIP3    H265494   8.181   3.836   8.657
21872TIP3   OH265495   6.678   3.858   9.151
21872TIP3    H165496   6.772   3.879   9.131
21872TIP3    H265497   6.669   3.770   9.107
21873TIP3   OH265498   6.592   4.469   9.555
21873TIP3    H165499   6.523   4.408   9.524
21873TIP3    H265500   6.635   4.415   9.625
21874TIP3   OH265501   6.724   4.327   9.745
21874TIP3    H165502   6.719   4.250   9.804
21874TIP3    H265503   6.781   4.386   9.798
21875TIP3   OH265504   8.473   4.724   9.546
21875TIP3    H165505   8.454   4.763   9.634
21875TIP3    H265506   8.469   4.800   9.487
21876TIP3   OH265507   8.339   3.936   9.008
21876TIP3    H165508   8.418   3.992   8.994
21876TIP3    H265509   8.345   3.914   9.103
21877TIP3   OH265510   8.346   3.828   9.261
21877TIP3    H165511   8.369   3.737   9.236
21877TIP3    H265512   8.436   3.864   9.273
21878TIP3   OH265513   8.409   3.706   8.867
21878TIP3    H165514   8.340   3.713   8.798
21878TIP3    H265515   8.386   3.784   8.921
21879TIP3   OH265516   8.213   3.365   8.824
21879TIP3    H165517   8.233   3.443   8.771
21879TIP3    H265518   8.254   3.296   8.770
21880TIP3   OH265519   6.936   3.774  10.076
21880TIP3    H165520   6.930   3.718   9.996
21880TIP3    H265521   7.023   3.748  10.111
21881TIP3   OH265522   6.875   2.895   9.703
21881TIP3    H165523   6.779   2.886   9.715
21881TIP3    H265524   6.881   2.946   9.620
21882TIP3   OH265525   8.037   4.586   9.202
21882TIP3    H165526   8.090   4.573   9.120
21882TIP3    H265527   8.087   4.655   9.248
21883TIP3   OH265528   7.215   4.637   9.999
21883TIP3    H165529   7.161   4.682  10.063
21883TIP3    H265530   7.215   4.697   9.923
21884TIP3   OH265531   7.658   4.705   9.814
21884TIP3    H165532   7.586   4.710   9.749
21884TIP3    H265533   7.655   4.792   9.854
21885TIP3   OH265534   7.920   4.616   9.850
21885TIP3    H165535   7.833   4.658   9.834
21885TIP3    H265536   7.981   4.691   9.832
21886TIP3   OH265537   8.097   4.817   9.778
21886TIP3    H165538   8.115   4.909   9.750
21886TIP3    H265539   8.153   4.765   9.717
21887TIP3   OH265540   6.904   4.477   9.895
21887TIP3    H165541   6.929   4.457   9.988
21887TIP3    H265542   6.981   4.437   9.849
21888TIP3   OH265543   7.099   4.346   9.756
21888TIP3    H165544   7.118   4.264   9.808
21888TIP3    H265545   7.188   4.388   9.755
21889TIP3   OH265546   7.364   4.445   9.759
21889TIP3    H165547   7.397   4.354   9.753
21889TIP3    H265548   7.397   4.468   9.848
21890TIP3   OH265549   7.203   2.810   9.828
21890TIP3    H165550   7.117   2.767   9.848
21890TIP3    H265551   7.254   2.786   9.907
21891TIP3   OH265552   6.964   2.676   9.505
21891TIP3    H165553   7.004   2.735   9.439
21891TIP3    H265554   6.949   2.736   9.580
21892TIP3   OH265555   6.696   4.244   9.297
21892TIP3    H165556   6.611   4.212   9.260
21892TIP3    H265557   6.683   4.339   9.288
21893TIP3   OH265558   7.091   2.838   9.281
21893TIP3    H165559   7.140   2.776   9.225
21893TIP3    H265560   7.163   2.893   9.318
21894TIP3   OH265561   7.607   3.006   9.383
21894TIP3    H165562   7.691   2.963   9.404
21894TIP3    H265563   7.630   3.099   9.404
21895TIP3   OH265564   7.469   4.437   8.882
21895TIP3    H165565   7.555   4.466   8.847
21895TIP3    H265566   7.446   4.369   8.817
21896TIP3   OH265567   8.184   4.554   8.970
21896TIP3    H165568   8.175   4.456   8.956
21896TIP3    H265569   8.140   4.587   8.889
21897TIP3   OH265570   6.792   4.285   8.945
21897TIP3    H165571   6.749   4.324   9.023
21897TIP3    H265572   6.827   4.203   8.981
21898TIP3   OH265573   8.553   4.098   8.921
21898TIP3    H165574   8.514   4.117   8.834
21898TIP3    H265575   8.580   4.186   8.952
21899TIP3   OH265576   9.306   4.776   8.627
21899TIP3    H165577   9.260   4.765   8.542
21899TIP3    H265578   9.272   4.862   8.660
21900TIP3   OH265579   8.760   4.640   9.014
21900TIP3    H165580   8.813   4.609   9.088
21900TIP3    H265581   8.690   4.572   9.011
21901TIP3   OH265582   9.517   4.684   8.258
21901TIP3    H165583   9.581   4.614   8.232
21901TIP3    H265584   9.546   4.704   8.350
21902TIP3   OH265585   9.549   4.745   8.523
21902TIP3    H165586   9.463   4.763   8.567
21902TIP3    H265587   9.575   4.664   8.569
21903TIP3   OH265588   9.307   4.197   8.547
21903TIP3    H165589   9.298   4.295   8.555
21903TIP3    H265590   9.397   4.180   8.579
21904TIP3   OH265591   9.013   4.459   9.042
21904TIP3    H165592   9.060   4.483   8.961
21904TIP3    H265593   8.974   4.374   9.017
21905TIP3   OH265594   8.629   3.716   8.698
21905TIP3    H165595   8.678   3.795   8.729
21905TIP3    H265596   8.559   3.709   8.768
21906TIP3   OH265597   8.987   4.649   8.837
21906TIP3    H165598   8.909   4.649   8.896
21906TIP3    H265599   9.019   4.742   8.850
21907TIP3   OH265600   9.960   4.721   8.072
21907TIP3    H165601  10.039   4.774   8.056
21907TIP3    H265602   9.919   4.771   8.144
21908TIP3   OH265603   9.073   4.253   8.316
21908TIP3    H165604   9.084   4.161   8.284
21908TIP3    H265605   9.057   4.238   8.411
21909TIP3   OH265606   9.009   4.260   8.590
21909TIP3    H165607   9.073   4.237   8.659
21909TIP3    H265608   9.014   4.359   8.591
21910TIP3   OH265609   8.755   3.950   8.774
21910TIP3    H165610   8.707   3.982   8.853
21910TIP3    H265611   8.764   4.032   8.723
21911TIP3   OH265612   9.280   4.465   8.547
21911TIP3    H165613   9.190   4.493   8.576
21911TIP3    H265614   9.297   4.533   8.481
21912TIP3   OH265615   9.019   4.531   8.598
21912TIP3    H165616   8.988   4.600   8.535
21912TIP3    H265617   9.004   4.577   8.684
21913TIP3   OH265618   8.740   4.171   8.596
21913TIP3    H165619   8.805   4.243   8.603
21913TIP3    H265620   8.785   4.115   8.529
21914TIP3   OH265621   8.668   3.429   8.671
21914TIP3    H165622   8.696   3.513   8.711
21914TIP3    H265623   8.613   3.396   8.743
21915TIP3   OH265624   8.619   4.381   9.001
21915TIP3    H165625   8.533   4.412   9.033
21915TIP3    H265626   8.613   4.409   8.908
21916TIP3   OH265627   9.236   4.457   8.233
21916TIP3    H165628   9.176   4.386   8.268
21916TIP3    H265629   9.307   4.402   8.195
21917TIP3   OH265630   9.678   4.487   8.145
21917TIP3    H165631   9.754   4.440   8.179
21917TIP3    H265632   9.710   4.509   8.055
21918TIP3   OH265633   8.871   3.983   8.439
21918TIP3    H165634   8.910   3.929   8.509
21918TIP3    H265635   8.945   3.985   8.374
21919TIP3   OH265636   9.374   4.172   8.254
21919TIP3    H165637   9.347   4.174   8.348
21919TIP3    H265638   9.383   4.076   8.242
21920TIP3   OH265639   8.991   4.732   8.414
21920TIP3    H165640   9.087   4.733   8.393
21920TIP3    H265641   8.958   4.780   8.336
21921TIP3   OH265642   8.474   4.114   8.635
21921TIP3    H165643   8.568   4.137   8.621
21921TIP3    H265644   8.469   4.025   8.593
21922TIP3   OH265645   8.387   4.726   9.043
21922TIP3    H165646   8.318   4.665   9.010
21922TIP3    H265647   8.432   4.670   9.110
21923TIP3   OH265648   8.524   4.583   9.231
21923TIP3    H165649   8.498   4.511   9.290
21923TIP3    H265650   8.576   4.640   9.290
21924TIP3   OH265651   8.729   4.727   9.365
21924TIP3    H165652   8.749   4.713   9.459
21924TIP3    H265653   8.816   4.714   9.326
21925TIP3   OH265654   8.490   4.501   8.791
21925TIP3    H165655   8.408   4.466   8.752
21925TIP3    H265656   8.477   4.595   8.773
21926TIP3   OH265657   9.260   4.698   8.361
21926TIP3    H165658   9.348   4.720   8.323
21926TIP3    H265659   9.239   4.620   8.305
21927TIP3   OH265660   8.566   4.533   8.424
21927TIP3    H165661   8.563   4.563   8.515
21927TIP3    H265662   8.656   4.492   8.417
21928TIP3   OH265663   4.155   5.461   9.881
21928TIP3    H165664   4.073   5.426   9.843
21928TIP3    H265665   4.127   5.484   9.969
21929TIP3   OH265666   3.731   4.753   9.633
21929TIP3    H165667   3.797   4.813   9.674
21929TIP3    H265668   3.792   4.691   9.587
21930TIP3   OH265669   3.931   4.905   9.731
21930TIP3    H165670   4.002   4.912   9.796
21930TIP3    H265671   3.975   4.935   9.648
21931TIP3   OH265672   4.258   5.518   9.326
21931TIP3    H165673   4.267   5.615   9.313
21931TIP3    H265674   4.350   5.489   9.314
21932TIP3   OH265675   3.594   5.855   9.797
21932TIP3    H165676   3.538   5.826   9.723
21932TIP3    H265677   3.563   5.947   9.813
21933TIP3   OH265678   3.770   5.732   9.448
21933TIP3    H165679   3.831   5.665   9.410
21933TIP3    H265680   3.809   5.743   9.538
21934TIP3   OH265681   3.835   5.779   9.713
21934TIP3    H165682   3.747   5.797   9.754
21934TIP3    H265683   3.881   5.734   9.784
21935TIP3   OH265684   4.021   4.955   9.475
21935TIP3    H165685   3.989   4.929   9.387
21935TIP3    H265686   4.098   5.010   9.452
21936TIP3   OH265687   3.674   5.265   9.689
21936TIP3    H165688   3.633   5.352   9.703
21936TIP3    H265689   3.621   5.209   9.748
21937TIP3   OH265690   4.511   4.773   9.669
21937TIP3    H165691   4.446   4.725   9.612
21937TIP3    H265692   4.495   4.863   9.634
21938TIP3   OH265693   4.190   5.588   9.589
21938TIP3    H165694   4.186   5.518   9.656
21938TIP3    H265695   4.209   5.539   9.507
21939TIP3   OH265696   3.945   5.314   9.488
21939TIP3    H165697   4.004   5.286   9.562
21939TIP3    H265698   3.859   5.287   9.525
21940TIP3   OH265699   4.293   5.793   9.314
21940TIP3    H165700   4.332   5.865   9.261
21940TIP3    H265701   4.212   5.839   9.345
21941TIP3   OH265702   4.107   5.240   9.694
21941TIP3    H165703   4.089   5.206   9.783
21941TIP3    H265704   4.205   5.244   9.694
21942TIP3   OH265705   3.325   5.299   9.494
21942TIP3    H165706   3.343   5.220   9.441
21942TIP3    H265707   3.304   5.259   9.579
21943TIP3   OH265708   3.523   5.498   9.696
21943TIP3    H165709   3.429   5.523   9.687
21943TIP3    H265710   3.562   5.553   9.626
21944TIP3   OH265711   3.259   5.560   9.733
21944TIP3    H165712   3.229   5.624   9.665
21944TIP3    H265713   3.264   5.623   9.808
21945TIP3   OH265714   3.486   5.504   9.404
21945TIP3    H165715   3.430   5.432   9.441
21945TIP3    H265716   3.558   5.453   9.365
21946TIP3   OH265717   3.920   5.545   9.314
21946TIP3    H165718   3.967   5.483   9.373
21946TIP3    H265719   3.977   5.548   9.235
21947TIP3   OH265720   3.154   5.067   9.606
21947TIP3    H165721   3.172   4.984   9.653
21947TIP3    H265722   3.210   5.055   9.527
21948TIP3   OH265723   3.625   5.214   9.426
21948TIP3    H165724   3.637   5.227   9.522
21948TIP3    H265725   3.628   5.115   9.422
21949TIP3   OH265726   3.433   4.772   9.676
21949TIP3    H165727   3.375   4.761   9.599
21949TIP3    H265728   3.521   4.765   9.636
21950TIP3   OH265729   4.261   5.047   9.347
21950TIP3    H165730   4.237   5.000   9.265
21950TIP3    H265731   4.229   5.137   9.323
21951TIP3   OH265732   3.235   5.770   9.572
21951TIP3    H165733   3.332   5.782   9.565
21951TIP3    H265734   3.206   5.829   9.500
21952TIP3   OH265735   4.387   5.241   9.679
21952TIP3    H165736   4.458   5.303   9.652
21952TIP3    H265737   4.431   5.196   9.754
21953TIP3   OH265738   4.520   5.107   9.868
21953TIP3    H165739   4.466   5.072   9.942
21953TIP3    H265740   4.600   5.143   9.914
21954TIP3   OH265741   4.456   5.010   9.536
21954TIP3    H165742   4.385   5.013   9.468
21954TIP3    H265743   4.430   5.087   9.590
21955TIP3   OH265744   4.337   4.678   9.488
21955TIP3    H165745   4.290   4.727   9.420
21955TIP3    H265746   4.305   4.586   9.472
21956TIP3   OH265747   4.277   4.412   9.477
21956TIP3    H165748   4.349   4.382   9.537
21956TIP3    H265749   4.198   4.366   9.510
21957TIP3   OH265750   4.528   4.360   9.606
21957TIP3    H165751   4.555   4.294   9.539
21957TIP3    H265752   4.588   4.435   9.588
21958TIP3   OH265753   4.088   5.897   9.864
21958TIP3    H165754   4.135   5.882   9.779
21958TIP3    H265755   4.142   5.967   9.903
21959TIP3   OH265756   3.511   5.747   9.539
21959TIP3    H165757   3.602   5.764   9.505
21959TIP3    H265758   3.486   5.674   9.478
21960TIP3   OH265759   4.228   5.854   9.632
21960TIP3    H165760   4.219   5.757   9.618
21960TIP3    H265761   4.186   5.888   9.550
21961TIP3   OH265762   2.837   5.607   9.609
21961TIP3    H165763   2.858   5.662   9.687
21961TIP3    H265764   2.922   5.560   9.591
21962TIP3   OH265765   5.723   5.372   9.590
21962TIP3    H165766   5.698   5.465   9.573
21962TIP3    H265767   5.641   5.326   9.565
21963TIP3   OH265768   5.715   5.373   9.954
21963TIP3    H165769   5.735   5.344  10.045
21963TIP3    H265770   5.671   5.295   9.917
21964TIP3   OH265771   5.959   5.675   9.648
21964TIP3    H165772   5.953   5.606   9.715
21964TIP3    H265773   5.993   5.751   9.699
21965TIP3   OH265774   5.006   5.668  10.088
21965TIP3    H165775   4.992   5.575  10.060
21965TIP3    H265776   5.096   5.685  10.055
21966TIP3   OH265777   4.695   4.886   9.837
21966TIP3    H165778   4.658   4.975   9.849
21966TIP3    H265779   4.631   4.847   9.775
21967TIP3   OH265780   4.780   5.164   9.942
21967TIP3    H165781   4.822   5.111  10.011
21967TIP3    H265782   4.861   5.177   9.889
21968TIP3   OH265783   5.608   6.135   9.665
21968TIP3    H165784   5.659   6.065   9.618
21968TIP3    H265785   5.609   6.102   9.755
21969TIP3   OH265786   5.518   5.590  10.001
21969TIP3    H165787   5.560   5.515   9.956
21969TIP3    H265788   5.597   5.641  10.025
21970TIP3   OH265789   6.542   4.932  10.019
21970TIP3    H165790   6.533   5.018  10.062
21970TIP3    H265791   6.553   4.957   9.926
21971TIP3   OH265792   5.946   5.102  10.058
21971TIP3    H165793   5.980   5.010  10.064
21971TIP3    H265794   5.912   5.099   9.966
21972TIP3   OH265795   5.296   4.753  10.005
21972TIP3    H165796   5.250   4.834   9.979
21972TIP3    H265797   5.230   4.687   9.975
21973TIP3   OH265798   5.963   4.844   9.643
21973TIP3    H165799   6.035   4.830   9.709
21973TIP3    H265800   6.013   4.885   9.570
21974TIP3   OH265801   5.373   5.184   9.861
21974TIP3    H165802   5.454   5.141   9.896
21974TIP3    H265803   5.302   5.126   9.892
21975TIP3   OH265804   5.622   5.596   9.457
21975TIP3    H165805   5.568   5.567   9.382
21975TIP3    H265806   5.577   5.680   9.481
21976TIP3   OH265807   6.178   4.845   9.815
21976TIP3    H165808   6.183   4.808   9.905
21976TIP3    H265809   6.230   4.925   9.831
21977TIP3   OH265810   4.595   5.403   9.581
21977TIP3    H165811   4.554   5.430   9.496
21977TIP3    H265812   4.625   5.488   9.618
21978TIP3   OH265813   6.030   5.908   9.811
21978TIP3    H165814   5.940   5.908   9.851
21978TIP3    H265815   6.033   5.999   9.774
21979TIP3   OH265816   6.301   4.793  10.069
21979TIP3    H165817   6.268   4.825  10.155
21979TIP3    H265818   6.388   4.836  10.063
21980TIP3   OH265819   5.742   5.964   9.495
21980TIP3    H165820   5.792   5.883   9.474
21980TIP3    H265821   5.801   6.030   9.453
21981TIP3   OH265822   5.884   5.748   9.394
21981TIP3    H165823   5.833   5.672   9.362
21981TIP3    H265824   5.916   5.715   9.481
21982TIP3   OH265825   5.551   5.220   9.416
21982TIP3    H165826   5.470   5.272   9.398
21982TIP3    H265827   5.597   5.224   9.331
21983TIP3   OH265828   5.512   5.008   9.138
21983TIP3    H165829   5.579   5.057   9.189
21983TIP3    H265830   5.569   4.944   9.091
21984TIP3   OH265831   6.456   5.455   9.995
21984TIP3    H165832   6.378   5.513  10.012
21984TIP3    H265833   6.488   5.496   9.912
21985TIP3   OH265834   5.900   5.304   9.393
21985TIP3    H165835   5.844   5.331   9.470
21985TIP3    H265836   5.983   5.280   9.438
21986TIP3   OH265837   5.132   5.354   9.793
21986TIP3    H165838   5.074   5.296   9.742
21986TIP3    H265839   5.193   5.288   9.831
21987TIP3   OH265840   5.251   5.707   9.956
21987TIP3    H165841   5.244   5.662   9.870
21987TIP3    H265842   5.342   5.682   9.983
21988TIP3   OH265843   5.337   5.266  10.119
21988TIP3    H165844   5.362   5.272  10.025
21988TIP3    H265845   5.391   5.332  10.163
21989TIP3   OH265846   5.790   5.921   9.931
21989TIP3    H165847   5.778   6.003   9.983
21989TIP3    H265848   5.776   5.849   9.995
21990TIP3   OH265849   5.748   5.158   9.218
21990TIP3    H165850   5.802   5.220   9.272
21990TIP3    H265851   5.772   5.187   9.127
21991TIP3   OH265852   5.482   5.846   9.491
21991TIP3    H165853   5.557   5.901   9.518
21991TIP3    H265854   5.419   5.911   9.457
21992TIP3   OH265855   6.251   4.405   9.260
21992TIP3    H165856   6.177   4.430   9.319
21992TIP3    H265857   6.270   4.491   9.217
21993TIP3   OH265858   5.006   5.147   9.577
21993TIP3    H165859   4.925   5.179   9.532
21993TIP3    H265860   4.971   5.080   9.638
21994TIP3   OH265861   6.053   5.774   8.810
21994TIP3    H165862   6.062   5.872   8.799
21994TIP3    H265863   6.146   5.746   8.800
21995TIP3   OH265864   5.362   6.092   9.293
21995TIP3    H165865   5.317   6.073   9.209
21995TIP3    H265866   5.331   6.182   9.315
21996TIP3   OH265867   4.802   5.942   9.676
21996TIP3    H165868   4.852   5.932   9.760
21996TIP3    H265869   4.735   5.872   9.689
21997TIP3   OH265870   5.566   5.991   8.936
21997TIP3    H165871   5.626   5.922   8.900
21997TIP3    H265872   5.599   6.000   9.028
21998TIP3   OH265873   5.614   6.038   9.207
21998TIP3    H165874   5.526   6.048   9.250
21998TIP3    H265875   5.666   5.998   9.279
21999TIP3   OH265876   5.817   5.211   8.961
21999TIP3    H165877   5.785   5.186   8.872
21999TIP3    H265878   5.892   5.269   8.938
22000TIP3   OH265879   5.543   4.583   9.260
22000TIP3    H165880   5.508   4.591   9.351
22000TIP3    H265881   5.491   4.505   9.231
22001TIP3   OH265882   5.143   4.826   9.786
22001TIP3    H165883   5.116   4.912   9.825
22001TIP3    H265884   5.201   4.852   9.712
22002TIP3   OH265885   5.694   5.028   9.550
22002TIP3    H165886   5.635   5.098   9.515
22002TIP3    H265887   5.743   5.002   9.470
22003TIP3   OH265888   5.855   5.056   9.794
22003TIP3    H165889   5.793   5.089   9.726
22003TIP3    H265890   5.882   4.972   9.750
22004TIP3   OH265891   5.187   4.559   9.230
22004TIP3    H165892   5.181   4.557   9.327
22004TIP3    H265893   5.107   4.609   9.207
22005TIP3   OH265894   4.708   4.587   9.610
22005TIP3    H165895   4.755   4.629   9.534
22005TIP3    H265896   4.649   4.661   9.634
22006TIP3   OH265897   5.807   5.288  10.199
22006TIP3    H165898   5.870   5.229  10.152
22006TIP3    H265899   5.860   5.320  10.274
22007TIP3   OH265900   5.537   4.760   9.877
22007TIP3    H165901   5.451   4.759   9.924
22007TIP3    H265902   5.601   4.761   9.950
22008TIP3   OH265903   4.914   4.752   9.944
22008TIP3    H165904   4.864   4.822   9.897
22008TIP3    H265905   4.991   4.743   9.886
22009TIP3   OH265906   5.263   4.791   9.530
22009TIP3    H165907   5.346   4.841   9.528
22009TIP3    H265908   5.202   4.843   9.473
22010TIP3   OH265909   5.999   4.841  10.072
22010TIP3    H165910   5.978   4.823  10.166
22010TIP3    H265911   5.956   4.766  10.028
22011TIP3   OH265912   5.053   4.855   9.357
22011TIP3    H165913   4.986   4.806   9.305
22011TIP3    H265914   5.113   4.883   9.285
22012TIP3   OH265915   5.618   5.086   9.961
22012TIP3    H165916   5.697   5.041   9.925
22012TIP3    H265917   5.617   5.058  10.054
22013TIP3   OH265918   5.131   4.529   9.873
22013TIP3    H165919   5.183   4.447   9.883
22013TIP3    H265920   5.169   4.572   9.795
22014TIP3   OH265921   5.329   5.375   9.364
22014TIP3    H165922   5.255   5.311   9.356
22014TIP3    H265923   5.311   5.415   9.454
22015TIP3   OH265924   6.227   5.602  10.007
22015TIP3    H165925   6.255   5.665   9.937
22015TIP3    H265926   6.139   5.575   9.974
22016TIP3   OH265927   5.788   4.694   9.180
22016TIP3    H165928   5.700   4.664   9.211
22016TIP3    H265929   5.802   4.777   9.231
22017TIP3   OH265930   5.855   4.924   9.323
22017TIP3    H165931   5.948   4.938   9.348
22017TIP3    H265932   5.833   5.009   9.278
22018TIP3   OH265933   4.993   5.399  10.033
22018TIP3    H165934   5.031   5.387   9.943
22018TIP3    H265935   5.009   5.309  10.067
22019TIP3   OH265936   5.469   5.527   9.185
22019TIP3    H165937   5.423   5.613   9.194
22019TIP3    H265938   5.415   5.471   9.246
22020TIP3   OH265939   6.296   5.022   9.169
22020TIP3    H165940   6.233   4.978   9.107
22020TIP3    H265941   6.293   5.112   9.129
22021TIP3   OH265942   5.993   5.845   9.076
22021TIP3    H165943   5.969   5.777   9.140
22021TIP3    H265944   6.005   5.795   8.993
22022TIP3   OH265945   5.979   5.471   9.932
22022TIP3    H165946   5.886   5.441   9.924
22022TIP3    H265947   6.024   5.401   9.881
22023TIP3   OH265948   5.116   5.703   9.663
22023TIP3    H165949   5.116   5.788   9.615
22023TIP3    H265950   5.022   5.688   9.677
22024TIP3   OH265951   4.676   5.006   9.368
22024TIP3    H165952   4.724   5.089   9.388
22024TIP3    H265953   4.601   5.013   9.431
22025TIP3   OH265954   5.276   5.488   9.600
22025TIP3    H165955   5.236   5.576   9.620
22025TIP3    H265956   5.238   5.436   9.674
22026TIP3   OH265957   5.386   6.045  10.117
22026TIP3    H165958   5.428   6.122  10.074
22026TIP3    H265959   5.449   6.020  10.184
22027TIP3   OH265960   5.037   5.941   9.521
22027TIP3    H165961   4.951   5.948   9.567
22027TIP3    H265962   5.068   6.034   9.525
22028TIP3   OH265963   5.780   5.690  10.086
22028TIP3    H165964   5.769   5.677  10.182
22028TIP3    H265965   5.852   5.629  10.062
22029TIP3   OH265966   5.745   5.568   8.978
22029TIP3    H165967   5.798   5.545   9.058
22029TIP3    H265968   5.656   5.548   9.010
22030TIP3   OH265969   6.089   6.049   8.800
22030TIP3    H165970   6.127   6.122   8.748
22030TIP3    H265971   6.009   6.095   8.833
22031TIP3   OH265972   5.906   5.503   9.194
22031TIP3    H165973   5.896   5.440   9.268
22031TIP3    H265974   6.003   5.505   9.185
22032TIP3   OH265975   5.116   5.554   8.978
22032TIP3    H165976   5.131   5.462   8.948
22032TIP3    H265977   5.099   5.541   9.073
22033TIP3   OH265978   5.062   5.558   9.251
22033TIP3    H165979   5.130   5.530   9.314
22033TIP3    H265980   5.068   5.656   9.258
22034TIP3   OH265981   4.787   5.255   9.448
22034TIP3    H165982   4.724   5.300   9.508
22034TIP3    H265983   4.805   5.327   9.385
22035TIP3   OH265984   5.834   4.642   9.501
22035TIP3    H165985   5.805   4.679   9.416
22035TIP3    H265986   5.866   4.722   9.548
22036TIP3   OH265987   5.326   5.756   9.199
22036TIP3    H165988   5.240   5.785   9.236
22036TIP3    H265989   5.343   5.828   9.137
22037TIP3   OH265990   5.530   4.818   9.611
22037TIP3    H165991   5.590   4.894   9.597
22037TIP3    H265992   5.530   4.810   9.709
22038TIP3   OH265993   5.664   4.554   9.718
22038TIP3    H165994   5.649   4.633   9.774
22038TIP3    H265995   5.722   4.592   9.649
22039TIP3   OH265996   5.067   5.831   9.265
22039TIP3    H165997   5.037   5.901   9.203
22039TIP3    H265998   5.051   5.875   9.352
22040TIP3   OH265999   5.170   4.535   9.504
22040TIP3    H166000   5.175   4.631   9.525
22040TIP3    H266001   5.264   4.512   9.517
22041TIP3   OH266002   6.076   5.236   9.790
22041TIP3    H166003   6.002   5.173   9.801
22041TIP3    H266004   6.149   5.190   9.836
22042TIP3   OH266005   4.786   5.469   9.259
22042TIP3    H166006   4.848   5.543   9.269
22042TIP3    H266007   4.835   5.416   9.193
22043TIP3   OH266008   4.734   4.738   9.385
22043TIP3    H166009   4.735   4.836   9.385
22043TIP3    H266010   4.644   4.719   9.356
22044TIP3   OH266011   6.044   6.179   9.736
22044TIP3    H166012   6.003   6.232   9.664
22044TIP3    H266013   6.139   6.199   9.720
22045TIP3   OH266014   4.660   5.673   9.655
22045TIP3    H166015   4.582   5.711   9.696
22045TIP3    H266016   4.653   5.711   9.565
22046TIP3   OH266017   5.279   5.759   8.894
22046TIP3    H166018   5.222   5.689   8.932
22046TIP3    H266019   5.354   5.705   8.862
22047TIP3   OH266020   5.716   5.801   8.802
22047TIP3    H166021   5.764   5.740   8.860
22047TIP3    H266022   5.773   5.804   8.722
22048TIP3   OH266023   4.922   5.277   9.110
22048TIP3    H166024   4.975   5.242   9.183
22048TIP3    H266025   4.991   5.282   9.040
22049TIP3   OH266026   5.427   5.472   8.917
22049TIP3    H166027   5.431   5.486   9.014
22049TIP3    H266028   5.424   5.374   8.913
22050TIP3   OH266029   5.135   5.180   9.332
22050TIP3    H166030   5.097   5.151   9.417
22050TIP3    H266031   5.164   5.095   9.292
22051TIP3   OH266032   5.229   4.962   9.177
22051TIP3    H166033   5.201   4.969   9.083
22051TIP3    H266034   5.325   4.978   9.170
22052TIP3   OH266035   6.058   5.304   8.833
22052TIP3    H166036   6.032   5.257   8.752
22052TIP3    H266037   6.025   5.394   8.811
22053TIP3   OH266038   5.036   6.034   9.078
22053TIP3    H166039   5.132   6.033   9.060
22053TIP3    H266040   5.005   6.081   8.998
22054TIP3   OH266041   4.518   5.415   9.298
22054TIP3    H166042   4.613   5.439   9.283
22054TIP3    H266043   4.514   5.326   9.257
22055TIP3   OH266044   4.433   6.029   9.704
22055TIP3    H166045   4.365   5.965   9.672
22055TIP3    H266046   4.477   5.975   9.774
22056TIP3   OH266047   4.569   5.890   9.893
22056TIP3    H166048   4.553   5.817   9.953
22056TIP3    H266049   4.609   5.954   9.955
22057TIP3   OH266050   6.295   6.281   9.693
22057TIP3    H166051   6.316   6.328   9.774
22057TIP3    H266052   6.350   6.328   9.628
22058TIP3   OH266053   6.188   5.491   9.171
22058TIP3    H166054   6.258   5.555   9.145
22058TIP3    H266055   6.229   5.451   9.251
22059TIP3   OH266056   6.315   5.357   9.373
22059TIP3    H166057   6.249   5.316   9.433
22059TIP3    H266058   6.377   5.400   9.436
22060TIP3   OH266059   6.343   5.736   9.798
22060TIP3    H166060   6.419   5.688   9.762
22060TIP3    H266061   6.344   5.819   9.747
22061TIP3   OH266062   6.211   6.041   9.997
22061TIP3    H166063   6.143   6.091  10.041
22061TIP3    H266064   6.161   5.982   9.939
22062TIP3   OH266065   6.253   5.264   9.022
22062TIP3    H166066   6.182   5.270   8.954
22062TIP3    H266067   6.228   5.340   9.078
22063TIP3   OH266068   6.126   4.929   8.976
22063TIP3    H166069   6.087   4.985   8.908
22063TIP3    H266070   6.091   4.841   8.952
22064TIP3   OH266071   6.131   5.213   9.523
22064TIP3    H166072   6.139   5.116   9.522
22064TIP3    H266073   6.118   5.231   9.619
22065TIP3   OH266074   6.063   4.655   8.972
22065TIP3    H166075   6.153   4.645   9.011
22065TIP3    H266076   6.006   4.649   9.050
22066TIP3   OH266077   6.124   4.928   9.419
22066TIP3    H166078   6.165   4.840   9.433
22066TIP3    H266079   6.183   4.964   9.352
22067TIP3   OH266080   6.290   5.107   9.903
22067TIP3    H166081   6.378   5.133   9.869
22067TIP3    H266082   6.298   5.144   9.994
22068TIP3   OH266083   6.337   5.241  10.136
22068TIP3    H166084   6.285   5.281  10.207
22068TIP3    H266085   6.385   5.319  10.099
22069TIP3   OH266086   6.234   4.677   9.451
22069TIP3    H166087   6.285   4.666   9.534
22069TIP3    H266088   6.173   4.602   9.456
22070TIP3   OH266089   6.317   4.620   9.083
22070TIP3    H166090   6.358   4.546   9.033
22070TIP3    H266091   6.386   4.689   9.078
22071TIP3   OH266092   4.732   4.463   9.846
22071TIP3    H166093   4.662   4.511   9.894
22071TIP3    H266094   4.740   4.518   9.765
22072TIP3   OH266095   5.877   6.146   9.351
22072TIP3    H166096   5.932   6.131   9.271
22072TIP3    H266097   5.930   6.211   9.401
22073TIP3   OH266098   5.066   6.202  10.152
22073TIP3    H166099   5.003   6.237  10.216
22073TIP3    H266100   5.051   6.257  10.073
22074TIP3   OH266101   5.496   6.261   9.965
22074TIP3    H166102   5.426   6.267   9.897
22074TIP3    H266103   5.496   6.350  10.000
22075TIP3   OH266104   5.759   6.181  10.019
22075TIP3    H166105   5.674   6.215   9.984
22075TIP3    H266106   5.823   6.250   9.990
22076TIP3   OH266107   5.944   6.374   9.926
22076TIP3    H166108   5.959   6.464   9.890
22076TIP3    H266109   5.993   6.319   9.863
22077TIP3   OH266110   4.752   6.042  10.045
22077TIP3    H166111   4.751   6.013  10.137
22077TIP3    H266112   4.826   5.990  10.006
22078TIP3   OH266113   4.943   5.900   9.907
22078TIP3    H166114   4.962   5.821   9.960
22078TIP3    H266115   5.030   5.945   9.905
22079TIP3   OH266116   5.204   6.003   9.909
22079TIP3    H166117   5.240   5.913   9.901
22079TIP3    H266118   5.238   6.025   9.999
22080TIP3   OH266119   5.778   4.657   9.997
22080TIP3    H166120   5.762   4.588  10.062
22080TIP3    H266121   5.853   4.619   9.947
22081TIP3   OH266122   6.298   4.528   9.884
22081TIP3    H166123   6.342   4.590   9.822
22081TIP3    H266124   6.221   4.579   9.911
22082TIP3   OH266125   6.405   4.644   9.661
22082TIP3    H166126   6.480   4.593   9.624
22082TIP3    H266127   6.438   4.736   9.651
22083TIP3   OH266128   4.846   4.302   9.668
22083TIP3    H166129   4.861   4.328   9.575
22083TIP3    H266130   4.751   4.319   9.679
22084TIP3   OH266131   5.489   4.397   9.899
22084TIP3    H166132   5.543   4.458   9.846
22084TIP3    H266133   5.485   4.440   9.985
22085TIP3   OH266134   6.003   4.543   9.888
22085TIP3    H166135   6.023   4.519   9.797
22085TIP3    H266136   6.002   4.457   9.933
22086TIP3   OH266137   6.047   4.463   9.439
22086TIP3    H166138   5.966   4.514   9.458
22086TIP3    H266139   6.034   4.383   9.494
22087TIP3   OH266140   4.535   5.802   9.450
22087TIP3    H166141   4.451   5.770   9.412
22087TIP3    H266142   4.522   5.898   9.437
22088TIP3   OH266143   4.931   4.398   9.422
22088TIP3    H166144   4.984   4.334   9.372
22088TIP3    H266145   5.002   4.449   9.467
22089TIP3   OH266146   5.454   4.560   9.526
22089TIP3    H166147   5.512   4.529   9.597
22089TIP3    H266148   5.452   4.655   9.546
22090TIP3   OH266149   5.306   5.999   9.027
22090TIP3    H166150   5.396   6.019   8.993
22090TIP3    H266151   5.284   5.923   8.969
22091TIP3   OH266152   6.026   6.112   9.120
22091TIP3    H166153   6.016   6.014   9.107
22091TIP3    H266154   5.980   6.145   9.040
22092TIP3   OH266155   4.611   5.834   9.088
22092TIP3    H166156   4.608   5.863   9.180
22092TIP3    H266157   4.700   5.794   9.080
22093TIP3   OH266158   7.518   5.627   9.077
22093TIP3    H166159   7.492   5.720   9.060
22093TIP3    H266160   7.438   5.581   9.046
22094TIP3   OH266161   7.511   5.627   9.450
22094TIP3    H166162   7.540   5.606   9.541
22094TIP3    H266163   7.471   5.544   9.421
22095TIP3   OH266164   6.823   5.527   9.816
22095TIP3    H166165   6.841   5.495   9.905
22095TIP3    H266166   6.901   5.582   9.796
22096TIP3   OH266167   7.753   5.925   9.136
22096TIP3    H166168   7.752   5.853   9.201
22096TIP3    H266169   7.784   5.999   9.190
22097TIP3   OH266170   6.789   5.933   9.553
22097TIP3    H166171   6.779   5.835   9.554
22097TIP3    H266172   6.885   5.940   9.540
22098TIP3   OH266173   6.496   5.140   9.335
22098TIP3    H166174   6.448   5.224   9.348
22098TIP3    H266175   6.424   5.083   9.303
22099TIP3   OH266176   6.557   5.426   9.497
22099TIP3    H166177   6.604   5.350   9.538
22099TIP3    H266178   6.615   5.448   9.424
22100TIP3   OH266179   7.375   6.376   9.135
22100TIP3    H166180   7.438   6.321   9.083
22100TIP3    H266181   7.399   6.349   9.224
22101TIP3   OH266182   7.307   5.847   9.495
22101TIP3    H166183   7.347   5.770   9.452
22101TIP3    H266184   7.388   5.899   9.512
22102TIP3   OH266185   8.300   5.178   9.494
22102TIP3    H166186   8.351   5.246   9.540
22102TIP3    H266187   8.332   5.187   9.403
22103TIP3   OH266188   7.731   5.355   9.541
22103TIP3    H166189   7.773   5.268   9.555
22103TIP3    H266190   7.701   5.345   9.449
22104TIP3   OH266191   7.062   5.016   9.504
22104TIP3    H166192   7.042   5.088   9.441
22104TIP3    H266193   7.014   4.942   9.460
22105TIP3   OH266194   7.757   5.105   9.128
22105TIP3    H166195   7.831   5.087   9.192
22105TIP3    H266196   7.808   5.142   9.054
22106TIP3   OH266197   6.700   5.221   9.608
22106TIP3    H166198   6.781   5.197   9.655
22106TIP3    H266199   6.709   5.163   9.529
22107TIP3   OH266200   7.141   5.416   9.397
22107TIP3    H166201   7.234   5.390   9.412
22107TIP3    H266202   7.102   5.331   9.367
22108TIP3   OH266203   7.063   4.998   9.938
22108TIP3    H166204   7.001   5.034   9.871
22108TIP3    H266205   7.007   4.992  10.016
22109TIP3   OH266206   7.413   5.851   8.947
22109TIP3    H166207   7.368   5.824   8.866
22109TIP3    H266208   7.371   5.938   8.965
22110TIP3   OH266209   7.137   5.776   9.734
22110TIP3    H166210   7.107   5.851   9.785
22110TIP3    H266211   7.214   5.812   9.686
22111TIP3   OH266212   7.975   5.099   9.294
22111TIP3    H166213   7.961   5.053   9.377
22111TIP3    H266214   8.019   5.181   9.324
22112TIP3   OH266215   6.932   5.113   9.723
22112TIP3    H166216   6.997   5.185   9.740
22112TIP3    H266217   6.976   5.069   9.647
22113TIP3   OH266218   6.396   5.656   9.066
22113TIP3    H166219   6.351   5.684   8.984
22113TIP3    H266220   6.423   5.742   9.105
22114TIP3   OH266221   8.109   5.078   9.666
22114TIP3    H166222   8.025   5.102   9.625
22114TIP3    H266223   8.176   5.107   9.600
22115TIP3   OH266224   7.424   4.719   9.652
22115TIP3    H166225   7.409   4.624   9.669
22115TIP3    H266226   7.345   4.757   9.696
22116TIP3   OH266227   7.553   6.229   8.995
22116TIP3    H166228   7.593   6.144   8.965
22116TIP3    H266229   7.600   6.290   8.935
22117TIP3   OH266230   7.675   6.007   8.885
22117TIP3    H166231   7.635   5.930   8.842
22117TIP3    H266232   7.707   5.967   8.969
22118TIP3   OH266233   7.348   5.479   8.904
22118TIP3    H166234   7.267   5.531   8.882
22118TIP3    H266235   7.395   5.478   8.819
22119TIP3   OH266236   7.308   5.263   8.626
22119TIP3    H166237   7.376   5.313   8.674
22119TIP3    H266238   7.365   5.199   8.578
22120TIP3   OH266239   7.696   5.562   8.879
22120TIP3    H166240   7.641   5.587   8.957
22120TIP3    H266241   7.780   5.536   8.923
22121TIP3   OH266242   6.928   5.562   9.294
22121TIP3    H166243   6.886   5.505   9.226
22121TIP3    H266244   7.006   5.509   9.321
22122TIP3   OH266245   7.058   5.973   9.444
22122TIP3    H166246   7.036   5.927   9.362
22122TIP3    H266247   7.146   5.934   9.465
22123TIP3   OH266248   7.072   5.526   9.649
22123TIP3    H166249   7.100   5.514   9.556
22123TIP3    H266250   7.103   5.618   9.669
22124TIP3   OH266251   7.540   5.419   8.704
22124TIP3    H166252   7.597   5.479   8.758
22124TIP3    H266253   7.566   5.445   8.612
22125TIP3   OH266254   7.281   6.105   8.973
22125TIP3    H166255   7.340   6.167   9.017
22125TIP3    H266256   7.212   6.163   8.939
22126TIP3   OH266257   8.053   4.663   8.751
22126TIP3    H166258   7.973   4.683   8.803
22126TIP3    H266259   8.065   4.748   8.703
22127TIP3   OH266260   6.795   5.403   9.099
22127TIP3    H166261   6.731   5.450   9.041
22127TIP3    H266262   6.749   5.320   9.114
22128TIP3   OH266263   7.849   6.030   8.298
22128TIP3    H166264   7.858   6.128   8.287
22128TIP3    H266265   7.942   6.002   8.287
22129TIP3   OH266266   6.430   5.979   9.639
22129TIP3    H166267   6.526   5.982   9.631
22129TIP3    H266268   6.410   6.056   9.694
22130TIP3   OH266269   7.158   6.348   8.781
22130TIP3    H166270   7.113   6.331   8.696
22130TIP3    H266271   7.128   6.437   8.804
22131TIP3   OH266272   6.598   6.198   9.162
22131TIP3    H166273   6.647   6.188   9.246
22131TIP3    H266274   6.532   6.127   9.172
22132TIP3   OH266275   7.362   6.248   8.420
22132TIP3    H166276   7.423   6.179   8.386
22132TIP3    H266277   7.394   6.258   8.513
22133TIP3   OH266278   7.407   6.294   8.688
22133TIP3    H166279   7.321   6.305   8.734
22133TIP3    H266280   7.461   6.256   8.759
22134TIP3   OH266281   7.183   4.800   9.771
22134TIP3    H166282   7.093   4.765   9.752
22134TIP3    H266283   7.159   4.881   9.819
22135TIP3   OH266284   7.613   5.470   8.448
22135TIP3    H166285   7.581   5.443   8.360
22135TIP3    H266286   7.690   5.524   8.424
22136TIP3   OH266287   7.328   4.844   8.750
22136TIP3    H166288   7.296   4.843   8.841
22136TIP3    H266289   7.289   4.760   8.717
22137TIP3   OH266290   7.115   5.305   9.794
22137TIP3    H166291   7.083   5.338   9.878
22137TIP3    H266292   7.101   5.384   9.736
22138TIP3   OH266293   6.997   5.194   9.311
22138TIP3    H166294   6.903   5.170   9.327
22138TIP3    H266295   7.010   5.154   9.222
22139TIP3   OH266296   7.486   5.281   9.036
22139TIP3    H166297   7.431   5.353   8.998
22139TIP3    H266298   7.540   5.255   8.959
22140TIP3   OH266299   7.644   5.312   9.280
22140TIP3    H166300   7.586   5.345   9.208
22140TIP3    H266301   7.675   5.229   9.238
22141TIP3   OH266302   6.982   4.812   8.716
22141TIP3    H166303   6.975   4.812   8.814
22141TIP3    H266304   6.903   4.865   8.693
22142TIP3   OH266305   6.526   4.869   9.580
22142TIP3    H166306   6.600   4.896   9.638
22142TIP3    H266307   6.570   4.829   9.504
22143TIP3   OH266308   6.504   4.844   9.107
22143TIP3    H166309   6.549   4.883   9.029
22143TIP3    H266310   6.442   4.916   9.128
22144TIP3   OH266311   7.641   5.558   9.694
22144TIP3    H166312   7.680   5.483   9.642
22144TIP3    H266313   7.603   5.513   9.770
22145TIP3   OH266314   7.319   5.017   9.374
22145TIP3    H166315   7.236   5.015   9.425
22145TIP3    H266316   7.385   5.022   9.445
22146TIP3   OH266317   6.758   5.073   9.382
22146TIP3    H166318   6.663   5.081   9.356
22146TIP3    H266319   6.780   4.981   9.359
22147TIP3   OH266320   7.031   5.071   9.068
22147TIP3    H166321   7.125   5.087   9.047
22147TIP3    H266322   6.984   5.095   8.985
22148TIP3   OH266323   7.814   5.094   9.566
22148TIP3    H166324   7.790   5.101   9.661
22148TIP3    H266325   7.749   5.029   9.535
22149TIP3   OH266326   6.865   5.101   8.850
22149TIP3    H166327   6.791   5.060   8.802
22149TIP3    H266328   6.917   5.137   8.774
22150TIP3   OH266329   7.407   5.344   9.467
22150TIP3    H166330   7.481   5.305   9.418
22150TIP3    H266331   7.417   5.304   9.556
22151TIP3   OH266332   6.933   4.836   9.345
22151TIP3    H166333   6.901   4.755   9.390
22151TIP3    H266334   6.989   4.800   9.274
22152TIP3   OH266335   7.385   5.241   9.744
22152TIP3    H166336   7.291   5.266   9.761
22152TIP3    H266337   7.431   5.280   9.820
22153TIP3   OH266338   7.121   5.634   8.856
22153TIP3    H166339   7.048   5.569   8.845
22153TIP3    H266340   7.103   5.668   8.947
22154TIP3   OH266341   7.579   4.948   8.711
22154TIP3    H166342   7.483   4.934   8.720
22154TIP3    H266343   7.591   5.042   8.737
22155TIP3   OH266344   7.651   5.191   8.817
22155TIP3    H166345   7.746   5.199   8.835
22155TIP3    H266346   7.632   5.272   8.765
22156TIP3   OH266347   6.816   5.655   9.534
22156TIP3    H166348   6.849   5.627   9.446
22156TIP3    H266349   6.847   5.583   9.591
22157TIP3   OH266350   7.265   5.783   8.674
22157TIP3    H166351   7.219   5.870   8.682
22157TIP3    H266352   7.211   5.729   8.734
22158TIP3   OH266353   8.092   5.279   8.656
22158TIP3    H166354   8.029   5.235   8.595
22158TIP3    H266355   8.089   5.369   8.616
22159TIP3   OH266356   7.785   6.103   8.561
22159TIP3    H166357   7.767   6.033   8.626
22159TIP3    H266358   7.801   6.054   8.479
22160TIP3   OH266359   7.774   5.731   9.400
22160TIP3    H166360   7.684   5.697   9.416
22160TIP3    H266361   7.816   5.655   9.357
22161TIP3   OH266362   6.911   5.956   9.154
22161TIP3    H166363   6.914   6.040   9.104
22161TIP3    H266364   6.816   5.945   9.164
22162TIP3   OH266365   6.475   5.263   8.856
22162TIP3    H166366   6.522   5.347   8.876
22162TIP3    H266367   6.398   5.269   8.917
22163TIP3   OH266368   7.057   5.726   9.102
22163TIP3    H166369   7.019   5.815   9.119
22163TIP3    H266370   7.019   5.676   9.177
22164TIP3   OH266371   6.834   6.197   9.009
22164TIP3    H166372   6.748   6.204   9.054
22164TIP3    H266373   6.866   6.290   9.013
22165TIP3   OH266374   7.546   5.961   9.555
22165TIP3    H166375   7.555   5.961   9.652
22165TIP3    H266376   7.628   5.913   9.532
22166TIP3   OH266377   7.542   5.825   8.466
22166TIP3    H166378   7.595   5.803   8.546
22166TIP3    H266379   7.453   5.803   8.497
22167TIP3   OH266380   7.882   6.304   8.288
22167TIP3    H166381   7.925   6.377   8.239
22167TIP3    H266382   7.803   6.351   8.319
22168TIP3   OH266383   7.703   5.764   8.685
22168TIP3    H166384   7.693   5.697   8.755
22168TIP3    H266385   7.800   5.762   8.672
22169TIP3   OH266386   6.624   6.181   9.782
22169TIP3    H166387   6.660   6.095   9.804
22169TIP3    H266388   6.640   6.231   9.863
22170TIP3   OH266389   6.913   5.810   8.464
22170TIP3    H166390   6.927   5.719   8.435
22170TIP3    H266391   6.895   5.797   8.560
22171TIP3   OH266392   6.859   5.815   8.737
22171TIP3    H166393   6.926   5.788   8.802
22171TIP3    H266394   6.863   5.913   8.743
22172TIP3   OH266395   6.596   5.511   8.941
22172TIP3    H166396   6.530   5.555   8.998
22172TIP3    H266397   6.610   5.581   8.874
22173TIP3   OH266398   7.751   5.135   9.833
22173TIP3    H166399   7.804   5.193   9.892
22173TIP3    H266400   7.699   5.088   9.898
22174TIP3   OH266401   7.621   4.900   8.994
22174TIP3    H166402   7.606   4.925   8.901
22174TIP3    H266403   7.658   4.982   9.032
22175TIP3   OH266404   7.122   6.013   8.687
22175TIP3    H166405   7.036   6.042   8.723
22175TIP3    H266406   7.140   6.084   8.624
22176TIP3   OH266407   7.314   5.074   9.098
22176TIP3    H166408   7.378   5.146   9.081
22176TIP3    H266409   7.317   5.069   9.196
22177TIP3   OH266410   7.460   4.808   9.205
22177TIP3    H166411   7.451   4.884   9.265
22177TIP3    H266412   7.518   4.847   9.135
22178TIP3   OH266413   6.863   6.088   8.752
22178TIP3    H166414   6.833   6.157   8.689
22178TIP3    H266415   6.847   6.132   8.839
22179TIP3   OH266416   6.968   4.800   8.993
22179TIP3    H166417   6.962   4.891   9.028
22179TIP3    H266418   7.064   4.785   9.002
22180TIP3   OH266419   7.865   5.491   9.272
22180TIP3    H166420   7.787   5.434   9.284
22180TIP3    H266421   7.934   5.443   9.323
22181TIP3   OH266422   6.582   5.723   8.748
22181TIP3    H166423   6.641   5.799   8.758
22181TIP3    H266424   6.631   5.672   8.680
22182TIP3   OH266425   6.530   4.995   8.879
22182TIP3    H166426   6.528   5.093   8.874
22182TIP3    H266427   6.445   4.971   8.843
22183TIP3   OH266428   6.918   4.717   9.756
22183TIP3    H166429   6.885   4.684   9.670
22183TIP3    H266430   6.906   4.639   9.814
22184TIP3   OH266431   6.458   5.931   9.140
22184TIP3    H166432   6.381   5.965   9.188
22184TIP3    H266433   6.442   5.970   9.051
22185TIP3   OH266434   7.076   6.016   8.381
22185TIP3    H166435   7.018   5.945   8.418
22185TIP3    H266436   7.150   5.962   8.349
22186TIP3   OH266437   7.512   6.057   8.288
22186TIP3    H166438   7.560   5.996   8.347
22186TIP3    H266439   7.570   6.060   8.210
22187TIP3   OH266440   6.718   5.534   8.596
22187TIP3    H166441   6.771   5.499   8.670
22187TIP3    H266442   6.787   5.538   8.526
22188TIP3   OH266443   7.224   5.729   8.404
22188TIP3    H166444   7.227   5.743   8.501
22188TIP3    H266445   7.222   5.631   8.400
22189TIP3   OH266446   6.931   5.433   8.824
22189TIP3    H166447   6.901   5.392   8.907
22189TIP3    H266448   6.963   5.357   8.773
22190TIP3   OH266449   7.025   5.224   8.664
22190TIP3    H166450   6.998   5.226   8.570
22190TIP3    H266451   7.122   5.234   8.656
22191TIP3   OH266452   7.853   5.561   8.321
22191TIP3    H166453   7.828   5.513   8.239
22191TIP3    H266454   7.821   5.651   8.297
22192TIP3   OH266455   7.330   5.066   9.973
22192TIP3    H166456   7.345   5.097   9.882
22192TIP3    H266457   7.237   5.040   9.971
22193TIP3   OH266458   6.832   6.290   8.565
22193TIP3    H166459   6.928   6.290   8.546
22193TIP3    H266460   6.801   6.337   8.485
22194TIP3   OH266461   6.314   5.672   8.784
22194TIP3    H166462   6.409   5.695   8.771
22194TIP3    H266463   6.310   5.583   8.742
22195TIP3   OH266464   6.229   6.285   9.194
22195TIP3    H166465   6.160   6.223   9.161
22195TIP3    H266466   6.271   6.229   9.263
22196TIP3   OH266467   6.365   6.141   9.381
22196TIP3    H166468   6.352   6.065   9.440
22196TIP3    H266469   6.415   6.200   9.440
22197TIP3   OH266470   7.983   5.750   8.657
22197TIP3    H166471   8.054   5.812   8.631
22197TIP3    H266472   8.023   5.708   8.736
22198TIP3   OH266473   8.106   5.615   8.857
22198TIP3    H166474   8.045   5.573   8.921
22198TIP3    H266475   8.177   5.652   8.915
22199TIP3   OH266476   8.050   5.521   8.509
22199TIP3    H166477   7.978   5.526   8.442
22199TIP3    H266478   8.024   5.598   8.565
22200TIP3   OH266479   7.922   5.194   8.463
22200TIP3    H166480   7.880   5.238   8.389
22200TIP3    H266481   7.893   5.101   8.451
22201TIP3   OH266482   7.926   5.468   9.008
22201TIP3    H166483   7.935   5.372   9.006
22201TIP3    H266484   7.912   5.485   9.104
22202TIP3   OH266485   6.556   5.544   9.751
22202TIP3    H166486   6.550   5.519   9.656
22202TIP3    H266487   6.653   5.544   9.765
22203TIP3   OH266488   7.865   4.929   8.450
22203TIP3    H166489   7.942   4.901   8.505
22203TIP3    H266490   7.793   4.871   8.480
22204TIP3   OH266491   7.921   5.185   8.906
22204TIP3    H166492   7.962   5.096   8.921
22204TIP3    H266493   7.980   5.219   8.837
22205TIP3   OH266494   8.056   5.353   9.407
22205TIP3    H166495   8.144   5.370   9.365
22205TIP3    H266496   8.074   5.381   9.497
22206TIP3   OH266497   8.031   4.935   8.941
22206TIP3    H166498   8.079   4.921   9.025
22206TIP3    H266499   7.971   4.858   8.941
22207TIP3   OH266500   6.731   4.922   9.753
22207TIP3    H166501   6.792   4.847   9.770
22207TIP3    H266502   6.792   4.997   9.754
22208TIP3   OH266503   6.543   5.193   9.839
22208TIP3    H166504   6.588   5.195   9.752
22208TIP3    H266505   6.547   5.285   9.867
22209TIP3   OH266506   8.114   4.874   8.571
22209TIP3    H166507   8.156   4.801   8.522
22209TIP3    H266508   8.182   4.945   8.565
22210TIP3   OH266509   6.516   4.698   9.332
22210TIP3    H166510   6.423   4.701   9.360
22210TIP3    H266511   6.516   4.758   9.255
22211TIP3   OH266512   7.659   6.409   8.823
22211TIP3    H166513   7.719   6.382   8.750
22211TIP3    H266514   7.725   6.431   8.891
22212TIP3   OH266515   6.735   4.757  10.122
22212TIP3    H166516   6.707   4.746  10.214
22212TIP3    H266517   6.668   4.820  10.088
22213TIP3   OH266518   6.850   6.435   9.624
22213TIP3    H166519   6.828   6.488   9.701
22213TIP3    H266520   6.851   6.502   9.553
22214TIP3   OH266521   6.544   6.291   9.540
22214TIP3    H166522   6.571   6.266   9.632
22214TIP3    H266523   6.618   6.251   9.490
22215TIP3   OH266524   6.735   6.160   9.393
22215TIP3    H166525   6.753   6.079   9.445
22215TIP3    H266526   6.823   6.201   9.388
22216TIP3   OH266527   7.002   6.259   9.389
22216TIP3    H166528   7.036   6.168   9.394
22216TIP3    H266529   7.007   6.288   9.481
22217TIP3   OH266530   7.579   4.913   9.488
22217TIP3    H166531   7.534   4.845   9.541
22217TIP3    H266532   7.649   4.863   9.444
22218TIP3   OH266533   8.110   4.787   9.392
22218TIP3    H166534   8.141   4.845   9.319
22218TIP3    H266535   8.015   4.809   9.395
22219TIP3   OH266536   8.200   4.895   9.158
22219TIP3    H166537   8.273   4.846   9.115
22219TIP3    H266538   8.228   4.988   9.141
22220TIP3   OH266539   6.829   4.623   9.506
22220TIP3    H166540   6.737   4.589   9.506
22220TIP3    H266541   6.879   4.539   9.504
22221TIP3   OH266542   6.615   4.490   9.148
22221TIP3    H166543   6.642   4.552   9.078
22221TIP3    H266544   6.585   4.552   9.218
22222TIP3   OH266545   7.268   4.656   9.382
22222TIP3    H166546   7.330   4.711   9.331
22222TIP3    H266547   7.282   4.689   9.472
22223TIP3   OH266548   7.824   4.800   9.372
22223TIP3    H166549   7.816   4.767   9.281
22223TIP3    H266550   7.806   4.719   9.424
22224TIP3   OH266551   7.847   4.720   8.930
22224TIP3    H166552   7.761   4.765   8.940
22224TIP3    H266553   7.832   4.638   8.981
22225TIP3   OH266554   6.332   6.058   8.935
22225TIP3    H166555   6.248   6.025   8.900
22225TIP3    H266556   6.318   6.153   8.925
22226TIP3   OH266557   6.728   4.652   8.920
22226TIP3    H166558   6.778   4.594   8.860
22226TIP3    H266559   6.799   4.708   8.957
22227TIP3   OH266560   7.244   4.823   9.019
22227TIP3    H166561   7.307   4.780   9.079
22227TIP3    H266562   7.264   4.917   9.041
22228TIP3   OH266563   7.102   6.256   8.514
22228TIP3    H166564   7.192   6.276   8.480
22228TIP3    H266565   7.081   6.179   8.456
22229TIP3   OH266566   7.828   6.370   8.604
22229TIP3    H166567   7.819   6.273   8.590
22229TIP3    H266568   7.784   6.405   8.524
22230TIP3   OH266569   6.408   6.092   8.574
22230TIP3    H166570   6.403   6.118   8.667
22230TIP3    H266571   6.497   6.051   8.567
22231TIP3   OH266572   8.288   5.392   8.821
22231TIP3    H166573   8.246   5.478   8.836
22231TIP3    H266574   8.213   5.341   8.786
22232TIP3   OH266575   8.351   5.678   8.962
22232TIP3    H166576   8.411   5.620   9.011
22232TIP3    H266577   8.410   5.717   8.896
22233TIP3   OH266578   8.883   5.240   8.964
22233TIP3    H166579   8.879   5.326   8.919
22233TIP3    H266580   8.801   5.199   8.931
22234TIP3   OH266581   8.465   5.442   9.098
22234TIP3    H166582   8.560   5.438   9.120
22234TIP3    H266583   8.469   5.398   9.010
22235TIP3   OH266584   8.190   5.914   8.554
22235TIP3    H166585   8.146   5.943   8.473
22235TIP3    H266586   8.219   6.000   8.593
22236TIP3   OH266587   9.104   5.518   8.111
22236TIP3    H166588   9.166   5.565   8.167
22236TIP3    H266589   9.163   5.457   8.062
22237TIP3   OH266590   9.846   4.921   8.236
22237TIP3    H166591   9.767   4.935   8.292
22237TIP3    H266592   9.841   4.997   8.176
22238TIP3   OH266593   8.585   5.639   8.560
22238TIP3    H166594   8.515   5.695   8.519
22238TIP3    H266595   8.534   5.574   8.609
22239TIP3   OH266596   9.411   5.728   7.926
22239TIP3    H166597   9.380   5.693   7.840
22239TIP3    H266598   9.467   5.801   7.899
22240TIP3   OH266599   9.130   5.102   8.233
22240TIP3    H166600   9.096   5.100   8.325
22240TIP3    H266601   9.089   5.020   8.199
22241TIP3   OH266602   8.787   5.433   8.775
22241TIP3    H166603   8.695   5.421   8.803
22241TIP3    H266604   8.785   5.393   8.686
22242TIP3   OH266605   8.778   5.073   8.202
22242TIP3    H166606   8.771   5.068   8.300
22242TIP3    H266607   8.697   5.124   8.181
22243TIP3   OH266608   8.310   5.121   9.062
22243TIP3    H166609   8.383   5.143   9.123
22243TIP3    H266610   8.355   5.086   8.984
22244TIP3   OH266611   8.299   5.099   8.592
22244TIP3    H166612   8.347   5.139   8.516
22244TIP3    H266613   8.239   5.173   8.615
22245TIP3   OH266614   8.549   5.320   8.862
22245TIP3    H166615   8.456   5.327   8.830
22245TIP3    H266616   8.577   5.231   8.834
22246TIP3   OH266617   8.811   5.306   8.538
22246TIP3    H166618   8.900   5.341   8.518
22246TIP3    H266619   8.756   5.341   8.464
22247TIP3   OH266620   8.653   5.360   8.330
22247TIP3    H166621   8.580   5.318   8.280
22247TIP3    H266622   8.707   5.395   8.256
22248TIP3   OH266623   8.704   5.086   8.817
22248TIP3    H166624   8.689   5.006   8.871
22248TIP3    H266625   8.778   5.060   8.760
22249TIP3   OH266626   8.883   5.888   8.342
22249TIP3    H166627   8.831   5.805   8.343
22249TIP3    H266628   8.893   5.904   8.437
22250TIP3   OH266629   9.375   5.225   8.207
22250TIP3    H166630   9.280   5.199   8.204
22250TIP3    H266631   9.374   5.317   8.180
22251TIP3   OH266632   8.269   5.519   8.342
22251TIP3    H166633   8.318   5.602   8.363
22251TIP3    H266634   8.194   5.526   8.405
22252TIP3   OH266635   8.705   6.066   7.952
22252TIP3    H166636   8.722   5.977   7.916
22252TIP3    H266637   8.682   6.044   8.045
22253TIP3   OH266638   8.638   6.059   8.222
22253TIP3    H166639   8.687   6.002   8.284
22253TIP3    H266640   8.661   6.147   8.256
22254TIP3   OH266641   8.383   5.766   8.426
22254TIP3    H166642   8.320   5.813   8.485
22254TIP3    H266643   8.401   5.837   8.361
22255TIP3   OH266644   9.430   5.132   8.462
22255TIP3    H166645   9.414   5.168   8.372
22255TIP3    H266646   9.436   5.213   8.515
22256TIP3   OH266647   9.080   5.357   8.562
22256TIP3    H166648   9.177   5.366   8.561
22256TIP3    H266649   9.054   5.398   8.646
22257TIP3   OH266650   9.246   5.035   8.696
22257TIP3    H166651   9.277   5.091   8.768
22257TIP3    H266652   9.305   5.069   8.625
22258TIP3   OH266653   8.762   5.048   8.476
22258TIP3    H166654   8.759   5.140   8.510
22258TIP3    H266655   8.858   5.031   8.487
22259TIP3   OH266656   8.372   5.977   8.231
22259TIP3    H166657   8.432   6.052   8.240
22259TIP3    H266658   8.423   5.923   8.167
22260TIP3   OH266659   8.327   5.251   8.363
22260TIP3    H166660   8.326   5.349   8.360
22260TIP3    H266661   8.238   5.229   8.333
22261TIP3   OH266662   8.697   4.972   9.253
22261TIP3    H166663   8.691   4.950   9.158
22261TIP3    H266664   8.713   4.884   9.292
22262TIP3   OH266665   8.245   6.175   8.632
22262TIP3    H166666   8.179   6.226   8.681
22262TIP3    H266667   8.255   6.231   8.553
22263TIP3   OH266668   8.852   6.273   7.847
22263TIP3    H166669   8.801   6.201   7.891
22263TIP3    H266670   8.942   6.253   7.878
22264TIP3   OH266671   8.515   5.789   8.084
22264TIP3    H166672   8.566   5.751   8.159
22264TIP3    H266673   8.585   5.793   8.016
22265TIP3   OH266674   9.014   5.985   7.889
22265TIP3    H166675   9.010   5.998   7.985
22265TIP3    H266676   9.020   5.887   7.884
22266TIP3   OH266677   8.708   5.682   8.308
22266TIP3    H166678   8.685   5.651   8.399
22266TIP3    H266679   8.745   5.602   8.267
22267TIP3   OH266680   8.822   5.478   8.150
22267TIP3    H166681   8.794   5.482   8.057
22267TIP3    H266682   8.919   5.491   8.142
22268TIP3   OH266683   8.107   5.929   8.267
22268TIP3    H166684   8.202   5.951   8.258
22268TIP3    H266685   8.105   5.839   8.229
22269TIP3   OH266686   9.656   5.464   7.940
22269TIP3    H166687   9.660   5.483   7.845
22269TIP3    H266688   9.639   5.367   7.936
22270TIP3   OH266689   9.626   5.198   7.930
22270TIP3    H166690   9.717   5.172   7.955
22270TIP3    H266691   9.571   5.124   7.960
22271TIP3   OH266692   8.503   5.156   9.250
22271TIP3    H166693   8.565   5.081   9.257
22271TIP3    H266694   8.566   5.224   9.217
22272TIP3   OH266695   8.300   5.418   9.319
22272TIP3    H166696   8.335   5.408   9.228
22272TIP3    H266697   8.330   5.510   9.336
22273TIP3   OH266698   9.885   5.155   7.999
22273TIP3    H166699   9.933   5.078   7.964
22273TIP3    H266700   9.951   5.189   8.062
22274TIP3   OH266701   8.312   4.955   8.819
22274TIP3    H166702   8.218   4.957   8.845
22274TIP3    H266703   8.313   5.015   8.742
22275TIP3   OH266704   8.628   4.880   8.996
22275TIP3    H166705   8.535   4.850   8.995
22275TIP3    H266706   8.675   4.794   8.992
22276TIP3   OH266707   8.409   4.746   8.638
22276TIP3    H166708   8.440   4.806   8.568
22276TIP3    H266709   8.379   4.810   8.706
22277TIP3   OH266710   9.063   4.905   8.876
22277TIP3    H166711   9.123   4.950   8.815
22277TIP3    H266712   9.054   4.967   8.950
22278TIP3   OH266713   9.631   4.969   8.387
22278TIP3    H166714   9.553   5.024   8.404
22278TIP3    H266715   9.611   4.890   8.442
22279TIP3   OH266716   8.137   6.304   8.404
22279TIP3    H166717   8.048   6.275   8.376
22279TIP3    H266718   8.117   6.394   8.432
22280TIP3   OH266719   8.524   4.908   8.404
22280TIP3    H166720   8.575   4.847   8.348
22280TIP3    H266721   8.594   4.963   8.443
22281TIP3   OH266722   9.042   5.082   8.500
22281TIP3    H166723   9.102   5.043   8.566
22281TIP3    H266724   9.047   5.177   8.524
22282TIP3   OH266725   8.207   6.351   8.060
22282TIP3    H166726   8.188   6.367   8.154
22282TIP3    H266727   8.293   6.305   8.062
22283TIP3   OH266728   2.099   7.079   9.472
22283TIP3    H166729   2.110   7.174   9.451
22283TIP3    H266730   2.188   7.044   9.450
22284TIP3   OH266731   1.855   6.528   9.607
22284TIP3    H166732   1.841   6.470   9.530
22284TIP3    H266733   1.943   6.566   9.585
22285TIP3   OH266734   2.110   7.144   9.737
22285TIP3    H166735   2.120   7.068   9.796
22285TIP3    H266736   2.124   7.103   9.648
22286TIP3   OH266737   1.809   6.856   9.622
22286TIP3    H166738   1.857   6.806   9.691
22286TIP3    H266739   1.721   6.863   9.664
22287TIP3   OH266740   2.128   7.361   9.461
22287TIP3    H166741   2.137   7.410   9.376
22287TIP3    H266742   2.037   7.386   9.482
22288TIP3   OH266743   1.750   7.083   9.458
22288TIP3    H166744   1.818   7.040   9.511
22288TIP3    H266745   1.801   7.119   9.383
22289TIP3   OH266746   1.440   6.761   9.584
22289TIP3    H166747   1.444   6.783   9.679
22289TIP3    H266748   1.503   6.687   9.575
22290TIP3   OH266749   2.094   6.608   9.504
22290TIP3    H166750   2.082   6.556   9.422
22290TIP3    H266751   2.066   6.697   9.470
22291TIP3   OH266752   2.312   6.579   9.672
22291TIP3    H166753   2.228   6.590   9.622
22291TIP3    H266754   2.293   6.621   9.757
22292TIP3   OH266755   2.165   6.240   9.653
22292TIP3    H166756   2.138   6.298   9.581
22292TIP3    H266757   2.142   6.153   9.619
22293TIP3   OH266758   3.562   6.931   9.744
22293TIP3    H166759   3.535   7.023   9.721
22293TIP3    H266760   3.486   6.882   9.707
22294TIP3   OH266761   3.796   7.231   9.800
22294TIP3    H166762   3.803   7.158   9.863
22294TIP3    H266763   3.837   7.304   9.850
22295TIP3   OH266764   3.430   7.682   9.795
22295TIP3    H166765   3.495   7.612   9.780
22295TIP3    H266766   3.400   7.671   9.887
22296TIP3   OH266767   4.368   6.459  10.152
22296TIP3    H166768   4.375   6.532  10.214
22296TIP3    H266769   4.393   6.502  10.069
22297TIP3   OH266770   3.804   6.397   9.792
22297TIP3    H166771   3.878   6.387   9.856
22297TIP3    H266772   3.850   6.444   9.720
22298TIP3   OH266773   3.456   7.149   9.611
22298TIP3    H166774   3.415   7.127   9.526
22298TIP3    H266775   3.418   7.236   9.630
22299TIP3   OH266776   4.023   6.407   9.957
22299TIP3    H166777   4.023   6.378  10.050
22299TIP3    H266778   4.075   6.489   9.966
22300TIP3   OH266779   3.871   7.453   9.975
22300TIP3    H166780   3.777   7.452  10.003
22300TIP3    H266781   3.875   7.538   9.926
22301TIP3   OH266782   3.585   7.509   9.646
22301TIP3    H166783   3.639   7.433   9.616
22301TIP3    H266784   3.641   7.581   9.608
22302TIP3   OH266785   3.726   7.300   9.542
22302TIP3    H166786   3.688   7.221   9.503
22302TIP3    H266787   3.755   7.268   9.631
22303TIP3   OH266788   3.393   6.784   9.567
22303TIP3    H166789   3.312   6.832   9.542
22303TIP3    H266790   3.441   6.779   9.483
22304TIP3   OH266791   3.354   6.565   9.289
22304TIP3    H166792   3.423   6.614   9.336
22304TIP3    H266793   3.409   6.499   9.242
22305TIP3   OH266794   4.298   7.004  10.130
22305TIP3    H166795   4.229   7.060  10.168
22305TIP3    H266796   4.326   7.058  10.053
22306TIP3   OH266797   3.740   6.863   9.545
22306TIP3    H166798   3.687   6.889   9.624
22306TIP3    H266799   3.824   6.836   9.588
22307TIP3   OH266800   2.976   6.862   9.936
22307TIP3    H166801   2.923   6.805   9.877
22307TIP3    H266802   3.030   6.797   9.982
22308TIP3   OH266803   3.098   7.314  10.015
22308TIP3    H166804   3.068   7.222  10.006
22308TIP3    H266805   3.152   7.299  10.097
22309TIP3   OH266806   3.622   7.448  10.091
22309TIP3    H166807   3.535   7.488  10.105
22309TIP3    H266808   3.621   7.373  10.153
22310TIP3   OH266809   3.584   6.722   9.368
22310TIP3    H166810   3.642   6.781   9.421
22310TIP3    H266811   3.610   6.747   9.276
22311TIP3   OH266812   3.306   7.427   9.664
22311TIP3    H166813   3.395   7.466   9.673
22311TIP3    H266814   3.267   7.484   9.597
22312TIP3   OH266815   4.098   5.965   9.414
22312TIP3    H166816   4.017   5.985   9.466
22312TIP3    H266817   4.110   6.050   9.366
22313TIP3   OH266818   2.839   6.700   9.761
22313TIP3    H166819   2.771   6.741   9.703
22313TIP3    H266820   2.786   6.634   9.808
22314TIP3   OH266821   3.894   7.333   8.961
22314TIP3    H166822   3.903   7.430   8.950
22314TIP3    H266823   3.987   7.304   8.950
22315TIP3   OH266824   3.198   7.642   9.443
22315TIP3    H166825   3.162   7.626   9.354
22315TIP3    H266826   3.164   7.730   9.464
22316TIP3   OH266827   3.407   7.548   9.085
22316TIP3    H166828   3.468   7.480   9.050
22316TIP3    H266829   3.439   7.559   9.177
22317TIP3   OH266830   3.455   7.594   9.356
22317TIP3    H166831   3.370   7.609   9.403
22317TIP3    H266832   3.514   7.569   9.429
22318TIP3   OH266833   3.658   6.772   9.113
22318TIP3    H166834   3.625   6.744   9.025
22318TIP3    H266835   3.736   6.825   9.087
22319TIP3   OH266836   3.374   6.146   9.411
22319TIP3    H166837   3.341   6.145   9.503
22319TIP3    H266838   3.332   6.064   9.378
22320TIP3   OH266839   3.529   6.585   9.697
22320TIP3    H166840   3.476   6.657   9.658
22320TIP3    H266841   3.586   6.559   9.623
22321TIP3   OH266842   3.703   6.625   9.930
22321TIP3    H166843   3.631   6.646   9.869
22321TIP3    H266844   3.722   6.533   9.903
22322TIP3   OH266845   3.027   6.117   9.382
22322TIP3    H166846   3.019   6.110   9.479
22322TIP3    H266847   2.943   6.162   9.361
22323TIP3   OH266848   2.539   6.155   9.761
22323TIP3    H166849   2.596   6.196   9.693
22323TIP3    H266850   2.528   6.225   9.826
22324TIP3   OH266851   3.087   6.357   9.718
22324TIP3    H166852   3.171   6.400   9.697
22324TIP3    H266853   3.024   6.395   9.653
22325TIP3   OH266854   2.906   6.409   9.514
22325TIP3    H166855   2.830   6.365   9.472
22325TIP3    H266856   2.957   6.437   9.435
22326TIP3   OH266857   3.163   6.938   9.519
22326TIP3    H166858   3.094   6.868   9.508
22326TIP3    H266859   3.149   6.966   9.612
22327TIP3   OH266860   4.060   7.167  10.165
22327TIP3    H166861   4.098   7.223  10.093
22327TIP3    H266862   3.983   7.128  10.119
22328TIP3   OH266863   3.625   6.250   9.375
22328TIP3    H166864   3.528   6.234   9.384
22328TIP3    H266865   3.635   6.343   9.401
22329TIP3   OH266866   3.695   6.493   9.482
22329TIP3    H166867   3.791   6.499   9.499
22329TIP3    H266868   3.678   6.573   9.428
22330TIP3   OH266869   3.310   7.085   9.339
22330TIP3    H166870   3.263   7.172   9.345
22330TIP3    H266871   3.255   7.030   9.397
22331TIP3   OH266872   4.138   6.580   9.320
22331TIP3    H166873   4.074   6.536   9.259
22331TIP3    H266874   4.135   6.669   9.279
22332TIP3   OH266875   3.833   7.403   9.225
22332TIP3    H166876   3.811   7.335   9.290
22332TIP3    H266877   3.846   7.353   9.143
22333TIP3   OH266878   3.832   7.033  10.072
22333TIP3    H166879   3.743   6.996  10.078
22333TIP3    H266880   3.877   6.959  10.025
22334TIP3   OH266881   2.525   6.568   9.512
22334TIP3    H166882   2.572   6.649   9.539
22334TIP3    H266883   2.448   6.571   9.574
22335TIP3   OH266884   3.110   7.030   9.771
22335TIP3    H166885   3.073   7.118   9.785
22335TIP3    H266886   3.059   6.974   9.834
22336TIP3   OH266887   3.587   7.127   9.129
22336TIP3    H166888   3.640   7.104   9.209
22336TIP3    H266889   3.498   7.104   9.160
22337TIP3   OH266890   3.930   7.607   8.950
22337TIP3    H166891   3.969   7.681   8.900
22337TIP3    H266892   3.849   7.653   8.983
22338TIP3   OH266893   3.747   7.064   9.349
22338TIP3    H166894   3.738   6.997   9.419
22338TIP3    H266895   3.844   7.063   9.336
22339TIP3   OH266896   2.957   7.111   9.127
22339TIP3    H166897   2.972   7.020   9.097
22339TIP3    H266898   2.937   7.097   9.222
22340TIP3   OH266899   2.903   7.117   9.400
22340TIP3    H166900   2.973   7.085   9.458
22340TIP3    H266901   2.911   7.214   9.409
22341TIP3   OH266902   2.637   6.814   9.607
22341TIP3    H166903   2.581   6.850   9.677
22341TIP3    H266904   2.643   6.890   9.545
22342TIP3   OH266905   3.668   6.197   9.656
22342TIP3    H166906   3.650   6.225   9.564
22342TIP3    H266907   3.705   6.280   9.695
22343TIP3   OH266908   3.167   7.315   9.353
22343TIP3    H166909   3.081   7.348   9.385
22343TIP3    H266910   3.189   7.383   9.288
22344TIP3   OH266911   3.379   6.364   9.746
22344TIP3    H166912   3.438   6.440   9.728
22344TIP3    H266913   3.350   6.385   9.838
22345TIP3   OH266914   3.509   6.107   9.859
22345TIP3    H166915   3.506   6.177   9.926
22345TIP3    H266916   3.562   6.151   9.789
22346TIP3   OH266917   2.906   7.393   9.415
22346TIP3    H166918   2.880   7.449   9.338
22346TIP3    H266919   2.885   7.455   9.487
22347TIP3   OH266920   3.022   6.098   9.661
22347TIP3    H166921   3.014   6.191   9.693
22347TIP3    H266922   3.120   6.090   9.666
22348TIP3   OH266923   3.915   6.799   9.942
22348TIP3    H166924   3.840   6.736   9.952
22348TIP3    H266925   3.988   6.751   9.987
22349TIP3   OH266926   2.627   7.024   9.417
22349TIP3    H166927   2.689   7.099   9.419
22349TIP3    H266928   2.671   6.970   9.347
22350TIP3   OH266929   2.584   6.302   9.523
22350TIP3    H166930   2.571   6.398   9.528
22350TIP3    H266931   2.494   6.268   9.526
22351TIP3   OH266932   3.886   7.698   9.863
22351TIP3    H166933   3.846   7.760   9.799
22351TIP3    H266934   3.980   7.723   9.856
22352TIP3   OH266935   2.526   7.214   9.813
22352TIP3    H166936   2.456   7.162   9.856
22352TIP3    H266937   2.513   7.190   9.720
22353TIP3   OH266938   3.121   7.316   9.045
22353TIP3    H166939   3.063   7.244   9.080
22353TIP3    H266940   3.195   7.264   9.011
22354TIP3   OH266941   3.557   7.358   8.951
22354TIP3    H166942   3.605   7.297   9.010
22354TIP3    H266943   3.615   7.361   8.873
22355TIP3   OH266944   2.761   6.836   9.258
22355TIP3    H166945   2.810   6.798   9.333
22355TIP3    H266946   2.832   6.839   9.190
22356TIP3   OH266947   3.268   7.030   9.068
22356TIP3    H166948   3.272   7.043   9.165
22356TIP3    H266949   3.267   6.932   9.063
22357TIP3   OH266950   2.980   6.733   9.493
22357TIP3    H166951   2.939   6.692   9.571
22357TIP3    H266952   3.008   6.655   9.441
22358TIP3   OH266953   3.070   6.527   9.326
22358TIP3    H166954   3.043   6.527   9.232
22358TIP3    H266955   3.167   6.536   9.318
22359TIP3   OH266956   3.898   6.862   8.984
22359TIP3    H166957   3.874   6.814   8.903
22359TIP3    H266958   3.865   6.952   8.960
22360TIP3   OH266959   2.877   7.586   9.226
22360TIP3    H166960   2.973   7.595   9.212
22360TIP3    H266961   2.846   7.637   9.149
22361TIP3   OH266962   2.348   6.982   9.415
22361TIP3    H166963   2.441   7.003   9.435
22361TIP3    H266964   2.353   6.887   9.393
22362TIP3   OH266965   4.128   7.837   9.852
22362TIP3    H166966   4.182   7.883   9.917
22362TIP3    H266967   4.150   7.888   9.772
22363TIP3   OH266968   4.028   7.049   9.322
22363TIP3    H166969   4.098   7.112   9.296
22363TIP3    H266970   4.069   7.008   9.401
22364TIP3   OH266971   4.155   6.916   9.524
22364TIP3    H166972   4.090   6.874   9.584
22364TIP3    H266973   4.218   6.957   9.587
22365TIP3   OH266974   4.183   7.292   9.951
22365TIP3    H166975   4.259   7.241   9.918
22365TIP3    H266976   4.188   7.373   9.897
22366TIP3   OH266977   4.052   7.622  10.123
22366TIP3    H166978   3.992   7.640  10.196
22366TIP3    H266979   4.006   7.550  10.075
22367TIP3   OH266980   4.095   6.823   9.172
22367TIP3    H166981   4.023   6.827   9.105
22367TIP3    H266982   4.068   6.899   9.228
22368TIP3   OH266983   3.967   6.496   9.127
22368TIP3    H166984   3.924   6.538   9.051
22368TIP3    H266985   3.938   6.403   9.116
22369TIP3   OH266986   3.971   6.771   9.674
22369TIP3    H166987   3.979   6.674   9.671
22369TIP3    H266988   3.957   6.787   9.770
22370TIP3   OH266989   3.910   6.231   9.115
22370TIP3    H166990   3.986   6.201   9.168
22370TIP3    H266991   3.838   6.172   9.143
22371TIP3   OH266992   3.965   6.487   9.568
22371TIP3    H166993   4.005   6.398   9.584
22371TIP3    H266994   4.026   6.520   9.500
22372TIP3   OH266995   4.130   6.670  10.052
22372TIP3    H166996   4.220   6.696  10.021
22372TIP3    H266997   4.135   6.698  10.144
22373TIP3   OH266998   4.076   6.237   9.603
22373TIP3    H166999   4.126   6.223   9.687
22373TIP3    H267000   4.016   6.160   9.604
22374TIP3   OH267001   4.159   6.175   9.235
22374TIP3    H167002   4.200   6.101   9.186
22374TIP3    H267003   4.227   6.245   9.228
22375TIP3   OH267004   3.737   7.677   9.502
22375TIP3    H167005   3.787   7.678   9.418
22375TIP3    H267006   3.745   7.769   9.531
22376TIP3   OH267007   4.149   6.111  10.054
22376TIP3    H167008   4.192   6.154   9.977
22376TIP3    H267009   4.056   6.126  10.033
22377TIP3   OH267010   4.245   6.196   9.817
22377TIP3    H167011   4.320   6.148   9.776
22377TIP3    H267012   4.276   6.289   9.806
22378TIP3   OH267013   3.880   6.102   9.996
22378TIP3    H167014   3.861   6.091   9.902
22378TIP3    H267015   3.895   6.010  10.025
22379TIP3   OH267016   3.893   6.024   9.594
22379TIP3    H167017   3.805   6.065   9.601
22379TIP3    H267018   3.879   5.938   9.639
22380TIP3   OH267019   2.369   7.321   9.596
22380TIP3    H167020   2.285   7.303   9.551
22380TIP3    H267021   2.383   7.414   9.569
22381TIP3   OH267022   2.776   5.978   9.547
22381TIP3    H167023   2.822   5.894   9.534
22381TIP3    H267024   2.823   6.011   9.626
22382TIP3   OH267025   3.296   6.116   9.680
22382TIP3    H167026   3.366   6.089   9.742
22382TIP3    H267027   3.303   6.214   9.694
22383TIP3   OH267028   3.149   7.555   9.180
22383TIP3    H167029   3.237   7.578   9.144
22383TIP3    H267030   3.126   7.481   9.120
22384TIP3   OH267031   3.871   7.670   9.264
22384TIP3    H167032   3.858   7.573   9.254
22384TIP3    H267033   3.822   7.703   9.186
22385TIP3   OH267034   2.449   7.384   9.236
22385TIP3    H167035   2.454   7.442   9.313
22385TIP3    H267036   2.539   7.346   9.229
22386TIP3   OH267037   5.359   7.185   9.227
22386TIP3    H167038   5.334   7.278   9.211
22386TIP3    H267039   5.280   7.140   9.196
22387TIP3   OH267040   5.353   7.187   9.603
22387TIP3    H167041   5.381   7.161   9.694
22387TIP3    H267042   5.314   7.104   9.571
22388TIP3   OH267043   4.663   7.080   9.965
22388TIP3    H167044   4.669   7.055  10.058
22388TIP3    H267045   4.737   7.140   9.953
22389TIP3   OH267046   5.595   7.486   9.284
22389TIP3    H167047   5.592   7.417   9.352
22389TIP3    H267048   5.629   7.562   9.336
22390TIP3   OH267049   4.629   7.491   9.707
22390TIP3    H167050   4.621   7.393   9.706
22390TIP3    H267051   4.724   7.501   9.687
22391TIP3   OH267052   4.337   6.699   9.485
22391TIP3    H167053   4.287   6.782   9.498
22391TIP3    H267054   4.266   6.640   9.454
22392TIP3   OH267055   4.398   6.984   9.648
22392TIP3    H167056   4.444   6.907   9.689
22392TIP3    H267057   4.456   7.003   9.573
22393TIP3   OH267058   5.251   7.952   9.304
22393TIP3    H167059   5.299   7.881   9.256
22393TIP3    H267060   5.239   7.912   9.390
22394TIP3   OH267061   5.158   7.410   9.655
22394TIP3    H167062   5.192   7.332   9.608
22394TIP3    H267063   5.243   7.454   9.675
22395TIP3   OH267064   6.169   6.744   9.654
22395TIP3    H167065   6.161   6.835   9.684
22395TIP3    H267066   6.189   6.757   9.560
22396TIP3   OH267067   5.571   6.916   9.691
22396TIP3    H167068   5.613   6.829   9.706
22396TIP3    H267069   5.538   6.904   9.600
22397TIP3   OH267070   4.902   6.574   9.655
22397TIP3    H167071   4.882   6.646   9.591
22397TIP3    H267072   4.856   6.499   9.610
22398TIP3   OH267073   5.598   6.663   9.279
22398TIP3    H167074   5.671   6.646   9.343
22398TIP3    H267075   5.650   6.700   9.205
22399TIP3   OH267076   4.541   6.779   9.758
22399TIP3    H167077   4.622   6.755   9.807
22399TIP3    H267078   4.550   6.720   9.680
22400TIP3   OH267079   4.982   6.974   9.548
22400TIP3    H167080   5.075   6.947   9.563
22400TIP3    H267081   4.942   6.889   9.518
22401TIP3   OH267082   4.905   6.558  10.090
22401TIP3    H167083   4.843   6.593  10.023
22401TIP3    H267084   4.849   6.553  10.169
22402TIP3   OH267085   5.257   7.410   9.095
22402TIP3    H167086   5.207   7.381   9.017
22402TIP3    H267087   5.212   7.494   9.117
22403TIP3   OH267088   4.989   7.331   9.886
22403TIP3    H167089   4.938   7.405   9.920
22403TIP3    H267090   5.053   7.373   9.827
22404TIP3   OH267091   5.815   6.663   9.444
22404TIP3    H167092   5.807   6.614   9.527
22404TIP3    H267093   5.866   6.741   9.472
22405TIP3   OH267094   4.774   6.672   9.874
22405TIP3    H167095   4.840   6.743   9.889
22405TIP3    H267096   4.817   6.626   9.798
22406TIP3   OH267097   4.237   7.214   9.216
22406TIP3    H167098   4.191   7.241   9.135
22406TIP3    H267099   4.264   7.299   9.255
22407TIP3   OH267100   5.666   7.703   9.435
22407TIP3    H167101   5.584   7.704   9.490
22407TIP3    H267102   5.667   7.795   9.405
22408TIP3   OH267103   5.956   6.627   9.804
22408TIP3    H167104   5.873   6.670   9.780
22408TIP3    H267105   6.021   6.666   9.744
22409TIP3   OH267106   5.264   6.277   9.802
22409TIP3    H167107   5.250   6.181   9.819
22409TIP3    H267108   5.184   6.314   9.847
22410TIP3   OH267109   5.377   7.779   9.130
22410TIP3    H167110   5.428   7.697   9.112
22410TIP3    H267111   5.438   7.845   9.089
22411TIP3   OH267112   5.521   7.564   9.033
22411TIP3    H167113   5.474   7.486   8.999
22411TIP3    H267114   5.553   7.530   9.119
22412TIP3   OH267115   5.189   7.037   9.054
22412TIP3    H167116   5.108   7.088   9.032
22412TIP3    H267117   5.236   7.035   8.969
22413TIP3   OH267118   5.149   6.822   8.776
22413TIP3    H167119   5.217   6.870   8.825
22413TIP3    H267120   5.204   6.756   8.729
22414TIP3   OH267121   6.094   7.261   9.634
22414TIP3    H167122   6.018   7.321   9.646
22414TIP3    H267123   6.132   7.299   9.551
22415TIP3   OH267124   5.537   7.120   9.030
22415TIP3    H167125   5.482   7.146   9.108
22415TIP3    H267126   5.620   7.094   9.074
22416TIP3   OH267127   4.769   7.120   9.444
22416TIP3    H167128   4.727   7.062   9.377
22416TIP3    H267129   4.847   7.066   9.472
22417TIP3   OH267130   4.894   7.523   9.596
22417TIP3    H167131   4.878   7.480   9.511
22417TIP3    H267132   4.987   7.498   9.614
22418TIP3   OH267133   4.916   7.085   9.799
22418TIP3    H167134   4.942   7.073   9.706
22418TIP3    H267135   4.950   7.174   9.820
22419TIP3   OH267136   5.438   7.721   9.575
22419TIP3    H167137   5.403   7.802   9.618
22419TIP3    H267138   5.415   7.650   9.638
22420TIP3   OH267139   5.381   6.978   8.854
22420TIP3    H167140   5.438   7.037   8.908
22420TIP3    H267141   5.407   7.004   8.763
22421TIP3   OH267142   5.118   7.660   9.128
22421TIP3    H167143   5.194   7.715   9.153
22421TIP3    H267144   5.055   7.725   9.094
22422TIP3   OH267145   5.894   6.221   8.901
22422TIP3    H167146   5.813   6.239   8.954
22422TIP3    H267147   5.904   6.306   8.854
22423TIP3   OH267148   4.636   6.961   9.250
22423TIP3    H167149   4.571   7.006   9.192
22423TIP3    H267150   4.592   6.877   9.265
22424TIP3   OH267151   5.690   7.589   8.448
22424TIP3    H167152   5.700   7.687   8.436
22424TIP3    H267153   5.783   7.560   8.437
22425TIP3   OH267154   4.268   7.536   9.791
22425TIP3    H167155   4.363   7.533   9.778
22425TIP3    H267156   4.254   7.614   9.845
22426TIP3   OH267157   5.001   7.907   8.930
22426TIP3    H167158   4.953   7.887   8.847
22426TIP3    H267159   4.968   7.996   8.953
22427TIP3   OH267160   4.440   7.755   9.312
22427TIP3    H167161   4.488   7.746   9.397
22427TIP3    H267162   4.373   7.685   9.323
22428TIP3   OH267163   5.204   7.806   8.573
22428TIP3    H167164   5.264   7.737   8.537
22428TIP3    H267165   5.236   7.814   8.665
22429TIP3   OH267166   5.253   7.853   8.844
22429TIP3    H167167   5.164   7.863   8.885
22429TIP3    H267168   5.301   7.808   8.917
22430TIP3   OH267169   5.022   6.358   9.921
22430TIP3    H167170   4.933   6.323   9.901
22430TIP3    H267171   4.997   6.440   9.968
22431TIP3   OH267172   5.454   7.030   8.598
22431TIP3    H167173   5.422   7.001   8.511
22431TIP3    H267174   5.532   7.082   8.573
22432TIP3   OH267175   5.168   6.404   8.899
22432TIP3    H167176   5.137   6.402   8.992
22432TIP3    H267177   5.130   6.320   8.867
22433TIP3   OH267178   4.957   6.866   9.946
22433TIP3    H167179   4.912   6.894  10.026
22433TIP3    H267180   4.943   6.944   9.887
22434TIP3   OH267181   4.837   6.753   9.461
22434TIP3    H167182   4.744   6.728   9.478
22434TIP3    H267183   4.851   6.713   9.373
22435TIP3   OH267184   5.328   6.840   9.187
22435TIP3    H167185   5.273   6.911   9.148
22435TIP3    H267186   5.381   6.813   9.110
22436TIP3   OH267187   5.485   6.870   9.431
22436TIP3    H167188   5.428   6.902   9.358
22436TIP3    H267189   5.517   6.787   9.389
22437TIP3   OH267190   4.822   6.373   8.866
22437TIP3    H167191   4.817   6.370   8.963
22437TIP3    H267192   4.741   6.423   8.845
22438TIP3   OH267193   4.364   6.423   9.732
22438TIP3    H167194   4.438   6.452   9.789
22438TIP3    H267195   4.408   6.384   9.655
22439TIP3   OH267196   4.345   6.401   9.256
22439TIP3    H167197   4.391   6.441   9.179
22439TIP3    H267198   4.283   6.474   9.278
22440TIP3   OH267199   5.472   7.116   9.844
22440TIP3    H167200   5.524   7.050   9.793
22440TIP3    H267201   5.500   7.099   9.934
22441TIP3   OH267202   5.161   6.577   9.524
22441TIP3    H167203   5.077   6.573   9.575
22441TIP3    H267204   5.227   6.579   9.595
22442TIP3   OH267205   4.599   6.630   9.532
22442TIP3    H167206   4.504   6.638   9.506
22442TIP3    H267207   4.621   6.538   9.510
22443TIP3   OH267208   4.872   6.630   9.219
22443TIP3    H167209   4.966   6.644   9.198
22443TIP3    H267210   4.826   6.653   9.135
22444TIP3   OH267211   5.651   6.655   9.716
22444TIP3    H167212   5.620   6.660   9.809
22444TIP3    H267213   5.592   6.586   9.681
22445TIP3   OH267214   4.705   6.660   9.000
22445TIP3    H167215   4.631   6.618   8.953
22445TIP3    H267216   4.757   6.695   8.924
22446TIP3   OH267217   5.247   6.901   9.617
22446TIP3    H167218   5.321   6.864   9.566
22446TIP3    H267219   5.262   6.862   9.705
22447TIP3   OH267220   4.775   6.393   9.495
22447TIP3    H167221   4.742   6.313   9.541
22447TIP3    H267222   4.830   6.356   9.425
22448TIP3   OH267223   5.223   6.788   9.902
22448TIP3    H167224   5.132   6.821   9.913
22448TIP3    H267225   5.275   6.844   9.961
22449TIP3   OH267226   4.962   7.193   9.006
22449TIP3    H167227   4.890   7.127   8.995
22449TIP3    H267228   4.944   7.226   9.097
22450TIP3   OH267229   5.864   7.413   9.642
22450TIP3    H167230   5.892   7.467   9.564
22450TIP3    H267231   5.777   7.379   9.610
22451TIP3   OH267232   5.420   6.507   8.859
22451TIP3    H167233   5.323   6.491   8.871
22451TIP3    H267234   5.431   6.600   8.888
22452TIP3   OH267235   5.491   6.749   8.967
22452TIP3    H167236   5.587   6.756   8.986
22452TIP3    H267237   5.474   6.830   8.916
22453TIP3   OH267238   4.659   7.215   9.685
22453TIP3    H167239   4.692   7.185   9.597
22453TIP3    H267240   4.684   7.142   9.742
22454TIP3   OH267241   5.105   7.341   8.823
22454TIP3    H167242   5.059   7.428   8.832
22454TIP3    H267243   5.052   7.286   8.884
22455TIP3   OH267244   5.934   6.837   8.806
22455TIP3    H167245   5.870   6.792   8.746
22455TIP3    H267246   5.931   6.926   8.766
22456TIP3   OH267247   5.633   7.660   8.714
22456TIP3    H167248   5.606   7.592   8.778
22456TIP3    H267249   5.642   7.610   8.631
22457TIP3   OH267250   5.618   7.291   9.556
22457TIP3    H167251   5.527   7.257   9.566
22457TIP3    H267252   5.661   7.215   9.513
22458TIP3   OH267253   4.752   7.514   9.304
22458TIP3    H167254   4.755   7.598   9.254
22458TIP3    H267255   4.657   7.502   9.315
22459TIP3   OH267256   4.315   6.821   9.006
22459TIP3    H167257   4.362   6.904   9.027
22459TIP3    H267258   4.239   6.827   9.068
22460TIP3   OH267259   4.898   7.285   9.252
22460TIP3    H167260   4.860   7.373   9.270
22460TIP3    H267261   4.861   7.233   9.326
22461TIP3   OH267262   5.028   7.849   9.760
22461TIP3    H167263   5.052   7.935   9.721
22461TIP3    H267264   5.089   7.841   9.833
22462TIP3   OH267265   4.675   7.754   9.159
22462TIP3    H167266   4.589   7.761   9.205
22462TIP3    H267267   4.705   7.847   9.162
22463TIP3   OH267268   5.418   7.498   9.740
22463TIP3    H167269   5.435   7.486   9.834
22463TIP3    H267270   5.489   7.446   9.699
22464TIP3   OH267271   5.383   7.385   8.616
22464TIP3    H167272   5.436   7.360   8.695
22464TIP3    H267273   5.294   7.361   8.647
22465TIP3   OH267274   5.727   7.865   8.438
22465TIP3    H167275   5.766   7.938   8.388
22465TIP3    H267276   5.645   7.909   8.469
22466TIP3   OH267277   5.543   7.320   8.832
22466TIP3    H167278   5.532   7.255   8.905
22466TIP3    H267279   5.641   7.319   8.823
22467TIP3   OH267280   4.466   7.745   9.950
22467TIP3    H167281   4.484   7.651   9.939
22467TIP3    H267282   4.529   7.768  10.019
22468TIP3   OH267283   4.753   7.368   8.614
22468TIP3    H167284   4.768   7.276   8.586
22468TIP3    H267285   4.736   7.356   8.710
22469TIP3   OH267286   4.700   7.373   8.887
22469TIP3    H167287   4.767   7.345   8.951
22469TIP3    H267288   4.705   7.471   8.894
22470TIP3   OH267289   4.437   7.068   9.091
22470TIP3    H167290   4.370   7.112   9.149
22470TIP3    H267291   4.450   7.139   9.025
22471TIP3   OH267292   5.582   6.693   9.978
22471TIP3    H167293   5.649   6.744  10.025
22471TIP3    H267294   5.547   6.636  10.047
22472TIP3   OH267295   5.460   6.459   9.144
22472TIP3    H167296   5.447   6.484   9.051
22472TIP3    H267297   5.499   6.540   9.183
22473TIP3   OH267298   4.963   7.572   8.837
22473TIP3    H167299   4.877   7.599   8.874
22473TIP3    H267300   4.979   7.643   8.774
22474TIP3   OH267301   5.154   6.633   9.249
22474TIP3    H167302   5.219   6.704   9.232
22474TIP3    H267303   5.157   6.626   9.347
22475TIP3   OH267304   5.299   6.368   9.355
22475TIP3    H167305   5.292   6.444   9.416
22475TIP3    H267306   5.358   6.404   9.286
22476TIP3   OH267307   4.705   7.646   8.903
22476TIP3    H167308   4.673   7.715   8.840
22476TIP3    H267309   4.688   7.689   8.989
22477TIP3   OH267310   4.808   6.358   9.142
22477TIP3    H167311   4.805   6.448   9.179
22477TIP3    H267312   4.903   6.338   9.152
22478TIP3   OH267313   5.713   7.049   9.426
22478TIP3    H167314   5.638   6.988   9.440
22478TIP3    H267315   5.786   7.002   9.472
22479TIP3   OH267316   4.423   7.281   8.898
22479TIP3    H167317   4.483   7.357   8.908
22479TIP3    H267318   4.473   7.230   8.831
22480TIP3   OH267319   4.372   6.553   9.028
22480TIP3    H167320   4.368   6.651   9.023
22480TIP3    H267321   4.285   6.528   8.995
22481TIP3   OH267322   5.648   7.971   9.361
22481TIP3    H167323   5.618   8.033   9.291
22481TIP3    H267324   5.738   8.003   9.377
22482TIP3   OH267325   4.757   6.277   9.906
22482TIP3    H167326   4.725   6.243   9.820
22482TIP3    H267327   4.748   6.198   9.963
22483TIP3   OH267328   4.299   7.489   9.290
22483TIP3    H167329   4.221   7.523   9.337
22483TIP3    H267330   4.284   7.528   9.201
22484TIP3   OH267331   4.917   7.573   8.531
22484TIP3    H167332   4.858   7.503   8.569
22484TIP3    H267333   4.991   7.519   8.500
22485TIP3   OH267334   5.353   7.616   8.439
22485TIP3    H167335   5.399   7.552   8.497
22485TIP3    H267336   5.411   7.617   8.360
22486TIP3   OH267337   4.559   7.092   8.746
22486TIP3    H167338   4.611   7.056   8.820
22486TIP3    H267339   4.629   7.096   8.677
22487TIP3   OH267340   5.064   7.287   8.554
22487TIP3    H167341   5.068   7.301   8.651
22487TIP3    H267342   5.063   7.189   8.550
22488TIP3   OH267343   4.772   6.991   8.975
22488TIP3    H167344   4.742   6.950   9.057
22488TIP3    H267345   4.804   6.915   8.923
22489TIP3   OH267346   4.866   6.783   8.814
22489TIP3    H167347   4.840   6.783   8.720
22489TIP3    H267348   4.963   6.792   8.807
22490TIP3   OH267349   5.694   7.119   8.471
22490TIP3    H167350   5.670   7.070   8.390
22490TIP3    H267351   5.661   7.209   8.446
22491TIP3   OH267352   5.170   6.623  10.136
22491TIP3    H167353   5.191   6.655  10.047
22491TIP3    H267354   5.076   6.598  10.126
22492TIP3   OH267355   4.673   7.849   8.715
22492TIP3    H167356   4.769   7.848   8.696
22492TIP3    H267357   4.641   7.895   8.636
22493TIP3   OH267358   4.155   7.230   8.933
22493TIP3    H167359   4.250   7.252   8.921
22493TIP3    H267360   4.151   7.141   8.892
22494TIP3   OH267361   4.071   7.843   9.344
22494TIP3    H167362   4.002   7.782   9.309
22494TIP3    H267363   4.112   7.787   9.413
22495TIP3   OH267364   4.205   7.699   9.532
22495TIP3    H167365   4.194   7.622   9.590
22495TIP3    H267366   4.258   7.757   9.590
22496TIP3   OH267367   5.825   7.307   8.808
22496TIP3    H167368   5.897   7.368   8.784
22496TIP3    H267369   5.863   7.264   8.888
22497TIP3   OH267370   5.949   7.173   9.010
22497TIP3    H167371   5.885   7.130   9.071
22497TIP3    H267372   6.014   7.212   9.072
22498TIP3   OH267373   5.977   7.547   9.436
22498TIP3    H167374   6.058   7.512   9.398
22498TIP3    H267375   5.969   7.635   9.398
22499TIP3   OH267376   5.892   7.080   8.659
22499TIP3    H167377   5.820   7.084   8.591
22499TIP3    H267378   5.864   7.155   8.715
22500TIP3   OH267379   5.763   6.753   8.613
22500TIP3    H167380   5.720   6.793   8.537
22500TIP3    H267381   5.735   6.659   8.604
22501TIP3   OH267382   5.768   7.027   9.159
22501TIP3    H167383   5.776   6.930   9.157
22501TIP3    H267384   5.755   7.044   9.255
22502TIP3   OH267385   4.397   7.114   9.895
22502TIP3    H167386   4.392   7.079   9.804
22502TIP3    H267387   4.492   7.103   9.914
22503TIP3   OH267388   5.706   6.488   8.601
22503TIP3    H167389   5.782   6.458   8.655
22503TIP3    H267390   5.634   6.429   8.629
22504TIP3   OH267391   5.762   6.742   9.056
22504TIP3    H167392   5.802   6.653   9.071
22504TIP3    H267393   5.822   6.776   8.987
22505TIP3   OH267394   5.927   6.915   9.539
22505TIP3    H167395   6.014   6.944   9.505
22505TIP3    H267396   5.930   6.958   9.628
22506TIP3   OH267397   5.969   7.058   9.767
22506TIP3    H167398   5.935   7.097   9.848
22506TIP3    H267399   6.018   7.133   9.727
22507TIP3   OH267400   5.872   6.493   9.090
22507TIP3    H167401   5.920   6.478   9.175
22507TIP3    H267402   5.812   6.416   9.091
22508TIP3   OH267403   4.571   6.480   9.901
22508TIP3    H167404   4.632   6.405   9.917
22508TIP3    H267405   4.633   6.555   9.905
22509TIP3   OH267406   4.383   6.748   9.988
22509TIP3    H167407   4.430   6.758   9.904
22509TIP3    H267408   4.387   6.837  10.027
22510TIP3   OH267409   5.955   6.433   8.721
22510TIP3    H167410   5.996   6.358   8.673
22510TIP3    H267411   6.024   6.502   8.714
22511TIP3   OH267412   4.357   6.258   9.484
22511TIP3    H167413   4.264   6.259   9.510
22511TIP3    H267414   4.357   6.317   9.405
22512TIP3   OH267415   5.519   7.962   8.992
22512TIP3    H167416   5.564   7.941   8.907
22512TIP3    H267417   5.580   8.027   9.029
22513TIP3   OH267418   4.691   8.006   9.789
22513TIP3    H167419   4.641   8.057   9.853
22513TIP3    H267420   4.694   8.064   9.712
22514TIP3   OH267421   5.117   8.072   9.603
22514TIP3    H167422   5.051   8.084   9.532
22514TIP3    H267423   5.104   8.153   9.656
22515TIP3   OH267424   5.361   7.965   9.662
22515TIP3    H167425   5.270   7.990   9.636
22515TIP3    H267426   5.405   8.051   9.659
22516TIP3   OH267427   4.384   7.842   9.693
22516TIP3    H167428   4.415   7.823   9.784
22516TIP3    H267429   4.460   7.807   9.641
22517TIP3   OH267430   4.577   7.718   9.544
22517TIP3    H167431   4.596   7.636   9.595
22517TIP3    H267432   4.665   7.762   9.543
22518TIP3   OH267433   4.842   7.817   9.545
22518TIP3    H167434   4.878   7.727   9.537
22518TIP3    H267435   4.872   7.838   9.635
22519TIP3   OH267436   5.419   6.471   9.639
22519TIP3    H167437   5.375   6.401   9.690
22519TIP3    H267438   5.490   6.421   9.593
22520TIP3   OH267439   5.948   6.346   9.540
22520TIP3    H167440   5.982   6.403   9.469
22520TIP3    H267441   5.853   6.369   9.542
22521TIP3   OH267442   6.040   6.456   9.306
22521TIP3    H167443   6.113   6.404   9.267
22521TIP3    H267444   6.073   6.547   9.293
22522TIP3   OH267445   4.670   6.181   9.656
22522TIP3    H167446   4.578   6.148   9.657
22522TIP3    H267447   4.720   6.097   9.654
22523TIP3   OH267448   4.451   6.048   9.301
22523TIP3    H167449   4.484   6.108   9.231
22523TIP3    H267450   4.423   6.111   9.370
22524TIP3   OH267451   5.109   6.215   9.534
22524TIP3    H167452   5.171   6.266   9.481
22524TIP3    H267453   5.126   6.249   9.623
22525TIP3   OH267454   5.661   6.359   9.521
22525TIP3    H167455   5.658   6.323   9.432
22525TIP3    H267456   5.647   6.277   9.575
22526TIP3   OH267457   5.688   6.279   9.081
22526TIP3    H167458   5.601   6.320   9.090
22526TIP3    H267459   5.675   6.195   9.131
22527TIP3   OH267460   4.174   7.616   9.085
22527TIP3    H167461   4.089   7.584   9.050
22527TIP3    H267462   4.159   7.711   9.078
22528TIP3   OH267463   4.569   6.210   9.067
22528TIP3    H167464   4.620   6.148   9.012
22528TIP3    H267465   4.641   6.265   9.105
22529TIP3   OH267466   5.085   6.383   9.166
22529TIP3    H167467   5.144   6.335   9.227
22529TIP3    H267468   5.107   6.475   9.192
22530TIP3   OH267469   4.943   7.814   8.664
22530TIP3    H167470   5.033   7.833   8.629
22530TIP3    H267471   4.921   7.737   8.606
22531TIP3   OH267472   5.659   7.927   8.755
22531TIP3    H167473   5.653   7.829   8.743
22531TIP3    H267474   5.614   7.958   8.674
22532TIP3   OH267475   4.248   7.650   8.725
22532TIP3    H167476   4.242   7.676   8.818
22532TIP3    H267477   4.337   7.609   8.719
22533TIP3   OH267478   6.133   6.956   8.971
22533TIP3    H167479   6.083   7.038   8.985
22533TIP3    H267480   6.062   6.897   8.941
22534TIP3   OH267481   6.189   7.240   9.129
22534TIP3    H167482   6.234   7.165   9.174
22534TIP3    H267483   6.253   7.261   9.059
22535TIP3   OH267484   6.691   6.831   9.143
22535TIP3    H167485   6.676   6.900   9.076
22535TIP3    H267486   6.647   6.755   9.098
22536TIP3   OH267487   7.397   6.871   8.745
22536TIP3    H167488   7.390   6.889   8.840
22536TIP3    H267489   7.388   6.961   8.709
22537TIP3   OH267490   6.330   7.038   9.241
22537TIP3    H167491   6.412   7.017   9.291
22537TIP3    H267492   6.341   6.978   9.165
22538TIP3   OH267493   6.766   7.228   9.027
22538TIP3    H167494   6.855   7.202   9.057
22538TIP3    H267495   6.728   7.141   9.001
22539TIP3   OH267496   6.700   6.808   9.535
22539TIP3    H167497   6.630   6.858   9.488
22539TIP3    H267498   6.688   6.834   9.628
22540TIP3   OH267499   6.562   6.952   9.352
22540TIP3    H167500   6.619   7.027   9.373
22540TIP3    H267501   6.615   6.906   9.282
22541TIP3   OH267502   6.034   7.470   8.702
22541TIP3    H167503   5.986   7.496   8.622
22541TIP3    H267504   6.059   7.556   8.741
22542TIP3   OH267505   7.060   6.540   9.275
22542TIP3    H167506   7.059   6.446   9.302
22542TIP3    H267507   6.986   6.575   9.328
22543TIP3   OH267508   6.975   7.285   8.526
22543TIP3    H167509   6.902   7.348   8.513
22543TIP3    H267510   7.030   7.299   8.448
22544TIP3   OH267511   6.943   7.079   8.259
22544TIP3    H167512   7.005   7.120   8.321
22544TIP3    H267513   7.001   7.014   8.215
22545TIP3   OH267514   6.576   7.388   8.921
22545TIP3    H167515   6.524   7.327   8.864
22545TIP3    H267516   6.645   7.327   8.957
22546TIP3   OH267517   7.191   7.242   8.342
22546TIP3    H167518   7.244   7.312   8.382
22546TIP3    H267519   7.204   7.259   8.246
22547TIP3   OH267520   7.689   6.479   8.385
22547TIP3    H167521   7.609   6.494   8.440
22547TIP3    H267522   7.696   6.564   8.338
22548TIP3   OH267523   6.430   7.223   8.742
22548TIP3    H167524   6.365   7.263   8.680
22548TIP3    H267525   6.393   7.135   8.755
22549TIP3   OH267526   6.230   7.999   8.791
22549TIP3    H167527   6.240   8.018   8.887
22549TIP3    H267528   6.175   7.918   8.795
22550TIP3   OH267529   6.979   8.019   8.052
22550TIP3    H167530   7.042   7.955   8.011
22550TIP3    H267531   7.035   8.053   8.123
22551TIP3   OH267532   6.823   6.609   9.407
22551TIP3    H167533   6.736   6.570   9.382
22551TIP3    H267534   6.788   6.688   9.455
22552TIP3   OH267535   7.253   7.296   8.087
22552TIP3    H167536   7.213   7.261   8.005
22552TIP3    H267537   7.339   7.328   8.052
22553TIP3   OH267538   6.966   6.661   8.386
22553TIP3    H167539   6.936   6.658   8.479
22553TIP3    H267540   6.927   6.577   8.354
22554TIP3   OH267541   6.630   7.008   8.947
22554TIP3    H167542   6.538   6.979   8.965
22554TIP3    H267543   6.645   6.966   8.859
22555TIP3   OH267544   7.099   7.073   8.648
22555TIP3    H167545   7.055   7.156   8.619
22555TIP3    H267546   7.156   7.050   8.573
22556TIP3   OH267547   6.619   6.630   8.352
22556TIP3    H167548   6.614   6.626   8.450
22556TIP3    H267549   6.537   6.679   8.332
22557TIP3   OH267550   6.162   6.680   9.220
22557TIP3    H167551   6.238   6.708   9.275
22557TIP3    H267552   6.203   6.640   9.142
22558TIP3   OH267553   6.141   6.658   8.743
22558TIP3    H167554   6.188   6.697   8.666
22558TIP3    H267555   6.079   6.730   8.765
22559TIP3   OH267556   6.954   6.832   9.016
22559TIP3    H167557   6.871   6.829   9.068
22559TIP3    H267558   7.015   6.854   9.089
22560TIP3   OH267559   6.395   6.887   9.017
22560TIP3    H167560   6.300   6.893   8.992
22560TIP3    H267561   6.417   6.794   8.997
22561TIP3   OH267562   6.664   6.886   8.706
22561TIP3    H167563   6.760   6.895   8.690
22561TIP3    H267564   6.623   6.910   8.620
22562TIP3   OH267565   6.500   6.920   8.486
22562TIP3    H167566   6.426   6.875   8.440
22562TIP3    H267567   6.552   6.952   8.409
22563TIP3   OH267568   6.569   6.649   8.979
22563TIP3    H167569   6.538   6.569   9.027
22563TIP3    H267570   6.628   6.613   8.913
22564TIP3   OH267571   6.754   7.454   8.491
22564TIP3    H167572   6.686   7.383   8.482
22564TIP3    H267573   6.743   7.481   8.584
22565TIP3   OH267574   7.213   6.768   8.340
22565TIP3    H167575   7.118   6.748   8.355
22565TIP3    H267576   7.223   6.859   8.375
22566TIP3   OH267577   7.284   7.007   8.454
22566TIP3    H167578   7.381   7.003   8.465
22566TIP3    H267579   7.272   7.084   8.396
22567TIP3   OH267580   6.447   7.428   9.162
22567TIP3    H167581   6.483   7.427   9.072
22567TIP3    H267582   6.493   7.356   9.205
22568TIP3   OH267583   6.888   7.597   8.291
22568TIP3    H167584   6.873   7.686   8.328
22568TIP3    H267585   6.853   7.542   8.364
22569TIP3   OH267586   7.722   7.079   8.270
22569TIP3    H167587   7.647   7.039   8.219
22569TIP3    H267588   7.718   7.168   8.229
22570TIP3   OH267589   6.548   7.762   8.808
22570TIP3    H167590   6.582   7.844   8.767
22570TIP3    H267591   6.453   7.769   8.792
22571TIP3   OH267592   6.111   7.078   8.492
22571TIP3    H167593   6.158   7.161   8.515
22571TIP3    H267594   6.035   7.083   8.555
22572TIP3   OH267595   6.715   7.547   8.747
22572TIP3    H167596   6.662   7.629   8.761
22572TIP3    H267597   6.665   7.485   8.804
22573TIP3   OH267598   6.409   8.047   8.599
22573TIP3    H167599   6.338   8.027   8.665
22573TIP3    H267600   6.489   8.046   8.655
22574TIP3   OH267601   7.162   7.632   8.085
22574TIP3    H167602   7.212   7.631   8.168
22574TIP3    H267603   7.074   7.607   8.119
22575TIP3   OH267604   6.547   7.621   8.102
22575TIP3    H167605   6.562   7.530   8.071
22575TIP3    H267606   6.528   7.606   8.197
22576TIP3   OH267607   6.495   7.630   8.376
22576TIP3    H167608   6.568   7.598   8.430
22576TIP3    H267609   6.503   7.727   8.384
22577TIP3   OH267610   6.234   7.325   8.577
22577TIP3    H167611   6.167   7.368   8.635
22577TIP3    H267612   6.246   7.396   8.511
22578TIP3   OH267613   7.240   6.696   8.617
22578TIP3    H167614   7.233   6.728   8.525
22578TIP3    H267615   7.297   6.764   8.658
22579TIP3   OH267616   6.762   7.853   8.335
22579TIP3    H167617   6.668   7.873   8.351
22579TIP3    H267618   6.767   7.863   8.239
22580TIP3   OH267619   6.939   6.879   8.742
22580TIP3    H167620   7.002   6.950   8.716
22580TIP3    H267621   6.951   6.876   8.840
22581TIP3   OH267622   7.092   6.622   8.845
22581TIP3    H167623   7.086   6.699   8.905
22581TIP3    H267624   7.146   6.658   8.772
22582TIP3   OH267625   6.498   7.906   8.385
22582TIP3    H167626   6.470   7.971   8.317
22582TIP3    H267627   6.461   7.951   8.464
22583TIP3   OH267628   6.604   6.615   8.628
22583TIP3    H167629   6.601   6.704   8.667
22583TIP3    H267630   6.699   6.595   8.639
22584TIP3   OH267631   6.219   7.537   8.385
22584TIP3    H167632   6.282   7.611   8.393
22584TIP3    H267633   6.267   7.484   8.318
22585TIP3   OH267634   6.168   6.810   8.514
22585TIP3    H167635   6.163   6.907   8.510
22585TIP3    H267636   6.081   6.784   8.483
22586TIP3   OH267637   6.554   6.529   9.392
22586TIP3    H167638   6.521   6.496   9.306
22586TIP3    H267639   6.544   6.451   9.450
22587TIP3   OH267640   6.091   7.751   8.778
22587TIP3    H167641   6.011   7.778   8.824
22587TIP3    H267642   6.071   7.782   8.687
22588TIP3   OH267643   6.717   7.817   8.023
22588TIP3    H167644   6.655   7.745   8.051
22588TIP3    H267645   6.788   7.764   7.983
22589TIP3   OH267646   7.166   7.878   7.923
22589TIP3    H167647   7.184   7.795   7.970
22589TIP3    H267648   7.205   7.866   7.834
22590TIP3   OH267649   6.356   7.350   8.234
22590TIP3    H167650   6.407   7.310   8.306
22590TIP3    H267651   6.425   7.352   8.164
22591TIP3   OH267652   6.857   7.540   8.031
22591TIP3    H167653   6.857   7.557   8.128
22591TIP3    H267654   6.858   7.442   8.031
22592TIP3   OH267655   6.569   7.248   8.463
22592TIP3    H167656   6.538   7.203   8.544
22592TIP3    H267657   6.602   7.172   8.410
22593TIP3   OH267658   6.662   7.041   8.300
22593TIP3    H167659   6.635   7.039   8.206
22593TIP3    H267660   6.759   7.049   8.292
22594TIP3   OH267661   7.483   7.364   7.952
22594TIP3    H167662   7.453   7.324   7.868
22594TIP3    H267663   7.465   7.459   7.932
22595TIP3   OH267664   6.458   8.116   8.212
22595TIP3    H167665   6.553   8.107   8.188
22595TIP3    H267666   6.427   8.152   8.127
22596TIP3   OH267667   5.951   7.487   8.420
22596TIP3    H167668   6.046   7.508   8.408
22596TIP3    H267669   5.946   7.398   8.379
22597TIP3   OH267670   5.857   8.102   8.823
22597TIP3    H167671   5.787   8.046   8.783
22597TIP3    H267672   5.892   8.040   8.890
22598TIP3   OH267673   5.945   7.936   9.017
22598TIP3    H167674   5.961   7.856   9.068
22598TIP3    H267675   5.903   7.994   9.085
22599TIP3   OH267676   7.671   7.306   8.138
22599TIP3    H167677   7.605   7.326   8.068
22599TIP3    H267678   7.686   7.393   8.175
22600TIP3   OH267679   7.536   7.010   8.090
22600TIP3    H167680   7.500   7.044   8.007
22600TIP3    H267681   7.513   6.915   8.083
22601TIP3   OH267682   6.191   7.346   9.391
22601TIP3    H167683   6.193   7.326   9.296
22601TIP3    H267684   6.269   7.404   9.402
22602TIP3   OH267685   7.488   6.746   8.079
22602TIP3    H167686   7.570   6.717   8.125
22602TIP3    H267687   7.421   6.685   8.112
22603TIP3   OH267688   7.554   6.996   8.498
22603TIP3    H167689   7.586   6.908   8.526
22603TIP3    H267690   7.634   7.034   8.459
22604TIP3   OH267691   7.666   6.755   8.588
22604TIP3    H167692   7.733   6.721   8.648
22604TIP3    H267693   7.603   6.680   8.584
22605TIP3   OH267694   6.371   6.738   9.391
22605TIP3    H167695   6.434   6.665   9.406
22605TIP3    H267696   6.429   6.815   9.391
22606TIP3   OH267697   6.179   7.007   9.477
22606TIP3    H167698   6.224   7.009   9.390
22606TIP3    H267699   6.187   7.100   9.505
22607TIP3   OH267700   7.729   6.681   8.184
22607TIP3    H167701   7.776   6.603   8.149
22607TIP3    H267702   7.802   6.745   8.196
22608TIP3   OH267703   6.154   6.517   8.972
22608TIP3    H167704   6.060   6.514   8.997
22608TIP3    H267705   6.152   6.574   8.893
22609TIP3   OH267706   6.362   6.588   9.789
22609TIP3    H167707   6.317   6.586   9.874
22609TIP3    H267708   6.297   6.636   9.734
22610TIP3   OH267709   7.211   6.735   9.128
22610TIP3    H167710   7.152   6.668   9.166
22610TIP3    H267711   7.275   6.681   9.077
22611TIP3   OH267712   6.466   6.437   9.143
22611TIP3    H167713   6.374   6.404   9.144
22611TIP3    H267714   6.515   6.353   9.140
22612TIP3   OH267715   6.247   6.305   8.787
22612TIP3    H167716   6.280   6.365   8.718
22612TIP3    H267717   6.220   6.367   8.857
22613TIP3   OH267718   6.905   6.471   9.022
22613TIP3    H167719   6.966   6.524   8.968
22613TIP3    H267720   6.924   6.505   9.111
22614TIP3   OH267721   7.411   6.611   8.995
22614TIP3    H167722   7.441   6.581   8.908
22614TIP3    H267723   7.412   6.527   9.045
22615TIP3   OH267724   7.485   6.539   8.567
22615TIP3    H167725   7.394   6.574   8.574
22615TIP3    H267726   7.475   6.455   8.617
22616TIP3   OH267727   5.970   7.873   8.573
22616TIP3    H167728   5.885   7.841   8.536
22616TIP3    H267729   5.958   7.969   8.560
22617TIP3   OH267730   6.366   6.468   8.553
22617TIP3    H167731   6.416   6.404   8.499
22617TIP3    H267732   6.438   6.521   8.592
22618TIP3   OH267733   6.881   6.633   8.651
22618TIP3    H167734   6.940   6.586   8.712
22618TIP3    H267735   6.900   6.725   8.679
22619TIP3   OH267736   6.706   8.074   8.110
22619TIP3    H167737   6.795   8.102   8.084
22619TIP3    H267738   6.703   7.987   8.066
22620TIP3   OH267739   6.046   7.909   8.212
22620TIP3    H167740   6.037   7.932   8.305
22620TIP3    H267741   6.134   7.866   8.208
22621TIP3   OH267742   8.377   6.848   7.815
22621TIP3    H167743   8.404   6.894   7.896
22621TIP3    H267744   8.305   6.905   7.783
22622TIP3   OH267745   7.906   6.897   8.185
22622TIP3    H167746   7.973   6.947   8.136
22622TIP3    H267747   7.841   6.966   8.210
22623TIP3   OH267748   7.980   7.082   7.987
22623TIP3    H167749   7.954   7.173   8.010
22623TIP3    H267750   7.896   7.038   7.970
22624TIP3   OH267751   7.901   6.718   8.407
22624TIP3    H167752   7.840   6.757   8.472
22624TIP3    H267753   7.971   6.785   8.397
22625TIP3   OH267754   8.042   6.543   8.252
22625TIP3    H167755   8.062   6.599   8.175
22625TIP3    H267756   7.986   6.602   8.307
22626TIP3   OH267757   8.138   6.696   8.036
22626TIP3    H167758   8.207   6.652   7.982
22626TIP3    H267759   8.183   6.773   8.074
22627TIP3   OH267760   2.968   8.382   8.885
22627TIP3    H167761   3.017   8.414   8.963
22627TIP3    H267762   3.028   8.310   8.855
22628TIP3   OH267763   3.734   7.779   9.049
22628TIP3    H167764   3.653   7.796   9.103
22628TIP3    H267765   3.745   7.866   9.005
22629TIP3   OH267766   3.319   8.569   8.731
22629TIP3    H167767   3.275   8.541   8.648
22629TIP3    H267768   3.394   8.622   8.697
22630TIP3   OH267769   3.004   7.969   8.990
22630TIP3    H167770   2.994   7.971   9.089
22630TIP3    H267771   2.973   7.878   8.977
22631TIP3   OH267772   2.678   7.927   9.018
22631TIP3    H167773   2.661   7.922   9.113
22631TIP3    H267774   2.591   7.955   8.985
22632TIP3   OH267775   3.265   8.040   9.011
22632TIP3    H167776   3.167   8.040   9.004
22632TIP3    H267777   3.288   8.135   9.023
22633TIP3   OH267778   3.365   8.280   9.069
22633TIP3    H167779   3.452   8.277   9.116
22633TIP3    H267780   3.370   8.369   9.032
22634TIP3   OH267781   3.773   8.387   8.953
22634TIP3    H167782   3.706   8.342   8.897
22634TIP3    H267783   3.776   8.473   8.909
22635TIP3   OH267784   3.310   8.026   9.289
22635TIP3    H167785   3.287   8.032   9.194
22635TIP3    H267786   3.359   8.107   9.306
22636TIP3   OH267787   3.538   8.681   8.609
22636TIP3    H167788   3.516   8.626   8.531
22636TIP3    H267789   3.505   8.768   8.577
22637TIP3   OH267790   3.718   8.632   8.802
22637TIP3    H167791   3.664   8.622   8.721
22637TIP3    H267792   3.659   8.690   8.853
22638TIP3   OH267793   3.598   8.314   8.759
22638TIP3    H167794   3.553   8.345   8.680
22638TIP3    H267795   3.575   8.218   8.757
22639TIP3   OH267796   3.546   8.048   8.752
22639TIP3    H167797   3.624   8.018   8.804
22639TIP3    H267798   3.476   7.986   8.780
22640TIP3   OH267799   3.603   8.304   9.192
22640TIP3    H167800   3.641   8.222   9.230
22640TIP3    H267801   3.684   8.343   9.154
22641TIP3   OH267802   3.713   8.050   9.241
22641TIP3    H167803   3.762   8.037   9.326
22641TIP3    H267804   3.652   7.974   9.243
22642TIP3   OH267805   3.795   7.992   8.867
22642TIP3    H167806   3.838   7.916   8.825
22642TIP3    H267807   3.866   8.059   8.867
22643TIP3   OH267808   3.807   7.917   9.711
22643TIP3    H167809   3.839   7.962   9.630
22643TIP3    H267810   3.712   7.905   9.688
22644TIP3   OH267811   3.879   8.010   9.460
22644TIP3    H167812   3.952   7.960   9.419
22644TIP3    H267813   3.911   8.102   9.445
22645TIP3   OH267814   3.552   7.869   9.641
22645TIP3    H167815   3.485   7.939   9.627
22645TIP3    H267816   3.499   7.807   9.697
22646TIP3   OH267817   3.529   7.835   9.230
22646TIP3    H167818   3.442   7.877   9.242
22646TIP3    H267819   3.516   7.753   9.282
22647TIP3   OH267820   2.454   7.686   9.278
22647TIP3    H167821   2.467   7.662   9.185
22647TIP3    H267822   2.439   7.782   9.270
22648TIP3   OH267823   2.988   7.940   9.250
22648TIP3    H167824   2.969   7.891   9.333
22648TIP3    H267825   2.959   8.028   9.279
22649TIP3   OH267826   4.990   9.005   8.875
22649TIP3    H167827   4.950   9.089   8.844
22649TIP3    H267828   4.922   8.943   8.844
22650TIP3   OH267829   3.983   8.506   9.114
22650TIP3    H167830   3.916   8.569   9.146
22650TIP3    H267831   3.930   8.426   9.110
22651TIP3   OH267832   4.553   8.387   9.276
22651TIP3    H167833   4.526   8.456   9.212
22651TIP3    H267834   4.500   8.312   9.241
22652TIP3   OH267835   5.233   8.475   8.916
22652TIP3    H167836   5.306   8.465   8.981
22652TIP3    H267837   5.283   8.503   8.838
22653TIP3   OH267838   4.633   8.783   9.153
22653TIP3    H167839   4.722   8.748   9.175
22653TIP3    H267840   4.582   8.700   9.138
22654TIP3   OH267841   4.875   9.207   8.740
22654TIP3    H167842   4.843   9.187   8.651
22654TIP3    H267843   4.878   9.304   8.741
22655TIP3   OH267844   5.454   8.483   9.083
22655TIP3    H167845   5.440   8.411   9.147
22655TIP3    H267846   5.529   8.529   9.121
22656TIP3   OH267847   4.428   8.467   9.506
22656TIP3    H167848   4.469   8.554   9.512
22656TIP3    H267849   4.472   8.425   9.429
22657TIP3   OH267850   4.900   8.091   9.436
22657TIP3    H167851   4.883   7.996   9.453
22657TIP3    H267852   4.821   8.129   9.482
22658TIP3   OH267853   5.091   9.387   8.654
22658TIP3    H167854   5.103   9.299   8.613
22658TIP3    H267855   5.118   9.375   8.745
22659TIP3   OH267856   4.830   8.857   8.691
22659TIP3    H167857   4.746   8.901   8.669
22659TIP3    H267858   4.871   8.846   8.603
22660TIP3   OH267859   4.785   8.635   8.414
22660TIP3    H167860   4.856   8.684   8.459
22660TIP3    H267861   4.839   8.569   8.366
22661TIP3   OH267862   5.161   8.938   8.668
22661TIP3    H167863   5.099   8.964   8.739
22661TIP3    H267864   5.234   8.903   8.723
22662TIP3   OH267865   4.423   8.930   9.037
22662TIP3    H167866   4.367   8.870   8.982
22662TIP3    H267867   4.491   8.869   9.072
22663TIP3   OH267868   5.013   8.793   8.487
22663TIP3    H167869   5.071   8.852   8.540
22663TIP3    H267870   5.041   8.817   8.395
22664TIP3   OH267871   5.530   8.035   8.536
22664TIP3    H167872   5.449   8.052   8.589
22664TIP3    H267873   5.541   8.121   8.491
22665TIP3   OH267874   4.270   8.761   8.868
22665TIP3    H167875   4.198   8.808   8.821
22665TIP3    H267876   4.224   8.683   8.902
22666TIP3   OH267877   5.332   9.383   8.093
22666TIP3    H167878   5.323   9.478   8.067
22666TIP3    H267879   5.425   9.367   8.066
22667TIP3   OH267880   4.851   9.617   8.203
22667TIP3    H167881   4.905   9.548   8.157
22667TIP3    H267882   4.889   9.614   8.292
22668TIP3   OH267883   4.884   9.658   8.485
22668TIP3    H167884   4.799   9.630   8.523
22668TIP3    H267885   4.947   9.601   8.532
22669TIP3   OH267886   4.666   8.162   9.552
22669TIP3    H167887   4.570   8.143   9.545
22669TIP3    H267888   4.667   8.252   9.591
22670TIP3   OH267889   5.093   8.846   8.235
22670TIP3    H167890   5.058   8.815   8.150
22670TIP3    H267891   5.170   8.898   8.206
22671TIP3   OH267892   4.807   8.218   8.536
22671TIP3    H167893   4.774   8.216   8.628
22671TIP3    H267894   4.767   8.134   8.504
22672TIP3   OH267895   4.480   8.567   9.088
22672TIP3    H167896   4.387   8.544   9.112
22672TIP3    H267897   4.486   8.521   9.001
22673TIP3   OH267898   4.964   8.656   8.820
22673TIP3    H167899   4.908   8.726   8.780
22673TIP3    H267900   5.015   8.624   8.743
22674TIP3   OH267901   5.099   8.674   9.076
22674TIP3    H167902   5.065   8.718   8.997
22674TIP3    H267903   5.144   8.598   9.035
22675TIP3   OH267904   4.460   8.188   8.503
22675TIP3    H167905   4.455   8.184   8.601
22675TIP3    H267906   4.378   8.237   8.482
22676TIP3   OH267907   4.003   8.227   9.358
22676TIP3    H167908   4.072   8.259   9.421
22676TIP3    H267909   4.056   8.189   9.288
22677TIP3   OH267910   3.982   8.215   8.892
22677TIP3    H167911   4.030   8.256   8.817
22677TIP3    H267912   3.920   8.287   8.915
22678TIP3   OH267913   4.804   8.383   9.156
22678TIP3    H167914   4.717   8.383   9.201
22678TIP3    H267915   4.862   8.403   9.231
22679TIP3   OH267916   4.250   8.447   9.156
22679TIP3    H167917   4.153   8.459   9.149
22679TIP3    H267918   4.262   8.351   9.152
22680TIP3   OH267919   4.511   8.438   8.851
22680TIP3    H167920   4.604   8.459   8.832
22680TIP3    H267921   4.462   8.466   8.771
22681TIP3   OH267922   5.289   8.440   9.370
22681TIP3    H167923   5.233   8.472   9.441
22681TIP3    H267924   5.224   8.388   9.319
22682TIP3   OH267925   4.342   8.476   8.636
22682TIP3    H167926   4.267   8.433   8.590
22682TIP3    H267927   4.393   8.509   8.559
22683TIP3   OH267928   4.879   8.701   9.262
22683TIP3    H167929   4.957   8.696   9.203
22683TIP3    H267930   4.915   8.668   9.345
22684TIP3   OH267931   4.414   8.203   9.133
22684TIP3    H167932   4.378   8.125   9.180
22684TIP3    H267933   4.464   8.163   9.061
22685TIP3   OH267934   4.873   8.612   9.573
22685TIP3    H167935   4.795   8.666   9.548
22685TIP3    H267936   4.925   8.675   9.624
22686TIP3   OH267937   4.599   9.006   8.641
22686TIP3    H167938   4.528   8.939   8.631
22686TIP3    H267939   4.580   9.041   8.731
22687TIP3   OH267940   5.056   8.322   8.496
22687TIP3    H167941   4.960   8.302   8.508
22687TIP3    H267942   5.063   8.415   8.525
22688TIP3   OH267943   5.119   8.563   8.604
22688TIP3    H167944   5.216   8.558   8.617
22688TIP3    H267945   5.109   8.643   8.548
22689TIP3   OH267946   4.743   9.164   8.469
22689TIP3    H167947   4.688   9.244   8.476
22689TIP3    H267948   4.689   9.099   8.521
22690TIP3   OH267949   5.566   8.630   8.437
22690TIP3    H167950   5.498   8.599   8.373
22690TIP3    H267951   5.569   8.724   8.410
22691TIP3   OH267952   5.233   9.468   8.332
22691TIP3    H167953   5.275   9.410   8.398
22691TIP3    H267954   5.274   9.437   8.249
22692TIP3   OH267955   3.954   8.634   8.642
22692TIP3    H167956   4.000   8.718   8.662
22692TIP3    H267957   3.875   8.642   8.700
22693TIP3   OH267958   4.535   9.121   8.876
22693TIP3    H167959   4.504   9.200   8.921
22693TIP3    H267960   4.500   9.052   8.937
22694TIP3   OH267961   5.019   9.195   8.253
22694TIP3    H167962   5.069   9.180   8.335
22694TIP3    H267963   4.929   9.170   8.280
22695TIP3   OH267964   5.320   9.644   8.044
22695TIP3    H167965   5.333   9.706   7.970
22695TIP3    H267966   5.282   9.706   8.110
22696TIP3   OH267967   5.175   9.146   8.484
22696TIP3    H167968   5.168   9.066   8.540
22696TIP3    H267969   5.270   9.144   8.462
22697TIP3   OH267970   4.391   9.182   8.246
22697TIP3    H167971   4.402   9.090   8.215
22697TIP3    H267972   4.379   9.168   8.343
22698TIP3   OH267973   4.365   9.190   8.518
22698TIP3    H167974   4.387   9.136   8.594
22698TIP3    H267975   4.329   9.270   8.557
22699TIP3   OH267976   4.061   8.886   8.731
22699TIP3    H167977   4.021   8.947   8.795
22699TIP3    H267978   4.081   8.950   8.659
22700TIP3   OH267979   5.099   8.270   8.780
22700TIP3    H167980   5.083   8.297   8.688
22700TIP3    H267981   5.133   8.353   8.820
22701TIP3   OH267982   4.597   9.408   8.486
22701TIP3    H167983   4.506   9.439   8.473
22701TIP3    H267984   4.634   9.431   8.399
22702TIP3   OH267985   4.794   8.447   8.886
22702TIP3    H167986   4.859   8.520   8.871
22702TIP3    H267987   4.795   8.441   8.984
22703TIP3   OH267988   4.939   8.183   8.996
22703TIP3    H167989   4.920   8.262   9.049
22703TIP3    H267990   4.995   8.221   8.925
22704TIP3   OH267991   4.445   8.172   8.779
22704TIP3    H167992   4.442   8.262   8.816
22704TIP3    H267993   4.541   8.153   8.789
22705TIP3   OH267994   4.070   9.089   8.549
22705TIP3    H167995   4.081   9.184   8.533
22705TIP3    H267996   4.113   9.049   8.471
22706TIP3   OH267997   4.011   8.366   8.663
22706TIP3    H167998   4.007   8.464   8.659
22706TIP3    H267999   3.923   8.341   8.634
22707TIP3   OH268000   4.403   8.082   9.546
22707TIP3    H168001   4.362   8.059   9.460
22707TIP3    H268002   4.382   8.004   9.600
22708TIP3   OH268003   4.562   9.384   8.181
22708TIP3    H168004   4.498   9.312   8.201
22708TIP3    H268005   4.628   9.335   8.128
22709TIP3   OH268006   4.992   9.427   8.073
22709TIP3    H168007   5.046   9.372   8.133
22709TIP3    H268008   5.047   9.432   7.992
22710TIP3   OH268009   4.197   8.907   8.381
22710TIP3    H168010   4.247   8.869   8.455
22710TIP3    H268011   4.267   8.909   8.312
22711TIP3   OH268012   4.705   9.101   8.194
22711TIP3    H168013   4.704   9.111   8.290
22711TIP3    H268014   4.702   9.003   8.185
22712TIP3   OH268015   4.412   8.806   8.615
22712TIP3    H168016   4.376   8.766   8.696
22712TIP3    H268017   4.441   8.728   8.564
22713TIP3   OH268018   4.503   8.598   8.451
22713TIP3    H168019   4.476   8.598   8.356
22713TIP3    H268020   4.600   8.606   8.443
22714TIP3   OH268021   5.332   8.933   8.107
22714TIP3    H168022   5.307   8.884   8.026
22714TIP3    H268023   5.297   9.022   8.082
22715TIP3   OH268024   4.763   8.387   9.699
22715TIP3    H168025   4.820   8.458   9.662
22715TIP3    H268026   4.736   8.426   9.784
22716TIP3   OH268027   4.336   9.676   8.347
22716TIP3    H168028   4.423   9.672   8.304
22716TIP3    H268029   4.277   9.699   8.273
22717TIP3   OH268030   3.793   9.043   8.507
22717TIP3    H168031   3.874   9.064   8.557
22717TIP3    H268032   3.797   8.946   8.498
22718TIP3   OH268033   5.467   9.104   8.453
22718TIP3    H168034   5.529   9.170   8.421
22718TIP3    H268035   5.500   9.086   8.543
22719TIP3   OH268036   5.532   8.894   8.285
22719TIP3    H168037   5.457   8.895   8.220
22719TIP3    H268038   5.499   8.960   8.349
22720TIP3   OH268039   5.390   8.569   8.242
22720TIP3    H168040   5.347   8.604   8.163
22720TIP3    H268041   5.366   8.473   8.236
22721TIP3   OH268042   5.468   8.785   8.717
22721TIP3    H168043   5.426   8.700   8.732
22721TIP3    H268044   5.431   8.841   8.788
22722TIP3   OH268045   5.341   8.302   8.238
22722TIP3    H168046   5.418   8.273   8.290
22722TIP3    H268047   5.270   8.243   8.266
22723TIP3   OH268048   5.386   8.529   8.681
22723TIP3    H168049   5.430   8.441   8.696
22723TIP3    H268050   5.451   8.568   8.618
22724TIP3   OH268051   5.512   8.294   8.728
22724TIP3    H168052   5.558   8.280   8.813
22724TIP3    H268053   5.448   8.219   8.729
22725TIP3   OH268054   4.208   8.281   9.519
22725TIP3    H168055   4.275   8.221   9.554
22725TIP3    H268056   4.236   8.365   9.560
22726TIP3   OH268057   5.589   8.247   8.354
22726TIP3    H168058   5.631   8.170   8.311
22726TIP3    H268059   5.661   8.313   8.353
22727TIP3   OH268060   3.994   8.063   9.113
22727TIP3    H168061   3.904   8.072   9.150
22727TIP3    H268062   3.992   8.128   9.040
22728TIP3   OH268063   5.066   8.286   9.288
22728TIP3    H168064   5.009   8.219   9.330
22728TIP3    H268065   5.120   8.233   9.227
22729TIP3   OH268066   5.574   8.185   9.202
22729TIP3    H168067   5.613   8.219   9.119
22729TIP3    H268068   5.478   8.182   9.180
22730TIP3   OH268069   5.669   8.257   8.956
22730TIP3    H168070   5.744   8.205   8.918
22730TIP3    H268071   5.693   8.345   8.920
22731TIP3   OH268072   4.307   7.995   9.290
22731TIP3    H168073   4.215   7.962   9.295
22731TIP3    H268074   4.356   7.910   9.290
22732TIP3   OH268075   4.087   7.862   8.936
22732TIP3    H168076   4.119   7.924   8.869
22732TIP3    H268077   4.059   7.924   9.008
22733TIP3   OH268078   4.749   8.026   9.170
22733TIP3    H168079   4.809   8.083   9.120
22733TIP3    H268080   4.756   8.064   9.259
22734TIP3   OH268081   5.301   8.170   9.150
22734TIP3    H168082   5.282   8.133   9.063
22734TIP3    H268083   5.282   8.092   9.208
22735TIP3   OH268084   5.325   8.092   8.718
22735TIP3    H168085   5.237   8.134   8.727
22735TIP3    H268086   5.310   8.008   8.768
22736TIP3   OH268087   4.206   8.027   8.702
22736TIP3    H168088   4.257   7.963   8.649
22736TIP3    H268089   4.277   8.080   8.742
22737TIP3   OH268090   4.724   8.197   8.802
22737TIP3    H168091   4.780   8.149   8.865
22737TIP3    H268092   4.744   8.289   8.829
22738TIP3   OH268093   4.598   9.631   8.287
22738TIP3    H168094   4.687   9.638   8.245
22738TIP3    H268095   4.568   9.549   8.244
22739TIP3   OH268096   5.773   8.796   8.558
22739TIP3    H168097   5.750   8.843   8.641
22739TIP3    H268098   5.713   8.720   8.564
22740TIP3   OH268099   6.567   8.485   7.980
22740TIP3    H168100   6.615   8.488   8.065
22740TIP3    H268101   6.539   8.391   7.977
22741TIP3   OH268102   6.252   8.452   7.989
22741TIP3    H168103   6.234   8.429   8.082
22741TIP3    H268104   6.169   8.495   7.962
22742TIP3   OH268105   5.763   8.460   8.808
22742TIP3    H168106   5.838   8.503   8.851
22742TIP3    H268107   5.808   8.421   8.731
22743TIP3   OH268108   5.790   8.480   8.382
22743TIP3    H168109   5.822   8.523   8.300
22743TIP3    H268110   5.717   8.542   8.406
22744TIP3   OH268111   5.760   8.900   8.142
22744TIP3    H168112   5.758   8.996   8.147
22744TIP3    H268113   5.677   8.882   8.194
22745TIP3   OH268114   6.239   8.416   8.264
22745TIP3    H168115   6.236   8.488   8.329
22745TIP3    H268116   6.328   8.379   8.275
22746TIP3   OH268117   5.808   8.628   8.157
22746TIP3    H168118   5.790   8.724   8.151
22746TIP3    H268119   5.729   8.589   8.117
22747TIP3   OH268120   5.980   9.163   7.849
22747TIP3    H168121   6.048   9.136   7.911
22747TIP3    H268122   6.034   9.158   7.767
22748TIP3   OH268123   5.588   9.313   8.017
22748TIP3    H168124   5.658   9.325   8.084
22748TIP3    H268125   5.588   9.216   7.999
22749TIP3   OH268126   5.783   8.304   8.583
22749TIP3    H168127   5.695   8.317   8.622
22749TIP3    H268128   5.789   8.376   8.517
22750TIP3   OH268129   6.084   8.229   8.705
22750TIP3    H168130   5.994   8.203   8.730
22750TIP3    H268131   6.136   8.153   8.735
22751TIP3   OH268132   5.885   8.112   8.420
22751TIP3    H168133   5.914   8.176   8.353
22751TIP3    H268134   5.855   8.173   8.491
22752TIP3   OH268135   6.001   8.281   8.185
22752TIP3    H168136   6.045   8.212   8.131
22752TIP3    H268137   6.077   8.325   8.228
22753TIP3   OH268138   4.985  10.108   7.901
22753TIP3    H168139   5.052  10.041   7.878
22753TIP3    H268140   4.900  10.060   7.891
22754TIP3   OH268141   4.958   9.884   8.333
22754TIP3    H168142   4.889   9.946   8.305
22754TIP3    H268143   4.903   9.810   8.365
   9.80000   9.23953   8.00167   0.00000   0.00000  -3.26667   0.00000  -3.26667  -4.61976
