Title t= 186.00000 step= 93000
19942
    1ASP      N    1   1.212   2.210   3.651
    1ASP    HT1    2   1.168   2.261   3.730
    1ASP    HT2    3   1.135   2.167   3.596
    1ASP    HT3    4   1.242   2.294   3.596
    1ASP     CA    5   1.327   2.116   3.682
    1ASP     HA    6   1.407   2.180   3.715
    1ASP     CB    7   1.293   2.022   3.798
    1ASP    HB1    8   1.215   1.949   3.770
    1ASP    HB2    9   1.261   2.069   3.893
    1ASP     CG   10   1.416   1.940   3.841
    1ASP    OD1   11   1.410   1.851   3.933
    1ASP    OD2   12   1.528   1.973   3.793
    1ASP      C   13   1.365   2.051   3.541
    1ASP      O   14   1.410   2.120   3.456
    2ALA      N   15   1.352   1.920   3.520
    2ALA     HN   16   1.314   1.856   3.587
    2ALA     CA   17   1.387   1.864   3.392
    2ALA     HA   18   1.491   1.891   3.376
    2ALA     CB   19   1.373   1.719   3.417
    2ALA    HB1   20   1.408   1.687   3.517
    2ALA    HB2   21   1.424   1.664   3.335
    2ALA    HB3   22   1.268   1.687   3.430
    2ALA      C   23   1.306   1.914   3.271
    2ALA      O   24   1.192   1.958   3.295
    3ASP      N   25   1.365   1.917   3.147
    3ASP     HN   26   1.464   1.905   3.148
    3ASP     CA   27   1.309   1.939   3.015
    3ASP     HA   28   1.239   2.022   3.024
    3ASP     CB   29   1.412   1.987   2.907
    3ASP    HB1   30   1.359   1.999   2.809
    3ASP    HB2   31   1.502   1.923   2.902
    3ASP     CG   32   1.464   2.124   2.942
    3ASP    OD1   33   1.567   2.171   2.884
    3ASP    OD2   34   1.385   2.195   3.012
    3ASP      C   35   1.226   1.820   2.977
    3ASP      O   36   1.262   1.706   3.006
    4GLY      N   37   1.116   1.854   2.907
    4GLY     HN   38   1.095   1.951   2.901
    4GLY     CA   39   1.009   1.767   2.863
    4GLY    HA1   40   0.929   1.834   2.835
    4GLY    HA2   41   0.979   1.701   2.943
    4GLY      C   42   1.046   1.685   2.742
    4GLY      O   43   1.148   1.701   2.675
    5PRO      N   44   0.963   1.580   2.721
    5PRO     CD   45   0.845   1.537   2.793
    5PRO    HD1   46   0.782   1.624   2.822
    5PRO    HD2   47   0.879   1.487   2.885
    5PRO     CA   48   0.986   1.495   2.605
    5PRO     HA   49   1.089   1.465   2.610
    5PRO     CB   50   0.894   1.380   2.636
    5PRO    HB1   51   0.944   1.304   2.700
    5PRO    HB2   52   0.851   1.319   2.554
    5PRO     CG   53   0.772   1.436   2.707
    5PRO    HG1   54   0.715   1.477   2.622
    5PRO    HG2   55   0.715   1.358   2.762
    5PRO      C   56   0.955   1.564   2.468
    5PRO      O   57   0.892   1.669   2.457
    6GLY      N   58   0.997   1.491   2.366
    6GLY     HN   59   1.043   1.404   2.383
    6GLY     CA   60   0.965   1.523   2.226
    6GLY    HA1   61   1.048   1.506   2.159
    6GLY    HA2   62   0.933   1.624   2.205
    6GLY      C   63   0.860   1.427   2.164
    6GLY      O   64   0.784   1.362   2.243
    7ASP      N   65   0.845   1.411   2.032
    7ASP     HN   66   0.913   1.446   1.967
    7ASP     CA   67   0.752   1.315   1.967
    7ASP     HA   68   0.649   1.334   1.994
    7ASP     CB   69   0.761   1.350   1.813
    7ASP    HB1   70   0.854   1.309   1.769
    7ASP    HB2   71   0.757   1.458   1.786
    7ASP     CG   72   0.644   1.277   1.738
    7ASP    OD1   73   0.670   1.256   1.617
    7ASP    OD2   74   0.530   1.255   1.795
    7ASP      C   75   0.777   1.169   2.000
    7ASP      O   76   0.894   1.133   1.990
    8PRO      N   77   0.695   1.082   2.036
    8PRO     CD   78   0.563   1.128   2.085
    8PRO    HD1   79   0.508   1.171   1.998
    8PRO    HD2   80   0.575   1.203   2.166
    8PRO     CA   81   0.709   0.938   2.050
    8PRO     HA   82   0.766   0.927   2.141
    8PRO     CB   83   0.558   0.894   2.059
    8PRO    HB1   84   0.544   0.803   2.121
    8PRO    HB2   85   0.509   0.879   1.961
    8PRO     CG   86   0.484   1.005   2.133
    8PRO    HG1   87   0.375   1.006   2.112
    8PRO    HG2   88   0.480   0.978   2.241
    8PRO      C   89   0.787   0.856   1.945
    8PRO      O   90   0.815   0.740   1.975
    9ASP      N   91   0.819   0.909   1.824
    9ASP     HN   92   0.776   0.994   1.799
    9ASP     CA   93   0.906   0.845   1.726
    9ASP     HA   94   0.871   0.744   1.712
    9ASP     CB   95   0.895   0.914   1.583
    9ASP    HB1   96   0.942   0.851   1.504
    9ASP    HB2   97   0.954   1.007   1.592
    9ASP     CG   98   0.757   0.937   1.531
    9ASP    OD1   99   0.730   1.046   1.469
    9ASP    OD2  100   0.672   0.845   1.540
    9ASP      C  101   1.049   0.819   1.776
    9ASP      O  102   1.111   0.721   1.739
   10ALA      N  103   1.113   0.897   1.862
   10ALA     HN  104   1.064   0.966   1.915
   10ALA     CA  105   1.247   0.880   1.920
   10ALA     HA  106   1.301   0.832   1.839
   10ALA     CB  107   1.309   1.026   1.938
   10ALA    HB1  108   1.308   1.077   1.839
   10ALA    HB2  109   1.418   1.020   1.962
   10ALA    HB3  110   1.255   1.079   2.018
   10ALA      C  111   1.251   0.794   2.052
   10ALA      O  112   1.152   0.735   2.103
   11GLY      N  113   1.375   0.784   2.108
   11GLY     HN  114   1.449   0.835   2.064
   11GLY     CA  115   1.401   0.726   2.237
   11GLY    HA1  116   1.504   0.694   2.230
   11GLY    HA2  117   1.340   0.637   2.246
   11GLY      C  118   1.381   0.811   2.362
   11GLY    OT1  119   1.292   0.776   2.441
   11GLY    OT2  120   1.455   0.916   2.369
   12LIT    LIT  121   4.450   4.113   2.405
   13LIT    LIT  122   1.021   2.901   2.047
   14LIT    LIT  123   0.874   4.522   3.878
   15LIT    LIT  124   6.064   0.293   5.177
   16LIT    LIT  125   0.546   1.355   3.363
   17LIT    LIT  126   3.436   5.182   4.128
   18LIT    LIT  127   2.678   3.460   2.812
   19LIT    LIT  128   0.607   1.175   1.446
   20LIT    LIT  129   2.399   0.782   4.078
   21LIT    LIT  130   0.856   5.766   4.233
   22LIT    LIT  131   5.769   3.060   2.444
   23LIT    LIT  132   6.100   1.246   2.178
   24LIT    LIT  133   3.309   2.204   0.459
   25LIT    LIT  134   0.546   5.101   1.870
   26LIT    LIT  135   2.778   1.347   4.938
   27LIT    LIT  136   6.234   5.747   3.372
   28LIT    LIT  137   1.633   1.838   3.867
   29LIT    LIT  138   1.812   4.947   0.929
   30LIT    LIT  139   2.015   0.742   3.404
   31LIT    LIT  140   3.911   3.103   2.197
   32LIT    LIT  141   0.796   0.069   1.624
   33LIT    LIT  142   3.722   1.334   0.728
   34CLA    CLA  143   2.091   2.546   1.551
   35CLA    CLA  144   0.277   0.988   3.195
   36CLA    CLA  145   4.039   3.327   4.404
   37CLA    CLA  146   0.019   1.523   4.711
   38CLA    CLA  147   2.005   2.639   4.110
   39CLA    CLA  148   6.074   5.275   3.129
   40CLA    CLA  149   0.847   1.052   4.758
   41CLA    CLA  150   1.395   2.330   1.431
   42CLA    CLA  151   4.294   5.178   1.528
   43CLA    CLA  152   2.546   4.678   0.176
   44CLA    CLA  153   2.907   5.468   1.106
   45CLA    CLA  154   2.334   0.782   3.647
   46CLA    CLA  155   2.792   1.521   4.083
   47CLA    CLA  156   2.824   1.453   4.744
   48CLA    CLA  157   3.468   0.436   4.317
   49CLA    CLA  158   6.158   0.846   1.472
   50CLA    CLA  159   3.405   5.970   4.913
   51CLA    CLA  160   2.256   5.344   1.233
   52TIP3   OH2  161   1.718   1.620   4.261
   52TIP3    H1  162   1.650   1.553   4.271
   52TIP3    H2  163   1.779   1.603   4.332
   53TIP3   OH2  164   1.796   3.857   3.728
   53TIP3    H1  165   1.836   3.792   3.786
   53TIP3    H2  166   1.870   3.904   3.690
   54TIP3   OH2  167   1.636   1.100   3.139
   54TIP3    H1  168   1.604   1.025   3.090
   54TIP3    H2  169   1.691   1.063   3.208
   55TIP3   OH2  170   4.172   4.786   1.239
   55TIP3    H1  171   4.199   4.707   1.286
   55TIP3    H2  172   4.228   4.788   1.161
   56TIP3   OH2  173   2.613   0.350   0.501
   56TIP3    H1  174   2.588   0.310   0.417
   56TIP3    H2  175   2.676   0.418   0.477
   57TIP3   OH2  176   0.313   3.443   4.731
   57TIP3    H1  177   0.311   3.455   4.826
   57TIP3    H2  178   0.377   3.373   4.717
   58TIP3   OH2  179   4.521   4.756   5.031
   58TIP3    H1  180   4.507   4.757   4.936
   58TIP3    H2  181   4.616   4.751   5.041
   59TIP3   OH2  182   6.297   5.690   0.327
   59TIP3    H1  183   6.327   5.681   0.237
   59TIP3    H2  184   6.204   5.667   0.325
   60TIP3   OH2  185   3.531   4.193   0.183
   60TIP3    H1  186   3.519   4.123   0.119
   60TIP3    H2  187   3.470   4.261   0.155
   61TIP3   OH2  188   2.439   0.076   0.139
   61TIP3    H1  189   2.455  -0.016   0.116
   61TIP3    H2  190   2.344   0.085   0.137
   62TIP3   OH2  191   6.255   4.238   2.229
   62TIP3    H1  192   6.260   4.318   2.177
   62TIP3    H2  193   6.277   4.265   2.318
   63TIP3   OH2  194   4.794   5.152   1.228
   63TIP3    H1  195   4.714   5.203   1.217
   63TIP3    H2  196   4.840   5.194   1.301
   64TIP3   OH2  197   1.886   4.791   2.262
   64TIP3    H1  198   1.862   4.879   2.290
   64TIP3    H2  199   1.853   4.734   2.331
   65TIP3   OH2  200   4.435   0.764   1.585
   65TIP3    H1  201   4.348   0.734   1.557
   65TIP3    H2  202   4.419   0.851   1.621
   66TIP3   OH2  203   1.967   5.490   4.127
   66TIP3    H1  204   1.991   5.400   4.148
   66TIP3    H2  205   1.941   5.487   4.035
   67TIP3   OH2  206   1.244   0.307   3.721
   67TIP3    H1  207   1.191   0.335   3.796
   67TIP3    H2  208   1.249   0.384   3.665
   68TIP3   OH2  209   3.402   2.789   3.667
   68TIP3    H1  210   3.429   2.881   3.658
   68TIP3    H2  211   3.309   2.793   3.687
   69TIP3   OH2  212   1.557   2.822   0.193
   69TIP3    H1  213   1.464   2.798   0.196
   69TIP3    H2  214   1.578   2.845   0.283
   70TIP3   OH2  215   6.025   0.994   4.358
   70TIP3    H1  216   5.961   1.050   4.401
   70TIP3    H2  217   5.984   0.908   4.357
   71TIP3   OH2  218   5.281   1.840   1.835
   71TIP3    H1  219   5.364   1.840   1.788
   71TIP3    H2  220   5.266   1.749   1.859
   72TIP3   OH2  221   5.304   4.664   2.879
   72TIP3    H1  222   5.289   4.590   2.821
   72TIP3    H2  223   5.315   4.739   2.820
   73TIP3   OH2  224   5.822   3.515   4.868
   73TIP3    H1  225   5.902   3.472   4.837
   73TIP3    H2  226   5.751   3.467   4.825
   74TIP3   OH2  227   4.946   0.788   1.712
   74TIP3    H1  228   4.997   0.723   1.664
   74TIP3    H2  229   4.856   0.773   1.683
   75TIP3   OH2  230   5.960   0.949   1.680
   75TIP3    H1  231   5.969   1.043   1.666
   75TIP3    H2  232   6.040   0.912   1.643
   76TIP3   OH2  233   1.380   4.652   3.583
   76TIP3    H1  234   1.454   4.623   3.529
   76TIP3    H2  235   1.414   4.726   3.632
   77TIP3   OH2  236   1.909   4.150   1.861
   77TIP3    H1  237   1.883   4.230   1.907
   77TIP3    H2  238   2.004   4.146   1.873
   78TIP3   OH2  239   4.060   1.920   3.073
   78TIP3    H1  240   4.150   1.893   3.090
   78TIP3    H2  241   4.049   2.000   3.124
   79TIP3   OH2  242   4.031   0.198   0.952
   79TIP3    H1  243   4.066   0.200   1.041
   79TIP3    H2  244   4.106   0.177   0.897
   80TIP3   OH2  245   4.760   4.026   1.415
   80TIP3    H1  246   4.750   4.113   1.454
   80TIP3    H2  247   4.693   4.023   1.347
   81TIP3   OH2  248   1.901   3.669   3.889
   81TIP3    H1  249   1.903   3.689   3.982
   81TIP3    H2  250   1.900   3.573   3.885
   82TIP3   OH2  251   0.702   2.554   3.962
   82TIP3    H1  252   0.713   2.461   3.982
   82TIP3    H2  253   0.750   2.566   3.880
   83TIP3   OH2  254   5.578   3.054   3.043
   83TIP3    H1  255   5.598   3.148   3.039
   83TIP3    H2  256   5.493   3.050   3.087
   84TIP3   OH2  257   0.707   2.741   2.883
   84TIP3    H1  258   0.784   2.741   2.826
   84TIP3    H2  259   0.697   2.650   2.911
   85TIP3   OH2  260   1.742   5.871   0.036
   85TIP3    H1  261   1.712   5.829  -0.045
   85TIP3    H2  262   1.773   5.799   0.090
   86TIP3   OH2  263   4.228   4.329   1.761
   86TIP3    H1  264   4.189   4.411   1.790
   86TIP3    H2  265   4.319   4.351   1.742
   87TIP3   OH2  266   0.199   4.439   3.309
   87TIP3    H1  267   0.112   4.417   3.276
   87TIP3    H2  268   0.201   4.534   3.313
   88TIP3   OH2  269   2.378   1.887   3.344
   88TIP3    H1  270   2.368   1.846   3.258
   88TIP3    H2  271   2.472   1.884   3.361
   89TIP3   OH2  272   3.306   0.113   1.506
   89TIP3    H1  273   3.362   0.152   1.573
   89TIP3    H2  274   3.234   0.074   1.556
   90TIP3   OH2  275   5.504   5.887   1.404
   90TIP3    H1  276   5.442   5.815   1.395
   90TIP3    H2  277   5.539   5.899   1.316
   91TIP3   OH2  278   0.815   1.555   4.169
   91TIP3    H1  279   0.801   1.649   4.180
   91TIP3    H2  280   0.730   1.516   4.186
   92TIP3   OH2  281   3.510   0.141   4.229
   92TIP3    H1  282   3.497   0.124   4.136
   92TIP3    H2  283   3.466   0.224   4.245
   93TIP3   OH2  284   4.805   4.390   4.753
   93TIP3    H1  285   4.758   4.463   4.714
   93TIP3    H2  286   4.815   4.413   4.845
   94TIP3   OH2  287   4.481   4.726   2.200
   94TIP3    H1  288   4.549   4.679   2.250
   94TIP3    H2  289   4.476   4.812   2.243
   95TIP3   OH2  290   3.701   3.937   3.781
   95TIP3    H1  291   3.793   3.931   3.808
   95TIP3    H2  292   3.666   3.849   3.793
   96TIP3   OH2  293   0.648   5.499   0.201
   96TIP3    H1  294   0.738   5.531   0.209
   96TIP3    H2  295   0.634   5.488   0.107
   97TIP3   OH2  296   0.205   1.286   4.788
   97TIP3    H1  297   0.290   1.293   4.744
   97TIP3    H2  298   0.155   1.360   4.755
   98TIP3   OH2  299   1.438   1.572   4.182
   98TIP3    H1  300   1.400   1.654   4.213
   98TIP3    H2  301   1.408   1.506   4.244
   99TIP3   OH2  302   1.035   1.601   1.868
   99TIP3    H1  303   1.089   1.572   1.794
   99TIP3    H2  304   1.088   1.667   1.912
  100TIP3   OH2  305   5.560   3.591   3.851
  100TIP3    H1  306   5.525   3.679   3.838
  100TIP3    H2  307   5.589   3.590   3.942
  101TIP3   OH2  308   1.745   1.582   3.440
  101TIP3    H1  309   1.752   1.551   3.350
  101TIP3    H2  310   1.824   1.634   3.454
  102TIP3   OH2  311   0.279   3.426   0.411
  102TIP3    H1  312   0.267   3.337   0.377
  102TIP3    H2  313   0.370   3.448   0.388
  103TIP3   OH2  314   1.362   4.296   4.294
  103TIP3    H1  315   1.401   4.267   4.377
  103TIP3    H2  316   1.306   4.370   4.319
  104TIP3   OH2  317   5.417   0.523   0.322
  104TIP3    H1  318   5.404   0.591   0.255
  104TIP3    H2  319   5.427   0.572   0.403
  105TIP3   OH2  320   3.637   0.088   3.915
  105TIP3    H1  321   3.718   0.067   3.869
  105TIP3    H2  322   3.648   0.179   3.941
  106TIP3   OH2  323   6.212   4.207   3.028
  106TIP3    H1  324   6.202   4.128   2.976
  106TIP3    H2  325   6.174   4.276   2.974
  107TIP3   OH2  326   1.275   0.511   2.517
  107TIP3    H1  327   1.289   0.599   2.481
  107TIP3    H2  328   1.363   0.476   2.531
  108TIP3   OH2  329   0.758   3.402   4.341
  108TIP3    H1  330   0.797   3.315   4.328
  108TIP3    H2  331   0.747   3.437   4.253
  109TIP3   OH2  332   4.165   0.817   2.258
  109TIP3    H1  333   4.145   0.817   2.352
  109TIP3    H2  334   4.124   0.898   2.226
  110TIP3   OH2  335   4.545   1.160   3.526
  110TIP3    H1  336   4.565   1.107   3.449
  110TIP3    H2  337   4.507   1.098   3.588
  111TIP3   OH2  338   6.027   4.826   2.991
  111TIP3    H1  339   6.011   4.912   2.953
  111TIP3    H2  340   6.115   4.802   2.962
  112TIP3   OH2  341   5.991   4.916   2.231
  112TIP3    H1  342   6.036   4.869   2.302
  112TIP3    H2  343   5.927   4.971   2.276
  113TIP3   OH2  344   5.506   5.858   2.126
  113TIP3    H1  345   5.523   5.806   2.204
  113TIP3    H2  346   5.505   5.794   2.055
  114TIP3   OH2  347   0.238   1.895   3.507
  114TIP3    H1  348   0.178   1.904   3.582
  114TIP3    H2  349   0.311   1.953   3.529
  115TIP3   OH2  350   4.202   1.897   3.564
  115TIP3    H1  351   4.290   1.862   3.547
  115TIP3    H2  352   4.207   1.934   3.652
  116TIP3   OH2  353   3.562   2.589   1.747
  116TIP3    H1  354   3.600   2.648   1.682
  116TIP3    H2  355   3.540   2.645   1.821
  117TIP3   OH2  356   5.810   0.003   0.556
  117TIP3    H1  357   5.795   0.028   0.464
  117TIP3    H2  358   5.849   0.081   0.595
  118TIP3   OH2  359   2.872   4.870   3.576
  118TIP3    H1  360   2.876   4.964   3.598
  118TIP3    H2  361   2.935   4.829   3.635
  119TIP3   OH2  362   1.714   4.136   0.526
  119TIP3    H1  363   1.650   4.170   0.464
  119TIP3    H2  364   1.794   4.185   0.508
  120TIP3   OH2  365   6.304   4.627  -0.042
  120TIP3    H1  366   6.287   4.716  -0.073
  120TIP3    H2  367   6.355   4.639   0.038
  121TIP3   OH2  368   4.903   1.421   3.614
  121TIP3    H1  369   4.976   1.391   3.560
  121TIP3    H2  370   4.866   1.341   3.650
  122TIP3   OH2  371   1.192   3.448   4.469
  122TIP3    H1  372   1.214   3.356   4.459
  122TIP3    H2  373   1.246   3.494   4.404
  123TIP3   OH2  374   3.959   1.976   4.760
  123TIP3    H1  375   3.999   2.042   4.704
  123TIP3    H2  376   3.897   2.024   4.815
  124TIP3   OH2  377   2.133   4.863   2.466
  124TIP3    H1  378   2.160   4.786   2.418
  124TIP3    H2  379   2.210   4.889   2.516
  125TIP3   OH2  380   4.400   3.560   1.371
  125TIP3    H1  381   4.487   3.541   1.335
  125TIP3    H2  382   4.396   3.509   1.452
  126TIP3   OH2  383   0.376   4.448   1.938
  126TIP3    H1  384   0.359   4.451   2.032
  126TIP3    H2  385   0.355   4.358   1.912
  127TIP3   OH2  386   1.860   1.463   1.386
  127TIP3    H1  387   1.864   1.529   1.316
  127TIP3    H2  388   1.784   1.410   1.365
  128TIP3   OH2  389   2.887   5.474   2.626
  128TIP3    H1  390   2.796   5.454   2.650
  128TIP3    H2  391   2.939   5.423   2.688
  129TIP3   OH2  392   4.074   2.762   1.042
  129TIP3    H1  393   4.131   2.687   1.058
  129TIP3    H2  394   3.998   2.747   1.097
  130TIP3   OH2  395   5.181   2.568   4.676
  130TIP3    H1  396   5.098   2.609   4.651
  130TIP3    H2  397   5.159   2.476   4.691
  131TIP3   OH2  398   4.042   3.771   0.780
  131TIP3    H1  399   4.033   3.679   0.757
  131TIP3    H2  400   3.954   3.798   0.807
  132TIP3   OH2  401   4.331   2.810   0.357
  132TIP3    H1  402   4.331   2.719   0.389
  132TIP3    H2  403   4.395   2.810   0.286
  133TIP3   OH2  404   4.337   1.534   1.922
  133TIP3    H1  405   4.283   1.582   1.984
  133TIP3    H2  406   4.409   1.594   1.902
  134TIP3   OH2  407   3.282   1.618   4.427
  134TIP3    H1  408   3.366   1.579   4.450
  134TIP3    H2  409   3.282   1.702   4.473
  135TIP3   OH2  410   4.426   1.870   0.370
  135TIP3    H1  411   4.355   1.824   0.325
  135TIP3    H2  412   4.391   1.892   0.456
  136TIP3   OH2  413   5.507   3.116   4.692
  136TIP3    H1  414   5.551   3.064   4.625
  136TIP3    H2  415   5.426   3.069   4.711
  137TIP3   OH2  416   0.746   1.857   0.479
  137TIP3    H1  417   0.772   1.943   0.512
  137TIP3    H2  418   0.705   1.875   0.395
  138TIP3   OH2  419   4.049   5.396   4.657
  138TIP3    H1  420   4.007   5.478   4.681
  138TIP3    H2  421   3.976   5.337   4.637
  139TIP3   OH2  422   4.942   0.359   1.437
  139TIP3    H1  423   4.906   0.427   1.494
  139TIP3    H2  424   5.021   0.329   1.482
  140TIP3   OH2  425   5.898   2.291   2.793
  140TIP3    H1  426   5.865   2.339   2.868
  140TIP3    H2  427   5.982   2.331   2.773
  141TIP3   OH2  428   4.679   1.452   3.230
  141TIP3    H1  429   4.620   1.386   3.195
  141TIP3    H2  430   4.726   1.485   3.153
  142TIP3   OH2  431   4.407   4.815   3.168
  142TIP3    H1  432   4.472   4.878   3.196
  142TIP3    H2  433   4.337   4.868   3.129
  143TIP3   OH2  434   6.298   1.677   1.007
  143TIP3    H1  435   6.342   1.725   0.936
  143TIP3    H2  436   6.214   1.721   1.016
  144TIP3   OH2  437   1.039   5.735   1.974
  144TIP3    H1  438   1.091   5.726   2.054
  144TIP3    H2  439   1.000   5.649   1.962
  145TIP3   OH2  440   6.214   4.113   0.841
  145TIP3    H1  441   6.197   4.128   0.748
  145TIP3    H2  442   6.284   4.047   0.842
  146TIP3   OH2  443   5.686   1.271   0.314
  146TIP3    H1  444   5.635   1.212   0.369
  146TIP3    H2  445   5.716   1.340   0.374
  147TIP3   OH2  446   4.883   3.581   2.771
  147TIP3    H1  447   4.879   3.582   2.866
  147TIP3    H2  448   4.968   3.544   2.751
  148TIP3   OH2  449   0.781   2.877   1.177
  148TIP3    H1  450   0.856   2.861   1.234
  148TIP3    H2  451   0.791   2.967   1.148
  149TIP3   OH2  452   1.990   2.993   3.185
  149TIP3    H1  453   1.949   2.907   3.187
  149TIP3    H2  454   2.051   2.993   3.259
  150TIP3   OH2  455   5.889   0.204   2.909
  150TIP3    H1  456   5.827   0.274   2.890
  150TIP3    H2  457   5.967   0.251   2.940
  151TIP3   OH2  458   4.203   2.066   2.456
  151TIP3    H1  459   4.156   2.067   2.373
  151TIP3    H2  460   4.271   1.998   2.445
  152TIP3   OH2  461   0.871   0.842   0.700
  152TIP3    H1  462   0.780   0.829   0.672
  152TIP3    H2  463   0.924   0.821   0.623
  153TIP3   OH2  464   0.525   0.913   3.555
  153TIP3    H1  465   0.446   0.879   3.512
  153TIP3    H2  466   0.534   1.002   3.522
  154TIP3   OH2  467   0.075   3.969   3.525
  154TIP3    H1  468   0.029   3.997   3.446
  154TIP3    H2  469   0.056   4.038   3.589
  155TIP3   OH2  470   2.045   2.975   0.531
  155TIP3    H1  471   2.036   2.917   0.456
  155TIP3    H2  472   2.138   2.974   0.553
  156TIP3   OH2  473   0.419   2.606   3.749
  156TIP3    H1  474   0.442   2.698   3.750
  156TIP3    H2  475   0.413   2.583   3.656
  157TIP3   OH2  476   2.525   3.149   1.386
  157TIP3    H1  477   2.520   3.105   1.301
  157TIP3    H2  478   2.521   3.242   1.365
  158TIP3   OH2  479   0.430   3.519   0.758
  158TIP3    H1  480   0.361   3.569   0.802
  158TIP3    H2  481   0.383   3.453   0.707
  159TIP3   OH2  482   6.035   3.450   3.497
  159TIP3    H1  483   5.947   3.453   3.460
  159TIP3    H2  484   6.045   3.534   3.542
  160TIP3   OH2  485   2.890   1.937   4.838
  160TIP3    H1  486   2.949   1.922   4.764
  160TIP3    H2  487   2.947   1.933   4.915
  161TIP3   OH2  488   3.819   0.968   2.101
  161TIP3    H1  489   3.737   1.009   2.128
  161TIP3    H2  490   3.886   1.035   2.118
  162TIP3   OH2  491   1.767   4.063   2.667
  162TIP3    H1  492   1.769   4.124   2.594
  162TIP3    H2  493   1.699   4.000   2.643
  163TIP3   OH2  494   2.802   0.480   2.394
  163TIP3    H1  495   2.818   0.546   2.461
  163TIP3    H2  496   2.747   0.524   2.330
  164TIP3   OH2  497   4.764   1.117   1.048
  164TIP3    H1  498   4.677   1.093   1.080
  164TIP3    H2  499   4.825   1.066   1.101
  165TIP3   OH2  500   3.348   2.018   0.411
  165TIP3    H1  501   3.394   1.980   0.336
  165TIP3    H2  502   3.301   1.944   0.449
  166TIP3   OH2  503   3.559   0.150   3.506
  166TIP3    H1  504   3.574   0.065   3.547
  166TIP3    H2  505   3.509   0.199   3.571
  167TIP3   OH2  506   4.286   4.478   0.286
  167TIP3    H1  507   4.217   4.492   0.352
  167TIP3    H2  508   4.366   4.464   0.337
  168TIP3   OH2  509   1.216   1.724   3.690
  168TIP3    H1  510   1.146   1.682   3.740
  168TIP3    H2  511   1.284   1.657   3.683
  169TIP3   OH2  512   4.051   0.788   2.514
  169TIP3    H1  513   3.990   0.757   2.580
  169TIP3    H2  514   4.000   0.792   2.433
  170TIP3   OH2  515   5.299   1.217   2.178
  170TIP3    H1  516   5.287   1.308   2.205
  170TIP3    H2  517   5.388   1.194   2.205
  171TIP3   OH2  518   1.870   0.691   4.975
  171TIP3    H1  519   1.824   0.608   4.963
  171TIP3    H2  520   1.956   0.676   4.936
  172TIP3   OH2  521   1.617   5.507   2.935
  172TIP3    H1  522   1.679   5.434   2.943
  172TIP3    H2  523   1.664   5.582   2.971
  173TIP3   OH2  524   2.321   2.397   2.421
  173TIP3    H1  525   2.284   2.379   2.508
  173TIP3    H2  526   2.263   2.465   2.385
  174TIP3   OH2  527   4.859   1.293   0.650
  174TIP3    H1  528   4.887   1.214   0.696
  174TIP3    H2  529   4.824   1.262   0.566
  175TIP3   OH2  530   1.019   2.317   0.968
  175TIP3    H1  531   0.991   2.282   1.053
  175TIP3    H2  532   1.108   2.347   0.983
  176TIP3   OH2  533   0.499   3.205   3.003
  176TIP3    H1  534   0.441   3.253   3.062
  176TIP3    H2  535   0.474   3.236   2.915
  177TIP3   OH2  536   5.340   5.366   0.748
  177TIP3    H1  537   5.358   5.346   0.656
  177TIP3    H2  538   5.423   5.399   0.782
  178TIP3   OH2  539   1.619   3.499   2.738
  178TIP3    H1  540   1.689   3.529   2.796
  178TIP3    H2  541   1.661   3.493   2.652
  179TIP3   OH2  542   5.751   0.928   1.837
  179TIP3    H1  543   5.731   0.835   1.840
  179TIP3    H2  544   5.832   0.933   1.785
  180TIP3   OH2  545   0.403   4.511   3.528
  180TIP3    H1  546   0.476   4.450   3.534
  180TIP3    H2  547   0.333   4.460   3.487
  181TIP3   OH2  548   5.128   2.196   4.265
  181TIP3    H1  549   5.041   2.203   4.226
  181TIP3    H2  550   5.184   2.163   4.195
  182TIP3   OH2  551   2.322   1.127   4.969
  182TIP3    H1  552   2.374   1.052   4.997
  182TIP3    H2  553   2.246   1.126   5.026
  183TIP3   OH2  554   0.230   0.261   0.188
  183TIP3    H1  555   0.325   0.258   0.201
  183TIP3    H2  556   0.215   0.208   0.110
  184TIP3   OH2  557   4.560   5.300   0.932
  184TIP3    H1  558   4.595   5.388   0.920
  184TIP3    H2  559   4.530   5.298   1.023
  185TIP3   OH2  560   0.897   0.657   4.557
  185TIP3    H1  561   0.946   0.580   4.527
  185TIP3    H2  562   0.938   0.730   4.511
  186TIP3   OH2  563   5.083   3.076   2.943
  186TIP3    H1  564   5.053   3.040   2.859
  186TIP3    H2  565   5.051   3.014   3.008
  187TIP3   OH2  566   6.097   0.929   0.803
  187TIP3    H1  567   6.169   0.878   0.767
  187TIP3    H2  568   6.136   0.978   0.875
  188TIP3   OH2  569   0.763   5.753   0.387
  188TIP3    H1  570   0.737   5.668   0.425
  188TIP3    H2  571   0.840   5.779   0.438
  189TIP3   OH2  572   0.164   4.770   3.333
  189TIP3    H1  573   0.177   4.713   3.257
  189TIP3    H2  574   0.202   4.854   3.306
  190TIP3   OH2  575   5.492   1.524   2.003
  190TIP3    H1  576   5.398   1.539   2.001
  190TIP3    H2  577   5.520   1.532   1.912
  191TIP3   OH2  578   2.600   3.465   0.304
  191TIP3    H1  579   2.512   3.470   0.267
  191TIP3    H2  580   2.588   3.417   0.386
  192TIP3   OH2  581   2.083   0.484   2.754
  192TIP3    H1  582   2.177   0.469   2.769
  192TIP3    H2  583   2.041   0.408   2.794
  193TIP3   OH2  584   4.513   5.248   4.721
  193TIP3    H1  585   4.465   5.178   4.765
  193TIP3    H2  586   4.453   5.323   4.723
  194TIP3   OH2  587   0.242   1.118   4.136
  194TIP3    H1  588   0.221   1.151   4.224
  194TIP3    H2  589   0.331   1.148   4.121
  195TIP3   OH2  590   3.133   1.238   0.622
  195TIP3    H1  591   3.130   1.328   0.655
  195TIP3    H2  592   3.174   1.188   0.692
  196TIP3   OH2  593   1.655   5.562   1.975
  196TIP3    H1  594   1.642   5.531   1.886
  196TIP3    H2  595   1.679   5.484   2.025
  197TIP3   OH2  596   4.230   5.446   2.057
  197TIP3    H1  597   4.284   5.474   1.983
  197TIP3    H2  598   4.242   5.513   2.123
  198TIP3   OH2  599   0.068   0.817   1.996
  198TIP3    H1  600   0.023   0.760   2.059
  198TIP3    H2  601   0.148   0.770   1.975
  199TIP3   OH2  602   2.759   2.503   5.214
  199TIP3    H1  603   2.747   2.595   5.234
  199TIP3    H2  604   2.672   2.472   5.189
  200TIP3   OH2  605   6.028   3.912   0.408
  200TIP3    H1  606   6.120   3.892   0.394
  200TIP3    H2  607   5.984   3.828   0.404
  201TIP3   OH2  608   5.156   3.905   4.554
  201TIP3    H1  609   5.068   3.926   4.522
  201TIP3    H2  610   5.183   3.829   4.503
  202TIP3   OH2  611   0.808   4.209   0.591
  202TIP3    H1  612   0.786   4.172   0.506
  202TIP3    H2  613   0.759   4.291   0.596
  203TIP3   OH2  614   3.429   1.427   1.019
  203TIP3    H1  615   3.347   1.388   0.989
  203TIP3    H2  616   3.468   1.360   1.076
  204TIP3   OH2  617   0.214   5.080   2.251
  204TIP3    H1  618   0.309   5.077   2.263
  204TIP3    H2  619   0.190   5.171   2.266
  205TIP3   OH2  620   6.126   0.256   1.981
  205TIP3    H1  621   6.079   0.331   1.943
  205TIP3    H2  622   6.200   0.243   1.923
  206TIP3   OH2  623   0.369   5.307   0.503
  206TIP3    H1  624   0.380   5.315   0.598
  206TIP3    H2  625   0.377   5.396   0.470
  207TIP3   OH2  626   3.209   0.389   3.957
  207TIP3    H1  627   3.121   0.380   3.922
  207TIP3    H2  628   3.198   0.429   4.043
  208TIP3   OH2  629   2.617   2.940   4.853
  208TIP3    H1  630   2.684   2.989   4.900
  208TIP3    H2  631   2.629   2.965   4.762
  209TIP3   OH2  632   0.852   5.107   0.939
  209TIP3    H1  633   0.822   5.183   0.989
  209TIP3    H2  634   0.918   5.066   0.995
  210TIP3   OH2  635   2.920   1.356   3.064
  210TIP3    H1  636   2.998   1.366   3.010
  210TIP3    H2  637   2.954   1.322   3.147
  211TIP3   OH2  638   0.479   5.758   5.041
  211TIP3    H1  639   0.545   5.737   4.975
  211TIP3    H2  640   0.508   5.712   5.120
  212TIP3   OH2  641   2.268   4.586   3.277
  212TIP3    H1  642   2.346   4.532   3.291
  212TIP3    H2  643   2.212   4.533   3.220
  213TIP3   OH2  644   5.943   4.111   4.492
  213TIP3    H1  645   5.919   4.019   4.509
  213TIP3    H2  646   5.867   4.146   4.445
  214TIP3   OH2  647   6.172   0.879   1.154
  214TIP3    H1  648   6.092   0.916   1.117
  214TIP3    H2  649   6.160   0.884   1.249
  215TIP3   OH2  650   5.145   1.540   5.099
  215TIP3    H1  651   5.135   1.558   5.193
  215TIP3    H2  652   5.188   1.618   5.064
  216TIP3   OH2  653   6.174   4.154   2.506
  216TIP3    H1  654   6.094   4.107   2.529
  216TIP3    H2  655   6.209   4.107   2.431
  217TIP3   OH2  656   3.132   2.208   0.381
  217TIP3    H1  657   3.118   2.128   0.331
  217TIP3    H2  658   3.060   2.266   0.355
  218TIP3   OH2  659   2.525   2.016   3.647
  218TIP3    H1  660   2.560   1.948   3.588
  218TIP3    H2  661   2.501   1.969   3.726
  219TIP3   OH2  662   1.174   0.604   4.563
  219TIP3    H1  663   1.130   0.651   4.633
  219TIP3    H2  664   1.231   0.669   4.522
  220TIP3   OH2  665   4.932   2.562   4.495
  220TIP3    H1  666   4.981   2.480   4.496
  220TIP3    H2  667   4.933   2.589   4.403
  221TIP3   OH2  668   1.307   0.952   3.663
  221TIP3    H1  669   1.314   0.865   3.703
  221TIP3    H2  670   1.296   1.012   3.737
  222TIP3   OH2  671   3.695   1.090   2.748
  222TIP3    H1  672   3.773   1.145   2.752
  222TIP3    H2  673   3.684   1.071   2.655
  223TIP3   OH2  674   0.196   4.823   2.529
  223TIP3    H1  675   0.115   4.837   2.481
  223TIP3    H2  676   0.255   4.782   2.466
  224TIP3   OH2  677   1.531   3.160   1.555
  224TIP3    H1  678   1.581   3.081   1.537
  224TIP3    H2  679   1.454   3.153   1.498
  225TIP3   OH2  680   0.523   0.956   4.789
  225TIP3    H1  681   0.441   0.976   4.834
  225TIP3    H2  682   0.589   0.954   4.858
  226TIP3   OH2  683   5.526   4.261   3.694
  226TIP3    H1  684   5.545   4.346   3.734
  226TIP3    H2  685   5.538   4.276   3.601
  227TIP3   OH2  686   1.846   1.896   2.433
  227TIP3    H1  687   1.859   1.915   2.526
  227TIP3    H2  688   1.803   1.973   2.398
  228TIP3   OH2  689   2.973   4.871   1.701
  228TIP3    H1  690   3.046   4.930   1.718
  228TIP3    H2  691   2.910   4.926   1.653
  229TIP3   OH2  692   3.211   3.282   4.179
  229TIP3    H1  693   3.266   3.235   4.116
  229TIP3    H2  694   3.260   3.361   4.200
  230TIP3   OH2  695   1.168   0.468   0.998
  230TIP3    H1  696   1.245   0.525   0.999
  230TIP3    H2  697   1.118   0.493   1.076
  231TIP3   OH2  698   4.596   4.678   0.357
  231TIP3    H1  699   4.529   4.732   0.400
  231TIP3    H2  700   4.586   4.591   0.397
  232TIP3   OH2  701   3.271   5.250   3.704
  232TIP3    H1  702   3.184   5.220   3.730
  232TIP3    H2  703   3.263   5.345   3.697
  233TIP3   OH2  704   2.327   5.597   0.039
  233TIP3    H1  705   2.278   5.629  -0.036
  233TIP3    H2  706   2.264   5.595   0.111
  234TIP3   OH2  707   6.138   0.614   4.128
  234TIP3    H1  708   6.143   0.646   4.218
  234TIP3    H2  709   6.229   0.614   4.098
  235TIP3   OH2  710   4.819   4.197   3.109
  235TIP3    H1  711   4.793   4.221   3.020
  235TIP3    H2  712   4.899   4.146   3.097
  236TIP3   OH2  713   3.224   5.580   2.740
  236TIP3    H1  714   3.176   5.556   2.819
  236TIP3    H2  715   3.299   5.631   2.772
  237TIP3   OH2  716   2.012   5.554   1.254
  237TIP3    H1  717   1.947   5.512   1.197
  237TIP3    H2  718   2.094   5.511   1.232
  238TIP3   OH2  719   4.336   4.000   3.746
  238TIP3    H1  720   4.325   4.011   3.651
  238TIP3    H2  721   4.299   4.080   3.783
  239TIP3   OH2  722   1.481   5.715   1.615
  239TIP3    H1  723   1.431   5.633   1.617
  239TIP3    H2  724   1.488   5.736   1.522
  240TIP3   OH2  725   6.317   0.077   4.381
  240TIP3    H1  726   6.383   0.033   4.434
  240TIP3    H2  727   6.241   0.020   4.385
  241TIP3   OH2  728   1.692   4.680   2.496
  241TIP3    H1  729   1.608   4.702   2.537
  241TIP3    H2  730   1.753   4.743   2.532
  242TIP3   OH2  731   3.215   3.948   2.103
  242TIP3    H1  732   3.203   3.955   2.008
  242TIP3    H2  733   3.187   4.034   2.137
  243TIP3   OH2  734   5.368   0.119   2.225
  243TIP3    H1  735   5.307   0.156   2.161
  243TIP3    H2  736   5.324   0.041   2.258
  244TIP3   OH2  737   3.842   0.975   4.068
  244TIP3    H1  738   3.903   1.044   4.043
  244TIP3    H2  739   3.799   1.008   4.147
  245TIP3   OH2  740   4.079   3.987   2.844
  245TIP3    H1  741   4.012   3.940   2.893
  245TIP3    H2  742   4.129   3.918   2.800
  246TIP3   OH2  743   2.889   5.953   0.688
  246TIP3    H1  744   2.908   5.878   0.744
  246TIP3    H2  745   2.794   5.950   0.675
  247TIP3   OH2  746   3.981   3.961   2.440
  247TIP3    H1  747   3.901   3.949   2.389
  247TIP3    H2  748   3.988   3.882   2.493
  248TIP3   OH2  749   3.650   2.833   0.819
  248TIP3    H1  750   3.624   2.741   0.812
  248TIP3    H2  751   3.566   2.881   0.820
  249TIP3   OH2  752   1.413   1.946   4.182
  249TIP3    H1  753   1.387   1.906   4.099
  249TIP3    H2  754   1.508   1.935   4.185
  250TIP3   OH2  755   5.638   0.862   1.112
  250TIP3    H1  756   5.623   0.775   1.150
  250TIP3    H2  757   5.589   0.860   1.029
  251TIP3   OH2  758   3.175   1.848   0.563
  251TIP3    H1  759   3.096   1.900   0.578
  251TIP3    H2  760   3.226   1.858   0.643
  252TIP3   OH2  761   1.570   0.203   4.987
  252TIP3    H1  762   1.572   0.195   4.892
  252TIP3    H2  763   1.615   0.125   5.019
  253TIP3   OH2  764   5.664   4.070   0.552
  253TIP3    H1  765   5.729   4.133   0.521
  253TIP3    H2  766   5.585   4.091   0.502
  254TIP3   OH2  767   3.258   5.325   0.806
  254TIP3    H1  768   3.206   5.393   0.763
  254TIP3    H2  769   3.299   5.277   0.734
  255TIP3   OH2  770   3.374   1.967   4.080
  255TIP3    H1  771   3.343   2.055   4.100
  255TIP3    H2  772   3.435   1.946   4.150
  256TIP3   OH2  773   5.857   0.850   3.205
  256TIP3    H1  774   5.906   0.862   3.124
  256TIP3    H2  775   5.908   0.896   3.271
  257TIP3   OH2  776   0.678   2.644   2.398
  257TIP3    H1  777   0.750   2.620   2.457
  257TIP3    H2  778   0.622   2.701   2.452
  258TIP3   OH2  779   5.690   0.413   3.579
  258TIP3    H1  780   5.630   0.402   3.653
  258TIP3    H2  781   5.775   0.430   3.620
  259TIP3   OH2  782   1.196   1.834   1.960
  259TIP3    H1  783   1.169   1.924   1.939
  259TIP3    H2  784   1.273   1.845   2.016
  260TIP3   OH2  785   5.533   0.807   2.182
  260TIP3    H1  786   5.447   0.841   2.158
  260TIP3    H2  787   5.595   0.870   2.147
  261TIP3   OH2  788   2.330   4.063   2.417
  261TIP3    H1  789   2.332   3.975   2.379
  261TIP3    H2  790   2.237   4.079   2.434
  262TIP3   OH2  791   4.110   2.212   4.726
  262TIP3    H1  792   4.156   2.160   4.791
  262TIP3    H2  793   4.173   2.221   4.654
  263TIP3   OH2  794   4.941   4.499   3.399
  263TIP3    H1  795   4.952   4.591   3.424
  263TIP3    H2  796   5.024   4.458   3.425
  264TIP3   OH2  797   1.374   1.140   4.964
  264TIP3    H1  798   1.341   1.072   4.905
  264TIP3    H2  799   1.301   1.160   5.022
  265TIP3   OH2  800   5.926   5.942   4.286
  265TIP3    H1  801   5.938   5.864   4.233
  265TIP3    H2  802   5.851   5.987   4.246
  266TIP3   OH2  803   1.554   0.912   0.265
  266TIP3    H1  804   1.588   0.855   0.196
  266TIP3    H2  805   1.596   0.997   0.249
  267TIP3   OH2  806   3.992   0.210   0.541
  267TIP3    H1  807   3.933   0.246   0.475
  267TIP3    H2  808   3.995   0.277   0.609
  268TIP3   OH2  809   1.261   1.202   1.607
  268TIP3    H1  810   1.242   1.214   1.701
  268TIP3    H2  811   1.175   1.204   1.565
  269TIP3   OH2  812   5.488   2.281   3.741
  269TIP3    H1  813   5.467   2.293   3.648
  269TIP3    H2  814   5.448   2.356   3.784
  270TIP3   OH2  815   4.502   5.482   1.306
  270TIP3    H1  816   4.562   5.513   1.239
  270TIP3    H2  817   4.439   5.553   1.317
  271TIP3   OH2  818   1.973   2.143   5.160
  271TIP3    H1  819   1.928   2.109   5.083
  271TIP3    H2  820   1.980   2.238   5.143
  272TIP3   OH2  821   1.384   2.795   3.499
  272TIP3    H1  822   1.375   2.869   3.560
  272TIP3    H2  823   1.478   2.775   3.501
  273TIP3   OH2  824   0.163   5.536   0.695
  273TIP3    H1  825   0.104   5.610   0.711
  273TIP3    H2  826   0.156   5.483   0.774
  274TIP3   OH2  827   4.168   5.681   3.310
  274TIP3    H1  828   4.213   5.765   3.319
  274TIP3    H2  829   4.076   5.701   3.328
  275TIP3   OH2  830   2.697   5.781   4.186
  275TIP3    H1  831   2.753   5.743   4.254
  275TIP3    H2  832   2.757   5.797   4.113
  276TIP3   OH2  833   2.542   1.979   0.295
  276TIP3    H1  834   2.453   1.972   0.329
  276TIP3    H2  835   2.562   1.892   0.261
  277TIP3   OH2  836   5.385   3.324   3.430
  277TIP3    H1  837   5.405   3.370   3.511
  277TIP3    H2  838   5.294   3.295   3.440
  278TIP3   OH2  839   0.884   1.560   0.917
  278TIP3    H1  840   0.875   1.629   0.851
  278TIP3    H2  841   0.827   1.490   0.888
  279TIP3   OH2  842   0.808   1.762   1.854
  279TIP3    H1  843   0.847   1.849   1.855
  279TIP3    H2  844   0.881   1.703   1.875
  280TIP3   OH2  845   0.463   0.769   1.414
  280TIP3    H1  846   0.554   0.792   1.434
  280TIP3    H2  847   0.425   0.748   1.500
  281TIP3   OH2  848   0.119   4.950   4.832
  281TIP3    H1  849   0.152   4.948   4.742
  281TIP3    H2  850   0.158   5.029   4.870
  282TIP3   OH2  851   1.474   1.816   4.571
  282TIP3    H1  852   1.529   1.872   4.517
  282TIP3    H2  853   1.427   1.877   4.628
  283TIP3   OH2  854   3.551   4.925   0.429
  283TIP3    H1  855   3.634   4.901   0.388
  283TIP3    H2  856   3.496   4.953   0.356
  284TIP3   OH2  857   1.392   2.356   2.107
  284TIP3    H1  858   1.475   2.339   2.064
  284TIP3    H2  859   1.385   2.289   2.174
  285TIP3   OH2  860   5.402   3.804   2.470
  285TIP3    H1  861   5.493   3.835   2.466
  285TIP3    H2  862   5.349   3.881   2.447
  286TIP3   OH2  863   2.544   0.617   3.820
  286TIP3    H1  864   2.624   0.667   3.808
  286TIP3    H2  865   2.479   0.662   3.766
  287TIP3   OH2  866   5.589   4.488   2.425
  287TIP3    H1  867   5.682   4.491   2.403
  287TIP3    H2  868   5.548   4.552   2.367
  288TIP3   OH2  869   0.296   2.890   2.676
  288TIP3    H1  870   0.269   2.957   2.739
  288TIP3    H2  871   0.369   2.845   2.719
  289TIP3   OH2  872   0.295   0.541   3.837
  289TIP3    H1  873   0.357   0.553   3.766
  289TIP3    H2  874   0.349   0.515   3.912
  290TIP3   OH2  875   5.123   2.913   3.478
  290TIP3    H1  876   5.058   2.859   3.431
  290TIP3    H2  877   5.114   2.885   3.569
  291TIP3   OH2  878   1.193   6.008   1.961
  291TIP3    H1  879   1.216   6.005   2.054
  291TIP3    H2  880   1.097   6.016   1.960
  292TIP3   OH2  881   1.336   2.293   0.784
  292TIP3    H1  882   1.278   2.347   0.730
  292TIP3    H2  883   1.422   2.334   0.775
  293TIP3   OH2  884   3.646   1.767   0.730
  293TIP3    H1  885   3.575   1.763   0.794
  293TIP3    H2  886   3.659   1.676   0.703
  294TIP3   OH2  887   4.858   1.868   2.707
  294TIP3    H1  888   4.908   1.814   2.646
  294TIP3    H2  889   4.917   1.938   2.732
  295TIP3   OH2  890   4.883   4.751   0.464
  295TIP3    H1  891   4.859   4.759   0.557
  295TIP3    H2  892   4.802   4.725   0.421
  296TIP3   OH2  893   3.674   0.544   2.260
  296TIP3    H1  894   3.704   0.457   2.232
  296TIP3    H2  895   3.579   0.542   2.244
  297TIP3   OH2  896   4.257   4.790   4.147
  297TIP3    H1  897   4.212   4.818   4.227
  297TIP3    H2  898   4.191   4.796   4.078
  298TIP3   OH2  899   2.668   4.996   3.997
  298TIP3    H1  900   2.625   5.051   3.932
  298TIP3    H2  901   2.673   4.909   3.956
  299TIP3   OH2  902   2.930   4.048   0.480
  299TIP3    H1  903   2.979   4.103   0.418
  299TIP3    H2  904   2.914   4.104   0.555
  300TIP3   OH2  905   2.309   5.440   0.715
  300TIP3    H1  906   2.291   5.476   0.802
  300TIP3    H2  907   2.284   5.348   0.722
  301TIP3   OH2  908   1.786   1.477   3.819
  301TIP3    H1  909   1.881   1.476   3.823
  301TIP3    H2  910   1.760   1.548   3.878
  302TIP3   OH2  911   4.846   1.634   2.418
  302TIP3    H1  912   4.785   1.564   2.442
  302TIP3    H2  913   4.903   1.595   2.352
  303TIP3   OH2  914   0.141   1.150   0.577
  303TIP3    H1  915   0.062   1.117   0.536
  303TIP3    H2  916   0.156   1.091   0.651
  304TIP3   OH2  917  -0.004   5.258   2.975
  304TIP3    H1  918  -0.056   5.338   2.987
  304TIP3    H2  919  -0.026   5.203   3.049
  305TIP3   OH2  920   5.211   5.726   2.675
  305TIP3    H1  921   5.306   5.716   2.662
  305TIP3    H2  922   5.184   5.783   2.603
  306TIP3   OH2  923   2.443   0.812   2.154
  306TIP3    H1  924   2.465   0.813   2.247
  306TIP3    H2  925   2.439   0.905   2.129
  307TIP3   OH2  926   5.920   5.311   0.217
  307TIP3    H1  927   5.929   5.358   0.299
  307TIP3    H2  928   6.003   5.266   0.205
  308TIP3   OH2  929   5.432   0.685   3.671
  308TIP3    H1  930   5.438   0.780   3.675
  308TIP3    H2  931   5.519   0.657   3.643
  309TIP3   OH2  932   5.865   0.056   2.272
  309TIP3    H1  933   5.859   0.149   2.250
  309TIP3    H2  934   5.803   0.044   2.344
  310TIP3   OH2  935   6.003   4.225   4.199
  310TIP3    H1  936   5.930   4.250   4.142
  310TIP3    H2  937   6.081   4.243   4.146
  311TIP3   OH2  938   5.174   0.407   2.744
  311TIP3    H1  939   5.186   0.470   2.672
  311TIP3    H2  940   5.220   0.446   2.818
  312TIP3   OH2  941   1.884   3.268   2.450
  312TIP3    H1  942   1.978   3.271   2.432
  312TIP3    H2  943   1.878   3.271   2.546
  313TIP3   OH2  944   4.726   3.172   2.745
  313TIP3    H1  945   4.645   3.136   2.779
  313TIP3    H2  946   4.701   3.255   2.704
  314TIP3   OH2  947   5.285   0.256   3.922
  314TIP3    H1  948   5.332   0.184   3.964
  314TIP3    H2  949   5.311   0.334   3.971
  315TIP3   OH2  950   4.186   0.087   4.072
  315TIP3    H1  951   4.173   0.162   4.013
  315TIP3    H2  952   4.124   0.102   4.143
  316TIP3   OH2  953   4.231   5.272   1.052
  316TIP3    H1  954   4.184   5.333   1.108
  316TIP3    H2  955   4.261   5.202   1.111
  317TIP3   OH2  956   1.459   3.589   3.492
  317TIP3    H1  957   1.412   3.640   3.558
  317TIP3    H2  958   1.392   3.532   3.454
  318TIP3   OH2  959   2.176   5.774   2.746
  318TIP3    H1  960   2.194   5.787   2.839
  318TIP3    H2  961   2.152   5.861   2.714
  319TIP3   OH2  962   2.882   4.709   3.965
  319TIP3    H1  963   2.810   4.646   3.954
  319TIP3    H2  964   2.931   4.676   4.040
  320TIP3   OH2  965   2.471   3.275   1.030
  320TIP3    H1  966   2.505   3.362   1.006
  320TIP3    H2  967   2.506   3.217   0.962
  321TIP3   OH2  968   1.456   1.582   0.329
  321TIP3    H1  969   1.475   1.516   0.262
  321TIP3    H2  970   1.389   1.541   0.384
  322TIP3   OH2  971   3.504   2.027   2.861
  322TIP3    H1  972   3.546   2.040   2.946
  322TIP3    H2  973   3.444   1.953   2.875
  323TIP3   OH2  974   3.222   2.014   2.331
  323TIP3    H1  975   3.173   2.096   2.331
  323TIP3    H2  976   3.227   1.989   2.424
  324TIP3   OH2  977   3.776   2.421   2.186
  324TIP3    H1  978   3.779   2.512   2.157
  324TIP3    H2  979   3.722   2.422   2.265
  325TIP3   OH2  980   4.858   3.566   2.278
  325TIP3    H1  981   4.884   3.477   2.301
  325TIP3    H2  982   4.915   3.622   2.330
  326TIP3   OH2  983   4.407   1.018   1.684
  326TIP3    H1  984   4.483   1.000   1.739
  326TIP3    H2  985   4.392   1.113   1.694
  327TIP3   OH2  986   4.889   4.525   0.868
  327TIP3    H1  987   4.910   4.471   0.792
  327TIP3    H2  988   4.974   4.554   0.902
  328TIP3   OH2  989   5.016   2.736   0.948
  328TIP3    H1  990   4.939   2.732   1.005
  328TIP3    H2  991   5.028   2.829   0.931
  329TIP3   OH2  992   4.666   4.066   4.941
  329TIP3    H1  993   4.605   4.139   4.950
  329TIP3    H2  994   4.745   4.106   4.904
  330TIP3   OH2  995   4.705   2.272   4.507
  330TIP3    H1  996   4.653   2.227   4.440
  330TIP3    H2  997   4.740   2.349   4.461
  331TIP3   OH2  998   3.088   1.901   3.764
  331TIP3    H1  999   3.018   1.859   3.815
  331TIP3    H2 1000   3.050   1.915   3.678
  332TIP3   OH2 1001   1.667   3.168   0.973
  332TIP3    H1 1002   1.619   3.242   1.008
  332TIP3    H2 1003   1.722   3.138   1.045
  333TIP3   OH2 1004   3.331   2.958   1.532
  333TIP3    H1 1005   3.337   2.864   1.514
  333TIP3    H2 1006   3.317   2.998   1.447
  334TIP3   OH2 1007   4.628   4.200   0.822
  334TIP3    H1 1008   4.553   4.141   0.814
  334TIP3    H2 1009   4.593   4.281   0.857
  335TIP3   OH2 1010   1.292   2.219   4.141
  335TIP3    H1 1011   1.344   2.139   4.137
  335TIP3    H2 1012   1.207   2.190   4.176
  336TIP3   OH2 1013   1.814   5.851   1.305
  336TIP3    H1 1014   1.748   5.919   1.295
  336TIP3    H2 1015   1.868   5.858   1.226
  337TIP3   OH2 1016   0.885   3.370   1.206
  337TIP3    H1 1017   0.969   3.411   1.187
  337TIP3    H2 1018   0.843   3.429   1.269
  338TIP3   OH2 1019   4.899   3.104   3.934
  338TIP3    H1 1020   4.903   3.193   3.969
  338TIP3    H2 1021   4.914   3.115   3.840
  339TIP3   OH2 1022   2.687   2.544   2.967
  339TIP3    H1 1023   2.648   2.548   2.880
  339TIP3    H2 1024   2.667   2.456   2.999
  340TIP3   OH2 1025   2.585   4.607   5.096
  340TIP3    H1 1026   2.630   4.595   5.012
  340TIP3    H2 1027   2.531   4.528   5.105
  341TIP3   OH2 1028   3.498   1.572   1.975
  341TIP3    H1 1029   3.432   1.559   1.907
  341TIP3    H2 1030   3.524   1.484   2.002
  342TIP3   OH2 1031   3.893   0.881   1.015
  342TIP3    H1 1032   3.945   0.840   0.946
  342TIP3    H2 1033   3.817   0.917   0.969
  343TIP3   OH2 1034   5.495   4.754   2.457
  343TIP3    H1 1035   5.509   4.731   2.365
  343TIP3    H2 1036   5.413   4.709   2.480
  344TIP3   OH2 1037   1.533   5.951   1.140
  344TIP3    H1 1038   1.485   5.982   1.063
  344TIP3    H2 1039   1.479   5.978   1.214
  345TIP3   OH2 1040   0.654   4.784   4.081
  345TIP3    H1 1041   0.649   4.878   4.098
  345TIP3    H2 1042   0.692   4.747   4.161
  346TIP3   OH2 1043   4.834   1.074   4.430
  346TIP3    H1 1044   4.924   1.095   4.457
  346TIP3    H2 1045   4.789   1.054   4.511
  347TIP3   OH2 1046   0.133   1.681   5.147
  347TIP3    H1 1047   0.189   1.622   5.198
  347TIP3    H2 1048   0.176   1.688   5.062
  348TIP3   OH2 1049   5.470   1.549   1.197
  348TIP3    H1 1050   5.434   1.469   1.159
  348TIP3    H2 1051   5.463   1.614   1.127
  349TIP3   OH2 1052   4.941   5.147   2.145
  349TIP3    H1 1053   4.872   5.189   2.195
  349TIP3    H2 1054   4.977   5.216   2.090
  350TIP3   OH2 1055   3.203   4.096   0.829
  350TIP3    H1 1056   3.204   4.192   0.827
  350TIP3    H2 1057   3.197   4.070   0.737
  351TIP3   OH2 1058   6.355   0.201   3.011
  351TIP3    H1 1059   6.309   0.138   2.956
  351TIP3    H2 1060   6.294   0.274   3.020
  352TIP3   OH2 1061   2.469   0.797   3.376
  352TIP3    H1 1062   2.554   0.824   3.411
  352TIP3    H2 1063   2.411   0.796   3.452
  353TIP3   OH2 1064   3.903   3.285   2.141
  353TIP3    H1 1065   3.976   3.346   2.138
  353TIP3    H2 1066   3.829   3.333   2.104
  354TIP3   OH2 1067   5.648   5.408   4.411
  354TIP3    H1 1068   5.668   5.341   4.346
  354TIP3    H2 1069   5.605   5.361   4.482
  355TIP3   OH2 1070   0.999   5.723   0.517
  355TIP3    H1 1071   1.058   5.736   0.442
  355TIP3    H2 1072   1.053   5.678   0.582
  356TIP3   OH2 1073   3.790   1.746   4.798
  356TIP3    H1 1074   3.782   1.753   4.893
  356TIP3    H2 1075   3.847   1.818   4.773
  357TIP3   OH2 1076   5.750   5.164   0.059
  357TIP3    H1 1077   5.756   5.221  -0.018
  357TIP3    H2 1078   5.812   5.202   0.121
  358TIP3   OH2 1079   2.495   1.553   3.957
  358TIP3    H1 1080   2.448   1.469   3.960
  358TIP3    H2 1081   2.573   1.539   4.009
  359TIP3   OH2 1082   4.125   4.907   1.594
  359TIP3    H1 1083   4.149   4.889   1.685
  359TIP3    H2 1084   4.172   4.988   1.573
  360TIP3   OH2 1085   5.984   1.391   2.225
  360TIP3    H1 1086   5.917   1.418   2.161
  360TIP3    H2 1087   5.957   1.432   2.307
  361TIP3   OH2 1088   3.051   2.013   0.225
  361TIP3    H1 1089   3.033   2.057   0.142
  361TIP3    H2 1090   3.052   1.920   0.202
  362TIP3   OH2 1091   4.325   2.572   1.843
  362TIP3    H1 1092   4.399   2.598   1.789
  362TIP3    H2 1093   4.298   2.487   1.808
  363TIP3   OH2 1094   0.333   0.701   0.552
  363TIP3    H1 1095   0.376   0.641   0.612
  363TIP3    H2 1096   0.315   0.779   0.605
  364TIP3   OH2 1097   1.165   1.293   2.449
  364TIP3    H1 1098   1.155   1.199   2.435
  364TIP3    H2 1099   1.256   1.304   2.477
  365TIP3   OH2 1100   1.505   3.520   0.168
  365TIP3    H1 1101   1.517   3.565   0.252
  365TIP3    H2 1102   1.512   3.427   0.190
  366TIP3   OH2 1103   4.560   3.858   5.143
  366TIP3    H1 1104   4.566   3.933   5.083
  366TIP3    H2 1105   4.615   3.883   5.217
  367TIP3   OH2 1106   4.321   5.802   4.199
  367TIP3    H1 1107   4.303   5.892   4.226
  367TIP3    H2 1108   4.247   5.752   4.232
  368TIP3   OH2 1109   0.948   4.290   1.854
  368TIP3    H1 1110   0.853   4.277   1.849
  368TIP3    H2 1111   0.965   4.312   1.946
  369TIP3   OH2 1112   6.005   1.543   4.119
  369TIP3    H1 1113   6.021   1.583   4.205
  369TIP3    H2 1114   5.979   1.616   4.064
  370TIP3   OH2 1115   0.545   3.631   4.504
  370TIP3    H1 1116   0.537   3.677   4.420
  370TIP3    H2 1117   0.514   3.542   4.485
  371TIP3   OH2 1118   0.726   0.428   3.884
  371TIP3    H1 1119   0.789   0.438   3.956
  371TIP3    H2 1120   0.652   0.381   3.924
  372TIP3   OH2 1121   3.531   3.248   2.923
  372TIP3    H1 1122   3.455   3.248   2.865
  372TIP3    H2 1123   3.504   3.299   2.999
  373TIP3   OH2 1124   3.903   1.657   0.949
  373TIP3    H1 1125   3.909   1.702   0.865
  373TIP3    H2 1126   3.943   1.717   1.011
  374TIP3   OH2 1127   3.194   2.613   1.212
  374TIP3    H1 1128   3.161   2.524   1.226
  374TIP3    H2 1129   3.120   2.670   1.235
  375TIP3   OH2 1130   3.762   4.981   0.058
  375TIP3    H1 1131   3.731   5.072   0.067
  375TIP3    H2 1132   3.817   4.967   0.135
  376TIP3   OH2 1133   2.336   4.902   0.276
  376TIP3    H1 1134   2.281   4.930   0.203
  376TIP3    H2 1135   2.400   4.842   0.237
  377TIP3   OH2 1136   5.295   2.501   5.125
  377TIP3    H1 1137   5.224   2.563   5.108
  377TIP3    H2 1138   5.327   2.526   5.212
  378TIP3   OH2 1139   5.669   5.350   3.793
  378TIP3    H1 1140   5.625   5.264   3.794
  378TIP3    H2 1141   5.608   5.408   3.839
  379TIP3   OH2 1142   3.526   5.208   1.586
  379TIP3    H1 1143   3.616   5.214   1.620
  379TIP3    H2 1144   3.483   5.287   1.620
  380TIP3   OH2 1145   0.840   1.851   0.138
  380TIP3    H1 1146   0.748   1.832   0.158
  380TIP3    H2 1147   0.847   1.946   0.143
  381TIP3   OH2 1148   2.721   2.396   4.853
  381TIP3    H1 1149   2.665   2.459   4.806
  381TIP3    H2 1150   2.672   2.375   4.932
  382TIP3   OH2 1151   2.127   1.325   2.266
  382TIP3    H1 1152   2.062   1.300   2.200
  382TIP3    H2 1153   2.166   1.242   2.293
  383TIP3   OH2 1154   5.528   4.889   1.371
  383TIP3    H1 1155   5.465   4.921   1.436
  383TIP3    H2 1156   5.541   4.963   1.313
  384TIP3   OH2 1157   6.049   0.809   3.614
  384TIP3    H1 1158   6.126   0.864   3.601
  384TIP3    H2 1159   6.027   0.776   3.527
  385TIP3   OH2 1160   0.197   2.601   0.927
  385TIP3    H1 1161   0.229   2.530   0.983
  385TIP3    H2 1162   0.176   2.559   0.844
  386TIP3   OH2 1163   4.321   3.101   1.944
  386TIP3    H1 1164   4.324   3.103   1.849
  386TIP3    H2 1165   4.354   3.187   1.971
  387TIP3   OH2 1166   3.201   3.161   4.448
  387TIP3    H1 1167   3.184   3.204   4.365
  387TIP3    H2 1168   3.131   3.096   4.457
  388TIP3   OH2 1169   3.672   3.150   4.944
  388TIP3    H1 1170   3.726   3.071   4.942
  388TIP3    H2 1171   3.726   3.216   4.899
  389TIP3   OH2 1172   5.311   4.914   1.775
  389TIP3    H1 1173   5.313   4.863   1.855
  389TIP3    H2 1174   5.287   5.003   1.803
  390TIP3   OH2 1175   6.109   0.876   3.319
  390TIP3    H1 1176   6.073   0.796   3.280
  390TIP3    H2 1177   6.196   0.885   3.280
  391TIP3   OH2 1178   3.322   0.311   0.469
  391TIP3    H1 1179   3.323   0.217   0.483
  391TIP3    H2 1180   3.246   0.342   0.517
  392TIP3   OH2 1181   2.582   1.243   1.555
  392TIP3    H1 1182   2.517   1.208   1.495
  392TIP3    H2 1183   2.541   1.322   1.591
  393TIP3   OH2 1184   1.838   4.697   5.107
  393TIP3    H1 1185   1.893   4.726   5.035
  393TIP3    H2 1186   1.831   4.602   5.096
  394TIP3   OH2 1187   0.474   2.929   1.961
  394TIP3    H1 1188   0.526   2.908   1.884
  394TIP3    H2 1189   0.524   2.893   2.034
  395TIP3   OH2 1190   5.414   1.453   3.848
  395TIP3    H1 1191   5.361   1.430   3.772
  395TIP3    H2 1192   5.476   1.381   3.857
  396TIP3   OH2 1193   1.056   3.580   1.457
  396TIP3    H1 1194   1.021   3.623   1.379
  396TIP3    H2 1195   1.128   3.636   1.486
  397TIP3   OH2 1196   3.108   5.157   3.182
  397TIP3    H1 1197   3.191   5.155   3.231
  397TIP3    H2 1198   3.054   5.090   3.225
  398TIP3   OH2 1199   6.091   4.825   2.504
  398TIP3    H1 1200   5.996   4.814   2.513
  398TIP3    H2 1201   6.127   4.784   2.583
  399TIP3   OH2 1202   2.699   1.629   1.868
  399TIP3    H1 1203   2.749   1.616   1.949
  399TIP3    H2 1204   2.701   1.543   1.825
  400TIP3   OH2 1205   3.965   3.376   3.948
  400TIP3    H1 1206   4.023   3.451   3.943
  400TIP3    H2 1207   3.984   3.324   3.870
  401TIP3   OH2 1208   4.078   2.364   0.425
  401TIP3    H1 1209   3.992   2.349   0.464
  401TIP3    H2 1210   4.140   2.335   0.492
  402TIP3   OH2 1211   5.482   0.300   0.459
  402TIP3    H1 1212   5.459   0.376   0.405
  402TIP3    H2 1213   5.410   0.238   0.445
  403TIP3   OH2 1214   2.773   1.267   3.904
  403TIP3    H1 1215   2.857   1.264   3.858
  403TIP3    H2 1216   2.775   1.349   3.953
  404TIP3   OH2 1217   5.874   1.680   2.996
  404TIP3    H1 1218   5.886   1.756   3.053
  404TIP3    H2 1219   5.873   1.605   3.055
  405TIP3   OH2 1220   3.756   0.622   0.495
  405TIP3    H1 1221   3.695   0.553   0.522
  405TIP3    H2 1222   3.831   0.574   0.458
  406TIP3   OH2 1223   4.137   5.911   1.175
  406TIP3    H1 1224   4.049   5.919   1.138
  406TIP3    H2 1225   4.122   5.898   1.268
  407TIP3   OH2 1226   2.737   1.700   0.639
  407TIP3    H1 1227   2.680   1.707   0.716
  407TIP3    H2 1228   2.745   1.790   0.607
  408TIP3   OH2 1229   1.736   1.971   3.528
  408TIP3    H1 1230   1.707   2.045   3.581
  408TIP3    H2 1231   1.691   1.983   3.444
  409TIP3   OH2 1232   0.542   0.594   4.904
  409TIP3    H1 1233   0.461   0.623   4.862
  409TIP3    H2 1234   0.608   0.659   4.877
  410TIP3   OH2 1235   3.291   3.707   4.491
  410TIP3    H1 1236   3.357   3.771   4.466
  410TIP3    H2 1237   3.322   3.670   4.574
  411TIP3   OH2 1238   5.444   0.933   4.470
  411TIP3    H1 1239   5.381   0.915   4.401
  411TIP3    H2 1240   5.426   1.023   4.498
  412TIP3   OH2 1241   0.545   1.316   2.452
  412TIP3    H1 1242   0.450   1.307   2.448
  412TIP3    H2 1243   0.562   1.404   2.417
  413TIP3   OH2 1244   3.550   5.027   3.370
  413TIP3    H1 1245   3.643   5.007   3.359
  413TIP3    H2 1246   3.508   4.941   3.378
  414TIP3   OH2 1247   1.184   0.981   2.763
  414TIP3    H1 1248   1.173   1.075   2.780
  414TIP3    H2 1249   1.166   0.972   2.670
  415TIP3   OH2 1250   1.364   3.694   3.752
  415TIP3    H1 1251   1.301   3.676   3.821
  415TIP3    H2 1252   1.449   3.699   3.797
  416TIP3   OH2 1253   0.090   2.286   3.670
  416TIP3    H1 1254   0.049   2.373   3.673
  416TIP3    H2 1255   0.026   2.232   3.623
  417TIP3   OH2 1256   1.100   4.816   4.942
  417TIP3    H1 1257   1.065   4.878   5.007
  417TIP3    H2 1258   1.025   4.762   4.918
  418TIP3   OH2 1259   2.878   1.113   0.633
  418TIP3    H1 1260   2.823   1.191   0.623
  418TIP3    H2 1261   2.967   1.145   0.625
  419TIP3   OH2 1262   4.610   1.113   5.155
  419TIP3    H1 1263   4.574   1.154   5.076
  419TIP3    H2 1264   4.532   1.088   5.206
  420TIP3   OH2 1265   1.735   4.397   1.144
  420TIP3    H1 1266   1.656   4.346   1.161
  420TIP3    H2 1267   1.807   4.334   1.157
  421TIP3   OH2 1268   4.706   0.630   4.814
  421TIP3    H1 1269   4.660   0.676   4.884
  421TIP3    H2 1270   4.687   0.537   4.829
  422TIP3   OH2 1271   1.425   3.369   2.413
  422TIP3    H1 1272   1.507   3.415   2.426
  422TIP3    H2 1273   1.363   3.415   2.470
  423TIP3   OH2 1274   4.305   1.349   1.406
  423TIP3    H1 1275   4.245   1.332   1.479
  423TIP3    H2 1276   4.392   1.341   1.445
  424TIP3   OH2 1277   3.603   4.040   1.818
  424TIP3    H1 1278   3.688   4.034   1.862
  424TIP3    H2 1279   3.625   4.061   1.727
  425TIP3   OH2 1280   3.050   4.198   0.298
  425TIP3    H1 1281   3.115   4.148   0.250
  425TIP3    H2 1282   2.973   4.198   0.242
  426TIP3   OH2 1283   0.127   0.837   5.137
  426TIP3    H1 1284   0.102   0.808   5.225
  426TIP3    H2 1285   0.048   0.878   5.103
  427TIP3   OH2 1286   0.834   3.934   1.007
  427TIP3    H1 1287   0.921   3.924   1.046
  427TIP3    H2 1288   0.837   3.880   0.928
  428TIP3   OH2 1289   3.054   4.358   4.506
  428TIP3    H1 1290   3.095   4.343   4.421
  428TIP3    H2 1291   3.047   4.453   4.513
  429TIP3   OH2 1292   5.590   3.188   3.307
  429TIP3    H1 1293   5.506   3.227   3.332
  429TIP3    H2 1294   5.614   3.233   3.226
  430TIP3   OH2 1295   3.235   4.285   1.797
  430TIP3    H1 1296   3.242   4.380   1.788
  430TIP3    H2 1297   3.270   4.250   1.715
  431TIP3   OH2 1298   5.328   1.775   4.409
  431TIP3    H1 1299   5.341   1.869   4.408
  431TIP3    H2 1300   5.372   1.745   4.489
  432TIP3   OH2 1301   5.161   5.548   3.782
  432TIP3    H1 1302   5.190   5.568   3.693
  432TIP3    H2 1303   5.127   5.630   3.816
  433TIP3   OH2 1304   0.848   2.554   2.208
  433TIP3    H1 1305   0.789   2.590   2.275
  433TIP3    H2 1306   0.926   2.527   2.257
  434TIP3   OH2 1307   2.349   0.371   0.227
  434TIP3    H1 1308   2.382   0.298   0.174
  434TIP3    H2 1309   2.359   0.448   0.171
  435TIP3   OH2 1310   0.184   5.748   1.305
  435TIP3    H1 1311   0.274   5.765   1.275
  435TIP3    H2 1312   0.176   5.653   1.305
  436TIP3   OH2 1313   2.492   0.965   0.685
  436TIP3    H1 1314   2.419   0.917   0.646
  436TIP3    H2 1315   2.457   1.052   0.703
  437TIP3   OH2 1316   2.160   2.286   2.129
  437TIP3    H1 1317   2.128   2.250   2.046
  437TIP3    H2 1318   2.153   2.213   2.191
  438TIP3   OH2 1319   3.994   4.210   3.691
  438TIP3    H1 1320   3.978   4.241   3.602
  438TIP3    H2 1321   3.970   4.285   3.747
  439TIP3   OH2 1322   2.314   4.570   3.602
  439TIP3    H1 1323   2.232   4.523   3.618
  439TIP3    H2 1324   2.378   4.501   3.582
  440TIP3   OH2 1325   1.072   2.942   4.761
  440TIP3    H1 1326   1.050   2.849   4.773
  440TIP3    H2 1327   1.098   2.971   4.849
  441TIP3   OH2 1328   6.170   0.677   1.767
  441TIP3    H1 1329   6.135   0.671   1.678
  441TIP3    H2 1330   6.265   0.671   1.755
  442TIP3   OH2 1331   4.107   3.135   4.705
  442TIP3    H1 1332   4.125   3.150   4.613
  442TIP3    H2 1333   4.158   3.202   4.751
  443TIP3   OH2 1334   5.293   3.339   3.927
  443TIP3    H1 1335   5.359   3.299   3.985
  443TIP3    H2 1336   5.289   3.430   3.955
  444TIP3   OH2 1337   3.592   1.473   1.309
  444TIP3    H1 1338   3.647   1.537   1.264
  444TIP3    H2 1339   3.584   1.507   1.398
  445TIP3   OH2 1340   0.593   2.902   1.718
  445TIP3    H1 1341   0.686   2.883   1.725
  445TIP3    H2 1342   0.582   2.933   1.628
  446TIP3   OH2 1343   4.831   1.558   0.633
  446TIP3    H1 1344   4.843   1.464   0.622
  446TIP3    H2 1345   4.739   1.568   0.657
  447TIP3   OH2 1346   0.208   5.623   2.956
  447TIP3    H1 1347   0.202   5.538   2.912
  447TIP3    H2 1348   0.125   5.666   2.938
  448TIP3   OH2 1349   1.302   2.756   4.969
  448TIP3    H1 1350   1.388   2.714   4.974
  448TIP3    H2 1351   1.295   2.785   4.878
  449TIP3   OH2 1352   0.463   5.604   0.686
  449TIP3    H1 1353   0.480   5.596   0.593
  449TIP3    H2 1354   0.368   5.607   0.694
  450TIP3   OH2 1355   1.379   3.478   4.285
  450TIP3    H1 1356   1.422   3.556   4.250
  450TIP3    H2 1357   1.368   3.420   4.209
  451TIP3   OH2 1358   3.319   2.807   2.290
  451TIP3    H1 1359   3.238   2.851   2.314
  451TIP3    H2 1360   3.324   2.731   2.349
  452TIP3   OH2 1361   1.365   3.485   0.861
  452TIP3    H1 1362   1.396   3.395   0.849
  452TIP3    H2 1363   1.407   3.534   0.790
  453TIP3   OH2 1364   6.223   2.839   1.181
  453TIP3    H1 1365   6.246   2.748   1.164
  453TIP3    H2 1366   6.139   2.834   1.226
  454TIP3   OH2 1367   1.398   4.438   4.054
  454TIP3    H1 1368   1.419   4.365   3.995
  454TIP3    H2 1369   1.375   4.396   4.137
  455TIP3   OH2 1370   3.174   5.345   4.804
  455TIP3    H1 1371   3.172   5.259   4.847
  455TIP3    H2 1372   3.082   5.368   4.792
  456TIP3   OH2 1373   3.917   3.573   2.931
  456TIP3    H1 1374   3.824   3.579   2.952
  456TIP3    H2 1375   3.943   3.487   2.965
  457TIP3   OH2 1376   3.105   1.616   4.968
  457TIP3    H1 1377   3.081   1.660   4.886
  457TIP3    H2 1378   3.128   1.687   5.028
  458TIP3   OH2 1379   5.669   5.150   1.652
  458TIP3    H1 1380   5.719   5.220   1.693
  458TIP3    H2 1381   5.731   5.107   1.593
  459TIP3   OH2 1382   5.961   1.392   0.063
  459TIP3    H1 1383   5.932   1.472   0.106
  459TIP3    H2 1384   5.894   1.327   0.086
  460TIP3   OH2 1385   1.969   2.680   2.895
  460TIP3    H1 1386   1.949   2.636   2.978
  460TIP3    H2 1387   2.064   2.685   2.893
  461TIP3   OH2 1388   6.029   5.715   4.132
  461TIP3    H1 1389   6.111   5.717   4.081
  461TIP3    H2 1390   5.983   5.637   4.100
  462TIP3   OH2 1391   3.835   2.446   0.200
  462TIP3    H1 1392   3.920   2.458   0.241
  462TIP3    H2 1393   3.790   2.529   0.212
  463TIP3   OH2 1394   4.469   0.641   4.242
  463TIP3    H1 1395   4.465   0.725   4.289
  463TIP3    H2 1396   4.488   0.577   4.311
  464TIP3   OH2 1397   3.726   3.306   2.734
  464TIP3    H1 1398   3.707   3.220   2.695
  464TIP3    H2 1399   3.677   3.306   2.816
  465TIP3   OH2 1400   5.256   2.534   0.411
  465TIP3    H1 1401   5.168   2.518   0.445
  465TIP3    H2 1402   5.259   2.629   0.396
  466TIP3   OH2 1403   0.555   1.665   0.891
  466TIP3    H1 1404   0.507   1.583   0.881
  466TIP3    H2 1405   0.610   1.670   0.813
  467TIP3   OH2 1406   2.810   3.673   0.637
  467TIP3    H1 1407   2.792   3.756   0.682
  467TIP3    H2 1408   2.858   3.697   0.559
  468TIP3   OH2 1409   1.734   3.048   4.890
  468TIP3    H1 1410   1.747   2.981   4.957
  468TIP3    H2 1411   1.746   3.001   4.807
  469TIP3   OH2 1412   0.895   5.504   1.844
  469TIP3    H1 1413   0.811   5.481   1.885
  469TIP3    H2 1414   0.947   5.423   1.849
  470TIP3   OH2 1415   1.987   5.215   1.835
  470TIP3    H1 1416   1.951   5.197   1.921
  470TIP3    H2 1417   2.077   5.244   1.851
  471TIP3   OH2 1418   4.310   3.976   2.418
  471TIP3    H1 1419   4.218   4.002   2.424
  471TIP3    H2 1420   4.308   3.888   2.382
  472TIP3   OH2 1421   4.070   5.222   3.097
  472TIP3    H1 1422   4.018   5.144   3.117
  472TIP3    H2 1423   4.006   5.286   3.068
  473TIP3   OH2 1424   2.769   5.475   0.229
  473TIP3    H1 1425   2.778   5.386   0.263
  473TIP3    H2 1426   2.684   5.475   0.185
  474TIP3   OH2 1427   5.903   3.234   4.556
  474TIP3    H1 1428   5.997   3.237   4.538
  474TIP3    H2 1429   5.878   3.144   4.535
  475TIP3   OH2 1430   0.507   0.722   2.979
  475TIP3    H1 1431   0.533   0.661   3.049
  475TIP3    H2 1432   0.578   0.717   2.915
  476TIP3   OH2 1433   0.458   5.485   2.935
  476TIP3    H1 1434   0.513   5.547   2.886
  476TIP3    H2 1435   0.406   5.540   2.994
  477TIP3   OH2 1436   3.359   0.363   4.609
  477TIP3    H1 1437   3.403   0.358   4.524
  477TIP3    H2 1438   3.420   0.321   4.670
  478TIP3   OH2 1439   1.886   1.169   0.195
  478TIP3    H1 1440   1.845   1.254   0.182
  478TIP3    H2 1441   1.979   1.185   0.184
  479TIP3   OH2 1442   3.504   3.783   3.071
  479TIP3    H1 1443   3.431   3.822   3.024
  479TIP3    H2 1444   3.528   3.849   3.137
  480TIP3   OH2 1445   3.333   3.518   0.653
  480TIP3    H1 1446   3.255   3.466   0.673
  480TIP3    H2 1447   3.301   3.608   0.650
  481TIP3   OH2 1448   1.006   0.634  -0.028
  481TIP3    H1 1449   0.947   0.685  -0.084
  481TIP3    H2 1450   0.951   0.606   0.045
  482TIP3   OH2 1451   0.799   5.566   3.187
  482TIP3    H1 1452   0.816   5.481   3.146
  482TIP3    H2 1453   0.803   5.629   3.116
  483TIP3   OH2 1454   1.828   5.171   3.684
  483TIP3    H1 1455   1.866   5.140   3.602
  483TIP3    H2 1456   1.903   5.190   3.740
  484TIP3   OH2 1457   5.375   2.287   3.449
  484TIP3    H1 1458   5.290   2.318   3.419
  484TIP3    H2 1459   5.438   2.346   3.405
  485TIP3   OH2 1460   1.807   2.782   1.933
  485TIP3    H1 1461   1.864   2.734   1.873
  485TIP3    H2 1462   1.812   2.873   1.903
  486TIP3   OH2 1463   6.305   2.535   2.549
  486TIP3    H1 1464   6.263   2.602   2.494
  486TIP3    H2 1465   6.367   2.492   2.491
  487TIP3   OH2 1466   1.774   1.438   2.169
  487TIP3    H1 1467   1.738   1.455   2.082
  487TIP3    H2 1468   1.735   1.354   2.195
  488TIP3   OH2 1469   0.077   0.019   3.805
  488TIP3    H1 1470   0.080   0.105   3.848
  488TIP3    H2 1471   0.144  -0.032   3.850
  489TIP3   OH2 1472   1.772   3.321   0.175
  489TIP3    H1 1473   1.805   3.359   0.257
  489TIP3    H2 1474   1.682   3.296   0.196
  490TIP3   OH2 1475   1.114   5.009   0.589
  490TIP3    H1 1476   1.208   5.016   0.605
  490TIP3    H2 1477   1.075   5.077   0.644
  491TIP3   OH2 1478  -0.015   4.580   2.312
  491TIP3    H1 1479   0.024   4.658   2.274
  491TIP3    H2 1480   0.056   4.537   2.359
  492TIP3   OH2 1481   1.587   0.802   0.786
  492TIP3    H1 1482   1.615   0.724   0.737
  492TIP3    H2 1483   1.597   0.874   0.723
  493TIP3   OH2 1484   2.541   1.636   2.839
  493TIP3    H1 1485   2.462   1.645   2.785
  493TIP3    H2 1486   2.553   1.542   2.848
  494TIP3   OH2 1487   5.258   4.853   2.687
  494TIP3    H1 1488   5.351   4.866   2.669
  494TIP3    H2 1489   5.218   4.938   2.672
  495TIP3   OH2 1490   0.964   0.599   0.255
  495TIP3    H1 1491   0.912   0.579   0.333
  495TIP3    H2 1492   1.054   0.577   0.281
  496TIP3   OH2 1493   3.266   3.825   0.371
  496TIP3    H1 1494   3.355   3.820   0.404
  496TIP3    H2 1495   3.246   3.737   0.339
  497TIP3   OH2 1496   1.666   0.994   2.579
  497TIP3    H1 1497   1.582   0.958   2.608
  497TIP3    H2 1498   1.701   0.929   2.519
  498TIP3   OH2 1499   0.117   2.897   4.148
  498TIP3    H1 1500   0.208   2.880   4.125
  498TIP3    H2 1501   0.100   2.839   4.222
  499TIP3   OH2 1502   6.187   0.411   0.797
  499TIP3    H1 1503   6.265   0.457   0.767
  499TIP3    H2 1504   6.221   0.333   0.841
  500TIP3   OH2 1505   3.454   4.111   0.470
  500TIP3    H1 1506   3.506   4.191   0.482
  500TIP3    H2 1507   3.415   4.120   0.383
  501TIP3   OH2 1508   4.973   5.940   0.748
  501TIP3    H1 1509   4.929   5.856   0.762
  501TIP3    H2 1510   5.037   5.922   0.679
  502TIP3   OH2 1511   0.791   4.815   4.343
  502TIP3    H1 1512   0.786   4.904   4.306
  502TIP3    H2 1513   0.737   4.820   4.422
  503TIP3   OH2 1514   4.219   4.918   1.844
  503TIP3    H1 1515   4.164   4.976   1.896
  503TIP3    H2 1516   4.301   4.913   1.892
  504TIP3   OH2 1517   3.818   0.863   0.376
  504TIP3    H1 1518   3.801   0.786   0.429
  504TIP3    H2 1519   3.766   0.932   0.417
  505TIP3   OH2 1520   1.656   4.174   1.573
  505TIP3    H1 1521   1.698   4.088   1.566
  505TIP3    H2 1522   1.563   4.154   1.585
  506TIP3   OH2 1523   1.280   2.413   1.733
  506TIP3    H1 1524   1.314   2.374   1.652
  506TIP3    H2 1525   1.300   2.506   1.724
  507TIP3   OH2 1526   1.386   3.967   2.209
  507TIP3    H1 1527   1.476   3.936   2.202
  507TIP3    H2 1528   1.333   3.891   2.187
  508TIP3   OH2 1529   2.721   2.444   1.085
  508TIP3    H1 1530   2.679   2.526   1.114
  508TIP3    H2 1531   2.723   2.451   0.990
  509TIP3   OH2 1532   6.345   1.645   3.052
  509TIP3    H1 1533   6.302   1.728   3.068
  509TIP3    H2 1534   6.318   1.589   3.126
  510TIP3   OH2 1535   3.592   4.890   4.460
  510TIP3    H1 1536   3.556   4.961   4.512
  510TIP3    H2 1537   3.619   4.824   4.524
  511TIP3   OH2 1538   1.550   3.834   2.909
  511TIP3    H1 1539   1.639   3.849   2.940
  511TIP3    H2 1540   1.510   3.921   2.908
  512TIP3   OH2 1541   2.407   0.120   1.573
  512TIP3    H1 1542   2.415   0.126   1.668
  512TIP3    H2 1543   2.396   0.026   1.556
  513TIP3   OH2 1544   2.163   1.279   0.176
  513TIP3    H1 1545   2.133   1.353   0.229
  513TIP3    H2 1546   2.223   1.317   0.112
  514TIP3   OH2 1547   5.366   2.479   4.261
  514TIP3    H1 1548   5.285   2.453   4.217
  514TIP3    H2 1549   5.363   2.575   4.260
  515TIP3   OH2 1550   3.855   5.251   0.229
  515TIP3    H1 1551   3.938   5.295   0.212
  515TIP3    H2 1552   3.789   5.309   0.192
  516TIP3   OH2 1553   3.560   0.617   4.715
  516TIP3    H1 1554   3.646   0.601   4.676
  516TIP3    H2 1555   3.510   0.661   4.646
  517TIP3   OH2 1556   5.227   2.706   0.758
  517TIP3    H1 1557   5.162   2.698   0.827
  517TIP3    H2 1558   5.266   2.619   0.751
  518TIP3   OH2 1559   2.495   2.743   3.795
  518TIP3    H1 1560   2.533   2.802   3.860
  518TIP3    H2 1561   2.429   2.795   3.750
  519TIP3   OH2 1562   5.853   4.958   0.545
  519TIP3    H1 1563   5.928   4.968   0.604
  519TIP3    H2 1564   5.865   5.026   0.479
  520TIP3   OH2 1565   5.225   2.362   1.547
  520TIP3    H1 1566   5.155   2.417   1.582
  520TIP3    H2 1567   5.268   2.325   1.624
  521TIP3   OH2 1568   6.078   4.858   5.130
  521TIP3    H1 1569   6.028   4.921   5.078
  521TIP3    H2 1570   6.012   4.815   5.184
  522TIP3   OH2 1571   5.300   4.762   2.015
  522TIP3    H1 1572   5.268   4.829   2.075
  522TIP3    H2 1573   5.263   4.680   2.047
  523TIP3   OH2 1574   5.228   0.028   1.283
  523TIP3    H1 1575   5.218  -0.019   1.200
  523TIP3    H2 1576   5.144   0.017   1.327
  524TIP3   OH2 1577   5.509   3.734   0.318
  524TIP3    H1 1578   5.601   3.717   0.297
  524TIP3    H2 1579   5.491   3.679   0.394
  525TIP3   OH2 1580   2.676   2.798   1.500
  525TIP3    H1 1581   2.600   2.851   1.522
  525TIP3    H2 1582   2.646   2.708   1.509
  526TIP3   OH2 1583   2.147   5.654   4.434
  526TIP3    H1 1584   2.214   5.589   4.414
  526TIP3    H2 1585   2.123   5.636   4.525
  527TIP3   OH2 1586   3.690   4.582   4.049
  527TIP3    H1 1587   3.762   4.541   4.097
  527TIP3    H2 1588   3.629   4.611   4.117
  528TIP3   OH2 1589   1.653   4.336   2.261
  528TIP3    H1 1590   1.713   4.379   2.201
  528TIP3    H2 1591   1.567   4.373   2.240
  529TIP3   OH2 1592   1.761   0.171   3.292
  529TIP3    H1 1593   1.696   0.150   3.226
  529TIP3    H2 1594   1.720   0.148   3.375
  530TIP3   OH2 1595   5.296   5.057   3.293
  530TIP3    H1 1596   5.274   4.970   3.325
  530TIP3    H2 1597   5.375   5.045   3.241
  531TIP3   OH2 1598   4.491   5.855   1.275
  531TIP3    H1 1599   4.479   5.782   1.214
  531TIP3    H2 1600   4.514   5.930   1.220
  532TIP3   OH2 1601   1.579   2.880   4.509
  532TIP3    H1 1602   1.633   2.884   4.430
  532TIP3    H2 1603   1.642   2.860   4.579
  533TIP3   OH2 1604   0.783   4.518   2.163
  533TIP3    H1 1605   0.799   4.536   2.070
  533TIP3    H2 1606   0.868   4.534   2.204
  534TIP3   OH2 1607   5.111   0.888   2.280
  534TIP3    H1 1608   5.192   0.912   2.326
  534TIP3    H2 1609   5.135   0.888   2.187
  535TIP3   OH2 1610   0.091   0.879   4.098
  535TIP3    H1 1611   0.118   0.963   4.136
  535TIP3    H2 1612   0.082   0.897   4.004
  536TIP3   OH2 1613   2.084   5.229   3.789
  536TIP3    H1 1614   2.038   5.313   3.782
  536TIP3    H2 1615   2.095   5.216   3.883
  537TIP3   OH2 1616   6.096   5.109   3.970
  537TIP3    H1 1617   6.081   5.102   4.064
  537TIP3    H2 1618   6.161   5.040   3.951
  538TIP3   OH2 1619   0.758   0.188   3.287
  538TIP3    H1 1620   0.755   0.268   3.234
  538TIP3    H2 1621   0.695   0.129   3.245
  539TIP3   OH2 1622   4.185   0.217   3.316
  539TIP3    H1 1623   4.144   0.202   3.401
  539TIP3    H2 1624   4.169   0.136   3.267
  540TIP3   OH2 1625   0.339   4.584   4.026
  540TIP3    H1 1626   0.386   4.611   3.947
  540TIP3    H2 1627   0.406   4.585   4.095
  541TIP3   OH2 1628   0.798   0.444   3.621
  541TIP3    H1 1629   0.764   0.525   3.583
  541TIP3    H2 1630   0.766   0.445   3.712
  542TIP3   OH2 1631   6.181   2.061   0.874
  542TIP3    H1 1632   6.144   2.145   0.900
  542TIP3    H2 1633   6.210   2.075   0.783
  543TIP3   OH2 1634   1.813   3.267   1.576
  543TIP3    H1 1635   1.887   3.207   1.569
  543TIP3    H2 1636   1.737   3.214   1.554
  544TIP3   OH2 1637   5.827   4.371   2.159
  544TIP3    H1 1638   5.753   4.401   2.105
  544TIP3    H2 1639   5.826   4.429   2.235
  545TIP3   OH2 1640   3.764   3.700   0.565
  545TIP3    H1 1641   3.837   3.758   0.586
  545TIP3    H2 1642   3.760   3.639   0.638
  546TIP3   OH2 1643   0.262   4.322   1.423
  546TIP3    H1 1644   0.243   4.269   1.501
  546TIP3    H2 1645   0.352   4.351   1.435
  547TIP3   OH2 1646   5.084   0.993   4.081
  547TIP3    H1 1647   5.080   1.084   4.109
  547TIP3    H2 1648   5.131   0.995   3.998
  548TIP3   OH2 1649   4.337   4.804   0.467
  548TIP3    H1 1650   4.262   4.787   0.524
  548TIP3    H2 1651   4.370   4.888   0.497
  549TIP3   OH2 1652   4.806   4.243   3.591
  549TIP3    H1 1653   4.771   4.178   3.530
  549TIP3    H2 1654   4.739   4.252   3.659
  550TIP3   OH2 1655   0.151   1.644   3.453
  550TIP3    H1 1656   0.186   1.731   3.467
  550TIP3    H2 1657   0.067   1.644   3.500
  551TIP3   OH2 1658   4.431   3.579   1.032
  551TIP3    H1 1659   4.474   3.542   0.955
  551TIP3    H2 1660   4.344   3.539   1.032
  552TIP3   OH2 1661   4.427   2.915   0.876
  552TIP3    H1 1662   4.368   2.989   0.888
  552TIP3    H2 1663   4.392   2.868   0.801
  553TIP3   OH2 1664   0.947   0.077   1.505
  553TIP3    H1 1665   0.980   0.004   1.453
  553TIP3    H2 1666   1.002   0.152   1.479
  554TIP3   OH2 1667   6.044  -0.006   4.424
  554TIP3    H1 1668   5.961  -0.032   4.464
  554TIP3    H2 1669   6.066   0.077   4.466
  555TIP3   OH2 1670   3.745   1.656   2.808
  555TIP3    H1 1671   3.757   1.749   2.790
  555TIP3    H2 1672   3.730   1.616   2.722
  556TIP3   OH2 1673   0.605   2.309   0.479
  556TIP3    H1 1674   0.525   2.270   0.514
  556TIP3    H2 1675   0.579   2.396   0.449
  557TIP3   OH2 1676   5.618   2.655   2.467
  557TIP3    H1 1677   5.596   2.705   2.546
  557TIP3    H2 1678   5.553   2.585   2.466
  558TIP3   OH2 1679   2.682   1.289   0.545
  558TIP3    H1 1680   2.666   1.317   0.635
  558TIP3    H2 1681   2.595   1.284   0.506
  559TIP3   OH2 1682   4.235   0.575   1.733
  559TIP3    H1 1683   4.225   0.606   1.643
  559TIP3    H2 1684   4.297   0.502   1.726
  560TIP3   OH2 1685   6.077   1.629   3.807
  560TIP3    H1 1686   6.017   1.557   3.790
  560TIP3    H2 1687   6.042   1.672   3.886
  561TIP3   OH2 1688   5.479   5.157   2.648
  561TIP3    H1 1689   5.385   5.148   2.664
  561TIP3    H2 1690   5.490   5.247   2.619
  562TIP3   OH2 1691   0.772   4.316   4.574
  562TIP3    H1 1692   0.814   4.299   4.658
  562TIP3    H2 1693   0.704   4.248   4.567
  563TIP3   OH2 1694   0.533   0.161   3.946
  563TIP3    H1 1695   0.578   0.121   3.871
  563TIP3    H2 1696   0.576   0.122   4.022
  564TIP3   OH2 1697   1.130   0.273   1.428
  564TIP3    H1 1698   1.135   0.347   1.488
  564TIP3    H2 1699   1.219   0.264   1.393
  565TIP3   OH2 1700   2.395   1.913   0.879
  565TIP3    H1 1701   2.338   1.917   0.957
  565TIP3    H2 1702   2.479   1.947   0.910
  566TIP3   OH2 1703   0.724   4.459   4.306
  566TIP3    H1 1704   0.718   4.466   4.402
  566TIP3    H2 1705   0.729   4.365   4.289
  567TIP3   OH2 1706   3.359   5.493   3.100
  567TIP3    H1 1707   3.408   5.574   3.108
  567TIP3    H2 1708   3.420   5.431   3.059
  568TIP3   OH2 1709   5.999   3.706   1.760
  568TIP3    H1 1710   5.962   3.681   1.845
  568TIP3    H2 1711   6.092   3.721   1.779
  569TIP3   OH2 1712   0.680   6.020   2.325
  569TIP3    H1 1713   0.586   6.040   2.333
  569TIP3    H2 1714   0.682   5.930   2.292
  570TIP3   OH2 1715   2.241   0.801   2.891
  570TIP3    H1 1716   2.328   0.812   2.853
  570TIP3    H2 1717   2.238   0.709   2.917
  571TIP3   OH2 1718   3.947   4.391   4.517
  571TIP3    H1 1719   3.866   4.371   4.563
  571TIP3    H2 1720   3.926   4.468   4.464
  572TIP3   OH2 1721   0.985   0.362   0.494
  572TIP3    H1 1722   0.911   0.302   0.497
  572TIP3    H2 1723   0.949   0.446   0.520
  573TIP3   OH2 1724   2.345   3.013   2.954
  573TIP3    H1 1725   2.397   2.982   3.028
  573TIP3    H2 1726   2.348   2.941   2.891
  574TIP3   OH2 1727   3.138   1.080   1.378
  574TIP3    H1 1728   3.186   1.018   1.432
  574TIP3    H2 1729   3.058   1.099   1.428
  575TIP3   OH2 1730   0.303   3.504   1.310
  575TIP3    H1 1731   0.365   3.539   1.246
  575TIP3    H2 1732   0.255   3.436   1.263
  576TIP3   OH2 1733   4.299   5.365   0.815
  576TIP3    H1 1734   4.268   5.327   0.897
  576TIP3    H2 1735   4.373   5.421   0.842
  577TIP3   OH2 1736   0.076   3.910   0.861
  577TIP3    H1 1737   0.129   3.987   0.883
  577TIP3    H2 1738   0.103   3.887   0.772
  578TIP3   OH2 1739   0.506   2.607   1.019
  578TIP3    H1 1740   0.420   2.566   1.029
  578TIP3    H2 1741   0.551   2.588   1.102
  579TIP3   OH2 1742   0.892   1.929   2.569
  579TIP3    H1 1743   0.865   1.837   2.565
  579TIP3    H2 1744   0.813   1.979   2.549
  580TIP3   OH2 1745   5.098   5.538   3.028
  580TIP3    H1 1746   5.108   5.630   3.003
  580TIP3    H2 1747   5.003   5.528   3.041
  581TIP3   OH2 1748   5.088   0.965   0.249
  581TIP3    H1 1749   5.150   0.898   0.276
  581TIP3    H2 1750   5.005   0.918   0.237
  582TIP3   OH2 1751   5.158   4.294   2.972
  582TIP3    H1 1752   5.115   4.214   3.000
  582TIP3    H2 1753   5.127   4.361   3.033
  583TIP3   OH2 1754   1.591   5.246   1.897
  583TIP3    H1 1755   1.623   5.194   1.823
  583TIP3    H2 1756   1.518   5.196   1.933
  584TIP3   OH2 1757   5.965   0.364   0.155
  584TIP3    H1 1758   5.966   0.269   0.160
  584TIP3    H2 1759   5.882   0.389   0.196
  585TIP3   OH2 1760   2.529   5.421   5.078
  585TIP3    H1 1761   2.488   5.420   4.991
  585TIP3    H2 1762   2.610   5.471   5.065
  586TIP3   OH2 1763   6.266   2.202   2.079
  586TIP3    H1 1764   6.318   2.275   2.046
  586TIP3    H2 1765   6.254   2.220   2.172
  587TIP3   OH2 1766   4.541   4.199   3.481
  587TIP3    H1 1767   4.584   4.279   3.451
  587TIP3    H2 1768   4.447   4.217   3.470
  588TIP3   OH2 1769   5.274   3.158   3.152
  588TIP3    H1 1770   5.192   3.190   3.190
  588TIP3    H2 1771   5.248   3.117   3.069
  589TIP3   OH2 1772   6.091   1.944   2.062
  589TIP3    H1 1773   5.997   1.958   2.060
  589TIP3    H2 1774   6.129   2.032   2.058
  590TIP3   OH2 1775   3.525   0.172   1.955
  590TIP3    H1 1776   3.448   0.115   1.951
  590TIP3    H2 1777   3.599   0.115   1.935
  591TIP3   OH2 1778   0.658   0.432   0.688
  591TIP3    H1 1779   0.745   0.436   0.729
  591TIP3    H2 1780   0.602   0.484   0.745
  592TIP3   OH2 1781   2.259   3.161   1.165
  592TIP3    H1 1782   2.257   3.201   1.252
  592TIP3    H2 1783   2.314   3.220   1.113
  593TIP3   OH2 1784   1.336   5.681   0.520
  593TIP3    H1 1785   1.288   5.681   0.603
  593TIP3    H2 1786   1.353   5.774   0.502
  594TIP3   OH2 1787   3.719   1.928   0.395
  594TIP3    H1 1788   3.768   1.999   0.355
  594TIP3    H2 1789   3.681   1.966   0.474
  595TIP3   OH2 1790   2.771   1.963   0.545
  595TIP3    H1 1791   2.831   2.024   0.587
  595TIP3    H2 1792   2.740   2.008   0.467
  596TIP3   OH2 1793   1.225   2.373   1.135
  596TIP3    H1 1794   1.298   2.411   1.184
  596TIP3    H2 1795   1.241   2.279   1.137
  597TIP3   OH2 1796   0.721   1.373   0.199
  597TIP3    H1 1797   0.659   1.347   0.268
  597TIP3    H2 1798   0.784   1.301   0.195
  598TIP3   OH2 1799   1.434   5.312   2.430
  598TIP3    H1 1800   1.485   5.303   2.510
  598TIP3    H2 1801   1.494   5.286   2.360
  599TIP3   OH2 1802   0.253   5.910   4.589
  599TIP3    H1 1803   0.193   5.960   4.645
  599TIP3    H2 1804   0.340   5.940   4.615
  600TIP3   OH2 1805   1.179   5.691   3.460
  600TIP3    H1 1806   1.162   5.665   3.370
  600TIP3    H2 1807   1.165   5.785   3.462
  601TIP3   OH2 1808   5.158   0.901   5.091
  601TIP3    H1 1809   5.083   0.841   5.094
  601TIP3    H2 1810   5.200   0.891   5.177
  602TIP3   OH2 1811   0.482   3.828   1.992
  602TIP3    H1 1812   0.397   3.867   2.010
  602TIP3    H2 1813   0.524   3.890   1.931
  603TIP3   OH2 1814   2.293   5.983   1.405
  603TIP3    H1 1815   2.349   5.905   1.407
  603TIP3    H2 1816   2.302   6.016   1.316
  604TIP3   OH2 1817   1.858   1.893   3.216
  604TIP3    H1 1818   1.813   1.977   3.221
  604TIP3    H2 1819   1.878   1.871   3.307
  605TIP3   OH2 1820   5.856   2.063   2.062
  605TIP3    H1 1821   5.769   2.026   2.076
  605TIP3    H2 1822   5.868   2.126   2.133
  606TIP3   OH2 1823   5.899   1.487   4.692
  606TIP3    H1 1824   5.981   1.438   4.706
  606TIP3    H2 1825   5.881   1.476   4.599
  607TIP3   OH2 1826   5.515   0.859   5.092
  607TIP3    H1 1827   5.530   0.777   5.046
  607TIP3    H2 1828   5.467   0.913   5.029
  608TIP3   OH2 1829   3.130   4.660   0.978
  608TIP3    H1 1830   3.178   4.732   0.937
  608TIP3    H2 1831   3.144   4.672   1.072
  609TIP3   OH2 1832   5.605   4.484   3.852
  609TIP3    H1 1833   5.603   4.577   3.829
  609TIP3    H2 1834   5.587   4.482   3.946
  610TIP3   OH2 1835   4.905   4.385   0.615
  610TIP3    H1 1836   4.938   4.306   0.658
  610TIP3    H2 1837   4.825   4.357   0.571
  611TIP3   OH2 1838   1.857   3.686   4.732
  611TIP3    H1 1839   1.804   3.648   4.662
  611TIP3    H2 1840   1.916   3.746   4.686
  612TIP3   OH2 1841   4.839   4.609   2.652
  612TIP3    H1 1842   4.826   4.670   2.724
  612TIP3    H2 1843   4.757   4.614   2.602
  613TIP3   OH2 1844   4.646   4.969   3.093
  613TIP3    H1 1845   4.735   4.971   3.058
  613TIP3    H2 1846   4.627   5.060   3.119
  614TIP3   OH2 1847   5.225   1.484   4.080
  614TIP3    H1 1848   5.154   1.546   4.064
  614TIP3    H2 1849   5.284   1.494   4.005
  615TIP3   OH2 1850   4.992   3.278   4.338
  615TIP3    H1 1851   5.045   3.334   4.280
  615TIP3    H2 1852   4.915   3.331   4.359
  616TIP3   OH2 1853   0.503   5.777   3.784
  616TIP3    H1 1854   0.426   5.742   3.830
  616TIP3    H2 1855   0.518   5.863   3.823
  617TIP3   OH2 1856   5.795   4.745   2.143
  617TIP3    H1 1857   5.858   4.809   2.176
  617TIP3    H2 1858   5.826   4.724   2.055
  618TIP3   OH2 1859   1.702   3.981   4.024
  618TIP3    H1 1860   1.767   4.051   4.026
  618TIP3    H2 1861   1.629   4.014   4.076
  619TIP3   OH2 1862   3.723   3.931   2.272
  619TIP3    H1 1863   3.683   3.975   2.197
  619TIP3    H2 1864   3.706   3.838   2.256
  620TIP3   OH2 1865   3.433   0.085   0.654
  620TIP3    H1 1866   3.399   0.018   0.595
  620TIP3    H2 1867   3.503   0.127   0.604
  621TIP3   OH2 1868   0.303   4.811   1.048
  621TIP3    H1 1869   0.239   4.877   1.074
  621TIP3    H2 1870   0.313   4.822   0.954
  622TIP3   OH2 1871   2.037   1.282   3.036
  622TIP3    H1 1872   2.128   1.309   3.024
  622TIP3    H2 1873   2.042   1.198   3.080
  623TIP3   OH2 1874   2.675   1.676   4.924
  623TIP3    H1 1875   2.752   1.625   4.898
  623TIP3    H2 1876   2.606   1.646   4.865
  624TIP3   OH2 1877   1.962   4.851   1.761
  624TIP3    H1 1878   2.039   4.898   1.729
  624TIP3    H2 1879   1.973   4.847   1.856
  625TIP3   OH2 1880   0.245   5.741   1.019
  625TIP3    H1 1881   0.316   5.799   0.993
  625TIP3    H2 1882   0.289   5.659   1.043
  626TIP3   OH2 1883   3.723   3.602   2.692
  626TIP3    H1 1884   3.733   3.508   2.707
  626TIP3    H2 1885   3.695   3.637   2.776
  627TIP3   OH2 1886   2.257   4.726   1.922
  627TIP3    H1 1887   2.292   4.733   2.011
  627TIP3    H2 1888   2.270   4.813   1.884
  628TIP3   OH2 1889   4.624   5.105   2.736
  628TIP3    H1 1890   4.664   5.191   2.727
  628TIP3    H2 1891   4.540   5.113   2.691
  629TIP3   OH2 1892   3.255   2.368   3.797
  629TIP3    H1 1893   3.289   2.435   3.857
  629TIP3    H2 1894   3.231   2.295   3.854
  630TIP3   OH2 1895   4.512   4.962   1.585
  630TIP3    H1 1896   4.579   5.021   1.618
  630TIP3    H2 1897   4.436   5.018   1.568
  631TIP3   OH2 1898   1.327   0.074   4.330
  631TIP3    H1 1899   1.364  -0.010   4.358
  631TIP3    H2 1900   1.382   0.101   4.256
  632TIP3   OH2 1901   3.378   1.298   3.549
  632TIP3    H1 1902   3.427   1.324   3.627
  632TIP3    H2 1903   3.445   1.287   3.482
  633TIP3   OH2 1904   2.718   4.850   4.627
  633TIP3    H1 1905   2.651   4.782   4.631
  633TIP3    H2 1906   2.750   4.846   4.537
  634TIP3   OH2 1907   4.453   3.976   0.815
  634TIP3    H1 1908   4.363   3.948   0.829
  634TIP3    H2 1909   4.495   3.902   0.773
  635TIP3   OH2 1910   5.149   1.342   0.724
  635TIP3    H1 1911   5.055   1.358   0.730
  635TIP3    H2 1912   5.174   1.316   0.813
  636TIP3   OH2 1913   4.856   3.264   3.424
  636TIP3    H1 1914   4.762   3.285   3.418
  636TIP3    H2 1915   4.872   3.207   3.349
  637TIP3   OH2 1916   4.447   0.410   0.283
  637TIP3    H1 1917   4.448   0.335   0.342
  637TIP3    H2 1918   4.521   0.464   0.312
  638TIP3   OH2 1919   1.827   0.641   0.682
  638TIP3    H1 1920   1.791   0.564   0.727
  638TIP3    H2 1921   1.886   0.604   0.617
  639TIP3   OH2 1922   2.724   3.881   0.296
  639TIP3    H1 1923   2.798   3.849   0.347
  639TIP3    H2 1924   2.726   3.976   0.307
  640TIP3   OH2 1925   6.008   3.935   2.466
  640TIP3    H1 1926   5.961   3.853   2.454
  640TIP3    H2 1927   6.037   3.959   2.378
  641TIP3   OH2 1928   0.048   2.244   3.296
  641TIP3    H1 1929   0.052   2.215   3.205
  641TIP3    H2 1930   0.053   2.340   3.290
  642TIP3   OH2 1931   3.543   1.784   4.608
  642TIP3    H1 1932   3.574   1.725   4.677
  642TIP3    H2 1933   3.615   1.846   4.596
  643TIP3   OH2 1934   4.781   4.725   4.839
  643TIP3    H1 1935   4.739   4.689   4.761
  643TIP3    H2 1936   4.823   4.805   4.809
  644TIP3   OH2 1937   4.012   1.162   3.944
  644TIP3    H1 1938   4.005   1.257   3.939
  644TIP3    H2 1939   4.106   1.144   3.942
  645TIP3   OH2 1940   3.854   2.047   1.564
  645TIP3    H1 1941   3.892   2.070   1.479
  645TIP3    H2 1942   3.898   1.966   1.589
  646TIP3   OH2 1943   5.382   3.513   2.393
  646TIP3    H1 1944   5.362   3.606   2.379
  646TIP3    H2 1945   5.401   3.507   2.487
  647TIP3   OH2 1946   3.838   4.998   2.998
  647TIP3    H1 1947   3.811   5.000   2.906
  647TIP3    H2 1948   3.756   4.996   3.047
  648TIP3   OH2 1949   4.292   2.203   3.308
  648TIP3    H1 1950   4.211   2.225   3.353
  648TIP3    H2 1951   4.266   2.187   3.217
  649TIP3   OH2 1952   2.031   3.583   1.677
  649TIP3    H1 1953   2.093   3.656   1.678
  649TIP3    H2 1954   1.947   3.624   1.700
  650TIP3   OH2 1955   6.138   4.644   1.908
  650TIP3    H1 1956   6.055   4.679   1.940
  650TIP3    H2 1957   6.118   4.609   1.821
  651TIP3   OH2 1958   5.513   1.128   4.105
  651TIP3    H1 1959   5.482   1.194   4.167
  651TIP3    H2 1960   5.572   1.073   4.156
  652TIP3   OH2 1961   2.675   4.889   5.158
  652TIP3    H1 1962   2.658   4.813   5.213
  652TIP3    H2 1963   2.683   4.853   5.069
  653TIP3   OH2 1964   3.765   2.389   3.421
  653TIP3    H1 1965   3.845   2.376   3.370
  653TIP3    H2 1966   3.694   2.371   3.360
  654TIP3   OH2 1967   3.056   1.938   4.619
  654TIP3    H1 1968   3.062   1.843   4.616
  654TIP3    H2 1969   3.141   1.968   4.586
  655TIP3   OH2 1970   6.368   5.302   4.097
  655TIP3    H1 1971   6.428   5.276   4.028
  655TIP3    H2 1972   6.283   5.267   4.069
  656TIP3   OH2 1973   4.295   1.251   2.282
  656TIP3    H1 1974   4.317   1.227   2.371
  656TIP3    H2 1975   4.363   1.211   2.228
  657TIP3   OH2 1976   2.987   1.165   1.140
  657TIP3    H1 1977   2.926   1.168   1.214
  657TIP3    H2 1978   2.974   1.079   1.102
  658TIP3   OH2 1979   0.375   1.994   1.527
  658TIP3    H1 1980   0.459   1.980   1.484
  658TIP3    H2 1981   0.396   2.001   1.620
  659TIP3   OH2 1982   4.353   1.167   3.041
  659TIP3    H1 1983   4.353   1.077   3.074
  659TIP3    H2 1984   4.445   1.193   3.039
  660TIP3   OH2 1985   4.499   0.992   1.101
  660TIP3    H1 1986   4.407   1.005   1.079
  660TIP3    H2 1987   4.497   0.938   1.181
  661TIP3   OH2 1988   3.113   1.844   1.611
  661TIP3    H1 1989   3.132   1.938   1.618
  661TIP3    H2 1990   3.050   1.827   1.681
  662TIP3   OH2 1991   2.814   3.233   1.217
  662TIP3    H1 1992   2.868   3.208   1.291
  662TIP3    H2 1993   2.874   3.279   1.158
  663TIP3   OH2 1994   3.311   5.387   2.358
  663TIP3    H1 1995   3.389   5.372   2.412
  663TIP3    H2 1996   3.258   5.448   2.410
  664TIP3   OH2 1997   5.475   4.886   0.776
  664TIP3    H1 1998   5.432   4.937   0.707
  664TIP3    H2 1999   5.466   4.795   0.749
  665TIP3   OH2 2000   5.169   0.532   0.539
  665TIP3    H1 2001   5.136   0.471   0.473
  665TIP3    H2 2002   5.220   0.477   0.598
  666TIP3   OH2 2003   4.103   3.989   3.175
  666TIP3    H1 2004   4.108   3.909   3.122
  666TIP3    H2 2005   4.009   4.001   3.190
  667TIP3   OH2 2006   0.553   3.493   1.119
  667TIP3    H1 2007   0.590   3.511   1.033
  667TIP3    H2 2008   0.564   3.575   1.167
  668TIP3   OH2 2009   4.070   0.328   2.408
  668TIP3    H1 2010   3.998   0.326   2.471
  668TIP3    H2 2011   4.074   0.239   2.373
  669TIP3   OH2 2012   1.106   5.963   3.460
  669TIP3    H1 2013   1.121   6.002   3.546
  669TIP3    H2 2014   1.011   5.965   3.448
  670TIP3   OH2 2015   5.375   0.753   4.668
  670TIP3    H1 2016   5.386   0.839   4.626
  670TIP3    H2 2017   5.383   0.771   4.761
  671TIP3   OH2 2018   5.313   5.676   0.437
  671TIP3    H1 2019   5.300   5.680   0.342
  671TIP3    H2 2020   5.275   5.592   0.463
  672TIP3   OH2 2021   2.023   4.474   4.542
  672TIP3    H1 2022   2.061   4.544   4.596
  672TIP3    H2 2023   1.967   4.521   4.479
  673TIP3   OH2 2024   1.186   1.054   1.145
  673TIP3    H1 2025   1.252   1.007   1.196
  673TIP3    H2 2026   1.103   1.029   1.185
  674TIP3   OH2 2027   0.412   0.376   0.482
  674TIP3    H1 2028   0.404   0.464   0.446
  674TIP3    H2 2029   0.391   0.318   0.408
  675TIP3   OH2 2030   3.974   5.577   2.462
  675TIP3    H1 2031   3.922   5.649   2.428
  675TIP3    H2 2032   4.053   5.618   2.497
  676TIP3   OH2 2033   3.285   3.231   1.396
  676TIP3    H1 2034   3.344   3.233   1.320
  676TIP3    H2 2035   3.207   3.184   1.364
  677TIP3   OH2 2036   4.398   5.069   2.944
  677TIP3    H1 2037   4.372   5.157   2.915
  677TIP3    H2 2038   4.478   5.083   2.995
  678TIP3   OH2 2039   3.155   3.074   0.126
  678TIP3    H1 2040   3.142   3.161   0.088
  678TIP3    H2 2041   3.069   3.031   0.117
  679TIP3   OH2 2042   1.121   5.784   0.985
  679TIP3    H1 2043   1.177   5.828   1.049
  679TIP3    H2 2044   1.057   5.737   1.038
  680TIP3   OH2 2045   6.324   4.748   0.802
  680TIP3    H1 2046   6.344   4.814   0.868
  680TIP3    H2 2047   6.229   4.738   0.806
  681TIP3   OH2 2048   2.505   4.483   2.276
  681TIP3    H1 2049   2.556   4.546   2.327
  681TIP3    H2 2050   2.550   4.400   2.289
  682TIP3   OH2 2051   1.814   1.908   3.870
  682TIP3    H1 2052   1.843   1.908   3.961
  682TIP3    H2 2053   1.894   1.925   3.819
  683TIP3   OH2 2054   1.821   3.244   3.091
  683TIP3    H1 2055   1.875   3.175   3.130
  683TIP3    H2 2056   1.736   3.202   3.075
  684TIP3   OH2 2057   3.041   0.873   1.100
  684TIP3    H1 2058   3.132   0.901   1.105
  684TIP3    H2 2059   3.023   0.866   1.006
  685TIP3   OH2 2060   5.980   5.837   4.623
  685TIP3    H1 2061   5.920   5.912   4.622
  685TIP3    H2 2062   5.933   5.769   4.575
  686TIP3   OH2 2063   4.460   5.475   0.503
  686TIP3    H1 2064   4.537   5.419   0.499
  686TIP3    H2 2065   4.388   5.415   0.525
  687TIP3   OH2 2066   0.857   2.812   0.700
  687TIP3    H1 2067   0.776   2.844   0.740
  687TIP3    H2 2068   0.925   2.835   0.763
  688TIP3   OH2 2069   0.538   1.629   4.886
  688TIP3    H1 2070   0.566   1.619   4.795
  688TIP3    H2 2071   0.615   1.663   4.932
  689TIP3   OH2 2072   1.786   3.889   3.011
  689TIP3    H1 2073   1.838   3.954   2.964
  689TIP3    H2 2074   1.809   3.901   3.103
  690TIP3   OH2 2075   0.659   2.544   0.791
  690TIP3    H1 2076   0.596   2.530   0.862
  690TIP3    H2 2077   0.739   2.572   0.836
  691TIP3   OH2 2078   4.728   4.353   0.113
  691TIP3    H1 2079   4.669   4.302   0.168
  691TIP3    H2 2080   4.807   4.299   0.107
  692TIP3   OH2 2081   3.735   2.218   2.526
  692TIP3    H1 2082   3.828   2.211   2.549
  692TIP3    H2 2083   3.708   2.128   2.508
  693TIP3   OH2 2084   0.522   5.325   2.712
  693TIP3    H1 2085   0.486   5.385   2.777
  693TIP3    H2 2086   0.585   5.378   2.663
  694TIP3   OH2 2087   4.946   2.929   1.175
  694TIP3    H1 2088   4.938   2.838   1.205
  694TIP3    H2 2089   4.996   2.973   1.244
  695TIP3   OH2 2090   1.351   1.443   1.460
  695TIP3    H1 2091   1.343   1.362   1.512
  695TIP3    H2 2092   1.261   1.466   1.438
  696TIP3   OH2 2093   2.707   5.755   0.474
  696TIP3    H1 2094   2.674   5.833   0.518
  696TIP3    H2 2095   2.651   5.684   0.504
  697TIP3   OH2 2096   2.738   4.539   4.880
  697TIP3    H1 2097   2.784   4.481   4.941
  697TIP3    H2 2098   2.734   4.490   4.798
  698TIP3   OH2 2099   3.307   1.114   1.965
  698TIP3    H1 2100   3.362   1.144   1.893
  698TIP3    H2 2101   3.244   1.055   1.924
  699TIP3   OH2 2102   4.707   4.388   3.301
  699TIP3    H1 2103   4.737   4.336   3.227
  699TIP3    H2 2104   4.783   4.440   3.326
  700TIP3   OH2 2105   4.037   5.762   1.841
  700TIP3    H1 2106   4.098   5.771   1.913
  700TIP3    H2 2107   3.969   5.827   1.859
  701TIP3   OH2 2108   5.467   2.304   4.456
  701TIP3    H1 2109   5.549   2.346   4.481
  701TIP3    H2 2110   5.433   2.355   4.383
  702TIP3   OH2 2111   3.175   1.958   2.582
  702TIP3    H1 2112   3.169   1.897   2.655
  702TIP3    H2 2113   3.113   2.027   2.603
  703TIP3   OH2 2114   1.654   2.975   0.763
  703TIP3    H1 2115   1.702   2.893   0.764
  703TIP3    H2 2116   1.687   3.024   0.839
  704TIP3   OH2 2117   5.339   0.362   1.922
  704TIP3    H1 2118   5.315   0.452   1.901
  704TIP3    H2 2119   5.353   0.320   1.837
  705TIP3   OH2 2120   5.708   4.173   4.319
  705TIP3    H1 2121   5.745   4.220   4.245
  705TIP3    H2 2122   5.622   4.211   4.332
  706TIP3   OH2 2123   5.232   2.038   3.029
  706TIP3    H1 2124   5.193   1.978   3.093
  706TIP3    H2 2125   5.280   2.101   3.082
  707TIP3   OH2 2126   5.404   4.340   0.699
  707TIP3    H1 2127   5.319   4.345   0.656
  707TIP3    H2 2128   5.416   4.246   0.717
  708TIP3   OH2 2129   4.202   1.345   2.877
  708TIP3    H1 2130   4.249   1.269   2.913
  708TIP3    H2 2131   4.155   1.381   2.951
  709TIP3   OH2 2132   5.701   2.167   4.284
  709TIP3    H1 2133   5.652   2.094   4.247
  709TIP3    H2 2134   5.653   2.246   4.257
  710TIP3   OH2 2135   4.206   5.474   1.242
  710TIP3    H1 2136   4.240   5.417   1.310
  710TIP3    H2 2137   4.117   5.495   1.271
  711TIP3   OH2 2138   1.042   5.322   4.419
  711TIP3    H1 2139   1.023   5.235   4.385
  711TIP3    H2 2140   1.129   5.314   4.459
  712TIP3   OH2 2141   2.275   5.551   1.670
  712TIP3    H1 2142   2.207   5.570   1.735
  712TIP3    H2 2143   2.293   5.458   1.682
  713TIP3   OH2 2144   1.774   2.216   0.561
  713TIP3    H1 2145   1.855   2.199   0.609
  713TIP3    H2 2146   1.752   2.132   0.520
  714TIP3   OH2 2147   2.318   2.564   3.911
  714TIP3    H1 2148   2.347   2.640   3.860
  714TIP3    H2 2149   2.231   2.588   3.942
  715TIP3   OH2 2150   2.040   0.317   0.860
  715TIP3    H1 2151   2.037   0.231   0.818
  715TIP3    H2 2152   2.022   0.300   0.952
  716TIP3   OH2 2153   1.172   4.859   4.552
  716TIP3    H1 2154   1.134   4.776   4.524
  716TIP3    H2 2155   1.162   4.858   4.647
  717TIP3   OH2 2156   0.776   1.546   4.708
  717TIP3    H1 2157   0.869   1.532   4.723
  717TIP3    H2 2158   0.773   1.604   4.631
  718TIP3   OH2 2159   5.255   4.999   0.613
  718TIP3    H1 2160   5.229   4.929   0.553
  718TIP3    H2 2161   5.175   5.018   0.663
  719TIP3   OH2 2162   0.388   4.933   0.450
  719TIP3    H1 2163   0.292   4.928   0.454
  719TIP3    H2 2164   0.409   5.018   0.488
  720TIP3   OH2 2165   4.570   2.892   1.632
  720TIP3    H1 2166   4.657   2.914   1.602
  720TIP3    H2 2167   4.581   2.808   1.677
  721TIP3   OH2 2168   5.838   4.095   1.611
  721TIP3    H1 2169   5.785   4.070   1.687
  721TIP3    H2 2170   5.868   4.011   1.575
  722TIP3   OH2 2171   0.751   3.376   2.864
  722TIP3    H1 2172   0.709   3.326   2.934
  722TIP3    H2 2173   0.743   3.467   2.893
  723TIP3   OH2 2174   2.250   0.108   4.751
  723TIP3    H1 2175   2.154   0.113   4.750
  723TIP3    H2 2176   2.272   0.085   4.841
  724TIP3   OH2 2177   3.951   5.809   2.666
  724TIP3    H1 2178   3.913   5.842   2.584
  724TIP3    H2 2179   3.911   5.722   2.677
  725TIP3   OH2 2180   1.540   5.266   0.529
  725TIP3    H1 2181   1.527   5.233   0.440
  725TIP3    H2 2182   1.635   5.266   0.541
  726TIP3   OH2 2183   2.291   5.405   1.955
  726TIP3    H1 2184   2.386   5.420   1.962
  726TIP3    H2 2185   2.279   5.369   1.867
  727TIP3   OH2 2186   2.287   0.460   1.711
  727TIP3    H1 2187   2.279   0.446   1.617
  727TIP3    H2 2188   2.232   0.536   1.729
  728TIP3   OH2 2189   6.149   2.456   2.770
  728TIP3    H1 2190   6.188   2.487   2.688
  728TIP3    H2 2191   6.223   2.442   2.829
  729TIP3   OH2 2192   1.918   1.114   3.691
  729TIP3    H1 2193   1.972   1.154   3.760
  729TIP3    H2 2194   1.852   1.064   3.739
  730TIP3   OH2 2195   0.645   4.866   2.298
  730TIP3    H1 2196   0.658   4.837   2.208
  730TIP3    H2 2197   0.706   4.813   2.350
  731TIP3   OH2 2198   2.956   4.368   2.210
  731TIP3    H1 2199   2.867   4.365   2.176
  731TIP3    H2 2200   2.961   4.295   2.271
  732TIP3   OH2 2201   1.273   0.381   4.467
  732TIP3    H1 2202   1.210   0.310   4.480
  732TIP3    H2 2203   1.229   0.459   4.502
  733TIP3   OH2 2204   5.903   4.425   0.247
  733TIP3    H1 2205   5.929   4.492   0.311
  733TIP3    H2 2206   5.810   4.412   0.264
  734TIP3   OH2 2207   2.217   5.957   3.719
  734TIP3    H1 2208   2.298   5.991   3.681
  734TIP3    H2 2209   2.210   6.002   3.804
  735TIP3   OH2 2210   4.858   2.319   2.330
  735TIP3    H1 2211   4.855   2.223   2.331
  735TIP3    H2 2212   4.776   2.345   2.288
  736TIP3   OH2 2213   3.902   4.590   4.884
  736TIP3    H1 2214   3.958   4.527   4.930
  736TIP3    H2 2215   3.821   4.592   4.935
  737TIP3   OH2 2216   3.414   4.514   4.484
  737TIP3    H1 2217   3.488   4.535   4.427
  737TIP3    H2 2218   3.454   4.492   4.568
  738TIP3   OH2 2219   0.124   5.764   4.416
  738TIP3    H1 2220   0.110   5.674   4.444
  738TIP3    H2 2221   0.169   5.805   4.491
  739TIP3   OH2 2222   4.199   5.355   0.561
  739TIP3    H1 2223   4.143   5.290   0.517
  739TIP3    H2 2224   4.208   5.323   0.650
  740TIP3   OH2 2225   1.025   2.626   1.325
  740TIP3    H1 2226   1.084   2.551   1.334
  740TIP3    H2 2227   1.018   2.640   1.231
  741TIP3   OH2 2228   3.756   1.409   2.224
  741TIP3    H1 2229   3.693   1.377   2.159
  741TIP3    H2 2230   3.729   1.367   2.305
  742TIP3   OH2 2231   4.921   0.427   4.672
  742TIP3    H1 2232   4.827   0.411   4.681
  742TIP3    H2 2233   4.956   0.344   4.640
  743TIP3   OH2 2234   0.208   5.202   2.588
  743TIP3    H1 2235   0.117   5.223   2.606
  743TIP3    H2 2236   0.221   5.226   2.496
  744TIP3   OH2 2237   5.313   0.273   1.672
  744TIP3    H1 2238   5.317   0.179   1.656
  744TIP3    H2 2239   5.266   0.308   1.596
  745TIP3   OH2 2240   6.138   1.666   2.006
  745TIP3    H1 2241   6.201   1.649   2.076
  745TIP3    H2 2242   6.112   1.757   2.018
  746TIP3   OH2 2243   3.937   1.389   4.894
  746TIP3    H1 2244   3.907   1.437   4.971
  746TIP3    H2 2245   3.930   1.297   4.919
  747TIP3   OH2 2246   1.216   5.155   2.007
  747TIP3    H1 2247   1.274   5.079   2.001
  747TIP3    H2 2248   1.253   5.218   1.946
  748TIP3   OH2 2249   3.962   4.394   0.394
  748TIP3    H1 2250   3.970   4.367   0.486
  748TIP3    H2 2251   3.886   4.345   0.362
  749TIP3   OH2 2252   3.787   3.841   0.803
  749TIP3    H1 2253   3.743   3.774   0.856
  749TIP3    H2 2254   3.719   3.906   0.785
  750TIP3   OH2 2255   4.046   3.089   2.324
  750TIP3    H1 2256   4.043   3.089   2.420
  750TIP3    H2 2257   4.139   3.080   2.303
  751TIP3   OH2 2258   5.227   3.092   3.754
  751TIP3    H1 2259   5.177   3.131   3.683
  751TIP3    H2 2260   5.212   3.151   3.829
  752TIP3   OH2 2261   5.615   4.829   0.475
  752TIP3    H1 2262   5.669   4.899   0.510
  752TIP3    H2 2263   5.550   4.874   0.420
  753TIP3   OH2 2264   1.586   0.844   1.081
  753TIP3    H1 2265   1.656   0.834   1.016
  753TIP3    H2 2266   1.607   0.926   1.126
  754TIP3   OH2 2267   2.717   0.083   1.972
  754TIP3    H1 2268   2.721   0.023   1.898
  754TIP3    H2 2269   2.687   0.029   2.045
  755TIP3   OH2 2270   3.462   2.917   1.117
  755TIP3    H1 2271   3.434   2.957   1.035
  755TIP3    H2 2272   3.389   2.934   1.178
  756TIP3   OH2 2273   2.390   1.505   0.990
  756TIP3    H1 2274   2.316   1.557   1.024
  756TIP3    H2 2275   2.464   1.565   0.993
  757TIP3   OH2 2276   3.311   5.003   4.533
  757TIP3    H1 2277   3.305   4.911   4.508
  757TIP3    H2 2278   3.282   5.005   4.625
  758TIP3   OH2 2279   0.097   0.833   2.678
  758TIP3    H1 2280   0.163   0.825   2.748
  758TIP3    H2 2281   0.014   0.816   2.722
  759TIP3   OH2 2282  -0.003   1.081   2.025
  759TIP3    H1 2283  -0.016   1.073   1.930
  759TIP3    H2 2284   0.056   1.009   2.047
  760TIP3   OH2 2285   0.540   4.623   4.843
  760TIP3    H1 2286   0.472   4.555   4.839
  760TIP3    H2 2287   0.500   4.694   4.893
  761TIP3   OH2 2288   0.734   2.996   2.330
  761TIP3    H1 2289   0.753   2.979   2.422
  761TIP3    H2 2290   0.641   3.018   2.328
  762TIP3   OH2 2291   5.419   0.636   3.216
  762TIP3    H1 2292   5.406   0.724   3.178
  762TIP3    H2 2293   5.512   0.633   3.238
  763TIP3   OH2 2294   2.717   2.880   4.358
  763TIP3    H1 2295   2.758   2.925   4.284
  763TIP3    H2 2296   2.653   2.822   4.318
  764TIP3   OH2 2297   1.631   1.625   4.641
  764TIP3    H1 2298   1.566   1.691   4.620
  764TIP3    H2 2299   1.692   1.669   4.700
  765TIP3   OH2 2300   3.366   5.923   0.213
  765TIP3    H1 2301   3.339   6.001   0.165
  765TIP3    H2 2302   3.442   5.950   0.264
  766TIP3   OH2 2303   5.388   0.671   1.971
  766TIP3    H1 2304   5.399   0.763   1.998
  766TIP3    H2 2305   5.296   0.666   1.945
  767TIP3   OH2 2306   6.205   3.314   2.732
  767TIP3    H1 2307   6.206   3.297   2.826
  767TIP3    H2 2308   6.290   3.284   2.701
  768TIP3   OH2 2309   4.827   4.382   1.324
  768TIP3    H1 2310   4.879   4.435   1.384
  768TIP3    H2 2311   4.758   4.345   1.378
  769TIP3   OH2 2312   1.031   3.116   3.480
  769TIP3    H1 2313   0.949   3.164   3.476
  769TIP3    H2 2314   1.098   3.184   3.494
  770TIP3   OH2 2315   1.585   1.318   4.121
  770TIP3    H1 2316   1.558   1.398   4.165
  770TIP3    H2 2317   1.677   1.306   4.147
  771TIP3   OH2 2318   1.419   4.567   4.635
  771TIP3    H1 2319   1.475   4.506   4.587
  771TIP3    H2 2320   1.331   4.531   4.626
  772TIP3   OH2 2321   3.289   2.912   4.017
  772TIP3    H1 2322   3.288   3.004   3.989
  772TIP3    H2 2323   3.215   2.905   4.078
  773TIP3   OH2 2324  -0.031   0.724   3.016
  773TIP3    H1 2325   0.039   0.662   3.036
  773TIP3    H2 2326  -0.046   0.771   3.099
  774TIP3   OH2 2327   2.039   2.375   1.217
  774TIP3    H1 2328   1.966   2.313   1.208
  774TIP3    H2 2329   2.043   2.395   1.310
  775TIP3   OH2 2330   6.257   4.051   2.790
  775TIP3    H1 2331   6.316   3.983   2.756
  775TIP3    H2 2332   6.250   4.115   2.720
  776TIP3   OH2 2333   3.484   5.698   0.099
  776TIP3    H1 2334   3.473   5.791   0.120
  776TIP3    H2 2335   3.428   5.653   0.161
  777TIP3   OH2 2336   1.467   0.488   3.826
  777TIP3    H1 2337   1.497   0.458   3.740
  777TIP3    H2 2338   1.548   0.497   3.878
  778TIP3   OH2 2339   5.232   0.358   0.014
  778TIP3    H1 2340   5.184   0.440   0.005
  778TIP3    H2 2341   5.166   0.290   0.007
  779TIP3   OH2 2342   6.124   5.620   3.294
  779TIP3    H1 2343   6.141   5.530   3.267
  779TIP3    H2 2344   6.028   5.625   3.300
  780TIP3   OH2 2345   3.867   4.424   3.213
  780TIP3    H1 2346   3.796   4.474   3.173
  780TIP3    H2 2347   3.947   4.456   3.169
  781TIP3   OH2 2348   0.457   4.457   3.158
  781TIP3    H1 2349   0.372   4.427   3.191
  781TIP3    H2 2350   0.506   4.377   3.141
  782TIP3   OH2 2351   1.102   5.211   3.118
  782TIP3    H1 2352   1.196   5.229   3.117
  782TIP3    H2 2353   1.091   5.135   3.061
  783TIP3   OH2 2354   2.456   2.262   2.691
  783TIP3    H1 2355   2.483   2.225   2.608
  783TIP3    H2 2356   2.368   2.227   2.706
  784TIP3   OH2 2357   2.003   3.399   1.414
  784TIP3    H1 2358   1.912   3.380   1.394
  784TIP3    H2 2359   1.999   3.463   1.485
  785TIP3   OH2 2360   4.832   5.756   0.089
  785TIP3    H1 2361   4.901   5.802   0.041
  785TIP3    H2 2362   4.843   5.784   0.180
  786TIP3   OH2 2363   1.346   0.089   0.224
  786TIP3    H1 2364   1.267   0.131   0.258
  786TIP3    H2 2365   1.318   0.000   0.201
  787TIP3   OH2 2366   4.846   5.258   4.133
  787TIP3    H1 2367   4.756   5.255   4.165
  787TIP3    H2 2368   4.875   5.347   4.151
  788TIP3   OH2 2369   2.061   3.019   2.512
  788TIP3    H1 2370   2.095   3.080   2.446
  788TIP3    H2 2371   2.022   3.076   2.578
  789TIP3   OH2 2372   1.412   3.275   4.095
  789TIP3    H1 2373   1.374   3.197   4.134
  789TIP3    H2 2374   1.408   3.259   4.001
  790TIP3   OH2 2375   2.183   4.911   4.555
  790TIP3    H1 2376   2.223   4.826   4.538
  790TIP3    H2 2377   2.254   4.974   4.541
  791TIP3   OH2 2378   1.193   0.524   5.146
  791TIP3    H1 2379   1.172   0.611   5.111
  791TIP3    H2 2380   1.260   0.490   5.086
  792TIP3   OH2 2381   0.011   2.853   2.619
  792TIP3    H1 2382  -0.033   2.811   2.693
  792TIP3    H2 2383   0.103   2.827   2.628
  793TIP3   OH2 2384   0.287   0.088   0.425
  793TIP3    H1 2385   0.216   0.094   0.489
  793TIP3    H2 2386   0.242   0.089   0.340
  794TIP3   OH2 2387   1.119   4.716   4.073
  794TIP3    H1 2388   1.096   4.805   4.098
  794TIP3    H2 2389   1.199   4.697   4.122
  795TIP3   OH2 2390   2.198   1.824   3.557
  795TIP3    H1 2391   2.259   1.789   3.621
  795TIP3    H2 2392   2.253   1.861   3.488
  796TIP3   OH2 2393   5.093   3.129   1.324
  796TIP3    H1 2394   5.174   3.078   1.333
  796TIP3    H2 2395   5.109   3.207   1.377
  797TIP3   OH2 2396   0.867   3.987   2.890
  797TIP3    H1 2397   0.960   3.986   2.915
  797TIP3    H2 2398   0.827   4.048   2.952
  798TIP3   OH2 2399   3.443   3.493   3.702
  798TIP3    H1 2400   3.497   3.419   3.673
  798TIP3    H2 2401   3.505   3.559   3.732
  799TIP3   OH2 2402   3.361   5.044   1.084
  799TIP3    H1 2403   3.288   5.105   1.076
  799TIP3    H2 2404   3.398   5.063   1.171
  800TIP3   OH2 2405   4.471   1.172   4.555
  800TIP3    H1 2406   4.488   1.258   4.516
  800TIP3    H2 2407   4.397   1.187   4.615
  801TIP3   OH2 2408   5.275   2.961   1.787
  801TIP3    H1 2409   5.295   2.879   1.741
  801TIP3    H2 2410   5.357   2.986   1.829
  802TIP3   OH2 2411   3.283   5.566   4.697
  802TIP3    H1 2412   3.252   5.487   4.742
  802TIP3    H2 2413   3.223   5.635   4.726
  803TIP3   OH2 2414   2.074   1.529   4.437
  803TIP3    H1 2415   2.146   1.473   4.407
  803TIP3    H2 2416   2.083   1.530   4.532
  804TIP3   OH2 2417   1.389   3.618   2.589
  804TIP3    H1 2418   1.308   3.643   2.632
  804TIP3    H2 2419   1.417   3.538   2.634
  805TIP3   OH2 2420   3.039   0.697   3.550
  805TIP3    H1 2421   3.014   0.723   3.461
  805TIP3    H2 2422   3.134   0.713   3.553
  806TIP3   OH2 2423   6.216   1.254   1.221
  806TIP3    H1 2424   6.176   1.209   1.296
  806TIP3    H2 2425   6.158   1.235   1.148
  807TIP3   OH2 2426   4.171   1.346   3.739
  807TIP3    H1 2427   4.134   1.434   3.743
  807TIP3    H2 2428   4.239   1.345   3.807
  808TIP3   OH2 2429   5.257   5.637   0.168
  808TIP3    H1 2430   5.277   5.648   0.075
  808TIP3    H2 2431   5.255   5.542   0.180
  809TIP3   OH2 2432   4.087   0.487   3.370
  809TIP3    H1 2433   4.052   0.529   3.291
  809TIP3    H2 2434   4.123   0.404   3.338
  810TIP3   OH2 2435   3.359   0.544   1.636
  810TIP3    H1 2436   3.268   0.564   1.614
  810TIP3    H2 2437   3.371   0.577   1.724
  811TIP3   OH2 2438   1.756   0.465   4.843
  811TIP3    H1 2439   1.735   0.506   4.759
  811TIP3    H2 2440   1.746   0.371   4.827
  812TIP3   OH2 2441   1.737   2.268   4.459
  812TIP3    H1 2442   1.710   2.354   4.490
  812TIP3    H2 2443   1.698   2.261   4.371
  813TIP3   OH2 2444   0.055   5.136   4.353
  813TIP3    H1 2445   0.090   5.207   4.298
  813TIP3    H2 2446   0.081   5.056   4.307
  814TIP3   OH2 2447   3.638   3.690   1.549
  814TIP3    H1 2448   3.656   3.771   1.501
  814TIP3    H2 2449   3.674   3.704   1.636
  815TIP3   OH2 2450   1.275   0.908   0.244
  815TIP3    H1 2451   1.244   0.998   0.256
  815TIP3    H2 2452   1.357   0.904   0.293
  816TIP3   OH2 2453   5.170   2.162   3.966
  816TIP3    H1 2454   5.080   2.136   3.945
  816TIP3    H2 2455   5.185   2.240   3.912
  817TIP3   OH2 2456   4.685   0.270   2.702
  817TIP3    H1 2457   4.774   0.293   2.727
  817TIP3    H2 2458   4.636   0.271   2.783
  818TIP3   OH2 2459   6.134   3.669   1.212
  818TIP3    H1 2460   6.187   3.591   1.227
  818TIP3    H2 2461   6.198   3.741   1.208
  819TIP3   OH2 2462   3.533   5.733   4.756
  819TIP3    H1 2463   3.504   5.802   4.816
  819TIP3    H2 2464   3.457   5.675   4.748
  820TIP3   OH2 2465   5.829   2.648   2.304
  820TIP3    H1 2466   5.890   2.617   2.371
  820TIP3    H2 2467   5.744   2.648   2.347
  821TIP3   OH2 2468   4.569   3.756   0.373
  821TIP3    H1 2469   4.573   3.668   0.411
  821TIP3    H2 2470   4.658   3.772   0.341
  822TIP3   OH2 2471   2.627   1.996   1.054
  822TIP3    H1 2472   2.713   2.037   1.049
  822TIP3    H2 2473   2.588   2.033   1.133
  823TIP3   OH2 2474   3.014   0.677   3.090
  823TIP3    H1 2475   3.022   0.585   3.066
  823TIP3    H2 2476   3.026   0.724   3.007
  824TIP3   OH2 2477   1.842   3.214   1.187
  824TIP3    H1 2478   1.875   3.140   1.237
  824TIP3    H2 2479   1.785   3.260   1.248
  825TIP3   OH2 2480   0.272   4.892   0.782
  825TIP3    H1 2481   0.267   4.859   0.692
  825TIP3    H2 2482   0.212   4.966   0.784
  826TIP3   OH2 2483   2.789   0.727   3.743
  826TIP3    H1 2484   2.874   0.709   3.782
  826TIP3    H2 2485   2.777   0.660   3.676
  827TIP3   OH2 2486   5.292   4.671   5.009
  827TIP3    H1 2487   5.380   4.705   4.994
  827TIP3    H2 2488   5.294   4.582   4.974
  828TIP3   OH2 2489   4.232   2.394   3.602
  828TIP3    H1 2490   4.173   2.361   3.669
  828TIP3    H2 2491   4.179   2.454   3.550
  829TIP3   OH2 2492   1.744   4.356   0.785
  829TIP3    H1 2493   1.669   4.370   0.728
  829TIP3    H2 2494   1.813   4.411   0.748
  830TIP3   OH2 2495   0.366   3.238   2.012
  830TIP3    H1 2496   0.322   3.323   1.999
  830TIP3    H2 2497   0.327   3.181   1.946
  831TIP3   OH2 2498   4.698   5.641   1.878
  831TIP3    H1 2499   4.740   5.628   1.964
  831TIP3    H2 2500   4.639   5.714   1.891
  832TIP3   OH2 2501   4.814   1.519  -0.025
  832TIP3    H1 2502   4.829   1.503   0.069
  832TIP3    H2 2503   4.747   1.587  -0.027
  833TIP3   OH2 2504   2.173   2.283   0.882
  833TIP3    H1 2505   2.268   2.275   0.887
  833TIP3    H2 2506   2.154   2.371   0.914
  834TIP3   OH2 2507   2.350   2.720   1.880
  834TIP3    H1 2508   2.380   2.743   1.967
  834TIP3    H2 2509   2.311   2.632   1.891
  835TIP3   OH2 2510   5.697   0.648   3.290
  835TIP3    H1 2511   5.753   0.713   3.249
  835TIP3    H2 2512   5.720   0.651   3.383
  836TIP3   OH2 2513   4.092   0.115   0.112
  836TIP3    H1 2514   4.179   0.110   0.073
  836TIP3    H2 2515   4.038   0.056   0.059
  837TIP3   OH2 2516   5.947   1.477   2.505
  837TIP3    H1 2517   5.908   1.504   2.588
  837TIP3    H2 2518   6.041   1.475   2.522
  838TIP3   OH2 2519   5.884   5.582   2.440
  838TIP3    H1 2520   5.916   5.671   2.457
  838TIP3    H2 2521   5.910   5.564   2.349
  839TIP3   OH2 2522   3.937   1.695   3.190
  839TIP3    H1 2523   3.998   1.749   3.140
  839TIP3    H2 2524   3.941   1.730   3.279
  840TIP3   OH2 2525   3.441   1.509   2.845
  840TIP3    H1 2526   3.481   1.452   2.911
  840TIP3    H2 2527   3.501   1.505   2.770
  841TIP3   OH2 2528   1.373   1.284   1.165
  841TIP3    H1 2529   1.330   1.205   1.195
  841TIP3    H2 2530   1.302   1.344   1.144
  842TIP3   OH2 2531   5.607   2.007   4.649
  842TIP3    H1 2532   5.665   2.082   4.665
  842TIP3    H2 2533   5.560   2.029   4.569
  843TIP3   OH2 2534   4.430   3.014   4.858
  843TIP3    H1 2535   4.432   3.109   4.868
  843TIP3    H2 2536   4.497   2.982   4.918
  844TIP3   OH2 2537   2.213   1.688   1.152
  844TIP3    H1 2538   2.157   1.684   1.075
  844TIP3    H2 2539   2.249   1.777   1.151
  845TIP3   OH2 2540   3.360   0.152   3.932
  845TIP3    H1 2541   3.452   0.139   3.910
  845TIP3    H2 2542   3.350   0.247   3.938
  846TIP3   OH2 2543   1.021   5.651   1.393
  846TIP3    H1 2544   0.956   5.586   1.419
  846TIP3    H2 2545   1.016   5.718   1.461
  847TIP3   OH2 2546   2.997   3.425   0.294
  847TIP3    H1 2547   2.973   3.411   0.203
  847TIP3    H2 2548   3.074   3.481   0.291
  848TIP3   OH2 2549   2.060   3.656   0.520
  848TIP3    H1 2550   1.999   3.727   0.500
  848TIP3    H2 2551   2.111   3.689   0.595
  849TIP3   OH2 2552   0.856   4.627   0.692
  849TIP3    H1 2553   0.838   4.667   0.777
  849TIP3    H2 2554   0.899   4.544   0.713
  850TIP3   OH2 2555   6.152   4.138   0.242
  850TIP3    H1 2556   6.096   4.196   0.190
  850TIP3    H2 2557   6.110   4.053   0.237
  851TIP3   OH2 2558  -0.007   2.676   1.766
  851TIP3    H1 2559   0.087   2.685   1.781
  851TIP3    H2 2560  -0.047   2.733   1.831
  852TIP3   OH2 2561   2.043   2.738   4.770
  852TIP3    H1 2562   2.030   2.761   4.861
  852TIP3    H2 2563   2.108   2.801   4.738
  853TIP3   OH2 2564   1.706   1.920   1.636
  853TIP3    H1 2565   1.758   1.991   1.598
  853TIP3    H2 2566   1.672   1.956   1.718
  854TIP3   OH2 2567   3.686   3.847   4.223
  854TIP3    H1 2568   3.623   3.918   4.216
  854TIP3    H2 2569   3.687   3.824   4.316
  855TIP3   OH2 2570   2.472   5.611   0.579
  855TIP3    H1 2571   2.427   5.682   0.624
  855TIP3    H2 2572   2.459   5.534   0.634
  856TIP3   OH2 2573   2.779   1.682   5.180
  856TIP3    H1 2574   2.720   1.705   5.107
  856TIP3    H2 2575   2.810   1.595   5.160
  857TIP3   OH2 2576   5.622   3.133   3.995
  857TIP3    H1 2577   5.615   3.103   3.904
  857TIP3    H2 2578   5.715   3.126   4.015
  858TIP3   OH2 2579   5.355   1.842   3.239
  858TIP3    H1 2580   5.443   1.842   3.277
  858TIP3    H2 2581   5.305   1.903   3.293
  859TIP3   OH2 2582   1.585   1.356   1.327
  859TIP3    H1 2583   1.551   1.434   1.370
  859TIP3    H2 2584   1.513   1.326   1.271
  860TIP3   OH2 2585   0.802   3.460   5.017
  860TIP3    H1 2586   0.866   3.407   4.970
  860TIP3    H2 2587   0.727   3.402   5.029
  861TIP3   OH2 2588   1.069   4.606   1.772
  861TIP3    H1 2589   1.090   4.529   1.718
  861TIP3    H2 2590   1.082   4.576   1.862
  862TIP3   OH2 2591   6.031   4.378   1.118
  862TIP3    H1 2592   5.979   4.357   1.040
  862TIP3    H2 2593   5.967   4.401   1.185
  863TIP3   OH2 2594   1.603   3.063   3.025
  863TIP3    H1 2595   1.555   2.981   3.029
  863TIP3    H2 2596   1.622   3.076   2.932
  864TIP3   OH2 2597   0.424   5.541   0.396
  864TIP3    H1 2598   0.372   5.607   0.351
  864TIP3    H2 2599   0.502   5.530   0.341
  865TIP3   OH2 2600   3.889   3.708   0.097
  865TIP3    H1 2601   3.843   3.756   0.166
  865TIP3    H2 2602   3.932   3.776   0.045
  866TIP3   OH2 2603   2.525   3.371   2.715
  866TIP3    H1 2604   2.455   3.310   2.737
  866TIP3    H2 2605   2.530   3.368   2.619
  867TIP3   OH2 2606   4.070   1.187   3.174
  867TIP3    H1 2607   4.140   1.188   3.240
  867TIP3    H2 2608   4.060   1.278   3.148
  868TIP3   OH2 2609   0.050   2.498   0.710
  868TIP3    H1 2610  -0.028   2.524   0.759
  868TIP3    H2 2611   0.034   2.529   0.621
  869TIP3   OH2 2612   1.615   1.870   5.007
  869TIP3    H1 2613   1.582   1.782   5.023
  869TIP3    H2 2614   1.635   1.905   5.094
  870TIP3   OH2 2615   1.393   0.444   4.986
  870TIP3    H1 2616   1.470   0.500   4.996
  870TIP3    H2 2617   1.427   0.355   4.987
  871TIP3   OH2 2618   6.057   0.124   5.091
  871TIP3    H1 2619   6.113   0.057   5.130
  871TIP3    H2 2620   5.985   0.074   5.052
  872TIP3   OH2 2621   5.908   1.283   4.933
  872TIP3    H1 2622   5.838   1.321   4.880
  872TIP3    H2 2623   5.987   1.293   4.879
  873TIP3   OH2 2624   6.026   3.924   4.200
  873TIP3    H1 2625   6.085   3.911   4.274
  873TIP3    H2 2626   5.995   4.014   4.210
  874TIP3   OH2 2627   6.267   5.459   4.317
  874TIP3    H1 2628   6.313   5.413   4.246
  874TIP3    H2 2629   6.329   5.460   4.389
  875TIP3   OH2 2630   5.377   5.228   2.996
  875TIP3    H1 2631   5.357   5.247   2.904
  875TIP3    H2 2632   5.292   5.213   3.037
  876TIP3   OH2 2633   1.736   2.930   1.576
  876TIP3    H1 2634   1.831   2.920   1.578
  876TIP3    H2 2635   1.707   2.896   1.661
  877TIP3   OH2 2636   4.592   3.461   0.489
  877TIP3    H1 2637   4.518   3.434   0.435
  877TIP3    H2 2638   4.664   3.404   0.460
  878TIP3   OH2 2639   2.302   4.328   2.904
  878TIP3    H1 2640   2.272   4.357   2.990
  878TIP3    H2 2641   2.363   4.256   2.924
  879TIP3   OH2 2642   5.188   4.778   1.025
  879TIP3    H1 2643   5.137   4.737   1.094
  879TIP3    H2 2644   5.138   4.856   1.001
  880TIP3   OH2 2645   2.953   0.054   3.854
  880TIP3    H1 2646   2.874   0.066   3.906
  880TIP3    H2 2647   2.927  -0.007   3.784
  881TIP3   OH2 2648   1.400   5.991   0.898
  881TIP3    H1 2649   1.423   6.040   0.820
  881TIP3    H2 2650   1.388   5.901   0.867
  882TIP3   OH2 2651   5.920   3.248   1.549
  882TIP3    H1 2652   5.847   3.261   1.609
  882TIP3    H2 2653   5.880   3.212   1.470
  883TIP3   OH2 2654   3.760   0.629   4.281
  883TIP3    H1 2655   3.676   0.585   4.272
  883TIP3    H2 2656   3.825   0.564   4.253
  884TIP3   OH2 2657   4.622   3.029   0.167
  884TIP3    H1 2658   4.532   2.999   0.172
  884TIP3    H2 2659   4.641   3.035   0.074
  885TIP3   OH2 2660   1.063   0.750   3.159
  885TIP3    H1 2661   1.049   0.844   3.173
  885TIP3    H2 2662   1.046   0.737   3.066
  886TIP3   OH2 2663   2.983   2.565   2.088
  886TIP3    H1 2664   3.068   2.597   2.055
  886TIP3    H2 2665   3.001   2.475   2.116
  887TIP3   OH2 2666   2.601   2.143   2.875
  887TIP3    H1 2667   2.580   2.190   2.956
  887TIP3    H2 2668   2.557   2.194   2.806
  888TIP3   OH2 2669   5.384   4.665   3.333
  888TIP3    H1 2670   5.445   4.643   3.262
  888TIP3    H2 2671   5.436   4.655   3.413
  889TIP3   OH2 2672   2.772   4.860   2.880
  889TIP3    H1 2673   2.734   4.883   2.965
  889TIP3    H2 2674   2.700   4.866   2.818
  890TIP3   OH2 2675   6.312   3.538   0.083
  890TIP3    H1 2676   6.352   3.604   0.140
  890TIP3    H2 2677   6.324   3.455   0.130
  891TIP3   OH2 2678   3.630   3.561   2.947
  891TIP3    H1 2679   3.573   3.485   2.934
  891TIP3    H2 2680   3.572   3.629   2.980
  892TIP3   OH2 2681   3.347   1.275   1.513
  892TIP3    H1 2682   3.286   1.220   1.465
  892TIP3    H2 2683   3.327   1.364   1.485
  893TIP3   OH2 2684   3.123   0.292   0.651
  893TIP3    H1 2685   3.184   0.319   0.721
  893TIP3    H2 2686   3.113   0.198   0.663
  894TIP3   OH2 2687   1.467   3.867   5.121
  894TIP3    H1 2688   1.441   3.880   5.212
  894TIP3    H2 2689   1.387   3.880   5.071
  895TIP3   OH2 2690   0.069   1.721   0.216
  895TIP3    H1 2691  -0.014   1.685   0.185
  895TIP3    H2 2692   0.125   1.644   0.228
  896TIP3   OH2 2693   4.639   0.685   4.554
  896TIP3    H1 2694   4.652   0.666   4.647
  896TIP3    H2 2695   4.638   0.781   4.549
  897TIP3   OH2 2696   2.593   1.661   1.551
  897TIP3    H1 2697   2.544   1.712   1.486
  897TIP3    H2 2698   2.676   1.707   1.561
  898TIP3   OH2 2699   2.499   5.098   3.815
  898TIP3    H1 2700   2.416   5.141   3.838
  898TIP3    H2 2701   2.472   5.015   3.776
  899TIP3   OH2 2702   1.152   5.837   1.741
  899TIP3    H1 2703   1.155   5.750   1.781
  899TIP3    H2 2704   1.158   5.897   1.815
  900TIP3   OH2 2705   2.843   4.730   0.275
  900TIP3    H1 2706   2.819   4.755   0.364
  900TIP3    H2 2707   2.762   4.735   0.226
  901TIP3   OH2 2708   3.207   2.290   1.080
  901TIP3    H1 2709   3.136   2.295   1.144
  901TIP3    H2 2710   3.285   2.319   1.128
  902TIP3   OH2 2711   1.064   5.816   3.869
  902TIP3    H1 2712   1.021   5.890   3.825
  902TIP3    H2 2713   1.007   5.741   3.850
  903TIP3   OH2 2714   3.846   2.191   4.355
  903TIP3    H1 2715   3.801   2.209   4.273
  903TIP3    H2 2716   3.814   2.258   4.416
  904TIP3   OH2 2717   0.059   3.409   4.625
  904TIP3    H1 2718   0.133   3.388   4.682
  904TIP3    H2 2719  -0.001   3.458   4.680
  905TIP3   OH2 2720   6.245   2.242   2.345
  905TIP3    H1 2721   6.213   2.214   2.430
  905TIP3    H2 2722   6.332   2.279   2.363
  906TIP3   OH2 2723   2.772   5.194   1.205
  906TIP3    H1 2724   2.807   5.282   1.192
  906TIP3    H2 2725   2.761   5.159   1.116
  907TIP3   OH2 2726   4.666   2.005   4.011
  907TIP3    H1 2727   4.627   2.092   4.019
  907TIP3    H2 2728   4.623   1.966   3.935
  908TIP3   OH2 2729   5.829   0.095   2.546
  908TIP3    H1 2730   5.901   0.154   2.526
  908TIP3    H2 2731   5.758   0.152   2.576
  909TIP3   OH2 2732   3.750   2.704   2.140
  909TIP3    H1 2733   3.816   2.710   2.071
  909TIP3    H2 2734   3.762   2.784   2.191
  910TIP3   OH2 2735   0.456   5.133   0.924
  910TIP3    H1 2736   0.509   5.191   0.870
  910TIP3    H2 2737   0.392   5.095   0.863
  911TIP3   OH2 2738   1.504   4.271   2.515
  911TIP3    H1 2739   1.562   4.307   2.448
  911TIP3    H2 2740   1.545   4.295   2.598
  912TIP3   OH2 2741   6.239   4.186   1.112
  912TIP3    H1 2742   6.198   4.141   1.038
  912TIP3    H2 2743   6.188   4.266   1.123
  913TIP3   OH2 2744   6.282   5.177   0.985
  913TIP3    H1 2745   6.235   5.260   0.990
  913TIP3    H2 2746   6.252   5.128   1.062
  914TIP3   OH2 2747   2.598   5.085   2.709
  914TIP3    H1 2748   2.665   5.114   2.647
  914TIP3    H2 2749   2.639   5.094   2.795
  915TIP3   OH2 2750   4.321   1.101   0.886
  915TIP3    H1 2751   4.387   1.170   0.883
  915TIP3    H2 2752   4.239   1.147   0.901
  916TIP3   OH2 2753   5.085   1.097   0.506
  916TIP3    H1 2754   5.156   1.074   0.566
  916TIP3    H2 2755   5.128   1.106   0.421
  917TIP3   OH2 2756   3.905   2.275   1.725
  917TIP3    H1 2757   3.848   2.243   1.794
  917TIP3    H2 2758   3.899   2.208   1.656
  918TIP3   OH2 2759   5.487   5.754   2.934
  918TIP3    H1 2760   5.457   5.681   2.987
  918TIP3    H2 2761   5.465   5.832   2.985
  919TIP3   OH2 2762   1.785   1.295   4.305
  919TIP3    H1 2763   1.855   1.288   4.370
  919TIP3    H2 2764   1.713   1.337   4.350
  920TIP3   OH2 2765   0.716   2.053   4.078
  920TIP3    H1 2766   0.729   2.146   4.095
  920TIP3    H2 2767   0.757   2.038   3.992
  921TIP3   OH2 2768   3.554   5.813   1.650
  921TIP3    H1 2769   3.472   5.782   1.690
  921TIP3    H2 2770   3.586   5.879   1.711
  922TIP3   OH2 2771   4.747   1.113   4.747
  922TIP3    H1 2772   4.839   1.093   4.766
  922TIP3    H2 2773   4.741   1.209   4.754
  923TIP3   OH2 2774   3.759   5.771   2.410
  923TIP3    H1 2775   3.779   5.816   2.327
  923TIP3    H2 2776   3.696   5.829   2.453
  924TIP3   OH2 2777   4.789   4.674   2.257
  924TIP3    H1 2778   4.833   4.628   2.329
  924TIP3    H2 2779   4.855   4.734   2.222
  925TIP3   OH2 2780   0.698   2.772   4.882
  925TIP3    H1 2781   0.723   2.817   4.963
  925TIP3    H2 2782   0.651   2.694   4.911
  926TIP3   OH2 2783   5.433   3.989   3.640
  926TIP3    H1 2784   5.431   4.078   3.677
  926TIP3    H2 2785   5.342   3.973   3.614
  927TIP3   OH2 2786   5.146   3.001   2.355
  927TIP3    H1 2787   5.145   3.032   2.265
  927TIP3    H2 2788   5.059   2.964   2.370
  928TIP3   OH2 2789   5.566   4.884   2.680
  928TIP3    H1 2790   5.576   4.854   2.590
  928TIP3    H2 2791   5.568   4.979   2.674
  929TIP3   OH2 2792   1.466   4.812   2.259
  929TIP3    H1 2793   1.442   4.759   2.335
  929TIP3    H2 2794   1.403   4.788   2.192
  930TIP3   OH2 2795   4.981   2.165   1.521
  930TIP3    H1 2796   5.038   2.125   1.454
  930TIP3    H2 2797   5.042   2.209   1.580
  931TIP3   OH2 2798   3.170   5.623   4.994
  931TIP3    H1 2799   3.133   5.711   4.988
  931TIP3    H2 2800   3.094   5.565   4.989
  932TIP3   OH2 2801   3.991   1.765   3.435
  932TIP3    H1 2802   4.036   1.689   3.471
  932TIP3    H2 2803   4.040   1.840   3.469
  933TIP3   OH2 2804   4.924   1.501   1.151
  933TIP3    H1 2805   4.943   1.523   1.060
  933TIP3    H2 2806   4.993   1.439   1.174
  934TIP3   OH2 2807   2.112   3.740   2.324
  934TIP3    H1 2808   2.158   3.760   2.406
  934TIP3    H2 2809   2.098   3.825   2.283
  935TIP3   OH2 2810   0.174   0.539   0.108
  935TIP3    H1 2811   0.086   0.561   0.078
  935TIP3    H2 2812   0.172   0.444   0.121
  936TIP3   OH2 2813   4.562   1.876   1.570
  936TIP3    H1 2814   4.616   1.800   1.549
  936TIP3    H2 2815   4.612   1.951   1.537
  937TIP3   OH2 2816   0.530   1.854   4.650
  937TIP3    H1 2817   0.520   1.940   4.610
  937TIP3    H2 2818   0.613   1.859   4.698
  938TIP3   OH2 2819   4.483   2.673   0.683
  938TIP3    H1 2820   4.557   2.641   0.734
  938TIP3    H2 2821   4.524   2.715   0.606
  939TIP3   OH2 2822   2.679   5.654   4.565
  939TIP3    H1 2823   2.734   5.619   4.494
  939TIP3    H2 2824   2.714   5.742   4.580
  940TIP3   OH2 2825   4.696   2.691   3.166
  940TIP3    H1 2826   4.632   2.680   3.096
  940TIP3    H2 2827   4.691   2.609   3.215
  941TIP3   OH2 2828   2.772   4.137   4.201
  941TIP3    H1 2829   2.687   4.153   4.159
  941TIP3    H2 2830   2.825   4.095   4.133
  942TIP3   OH2 2831   5.471   2.861   4.205
  942TIP3    H1 2832   5.489   2.881   4.113
  942TIP3    H2 2833   5.376   2.862   4.211
  943TIP3   OH2 2834   2.924   1.288   2.374
  943TIP3    H1 2835   2.889   1.355   2.433
  943TIP3    H2 2836   2.868   1.291   2.297
  944TIP3   OH2 2837   3.074   4.726   3.729
  944TIP3    H1 2838   2.994   4.702   3.776
  944TIP3    H2 2839   3.126   4.775   3.793
  945TIP3   OH2 2840   1.169   1.153   4.632
  945TIP3    H1 2841   1.207   1.084   4.577
  945TIP3    H2 2842   1.083   1.121   4.656
  946TIP3   OH2 2843   3.862   4.063   3.458
  946TIP3    H1 2844   3.889   4.144   3.500
  946TIP3    H2 2845   3.861   4.083   3.364
  947TIP3   OH2 2846   0.490   4.215   3.393
  947TIP3    H1 2847   0.572   4.213   3.442
  947TIP3    H2 2848   0.473   4.123   3.371
  948TIP3   OH2 2849   4.611   2.022   3.515
  948TIP3    H1 2850   4.672   2.063   3.454
  948TIP3    H2 2851   4.530   2.071   3.505
  949TIP3   OH2 2852   5.739   0.921   4.172
  949TIP3    H1 2853   5.778   0.958   4.251
  949TIP3    H2 2854   5.794   0.845   4.152
  950TIP3   OH2 2855   1.562   0.655   2.820
  950TIP3    H1 2856   1.529   0.565   2.822
  950TIP3    H2 2857   1.510   0.699   2.752
  951TIP3   OH2 2858   2.004   0.434   0.594
  951TIP3    H1 2859   2.087   0.474   0.568
  951TIP3    H2 2860   2.023   0.392   0.678
  952TIP3   OH2 2861   2.634   1.351   0.826
  952TIP3    H1 2862   2.623   1.266   0.868
  952TIP3    H2 2863   2.600   1.414   0.890
  953TIP3   OH2 2864   0.985   2.218   3.391
  953TIP3    H1 2865   0.974   2.124   3.407
  953TIP3    H2 2866   1.030   2.222   3.306
  954TIP3   OH2 2867   6.150   4.519   3.846
  954TIP3    H1 2868   6.088   4.489   3.779
  954TIP3    H2 2869   6.154   4.446   3.909
  955TIP3   OH2 2870   5.849   2.615   2.776
  955TIP3    H1 2871   5.778   2.672   2.806
  955TIP3    H2 2872   5.911   2.673   2.733
  956TIP3   OH2 2873   0.734   1.069   0.524
  956TIP3    H1 2874   0.680   0.991   0.536
  956TIP3    H2 2875   0.811   1.053   0.578
  957TIP3   OH2 2876   6.318   5.857   1.209
  957TIP3    H1 2877   6.351   5.926   1.150
  957TIP3    H2 2878   6.391   5.797   1.218
  958TIP3   OH2 2879   3.907   1.181   3.660
  958TIP3    H1 2880   3.938   1.229   3.737
  958TIP3    H2 2881   3.963   1.103   3.656
  959TIP3   OH2 2882   4.627   4.137   3.823
  959TIP3    H1 2883   4.656   4.222   3.855
  959TIP3    H2 2884   4.532   4.140   3.831
  960TIP3   OH2 2885   5.977   1.461   1.902
  960TIP3    H1 2886   5.912   1.439   1.968
  960TIP3    H2 2887   6.000   1.553   1.920
  961TIP3   OH2 2888   4.392   0.501   4.706
  961TIP3    H1 2889   4.381   0.596   4.695
  961TIP3    H2 2890   4.303   0.467   4.713
  962TIP3   OH2 2891   1.700   2.352   1.427
  962TIP3    H1 2892   1.715   2.321   1.337
  962TIP3    H2 2893   1.605   2.360   1.433
  963TIP3   OH2 2894   3.657   4.775   4.701
  963TIP3    H1 2895   3.607   4.713   4.754
  963TIP3    H2 2896   3.613   4.859   4.715
  964TIP3   OH2 2897   0.264   0.328   1.284
  964TIP3    H1 2898   0.209   0.258   1.249
  964TIP3    H2 2899   0.244   0.405   1.230
  965TIP3   OH2 2900   1.800   0.987   4.850
  965TIP3    H1 2901   1.884   0.968   4.808
  965TIP3    H2 2902   1.750   0.906   4.842
  966TIP3   OH2 2903   6.255   5.719   1.737
  966TIP3    H1 2904   6.228   5.808   1.759
  966TIP3    H2 2905   6.218   5.664   1.807
  967TIP3   OH2 2906   5.306   0.946   2.050
  967TIP3    H1 2907   5.243   0.934   1.980
  967TIP3    H2 2908   5.314   1.041   2.059
  968TIP3   OH2 2909   2.845   3.265   3.629
  968TIP3    H1 2910   2.778   3.266   3.560
  968TIP3    H2 2911   2.890   3.181   3.616
  969TIP3   OH2 2912   5.565   3.030   4.438
  969TIP3    H1 2913   5.509   3.103   4.410
  969TIP3    H2 2914   5.543   2.959   4.377
  970TIP3   OH2 2915   6.135   3.040   4.759
  970TIP3    H1 2916   6.191   2.963   4.765
  970TIP3    H2 2917   6.171   3.091   4.686
  971TIP3   OH2 2918   0.612   4.037   4.923
  971TIP3    H1 2919   0.552   3.973   4.883
  971TIP3    H2 2920   0.561   4.118   4.927
  972TIP3   OH2 2921   5.382   0.947   1.249
  972TIP3    H1 2922   5.455   0.944   1.186
  972TIP3    H2 2923   5.380   0.859   1.286
  973TIP3   OH2 2924   1.567   3.632   0.394
  973TIP3    H1 2925   1.626   3.574   0.441
  973TIP3    H2 2926   1.611   3.716   0.392
  974TIP3   OH2 2927   4.018   4.752   2.145
  974TIP3    H1 2928   3.966   4.794   2.077
  974TIP3    H2 2929   3.954   4.709   2.201
  975TIP3   OH2 2930   6.209   3.592   5.071
  975TIP3    H1 2931   6.118   3.605   5.043
  975TIP3    H2 2932   6.202   3.530   5.144
  976TIP3   OH2 2933   3.503   2.137   4.429
  976TIP3    H1 2934   3.575   2.188   4.467
  976TIP3    H2 2935   3.466   2.194   4.361
  977TIP3   OH2 2936   3.847   0.405   1.166
  977TIP3    H1 2937   3.762   0.444   1.145
  977TIP3    H2 2938   3.830   0.311   1.169
  978TIP3   OH2 2939   4.643   4.286   1.517
  978TIP3    H1 2940   4.612   4.367   1.559
  978TIP3    H2 2941   4.590   4.217   1.557
  979TIP3   OH2 2942   5.773   4.334   4.071
  979TIP3    H1 2943   5.755   4.289   3.988
  979TIP3    H2 2944   5.698   4.392   4.083
  980TIP3   OH2 2945   6.232   1.456   2.544
  980TIP3    H1 2946   6.286   1.486   2.616
  980TIP3    H2 2947   6.252   1.362   2.536
  981TIP3   OH2 2948   2.728   4.256   1.281
  981TIP3    H1 2949   2.710   4.174   1.327
  981TIP3    H2 2950   2.797   4.234   1.218
  982TIP3   OH2 2951   2.268   4.927   0.675
  982TIP3    H1 2952   2.252   4.843   0.632
  982TIP3    H2 2953   2.286   4.988   0.603
  983TIP3   OH2 2954   5.538   2.969   1.846
  983TIP3    H1 2955   5.579   2.883   1.857
  983TIP3    H2 2956   5.523   2.999   1.936
  984TIP3   OH2 2957   4.202   0.963   2.717
  984TIP3    H1 2958   4.127   1.007   2.757
  984TIP3    H2 2959   4.165   0.918   2.641
  985TIP3   OH2 2960   2.130   5.717   3.781
  985TIP3    H1 2961   2.119   5.729   3.875
  985TIP3    H2 2962   2.165   5.800   3.749
  986TIP3   OH2 2963   5.023   1.258   4.811
  986TIP3    H1 2964   5.068   1.205   4.745
  986TIP3    H2 2965   5.058   1.227   4.895
  987TIP3   OH2 2966   4.993   3.199   5.202
  987TIP3    H1 2967   4.966   3.128   5.144
  987TIP3    H2 2968   5.076   3.171   5.238
  988TIP3   OH2 2969   3.750   4.137   1.240
  988TIP3    H1 2970   3.750   4.093   1.155
  988TIP3    H2 2971   3.829   4.191   1.239
  989TIP3   OH2 2972   4.804   1.987   4.847
  989TIP3    H1 2973   4.764   1.909   4.884
  989TIP3    H2 2974   4.828   1.962   4.758
  990TIP3   OH2 2975   4.264   4.683   0.921
  990TIP3    H1 2976   4.325   4.625   0.965
  990TIP3    H2 2977   4.238   4.747   0.988
  991TIP3   OH2 2978   4.604   5.236   3.084
  991TIP3    H1 2979   4.687   5.259   3.125
  991TIP3    H2 2980   4.559   5.320   3.071
  992TIP3   OH2 2981   2.084   2.559   0.995
  992TIP3    H1 2982   2.053   2.492   1.056
  992TIP3    H2 2983   2.025   2.552   0.920
  993TIP3   OH2 2984   2.505   1.479   3.159
  993TIP3    H1 2985   2.575   1.448   3.101
  993TIP3    H2 2986   2.435   1.414   3.150
  994TIP3   OH2 2987   0.874   2.533   2.558
  994TIP3    H1 2988   0.899   2.605   2.616
  994TIP3    H2 2989   0.956   2.489   2.538
  995TIP3   OH2 2990   4.022   2.556   2.768
  995TIP3    H1 2991   4.113   2.566   2.741
  995TIP3    H2 2992   3.974   2.542   2.686
  996TIP3   OH2 2993   6.197   5.201   4.561
  996TIP3    H1 2994   6.159   5.114   4.554
  996TIP3    H2 2995   6.264   5.204   4.492
  997TIP3   OH2 2996   0.726   0.708   0.908
  997TIP3    H1 2997   0.779   0.748   0.839
  997TIP3    H2 2998   0.787   0.696   0.981
  998TIP3   OH2 2999   1.107   5.796   5.028
  998TIP3    H1 3000   1.136   5.841   4.949
  998TIP3    H2 3001   1.160   5.716   5.030
  999TIP3   OH2 3002   4.236   1.445   4.935
  999TIP3    H1 3003   4.245   1.521   4.993
  999TIP3    H2 3004   4.142   1.431   4.928
 1000TIP3   OH2 3005   2.801   4.028   3.334
 1000TIP3    H1 3006   2.841   4.087   3.270
 1000TIP3    H2 3007   2.875   3.989   3.380
 1001TIP3   OH2 3008   3.070   3.617   1.170
 1001TIP3    H1 3009   3.030   3.695   1.131
 1001TIP3    H2 3010   3.015   3.598   1.247
 1002TIP3   OH2 3011   1.260   4.267   1.152
 1002TIP3    H1 3012   1.203   4.334   1.190
 1002TIP3    H2 3013   1.335   4.264   1.212
 1003TIP3   OH2 3014   0.351   5.195   4.291
 1003TIP3    H1 3015   0.366   5.173   4.383
 1003TIP3    H2 3016   0.386   5.283   4.282
 1004TIP3   OH2 3017   2.869   4.869   2.267
 1004TIP3    H1 3018   2.782   4.906   2.252
 1004TIP3    H2 3019   2.887   4.816   2.189
 1005TIP3   OH2 3020   2.161   4.105   1.976
 1005TIP3    H1 3021   2.153   4.200   1.974
 1005TIP3    H2 3022   2.256   4.089   1.978
 1006TIP3   OH2 3023   5.102   5.330   1.098
 1006TIP3    H1 3024   5.038   5.328   1.169
 1006TIP3    H2 3025   5.051   5.312   1.019
 1007TIP3   OH2 3026   3.542   3.999   3.541
 1007TIP3    H1 3027   3.613   3.943   3.573
 1007TIP3    H2 3028   3.576   4.088   3.551
 1008TIP3   OH2 3029   2.016   4.530   0.197
 1008TIP3    H1 3030   2.107   4.502   0.195
 1008TIP3    H2 3031   1.966   4.449   0.194
 1009TIP3   OH2 3032   1.771   1.258   2.958
 1009TIP3    H1 3033   1.865   1.272   2.973
 1009TIP3    H2 3034   1.746   1.192   3.023
 1010TIP3   OH2 3035   2.139   2.251   1.520
 1010TIP3    H1 3036   2.141   2.346   1.507
 1010TIP3    H2 3037   2.185   2.237   1.603
 1011TIP3   OH2 3038   4.950   0.706   0.978
 1011TIP3    H1 3039   4.982   0.715   0.888
 1011TIP3    H2 3040   5.016   0.751   1.031
 1012TIP3   OH2 3041   3.130   3.407   1.582
 1012TIP3    H1 3042   3.135   3.377   1.492
 1012TIP3    H2 3043   3.200   3.472   1.590
 1013TIP3   OH2 3044   3.892   2.495   2.549
 1013TIP3    H1 3045   3.841   2.415   2.533
 1013TIP3    H2 3046   3.908   2.531   2.462
 1014TIP3   OH2 3047   2.958   3.619   1.856
 1014TIP3    H1 3048   2.930   3.539   1.812
 1014TIP3    H2 3049   3.042   3.596   1.896
 1015TIP3   OH2 3050   4.676   1.446   4.557
 1015TIP3    H1 3051   4.707   1.488   4.638
 1015TIP3    H2 3052   4.728   1.487   4.488
 1016TIP3   OH2 3053   2.031   4.226   0.811
 1016TIP3    H1 3054   1.989   4.229   0.897
 1016TIP3    H2 3055   2.080   4.144   0.811
 1017TIP3   OH2 3056   4.479   1.303   3.813
 1017TIP3    H1 3057   4.481   1.218   3.769
 1017TIP3    H2 3058   4.513   1.285   3.901
 1018TIP3   OH2 3059  -0.008   0.915   3.216
 1018TIP3    H1 3060   0.025   0.927   3.306
 1018TIP3    H2 3061   0.061   0.952   3.161
 1019TIP3   OH2 3062   2.902   3.161   4.550
 1019TIP3    H1 3063   2.890   3.233   4.488
 1019TIP3    H2 3064   2.815   3.122   4.558
 1020TIP3   OH2 3065   1.862   4.271   4.428
 1020TIP3    H1 3066   1.947   4.292   4.467
 1020TIP3    H2 3067   1.806   4.249   4.502
 1021TIP3   OH2 3068   5.425   0.183   0.087
 1021TIP3    H1 3069   5.486   0.249   0.118
 1021TIP3    H2 3070   5.356   0.233   0.042
 1022TIP3   OH2 3071   5.273   4.832   4.635
 1022TIP3    H1 3072   5.278   4.917   4.592
 1022TIP3    H2 3073   5.243   4.772   4.567
 1023TIP3   OH2 3074   3.815   4.274   0.154
 1023TIP3    H1 3075   3.724   4.246   0.164
 1023TIP3    H2 3076   3.846   4.230   0.075
 1024TIP3   OH2 3077   3.472   3.949   4.443
 1024TIP3    H1 3078   3.471   4.025   4.501
 1024TIP3    H2 3079   3.397   3.962   4.384
 1025TIP3   OH2 3080   5.532   2.073   3.499
 1025TIP3    H1 3081   5.470   2.144   3.481
 1025TIP3    H2 3082   5.478   2.003   3.537
 1026TIP3   OH2 3083   1.480   1.911   2.516
 1026TIP3    H1 3084   1.413   1.975   2.540
 1026TIP3    H2 3085   1.545   1.962   2.467
 1027TIP3   OH2 3086   4.447   3.029   4.572
 1027TIP3    H1 3087   4.417   3.106   4.524
 1027TIP3    H2 3088   4.423   3.046   4.663
 1028TIP3   OH2 3089   5.641   5.104   4.931
 1028TIP3    H1 3090   5.637   5.200   4.935
 1028TIP3    H2 3091   5.731   5.083   4.957
 1029TIP3   OH2 3092   5.258   0.461   3.333
 1029TIP3    H1 3093   5.343   0.496   3.307
 1029TIP3    H2 3094   5.257   0.372   3.299
 1030TIP3   OH2 3095   0.927   3.655   1.234
 1030TIP3    H1 3096   0.851   3.698   1.273
 1030TIP3    H2 3097   0.920   3.674   1.140
 1031TIP3   OH2 3098   4.331   5.320   3.536
 1031TIP3    H1 3099   4.277   5.383   3.583
 1031TIP3    H2 3100   4.308   5.333   3.444
 1032TIP3   OH2 3101   6.018   1.797   0.408
 1032TIP3    H1 3102   5.930   1.773   0.381
 1032TIP3    H2 3103   6.075   1.740   0.356
 1033TIP3   OH2 3104   3.849   0.125   1.285
 1033TIP3    H1 3105   3.765   0.114   1.240
 1033TIP3    H2 3106   3.828   0.180   1.360
 1034TIP3   OH2 3107   0.220   4.537   0.422
 1034TIP3    H1 3108   0.124   4.541   0.419
 1034TIP3    H2 3109   0.244   4.594   0.495
 1035TIP3   OH2 3110   0.504   2.606   4.634
 1035TIP3    H1 3111   0.419   2.612   4.590
 1035TIP3    H2 3112   0.519   2.512   4.645
 1036TIP3   OH2 3113   2.332   5.536   3.199
 1036TIP3    H1 3114   2.319   5.593   3.123
 1036TIP3    H2 3115   2.246   5.531   3.241
 1037TIP3   OH2 3116   1.357   4.518   3.206
 1037TIP3    H1 3117   1.284   4.456   3.204
 1037TIP3    H2 3118   1.353   4.556   3.293
 1038TIP3   OH2 3119   0.792   3.200   0.144
 1038TIP3    H1 3120   0.824   3.121   0.101
 1038TIP3    H2 3121   0.762   3.257   0.073
 1039TIP3   OH2 3122   5.873   3.276   1.986
 1039TIP3    H1 3123   5.946   3.235   2.032
 1039TIP3    H2 3124   5.832   3.204   1.937
 1040TIP3   OH2 3125   0.683   5.600   0.901
 1040TIP3    H1 3126   0.648   5.631   0.817
 1040TIP3    H2 3127   0.606   5.589   0.956
 1041TIP3   OH2 3128   5.766   5.442   4.978
 1041TIP3    H1 3129   5.713   5.518   4.955
 1041TIP3    H2 3130   5.781   5.396   4.895
 1042TIP3   OH2 3131   3.952   3.743   2.594
 1042TIP3    H1 3132   3.941   3.691   2.514
 1042TIP3    H2 3133   3.883   3.713   2.652
 1043TIP3   OH2 3134   1.183   2.739   2.574
 1043TIP3    H1 3135   1.240   2.775   2.506
 1043TIP3    H2 3136   1.222   2.654   2.595
 1044TIP3   OH2 3137   2.003   2.417   2.555
 1044TIP3    H1 3138   1.989   2.419   2.460
 1044TIP3    H2 3139   1.971   2.502   2.585
 1045TIP3   OH2 3140   0.192   1.882   3.221
 1045TIP3    H1 3141   0.169   1.912   3.309
 1045TIP3    H2 3142   0.272   1.930   3.200
 1046TIP3   OH2 3143   0.148   2.250   4.189
 1046TIP3    H1 3144   0.139   2.229   4.096
 1046TIP3    H2 3145   0.242   2.265   4.201
 1047TIP3   OH2 3146   2.363   4.332   1.724
 1047TIP3    H1 3147   2.335   4.421   1.700
 1047TIP3    H2 3148   2.438   4.346   1.782
 1048TIP3   OH2 3149   5.499   5.718   3.309
 1048TIP3    H1 3150   5.466   5.720   3.220
 1048TIP3    H2 3151   5.510   5.624   3.329
 1049TIP3   OH2 3152   4.871   3.352   2.470
 1049TIP3    H1 3153   4.960   3.317   2.460
 1049TIP3    H2 3154   4.837   3.307   2.548
 1050TIP3   OH2 3155   0.817   3.762   0.795
 1050TIP3    H1 3156   0.751   3.727   0.855
 1050TIP3    H2 3157   0.839   3.689   0.738
 1051TIP3   OH2 3158   2.919   1.060   2.787
 1051TIP3    H1 3159   2.862   1.008   2.729
 1051TIP3    H2 3160   2.883   1.149   2.782
 1052TIP3   OH2 3161   4.920   5.596   2.302
 1052TIP3    H1 3162   4.995   5.577   2.246
 1052TIP3    H2 3163   4.942   5.555   2.386
 1053TIP3   OH2 3164   1.914   5.568   2.508
 1053TIP3    H1 3165   1.823   5.542   2.519
 1053TIP3    H2 3166   1.962   5.485   2.503
 1054TIP3   OH2 3167   2.401   4.989   4.169
 1054TIP3    H1 3168   2.434   4.942   4.246
 1054TIP3    H2 3169   2.441   4.943   4.095
 1055TIP3   OH2 3170   5.221   2.108   1.378
 1055TIP3    H1 3171   5.282   2.036   1.360
 1055TIP3    H2 3172   5.259   2.153   1.453
 1056TIP3   OH2 3173   3.602   5.826   1.963
 1056TIP3    H1 3174   3.680   5.784   2.001
 1056TIP3    H2 3175   3.629   5.916   1.945
 1057TIP3   OH2 3176   5.831   5.847   3.864
 1057TIP3    H1 3177   5.906   5.901   3.891
 1057TIP3    H2 3178   5.772   5.908   3.821
 1058TIP3   OH2 3179   2.514   3.758   2.626
 1058TIP3    H1 3180   2.445   3.723   2.682
 1058TIP3    H2 3181   2.594   3.749   2.678
 1059TIP3   OH2 3182   3.991   1.749   2.178
 1059TIP3    H1 3183   4.026   1.837   2.163
 1059TIP3    H2 3184   3.902   1.764   2.209
 1060TIP3   OH2 3185   0.129   3.433   2.292
 1060TIP3    H1 3186   0.122   3.390   2.207
 1060TIP3    H2 3187   0.069   3.507   2.287
 1061TIP3   OH2 3188   4.135   5.092   3.873
 1061TIP3    H1 3189   4.167   5.129   3.955
 1061TIP3    H2 3190   4.062   5.149   3.848
 1062TIP3   OH2 3191   4.402   3.273   2.756
 1062TIP3    H1 3192   4.453   3.317   2.688
 1062TIP3    H2 3193   4.393   3.339   2.826
 1063TIP3   OH2 3194   0.623   5.347   1.459
 1063TIP3    H1 3195   0.651   5.275   1.401
 1063TIP3    H2 3196   0.531   5.327   1.479
 1064TIP3   OH2 3197   4.024   0.027   2.697
 1064TIP3    H1 3198   3.993  -0.061   2.719
 1064TIP3    H2 3199   3.967   0.086   2.747
 1065TIP3   OH2 3200   4.026   4.468   2.056
 1065TIP3    H1 3201   4.119   4.474   2.079
 1065TIP3    H2 3202   4.013   4.535   1.989
 1066TIP3   OH2 3203   4.119   3.210   3.782
 1066TIP3    H1 3204   4.180   3.266   3.830
 1066TIP3    H2 3205   4.132   3.233   3.690
 1067TIP3   OH2 3206   5.806   5.807   0.509
 1067TIP3    H1 3207   5.879   5.828   0.567
 1067TIP3    H2 3208   5.747   5.754   0.562
 1068TIP3   OH2 3209   2.137   1.346   0.930
 1068TIP3    H1 3210   2.111   1.310   1.015
 1068TIP3    H2 3211   2.224   1.384   0.945
 1069TIP3   OH2 3212   5.962   2.731   3.039
 1069TIP3    H1 3213   5.969   2.752   2.946
 1069TIP3    H2 3214   5.914   2.805   3.076
 1070TIP3   OH2 3215   4.922   2.706   3.613
 1070TIP3    H1 3216   4.857   2.773   3.635
 1070TIP3    H2 3217   4.995   2.723   3.672
 1071TIP3   OH2 3218   2.139   0.105   3.462
 1071TIP3    H1 3219   2.098   0.185   3.430
 1071TIP3    H2 3220   2.183   0.067   3.386
 1072TIP3   OH2 3221   2.542   5.875   2.392
 1072TIP3    H1 3222   2.616   5.870   2.331
 1072TIP3    H2 3223   2.529   5.969   2.405
 1073TIP3   OH2 3224   0.893   1.058   3.512
 1073TIP3    H1 3225   0.976   1.098   3.484
 1073TIP3    H2 3226   0.852   1.031   3.430
 1074TIP3   OH2 3227   1.188   4.461   3.573
 1074TIP3    H1 3228   1.193   4.410   3.654
 1074TIP3    H2 3229   1.257   4.527   3.581
 1075TIP3   OH2 3230   3.615   4.461   1.705
 1075TIP3    H1 3231   3.591   4.427   1.618
 1075TIP3    H2 3232   3.599   4.388   1.764
 1076TIP3   OH2 3233   2.716   5.454   4.010
 1076TIP3    H1 3234   2.744   5.524   3.951
 1076TIP3    H2 3235   2.632   5.484   4.045
 1077TIP3   OH2 3236   1.562   0.170   0.958
 1077TIP3    H1 3237   1.552   0.261   0.985
 1077TIP3    H2 3238   1.486   0.153   0.903
 1078TIP3   OH2 3239   4.873   1.389   1.532
 1078TIP3    H1 3240   4.929   1.312   1.539
 1078TIP3    H2 3241   4.934   1.463   1.533
 1079TIP3   OH2 3242   2.371   0.512   2.788
 1079TIP3    H1 3243   2.412   0.596   2.767
 1079TIP3    H2 3244   2.350   0.474   2.702
 1080TIP3   OH2 3245   1.212   0.221   0.588
 1080TIP3    H1 3246   1.157   0.276   0.532
 1080TIP3    H2 3247   1.245   0.153   0.529
 1081TIP3   OH2 3248   4.069   2.980   3.949
 1081TIP3    H1 3249   3.976   2.966   3.930
 1081TIP3    H2 3250   4.092   3.059   3.899
 1082TIP3   OH2 3251   3.630   1.764   2.115
 1082TIP3    H1 3252   3.681   1.826   2.063
 1082TIP3    H2 3253   3.601   1.698   2.052
 1083TIP3   OH2 3254   1.900   5.097   2.068
 1083TIP3    H1 3255   1.935   5.132   2.150
 1083TIP3    H2 3256   1.837   5.030   2.095
 1084TIP3   OH2 3257   0.593   0.365   4.724
 1084TIP3    H1 3258   0.533   0.415   4.779
 1084TIP3    H2 3259   0.537   0.302   4.679
 1085TIP3   OH2 3260   4.508   3.657   2.900
 1085TIP3    H1 3261   4.462   3.581   2.938
 1085TIP3    H2 3262   4.485   3.730   2.958
 1086TIP3   OH2 3263   0.157   4.111   2.351
 1086TIP3    H1 3264   0.229   4.130   2.291
 1086TIP3    H2 3265   0.127   4.024   2.327
 1087TIP3   OH2 3266   4.060   5.610   0.476
 1087TIP3    H1 3267   4.089   5.534   0.526
 1087TIP3    H2 3268   3.988   5.647   0.528
 1088TIP3   OH2 3269   1.202   1.259   2.834
 1088TIP3    H1 3270   1.218   1.327   2.898
 1088TIP3    H2 3271   1.172   1.306   2.756
 1089TIP3   OH2 3272   4.533   0.167   4.571
 1089TIP3    H1 3273   4.581   0.110   4.511
 1089TIP3    H2 3274   4.601   0.216   4.617
 1090TIP3   OH2 3275   2.193   1.561   4.695
 1090TIP3    H1 3276   2.200   1.468   4.675
 1090TIP3    H2 3277   2.143   1.564   4.777
 1091TIP3   OH2 3278   2.243   2.440   3.560
 1091TIP3    H1 3279   2.246   2.349   3.528
 1091TIP3    H2 3280   2.316   2.447   3.621
 1092TIP3   OH2 3281   5.991   2.984   3.877
 1092TIP3    H1 3282   6.052   2.950   3.812
 1092TIP3    H2 3283   6.040   3.052   3.922
 1093TIP3   OH2 3284   3.227   0.860   4.750
 1093TIP3    H1 3285   3.240   0.779   4.700
 1093TIP3    H2 3286   3.288   0.923   4.710
 1094TIP3   OH2 3287   3.072   1.507   0.650
 1094TIP3    H1 3288   2.998   1.505   0.589
 1094TIP3    H2 3289   3.048   1.573   0.716
 1095TIP3   OH2 3290   1.288   3.902   4.385
 1095TIP3    H1 3291   1.196   3.901   4.413
 1095TIP3    H2 3292   1.337   3.912   4.466
 1096TIP3   OH2 3293   4.051   0.158   4.298
 1096TIP3    H1 3294   4.129   0.191   4.343
 1096TIP3    H2 3295   4.011   0.098   4.361
 1097TIP3   OH2 3296   0.764   2.200   0.855
 1097TIP3    H1 3297   0.835   2.255   0.890
 1097TIP3    H2 3298   0.776   2.116   0.898
 1098TIP3   OH2 3299   3.392   0.666   0.437
 1098TIP3    H1 3300   3.309   0.619   0.442
 1098TIP3    H2 3301   3.404   0.683   0.343
 1099TIP3   OH2 3302   6.168   0.211   4.583
 1099TIP3    H1 3303   6.138   0.299   4.559
 1099TIP3    H2 3304   6.240   0.194   4.523
 1100TIP3   OH2 3305   4.435   0.889   4.367
 1100TIP3    H1 3306   4.494   0.959   4.338
 1100TIP3    H2 3307   4.473   0.857   4.448
 1101TIP3   OH2 3308   0.935   2.797   2.695
 1101TIP3    H1 3309   1.011   2.756   2.653
 1101TIP3    H2 3310   0.970   2.839   2.773
 1102TIP3   OH2 3311   2.274   5.853   0.573
 1102TIP3    H1 3312   2.181   5.867   0.552
 1102TIP3    H2 3313   2.308   5.940   0.592
 1103TIP3   OH2 3314   1.297   2.454   4.633
 1103TIP3    H1 3315   1.369   2.484   4.689
 1103TIP3    H2 3316   1.222   2.508   4.658
 1104TIP3   OH2 3317   5.963   2.467   2.542
 1104TIP3    H1 3318   5.947   2.507   2.628
 1104TIP3    H2 3319   5.890   2.407   2.530
 1105TIP3   OH2 3320   0.919   1.071   1.254
 1105TIP3    H1 3321   0.845   1.038   1.305
 1105TIP3    H2 3322   0.961   1.136   1.311
 1106TIP3   OH2 3323   1.666   3.985   1.923
 1106TIP3    H1 3324   1.668   3.955   1.832
 1106TIP3    H2 3325   1.748   4.035   1.932
 1107TIP3   OH2 3326   5.894   2.994   4.867
 1107TIP3    H1 3327   5.874   3.073   4.917
 1107TIP3    H2 3328   5.984   3.006   4.838
 1108TIP3   OH2 3329   0.977   0.401   4.377
 1108TIP3    H1 3330   0.908   0.377   4.439
 1108TIP3    H2 3331   1.026   0.320   4.364
 1109TIP3   OH2 3332   5.440   4.367   2.950
 1109TIP3    H1 3333   5.378   4.409   2.890
 1109TIP3    H2 3334   5.392   4.359   3.032
 1110TIP3   OH2 3335   3.574   0.595   0.171
 1110TIP3    H1 3336   3.495   0.542   0.173
 1110TIP3    H2 3337   3.613   0.586   0.258
 1111TIP3   OH2 3338   1.348   3.047   3.633
 1111TIP3    H1 3339   1.298   3.117   3.676
 1111TIP3    H2 3340   1.417   3.093   3.585
 1112TIP3   OH2 3341   3.465   2.040   3.829
 1112TIP3    H1 3342   3.440   2.009   3.916
 1112TIP3    H2 3343   3.554   2.007   3.816
 1113TIP3   OH2 3344   5.577   2.698   1.892
 1113TIP3    H1 3345   5.604   2.646   1.817
 1113TIP3    H2 3346   5.652   2.697   1.951
 1114TIP3   OH2 3347   2.473   0.508   2.467
 1114TIP3    H1 3348   2.420   0.441   2.510
 1114TIP3    H2 3349   2.435   0.591   2.495
 1115TIP3   OH2 3350   4.750   5.797   2.174
 1115TIP3    H1 3351   4.786   5.718   2.214
 1115TIP3    H2 3352   4.684   5.828   2.236
 1116TIP3   OH2 3353   4.339   0.929   3.229
 1116TIP3    H1 3354   4.417   0.890   3.188
 1116TIP3    H2 3355   4.329   0.881   3.311
 1117TIP3   OH2 3356   1.718   5.868   3.571
 1117TIP3    H1 3357   1.760   5.898   3.652
 1117TIP3    H2 3358   1.625   5.861   3.594
 1118TIP3   OH2 3359   5.835   0.471   0.408
 1118TIP3    H1 3360   5.801   0.542   0.354
 1118TIP3    H2 3361   5.908   0.510   0.456
 1119TIP3   OH2 3362   5.055   1.679   2.218
 1119TIP3    H1 3363   5.019   1.629   2.145
 1119TIP3    H2 3364   5.046   1.770   2.191
 1120TIP3   OH2 3365   4.745   5.724   1.367
 1120TIP3    H1 3366   4.699   5.800   1.332
 1120TIP3    H2 3367   4.683   5.651   1.356
 1121TIP3   OH2 3368   2.281   0.864   4.199
 1121TIP3    H1 3369   2.193   0.886   4.169
 1121TIP3    H2 3370   2.293   0.913   4.280
 1122TIP3   OH2 3371   1.728   0.385   4.019
 1122TIP3    H1 3372   1.749   0.421   3.932
 1122TIP3    H2 3373   1.680   0.456   4.063
 1123TIP3   OH2 3374   0.909   3.029   4.030
 1123TIP3    H1 3375   0.919   2.939   4.059
 1123TIP3    H2 3376   0.989   3.049   3.981
 1124TIP3   OH2 3377   5.803   3.220   1.042
 1124TIP3    H1 3378   5.832   3.135   1.076
 1124TIP3    H2 3379   5.823   3.282   1.111
 1125TIP3   OH2 3380   2.075   5.067   3.276
 1125TIP3    H1 3381   2.157   5.100   3.313
 1125TIP3    H2 3382   2.093   4.975   3.257
 1126TIP3   OH2 3383   5.434   1.859   1.323
 1126TIP3    H1 3384   5.497   1.794   1.354
 1126TIP3    H2 3385   5.480   1.942   1.328
 1127TIP3   OH2 3386   0.627   2.174   3.799
 1127TIP3    H1 3387   0.691   2.212   3.738
 1127TIP3    H2 3388   0.580   2.249   3.834
 1128TIP3   OH2 3389   3.495   3.693   0.245
 1128TIP3    H1 3390   3.526   3.603   0.253
 1128TIP3    H2 3391   3.515   3.733   0.330
 1129TIP3   OH2 3392   5.711   0.991   2.102
 1129TIP3    H1 3393   5.707   0.987   2.006
 1129TIP3    H2 3394   5.669   1.074   2.124
 1130TIP3   OH2 3395   1.752   5.214   2.806
 1130TIP3    H1 3396   1.759   5.124   2.837
 1130TIP3    H2 3397   1.704   5.208   2.724
 1131TIP3   OH2 3398   6.341   3.682   2.877
 1131TIP3    H1 3399   6.252   3.716   2.867
 1131TIP3    H2 3400   6.333   3.588   2.860
 1132TIP3   OH2 3401   4.733   2.354   2.921
 1132TIP3    H1 3402   4.666   2.423   2.927
 1132TIP3    H2 3403   4.705   2.301   2.846
 1133TIP3   OH2 3404   4.135   1.534   1.689
 1133TIP3    H1 3405   4.209   1.563   1.636
 1133TIP3    H2 3406   4.169   1.529   1.778
 1134TIP3   OH2 3407   6.332   5.728   3.955
 1134TIP3    H1 3408   6.378   5.666   4.011
 1134TIP3    H2 3409   6.303   5.676   3.880
 1135TIP3   OH2 3410   1.103   3.812   4.872
 1135TIP3    H1 3411   1.108   3.771   4.786
 1135TIP3    H2 3412   1.021   3.780   4.910
 1136TIP3   OH2 3413   5.892   0.478   4.300
 1136TIP3    H1 3414   5.859   0.471   4.210
 1136TIP3    H2 3415   5.820   0.446   4.354
 1137TIP3   OH2 3416   4.181   4.955   0.888
 1137TIP3    H1 3417   4.195   5.039   0.842
 1137TIP3    H2 3418   4.259   4.903   0.867
 1138TIP3   OH2 3419   4.318   3.346   2.296
 1138TIP3    H1 3420   4.248   3.354   2.231
 1138TIP3    H2 3421   4.291   3.404   2.367
 1139TIP3   OH2 3422   3.060   2.617   3.097
 1139TIP3    H1 3423   2.975   2.654   3.071
 1139TIP3    H2 3424   3.076   2.549   3.031
 1140TIP3   OH2 3425   3.172   1.614   3.792
 1140TIP3    H1 3426   3.108   1.685   3.803
 1140TIP3    H2 3427   3.252   1.649   3.831
 1141TIP3   OH2 3428   5.366   5.657   1.380
 1141TIP3    H1 3429   5.344   5.638   1.289
 1141TIP3    H2 3430   5.372   5.570   1.422
 1142TIP3   OH2 3431   5.633   0.080   1.414
 1142TIP3    H1 3432   5.685   0.000   1.410
 1142TIP3    H2 3433   5.547   0.051   1.446
 1143TIP3   OH2 3434   4.634   5.231   3.595
 1143TIP3    H1 3435   4.546   5.256   3.566
 1143TIP3    H2 3436   4.628   5.228   3.691
 1144TIP3   OH2 3437   3.133   2.239   3.587
 1144TIP3    H1 3438   3.140   2.298   3.662
 1144TIP3    H2 3439   3.211   2.184   3.592
 1145TIP3   OH2 3440   5.962   5.095   2.911
 1145TIP3    H1 3441   5.996   5.142   2.987
 1145TIP3    H2 3442   5.871   5.075   2.933
 1146TIP3   OH2 3443   5.335   0.998   3.910
 1146TIP3    H1 3444   5.393   1.037   3.976
 1146TIP3    H2 3445   5.365   1.036   3.827
 1147TIP3   OH2 3446   5.350   0.357   4.620
 1147TIP3    H1 3447   5.326   0.385   4.708
 1147TIP3    H2 3448   5.268   0.363   4.570
 1148TIP3   OH2 3449   1.601   3.145   2.514
 1148TIP3    H1 3450   1.543   3.218   2.490
 1148TIP3    H2 3451   1.618   3.100   2.431
 1149TIP3   OH2 3452   3.492   0.833   3.182
 1149TIP3    H1 3453   3.513   0.756   3.129
 1149TIP3    H2 3454   3.578   0.868   3.208
 1150TIP3   OH2 3455   6.220   4.126   4.505
 1150TIP3    H1 3456   6.126   4.134   4.521
 1150TIP3    H2 3457   6.231   4.038   4.469
 1151TIP3   OH2 3458   3.120   3.610   3.192
 1151TIP3    H1 3459   3.214   3.599   3.180
 1151TIP3    H2 3460   3.112   3.648   3.280
 1152TIP3   OH2 3461   4.724   0.501   5.146
 1152TIP3    H1 3462   4.710   0.595   5.146
 1152TIP3    H2 3463   4.672   0.469   5.072
 1153TIP3   OH2 3464   5.213   5.091   1.214
 1153TIP3    H1 3465   5.298   5.047   1.204
 1153TIP3    H2 3466   5.222   5.171   1.161
 1154TIP3   OH2 3467   4.374   1.457   0.039
 1154TIP3    H1 3468   4.451   1.490  -0.007
 1154TIP3    H2 3469   4.403   1.376   0.080
 1155TIP3   OH2 3470   0.338   3.198   3.527
 1155TIP3    H1 3471   0.382   3.167   3.448
 1155TIP3    H2 3472   0.337   3.293   3.519
 1156TIP3   OH2 3473   1.367   0.451   0.240
 1156TIP3    H1 3474   1.322   0.367   0.239
 1156TIP3    H2 3475   1.337   0.493   0.321
 1157TIP3   OH2 3476   6.104   3.276   4.282
 1157TIP3    H1 3477   6.130   3.224   4.207
 1157TIP3    H2 3478   6.097   3.365   4.249
 1158TIP3   OH2 3479   3.951   4.549   0.870
 1158TIP3    H1 3480   3.907   4.622   0.912
 1158TIP3    H2 3481   4.042   4.555   0.900
 1159TIP3   OH2 3482   5.709   1.263   0.030
 1159TIP3    H1 3483   5.704   1.264   0.125
 1159TIP3    H2 3484   5.633   1.314   0.001
 1160TIP3   OH2 3485   5.343   0.127   0.799
 1160TIP3    H1 3486   5.309   0.126   0.888
 1160TIP3    H2 3487   5.436   0.149   0.810
 1161TIP3   OH2 3488   1.665   0.879   3.542
 1161TIP3    H1 3489   1.601   0.811   3.522
 1161TIP3    H2 3490   1.656   0.893   3.636
 1162TIP3   OH2 3491   1.620   3.647   2.145
 1162TIP3    H1 3492   1.698   3.681   2.102
 1162TIP3    H2 3493   1.584   3.583   2.083
 1163TIP3   OH2 3494   3.353   0.440   2.927
 1163TIP3    H1 3495   3.367   0.360   2.876
 1163TIP3    H2 3496   3.428   0.496   2.907
 1164TIP3   OH2 3497   0.997   2.132   2.921
 1164TIP3    H1 3498   1.009   2.170   3.008
 1164TIP3    H2 3499   0.906   2.103   2.920
 1165TIP3   OH2 3500   0.369   3.287   1.118
 1165TIP3    H1 3501   0.440   3.350   1.106
 1165TIP3    H2 3502   0.414   3.205   1.138
 1166TIP3   OH2 3503   1.286   2.621   2.163
 1166TIP3    H1 3504   1.295   2.717   2.169
 1166TIP3    H2 3505   1.376   2.589   2.159
 1167TIP3   OH2 3506   1.984   0.384   4.212
 1167TIP3    H1 3507   1.982   0.363   4.305
 1167TIP3    H2 3508   1.926   0.319   4.171
 1168TIP3   OH2 3509   3.727   5.486   5.056
 1168TIP3    H1 3510   3.634   5.508   5.047
 1168TIP3    H2 3511   3.737   5.405   5.007
 1169TIP3   OH2 3512   4.822   4.910   0.121
 1169TIP3    H1 3513   4.728   4.927   0.109
 1169TIP3    H2 3514   4.833   4.818   0.097
 1170TIP3   OH2 3515   0.262   1.661   0.706
 1170TIP3    H1 3516   0.220   1.595   0.651
 1170TIP3    H2 3517   0.198   1.680   0.774
 1171TIP3   OH2 3518   4.054   3.782   4.929
 1171TIP3    H1 3519   4.034   3.850   4.994
 1171TIP3    H2 3520   4.098   3.829   4.858
 1172TIP3   OH2 3521   5.766   3.443   3.357
 1172TIP3    H1 3522   5.714   3.504   3.409
 1172TIP3    H2 3523   5.715   3.362   3.357
 1173TIP3   OH2 3524   2.428   0.603   0.027
 1173TIP3    H1 3525   2.479   0.623   0.106
 1173TIP3    H2 3526   2.414   0.689  -0.014
 1174TIP3   OH2 3527   0.113   5.061   1.796
 1174TIP3    H1 3528   0.033   5.037   1.843
 1174TIP3    H2 3529   0.151   4.978   1.769
 1175TIP3   OH2 3530   4.380   1.633   1.564
 1175TIP3    H1 3531   4.459   1.587   1.535
 1175TIP3    H2 3532   4.414   1.710   1.612
 1176TIP3   OH2 3533   2.470   2.157   2.436
 1176TIP3    H1 3534   2.436   2.084   2.384
 1176TIP3    H2 3535   2.413   2.230   2.415
 1177TIP3   OH2 3536   3.714   3.440   3.879
 1177TIP3    H1 3537   3.681   3.420   3.967
 1177TIP3    H2 3538   3.803   3.406   3.878
 1178TIP3   OH2 3539   0.896   2.410   3.053
 1178TIP3    H1 3540   0.962   2.478   3.060
 1178TIP3    H2 3541   0.813   2.456   3.064
 1179TIP3   OH2 3542   0.842   3.716   4.505
 1179TIP3    H1 3543   0.769   3.659   4.484
 1179TIP3    H2 3544   0.803   3.787   4.556
 1180TIP3   OH2 3545   0.416   2.074   4.876
 1180TIP3    H1 3546   0.473   2.004   4.910
 1180TIP3    H2 3547   0.364   2.032   4.808
 1181TIP3   OH2 3548   3.880   5.597   4.463
 1181TIP3    H1 3549   3.799   5.602   4.414
 1181TIP3    H2 3550   3.852   5.585   4.554
 1182TIP3   OH2 3551   5.522   0.889   3.393
 1182TIP3    H1 3552   5.571   0.942   3.331
 1182TIP3    H2 3553   5.585   0.866   3.461
 1183TIP3   OH2 3554   2.871   0.431   3.249
 1183TIP3    H1 3555   2.828   0.349   3.225
 1183TIP3    H2 3556   2.907   0.465   3.167
 1184TIP3   OH2 3557   1.778   4.842  -0.009
 1184TIP3    H1 3558   1.840   4.791  -0.061
 1184TIP3    H2 3559   1.736   4.777   0.048
 1185TIP3   OH2 3560   1.593   3.449   1.970
 1185TIP3    H1 3561   1.645   3.478   1.896
 1185TIP3    H2 3562   1.552   3.368   1.941
 1186TIP3   OH2 3563   1.400   3.314   3.080
 1186TIP3    H1 3564   1.390   3.223   3.051
 1186TIP3    H2 3565   1.415   3.363   3.000
 1187TIP3   OH2 3566   6.071   1.204   2.592
 1187TIP3    H1 3567   6.057   1.258   2.670
 1187TIP3    H2 3568   6.164   1.181   2.594
 1188TIP3   OH2 3569   3.348   4.765   2.284
 1188TIP3    H1 3570   3.338   4.777   2.190
 1188TIP3    H2 3571   3.409   4.834   2.311
 1189TIP3   OH2 3572   4.143   1.995   2.144
 1189TIP3    H1 3573   4.123   2.024   2.055
 1189TIP3    H2 3574   4.238   1.999   2.149
 1190TIP3   OH2 3575   4.848   5.063   2.943
 1190TIP3    H1 3576   4.879   5.152   2.959
 1190TIP3    H2 3577   4.785   5.072   2.870
 1191TIP3   OH2 3578   4.440   2.129   1.751
 1191TIP3    H1 3579   4.345   2.140   1.743
 1191TIP3    H2 3580   4.476   2.189   1.685
 1192TIP3   OH2 3581   1.052   4.759   3.276
 1192TIP3    H1 3582   1.004   4.836   3.304
 1192TIP3    H2 3583   1.034   4.752   3.182
 1193TIP3   OH2 3584   0.582   3.716   1.254
 1193TIP3    H1 3585   0.597   3.802   1.216
 1193TIP3    H2 3586   0.557   3.733   1.345
 1194TIP3   OH2 3587   5.444   4.751   3.799
 1194TIP3    H1 3588   5.443   4.773   3.893
 1194TIP3    H2 3589   5.388   4.816   3.758
 1195TIP3   OH2 3590   5.632   3.698   3.156
 1195TIP3    H1 3591   5.597   3.661   3.237
 1195TIP3    H2 3592   5.704   3.639   3.131
 1196TIP3   OH2 3593   0.209   1.467   3.249
 1196TIP3    H1 3594   0.187   1.508   3.332
 1196TIP3    H2 3595   0.125   1.436   3.215
 1197TIP3   OH2 3596   5.185   1.964   3.402
 1197TIP3    H1 3597   5.189   2.051   3.441
 1197TIP3    H2 3598   5.169   1.905   3.476
 1198TIP3   OH2 3599   2.560   0.257   2.221
 1198TIP3    H1 3600   2.508   0.219   2.150
 1198TIP3    H2 3601   2.523   0.344   2.235
 1199TIP3   OH2 3602   5.414   5.854   3.556
 1199TIP3    H1 3603   5.393   5.766   3.588
 1199TIP3    H2 3604   5.433   5.842   3.463
 1200TIP3   OH2 3605   2.812   2.936   1.293
 1200TIP3    H1 3606   2.778   3.018   1.258
 1200TIP3    H2 3607   2.747   2.908   1.357
 1201TIP3   OH2 3608   1.411   4.782   1.381
 1201TIP3    H1 3609   1.502   4.802   1.400
 1201TIP3    H2 3610   1.365   4.795   1.464
 1202TIP3   OH2 3611   5.372   0.923   2.768
 1202TIP3    H1 3612   5.354   0.927   2.674
 1202TIP3    H2 3613   5.286   0.907   2.808
 1203TIP3   OH2 3614   6.319   2.482   3.388
 1203TIP3    H1 3615   6.246   2.535   3.356
 1203TIP3    H2 3616   6.332   2.511   3.478
 1204TIP3   OH2 3617   3.893   3.424   0.962
 1204TIP3    H1 3618   3.843   3.482   1.020
 1204TIP3    H2 3619   3.874   3.456   0.874
 1205TIP3   OH2 3620   3.846   0.779   0.100
 1205TIP3    H1 3621   3.856   0.794   0.194
 1205TIP3    H2 3622   3.834   0.684   0.092
 1206TIP3   OH2 3623   2.124   1.993   2.165
 1206TIP3    H1 3624   2.051   1.939   2.135
 1206TIP3    H2 3625   2.182   1.932   2.210
 1207TIP3   OH2 3626   5.036   2.596   3.245
 1207TIP3    H1 3627   4.990   2.551   3.316
 1207TIP3    H2 3628   5.124   2.613   3.279
 1208TIP3   OH2 3629   5.000   5.690   1.244
 1208TIP3    H1 3630   4.910   5.710   1.270
 1208TIP3    H2 3631   5.000   5.696   1.149
 1209TIP3   OH2 3632   1.817   0.405   2.804
 1209TIP3    H1 3633   1.805   0.313   2.781
 1209TIP3    H2 3634   1.817   0.406   2.899
 1210TIP3   OH2 3635   4.229   3.802   2.710
 1210TIP3    H1 3636   4.296   3.735   2.703
 1210TIP3    H2 3637   4.161   3.775   2.648
 1211TIP3   OH2 3638   6.087   0.238   2.540
 1211TIP3    H1 3639   6.158   0.272   2.486
 1211TIP3    H2 3640   6.040   0.316   2.569
 1212TIP3   OH2 3641   2.619   1.667   1.002
 1212TIP3    H1 3642   2.634   1.755   0.969
 1212TIP3    H2 3643   2.630   1.674   1.096
 1213TIP3   OH2 3644   1.643   5.041   0.135
 1213TIP3    H1 3645   1.703   5.115   0.133
 1213TIP3    H2 3646   1.679   4.979   0.071
 1214TIP3   OH2 3647   0.961   1.447   3.140
 1214TIP3    H1 3648   1.030   1.421   3.201
 1214TIP3    H2 3649   0.974   1.541   3.128
 1215TIP3   OH2 3650   3.909   2.674   0.680
 1215TIP3    H1 3651   3.975   2.735   0.714
 1215TIP3    H2 3652   3.843   2.731   0.641
 1216TIP3   OH2 3653   4.161   0.198   1.733
 1216TIP3    H1 3654   4.186   0.125   1.676
 1216TIP3    H2 3655   4.235   0.259   1.728
 1217TIP3   OH2 3656   0.508   3.599   3.486
 1217TIP3    H1 3657   0.538   3.685   3.455
 1217TIP3    H2 3658   0.424   3.586   3.441
 1218TIP3   OH2 3659   5.653   1.679   4.162
 1218TIP3    H1 3660   5.699   1.675   4.246
 1218TIP3    H2 3661   5.576   1.624   4.175
 1219TIP3   OH2 3662   1.622   1.778   2.703
 1219TIP3    H1 3663   1.703   1.816   2.669
 1219TIP3    H2 3664   1.552   1.831   2.664
 1220TIP3   OH2 3665   5.634   1.075   1.637
 1220TIP3    H1 3666   5.684   1.019   1.695
 1220TIP3    H2 3667   5.571   1.120   1.694
 1221TIP3   OH2 3668   5.834   5.195   3.339
 1221TIP3    H1 3669   5.753   5.198   3.288
 1221TIP3    H2 3670   5.900   5.234   3.282
 1222TIP3   OH2 3671   1.438   4.104   3.126
 1222TIP3    H1 3672   1.357   4.105   3.177
 1222TIP3    H2 3673   1.507   4.083   3.189
 1223TIP3   OH2 3674   2.017   0.295   4.472
 1223TIP3    H1 3675   1.939   0.244   4.454
 1223TIP3    H2 3676   2.002   0.333   4.559
 1224TIP3   OH2 3677   2.960   0.940   3.909
 1224TIP3    H1 3678   3.047   0.902   3.895
 1224TIP3    H2 3679   2.932   0.970   3.823
 1225TIP3   OH2 3680   0.568   0.493   2.565
 1225TIP3    H1 3681   0.491   0.529   2.609
 1225TIP3    H2 3682   0.586   0.555   2.495
 1226TIP3   OH2 3683   5.790   4.396   3.184
 1226TIP3    H1 3684   5.790   4.473   3.127
 1226TIP3    H2 3685   5.859   4.340   3.149
 1227TIP3   OH2 3686   3.885   4.564   0.154
 1227TIP3    H1 3687   3.861   4.472   0.139
 1227TIP3    H2 3688   3.953   4.560   0.221
 1228TIP3   OH2 3689   3.985   4.310   1.333
 1228TIP3    H1 3690   4.060   4.310   1.392
 1228TIP3    H2 3691   3.928   4.379   1.367
 1229TIP3   OH2 3692   0.278   1.126   2.758
 1229TIP3    H1 3693   0.337   1.089   2.692
 1229TIP3    H2 3694   0.252   1.051   2.811
 1230TIP3   OH2 3695   0.739   2.191   4.479
 1230TIP3    H1 3696   0.662   2.135   4.493
 1230TIP3    H2 3697   0.703   2.273   4.445
 1231TIP3   OH2 3698   0.130   2.394   4.520
 1231TIP3    H1 3699   0.041   2.402   4.487
 1231TIP3    H2 3700   0.153   2.302   4.507
 1232TIP3   OH2 3701   3.494   5.053   1.341
 1232TIP3    H1 3702   3.498   5.123   1.406
 1232TIP3    H2 3703   3.536   4.978   1.384
 1233TIP3   OH2 3704   0.871   3.718   4.963
 1233TIP3    H1 3705   0.843   3.629   4.987
 1233TIP3    H2 3706   0.818   3.740   4.887
 1234TIP3   OH2 3707   5.895   0.109   4.712
 1234TIP3    H1 3708   5.837   0.177   4.744
 1234TIP3    H2 3709   5.980   0.152   4.703
 1235TIP3   OH2 3710   0.150   3.266   0.949
 1235TIP3    H1 3711   0.237   3.271   0.987
 1235TIP3    H2 3712   0.119   3.178   0.970
 1236TIP3   OH2 3713   4.583   4.157   0.239
 1236TIP3    H1 3714   4.555   4.124   0.325
 1236TIP3    H2 3715   4.515   4.219   0.214
 1237TIP3   OH2 3716   2.706   4.341   2.784
 1237TIP3    H1 3717   2.708   4.400   2.708
 1237TIP3    H2 3718   2.614   4.320   2.795
 1238TIP3   OH2 3719   3.420   4.793   2.971
 1238TIP3    H1 3720   3.331   4.785   3.005
 1238TIP3    H2 3721   3.410   4.794   2.876
 1239TIP3   OH2 3722   2.328   1.730   4.098
 1239TIP3    H1 3723   2.378   1.656   4.064
 1239TIP3    H2 3724   2.250   1.734   4.043
 1240TIP3   OH2 3725   1.916   0.451   3.094
 1240TIP3    H1 3726   2.001   0.447   3.050
 1240TIP3    H2 3727   1.892   0.544   3.092
 1241TIP3   OH2 3728   1.587   1.647   2.414
 1241TIP3    H1 3729   1.589   1.693   2.498
 1241TIP3    H2 3730   1.643   1.570   2.428
 1242TIP3   OH2 3731   3.495   0.457   1.380
 1242TIP3    H1 3732   3.440   0.485   1.307
 1242TIP3    H2 3733   3.455   0.497   1.457
 1243TIP3   OH2 3734   5.402   3.543   0.146
 1243TIP3    H1 3735   5.443   3.624   0.177
 1243TIP3    H2 3736   5.458   3.474   0.181
 1244TIP3   OH2 3737   1.773   3.553   3.206
 1244TIP3    H1 3738   1.818   3.489   3.151
 1244TIP3    H2 3739   1.811   3.541   3.293
 1245TIP3   OH2 3740   3.660   5.422   0.127
 1245TIP3    H1 3741   3.573   5.391   0.102
 1245TIP3    H2 3742   3.644   5.492   0.190
 1246TIP3   OH2 3743   5.409   1.851   3.583
 1246TIP3    H1 3744   5.390   1.775   3.528
 1246TIP3    H2 3745   5.375   1.828   3.669
 1247TIP3   OH2 3746   2.259   1.643   2.916
 1247TIP3    H1 3747   2.205   1.604   2.848
 1247TIP3    H2 3748   2.206   1.717   2.948
 1248TIP3   OH2 3749   3.092   2.758   3.699
 1248TIP3    H1 3750   3.037   2.680   3.703
 1248TIP3    H2 3751   3.036   2.828   3.732
 1249TIP3   OH2 3752   4.713   0.884   3.796
 1249TIP3    H1 3753   4.666   0.966   3.808
 1249TIP3    H2 3754   4.649   0.824   3.758
 1250TIP3   OH2 3755   3.913  -0.006   3.826
 1250TIP3    H1 3756   3.968   0.071   3.837
 1250TIP3    H2 3757   3.894  -0.034   3.916
 1251TIP3   OH2 3758   5.974   0.474   1.864
 1251TIP3    H1 3759   6.048   0.532   1.845
 1251TIP3    H2 3760   5.897   0.526   1.842
 1252TIP3   OH2 3761   4.513   2.107   2.748
 1252TIP3    H1 3762   4.449   2.043   2.718
 1252TIP3    H2 3763   4.571   2.120   2.674
 1253TIP3   OH2 3764   0.523   5.710   1.949
 1253TIP3    H1 3765   0.446   5.664   1.913
 1253TIP3    H2 3766   0.593   5.645   1.945
 1254TIP3   OH2 3767   0.380   1.446   0.965
 1254TIP3    H1 3768   0.298   1.403   0.941
 1254TIP3    H2 3769   0.386   1.435   1.060
 1255TIP3   OH2 3770   2.177   5.609   0.526
 1255TIP3    H1 3771   2.217   5.690   0.556
 1255TIP3    H2 3772   2.218   5.541   0.580
 1256TIP3   OH2 3773   5.843   5.856   1.434
 1256TIP3    H1 3774   5.799   5.935   1.463
 1256TIP3    H2 3775   5.924   5.887   1.393
 1257TIP3   OH2 3776   0.610   0.945   2.738
 1257TIP3    H1 3777   0.664   1.022   2.754
 1257TIP3    H2 3778   0.668   0.871   2.757
 1258TIP3   OH2 3779   2.478   3.508   4.529
 1258TIP3    H1 3780   2.509   3.482   4.443
 1258TIP3    H2 3781   2.400   3.455   4.544
 1259TIP3   OH2 3782   4.054   1.770   4.194
 1259TIP3    H1 3783   4.128   1.730   4.241
 1259TIP3    H2 3784   4.017   1.698   4.143
 1260TIP3   OH2 3785   0.766   2.125   0.583
 1260TIP3    H1 3786   0.771   2.151   0.675
 1260TIP3    H2 3787   0.687   2.168   0.549
 1261TIP3   OH2 3788   6.102   4.832   0.172
 1261TIP3    H1 3789   6.016   4.864   0.143
 1261TIP3    H2 3790   6.084   4.749   0.214
 1262TIP3   OH2 3791   4.085   0.971   0.425
 1262TIP3    H1 3792   4.080   1.066   0.435
 1262TIP3    H2 3793   3.996   0.940   0.442
 1263TIP3   OH2 3794   0.034   1.153   3.968
 1263TIP3    H1 3795   0.125   1.148   3.997
 1263TIP3    H2 3796   0.012   1.246   3.974
 1264TIP3   OH2 3797   4.200   1.977   0.846
 1264TIP3    H1 3798   4.265   1.923   0.891
 1264TIP3    H2 3799   4.117   1.931   0.860
 1265TIP3   OH2 3800   2.109   2.926   2.135
 1265TIP3    H1 3801   2.105   2.864   2.063
 1265TIP3    H2 3802   2.203   2.938   2.151
 1266TIP3   OH2 3803   1.231   5.952   0.403
 1266TIP3    H1 3804   1.289   5.939   0.328
 1266TIP3    H2 3805   1.145   5.969   0.364
 1267TIP3   OH2 3806   5.872   3.217   5.038
 1267TIP3    H1 3807   5.894   3.310   5.037
 1267TIP3    H2 3808   5.859   3.197   5.131
 1268TIP3   OH2 3809   6.170   1.035   3.840
 1268TIP3    H1 3810   6.115   1.034   3.919
 1268TIP3    H2 3811   6.255   1.065   3.871
 1269TIP3   OH2 3812   4.782   2.016   0.837
 1269TIP3    H1 3813   4.840   2.077   0.790
 1269TIP3    H2 3814   4.719   1.988   0.772
 1270TIP3   OH2 3815   0.903   4.999   3.768
 1270TIP3    H1 3816   0.882   5.020   3.677
 1270TIP3    H2 3817   0.959   4.921   3.761
 1271TIP3   OH2 3818   3.338   1.700   3.377
 1271TIP3    H1 3819   3.289   1.773   3.340
 1271TIP3    H2 3820   3.369   1.733   3.461
 1272TIP3   OH2 3821   0.860   3.728   2.994
 1272TIP3    H1 3822   0.920   3.664   2.956
 1272TIP3    H2 3823   0.874   3.808   2.944
 1273TIP3   OH2 3824   6.063   5.138   1.413
 1273TIP3    H1 3825   6.143   5.097   1.446
 1273TIP3    H2 3826   6.054   5.102   1.324
 1274TIP3   OH2 3827  -0.016   0.611   3.921
 1274TIP3    H1 3828   0.066   0.606   3.971
 1274TIP3    H2 3829   0.012   0.631   3.831
 1275TIP3   OH2 3830   2.620   0.947   0.159
 1275TIP3    H1 3831   2.714   0.944   0.180
 1275TIP3    H2 3832   2.600   1.040   0.151
 1276TIP3   OH2 3833   6.308   5.244   4.982
 1276TIP3    H1 3834   6.228   5.250   4.930
 1276TIP3    H2 3835   6.287   5.290   5.064
 1277TIP3   OH2 3836   0.307   3.714   1.731
 1277TIP3    H1 3837   0.311   3.637   1.788
 1277TIP3    H2 3838   0.251   3.688   1.658
 1278TIP3   OH2 3839   4.309   1.271   0.362
 1278TIP3    H1 3840   4.379   1.246   0.302
 1278TIP3    H2 3841   4.351   1.272   0.448
 1279TIP3   OH2 3842   0.880   5.733   3.419
 1279TIP3    H1 3843   0.847   5.714   3.332
 1279TIP3    H2 3844   0.968   5.695   3.421
 1280TIP3   OH2 3845   1.529   1.665   1.261
 1280TIP3    H1 3846   1.449   1.685   1.213
 1280TIP3    H2 3847   1.498   1.638   1.348
 1281TIP3   OH2 3848   4.757   0.216   4.327
 1281TIP3    H1 3849   4.716   0.300   4.350
 1281TIP3    H2 3850   4.771   0.222   4.233
 1282TIP3   OH2 3851   4.708   3.696   0.971
 1282TIP3    H1 3852   4.642   3.711   0.904
 1282TIP3    H2 3853   4.754   3.780   0.978
 1283TIP3   OH2 3854   5.248   1.429   2.511
 1283TIP3    H1 3855   5.244   1.437   2.416
 1283TIP3    H2 3856   5.158   1.447   2.540
 1284TIP3   OH2 3857   1.845   2.308   0.907
 1284TIP3    H1 3858   1.884   2.379   0.856
 1284TIP3    H2 3859   1.902   2.232   0.891
 1285TIP3   OH2 3860   3.450   1.200   1.751
 1285TIP3    H1 3861   3.533   1.241   1.731
 1285TIP3    H2 3862   3.397   1.212   1.671
 1286TIP3   OH2 3863   6.050   2.133   3.863
 1286TIP3    H1 3864   6.053   2.226   3.843
 1286TIP3    H2 3865   6.003   2.128   3.947
 1287TIP3   OH2 3866   3.654   1.130   4.597
 1287TIP3    H1 3867   3.707   1.075   4.655
 1287TIP3    H2 3868   3.713   1.153   4.526
 1288TIP3   OH2 3869   6.292   1.979   3.904
 1288TIP3    H1 3870   6.258   2.054   3.952
 1288TIP3    H2 3871   6.230   1.966   3.832
 1289TIP3   OH2 3872   5.499   0.333   1.250
 1289TIP3    H1 3873   5.567   0.303   1.311
 1289TIP3    H2 3874   5.518   0.286   1.168
 1290TIP3   OH2 3875   2.138   2.287   0.473
 1290TIP3    H1 3876   2.163   2.214   0.530
 1290TIP3    H2 3877   2.107   2.355   0.533
 1291TIP3   OH2 3878   1.883   0.253   2.053
 1291TIP3    H1 3879   1.934   0.334   2.056
 1291TIP3    H2 3880   1.814   0.270   1.990
 1292TIP3   OH2 3881   0.523   3.492   2.703
 1292TIP3    H1 3882   0.552   3.521   2.789
 1292TIP3    H2 3883   0.570   3.548   2.641
 1293TIP3   OH2 3884   5.038   2.577   2.967
 1293TIP3    H1 3885   5.081   2.661   2.956
 1293TIP3    H2 3886   5.039   2.561   3.062
 1294TIP3   OH2 3887   4.623   0.538   2.587
 1294TIP3    H1 3888   4.568   0.518   2.511
 1294TIP3    H2 3889   4.683   0.464   2.593
 1295TIP3   OH2 3890   4.327   0.370   3.941
 1295TIP3    H1 3891   4.322   0.384   4.035
 1295TIP3    H2 3892   4.332   0.458   3.903
 1296TIP3   OH2 3893   0.347   2.378   3.290
 1296TIP3    H1 3894   0.442   2.386   3.279
 1296TIP3    H2 3895   0.335   2.299   3.341
 1297TIP3   OH2 3896   6.169   1.895   2.322
 1297TIP3    H1 3897   6.093   1.947   2.346
 1297TIP3    H2 3898   6.175   1.905   2.227
 1298TIP3   OH2 3899   4.619   1.283   1.423
 1298TIP3    H1 3900   4.683   1.321   1.484
 1298TIP3    H2 3901   4.616   1.344   1.350
 1299TIP3   OH2 3902   1.515   5.959   4.941
 1299TIP3    H1 3903   1.602   5.992   4.960
 1299TIP3    H2 3904   1.480   5.932   5.026
 1300TIP3   OH2 3905   1.402   0.317   1.379
 1300TIP3    H1 3906   1.464   0.351   1.444
 1300TIP3    H2 3907   1.450   0.248   1.334
 1301TIP3   OH2 3908   0.453   3.032   1.062
 1301TIP3    H1 3909   0.537   3.059   1.099
 1301TIP3    H2 3910   0.463   3.046   0.968
 1302TIP3   OH2 3911   4.218   2.329   0.666
 1302TIP3    H1 3912   4.223   2.411   0.715
 1302TIP3    H2 3913   4.268   2.266   0.718
 1303TIP3   OH2 3914   3.871   5.787   0.623
 1303TIP3    H1 3915   3.948   5.843   0.627
 1303TIP3    H2 3916   3.798   5.848   0.608
 1304TIP3   OH2 3917   4.319   0.027   2.619
 1304TIP3    H1 3918   4.335   0.089   2.547
 1304TIP3    H2 3919   4.239   0.059   2.661
 1305TIP3   OH2 3920   0.782   1.106   1.019
 1305TIP3    H1 3921   0.835   1.062   1.086
 1305TIP3    H2 3922   0.844   1.124   0.948
 1306TIP3   OH2 3923   5.686   0.659   1.873
 1306TIP3    H1 3924   5.671   0.621   1.786
 1306TIP3    H2 3925   5.600   0.654   1.916
 1307TIP3   OH2 3926   0.237   4.061   3.002
 1307TIP3    H1 3927   0.181   4.035   2.929
 1307TIP3    H2 3928   0.277   3.979   3.032
 1308TIP3   OH2 3929   3.007   3.391   4.975
 1308TIP3    H1 3930   2.950   3.405   4.899
 1308TIP3    H2 3931   3.072   3.461   4.969
 1309TIP3   OH2 3932   2.316   2.588   4.763
 1309TIP3    H1 3933   2.235   2.537   4.765
 1309TIP3    H2 3934   2.291   2.673   4.800
 1310TIP3   OH2 3935   4.754   0.815   0.673
 1310TIP3    H1 3936   4.697   0.836   0.747
 1310TIP3    H2 3937   4.695   0.782   0.606
 1311TIP3   OH2 3938   2.403   5.073   0.985
 1311TIP3    H1 3939   2.415   5.001   1.047
 1311TIP3    H2 3940   2.477   5.067   0.926
 1312TIP3   OH2 3941   3.791   2.032   3.904
 1312TIP3    H1 3942   3.775   2.122   3.932
 1312TIP3    H2 3943   3.875   2.009   3.944
 1313TIP3   OH2 3944   4.365   0.384   0.648
 1313TIP3    H1 3945   4.303   0.444   0.606
 1313TIP3    H2 3946   4.435   0.441   0.680
 1314TIP3   OH2 3947   5.107   1.765   2.490
 1314TIP3    H1 3948   5.058   1.711   2.428
 1314TIP3    H2 3949   5.199   1.747   2.471
 1315TIP3   OH2 3950   6.168   3.244   3.007
 1315TIP3    H1 3951   6.074   3.225   3.008
 1315TIP3    H2 3952   6.204   3.190   3.078
 1316TIP3   OH2 3953   1.378   3.072   1.105
 1316TIP3    H1 3954   1.433   2.993   1.113
 1316TIP3    H2 3955   1.304   3.055   1.163
 1317TIP3   OH2 3956   0.296   2.998   1.421
 1317TIP3    H1 3957   0.328   2.947   1.495
 1317TIP3    H2 3958   0.281   2.933   1.352
 1318TIP3   OH2 3959   0.296   1.434   2.591
 1318TIP3    H1 3960   0.265   1.399   2.675
 1318TIP3    H2 3961   0.247   1.383   2.526
 1319TIP3   OH2 3962   0.170   4.124   2.629
 1319TIP3    H1 3963   0.192   4.065   2.702
 1319TIP3    H2 3964   0.204   4.079   2.552
 1320TIP3   OH2 3965   0.650   0.026   4.493
 1320TIP3    H1 3966   0.600   0.000   4.571
 1320TIP3    H2 3967   0.609   0.108   4.466
 1321TIP3   OH2 3968   0.394   2.251   1.293
 1321TIP3    H1 3969   0.477   2.223   1.332
 1321TIP3    H2 3970   0.350   2.299   1.363
 1322TIP3   OH2 3971   6.008   4.192   3.196
 1322TIP3    H1 3972   5.966   4.171   3.113
 1322TIP3    H2 3973   6.098   4.159   3.186
 1323TIP3   OH2 3974   4.974   1.904   1.341
 1323TIP3    H1 3975   5.043   1.910   1.406
 1323TIP3    H2 3976   5.012   1.940   1.261
 1324TIP3   OH2 3977   1.369   5.791   3.914
 1324TIP3    H1 3978   1.275   5.798   3.893
 1324TIP3    H2 3979   1.401   5.880   3.907
 1325TIP3   OH2 3980   0.836   2.746   4.655
 1325TIP3    H1 3981   0.817   2.821   4.598
 1325TIP3    H2 3982   0.790   2.765   4.737
 1326TIP3   OH2 3983   0.217   5.868   3.056
 1326TIP3    H1 3984   0.244   5.778   3.039
 1326TIP3    H2 3985   0.241   5.884   3.147
 1327TIP3   OH2 3986   6.110   2.627   4.439
 1327TIP3    H1 3987   6.017   2.633   4.462
 1327TIP3    H2 3988   6.114   2.561   4.370
 1328TIP3   OH2 3989   3.980   0.858   3.759
 1328TIP3    H1 3990   3.889   0.838   3.737
 1328TIP3    H2 3991   3.975   0.914   3.836
 1329TIP3   OH2 3992   4.548   5.544   3.523
 1329TIP3    H1 3993   4.467   5.501   3.497
 1329TIP3    H2 3994   4.545   5.545   3.619
 1330TIP3   OH2 3995   3.107   4.069   4.531
 1330TIP3    H1 3996   3.082   4.162   4.530
 1330TIP3    H2 3997   3.073   4.036   4.614
 1331TIP3   OH2 3998   1.196   4.583   0.960
 1331TIP3    H1 3999   1.228   4.667   0.927
 1331TIP3    H2 4000   1.233   4.518   0.902
 1332TIP3   OH2 4001   1.167  -0.003   2.792
 1332TIP3    H1 4002   1.168   0.075   2.849
 1332TIP3    H2 4003   1.231  -0.062   2.831
 1333TIP3   OH2 4004   5.074   0.632   3.223
 1333TIP3    H1 4005   5.133   0.564   3.255
 1333TIP3    H2 4006   5.115   0.714   3.250
 1334TIP3   OH2 4007   5.683   4.813   3.084
 1334TIP3    H1 4008   5.681   4.836   3.177
 1334TIP3    H2 4009   5.634   4.731   3.078
 1335TIP3   OH2 4010   0.254   3.929   1.202
 1335TIP3    H1 4011   0.250   3.958   1.293
 1335TIP3    H2 4012   0.334   3.969   1.167
 1336TIP3   OH2 4013   1.492   5.234   0.259
 1336TIP3    H1 4014   1.541   5.313   0.281
 1336TIP3    H2 4015   1.552   5.181   0.207
 1337TIP3   OH2 4016   0.530   5.759   1.226
 1337TIP3    H1 4017   0.580   5.837   1.203
 1337TIP3    H2 4018   0.527   5.759   1.322
 1338TIP3   OH2 4019   5.760   1.394   1.557
 1338TIP3    H1 4020   5.669   1.404   1.530
 1338TIP3    H2 4021   5.810   1.446   1.493
 1339TIP3   OH2 4022   0.985   0.653   4.986
 1339TIP3    H1 4023   0.997   0.711   4.910
 1339TIP3    H2 4024   0.919   0.590   4.958
 1340TIP3   OH2 4025   4.442   1.755   3.628
 1340TIP3    H1 4026   4.509   1.760   3.696
 1340TIP3    H2 4027   4.480   1.698   3.561
 1341TIP3   OH2 4028   3.354   1.918   1.314
 1341TIP3    H1 4029   3.438   1.960   1.297
 1341TIP3    H2 4030   3.374   1.824   1.314
 1342TIP3   OH2 4031   1.333   2.913   2.434
 1342TIP3    H1 4032   1.407   2.931   2.491
 1342TIP3    H2 4033   1.370   2.918   2.345
 1343TIP3   OH2 4034   1.285   0.629   3.256
 1343TIP3    H1 4035   1.215   0.689   3.231
 1343TIP3    H2 4036   1.314   0.591   3.173
 1344TIP3   OH2 4037   5.551   1.370   0.573
 1344TIP3    H1 4038   5.512   1.410   0.651
 1344TIP3    H2 4039   5.610   1.303   0.608
 1345TIP3   OH2 4040   0.383   0.215   0.702
 1345TIP3    H1 4041   0.313   0.186   0.643
 1345TIP3    H2 4042   0.442   0.267   0.646
 1346TIP3   OH2 4043   1.696   1.172   2.337
 1346TIP3    H1 4044   1.668   1.095   2.387
 1346TIP3    H2 4045   1.621   1.194   2.282
 1347TIP3   OH2 4046   0.568   4.599   1.276
 1347TIP3    H1 4047   0.612   4.556   1.203
 1347TIP3    H2 4048   0.476   4.601   1.251
 1348TIP3   OH2 4049   0.574   3.569   0.292
 1348TIP3    H1 4050   0.641   3.501   0.283
 1348TIP3    H2 4051   0.616   3.636   0.345
 1349TIP3   OH2 4052   4.975   0.818   4.376
 1349TIP3    H1 4053   4.986   0.762   4.452
 1349TIP3    H2 4054   4.901   0.874   4.398
 1350TIP3   OH2 4055   4.989   3.633   4.006
 1350TIP3    H1 4056   5.079   3.614   4.031
 1350TIP3    H2 4057   4.995   3.665   3.916
 1351TIP3   OH2 4058   0.578   0.689   2.339
 1351TIP3    H1 4059   0.630   0.756   2.383
 1351TIP3    H2 4060   0.627   0.668   2.260
 1352TIP3   OH2 4061   1.766   1.157   1.633
 1352TIP3    H1 4062   1.687   1.115   1.600
 1352TIP3    H2 4063   1.804   1.201   1.556
 1353TIP3   OH2 4064   5.390   1.460   5.234
 1353TIP3    H1 4065   5.298   1.471   5.257
 1353TIP3    H2 4066   5.391   1.462   5.138
 1354TIP3   OH2 4067   4.059   3.524   0.187
 1354TIP3    H1 4068   3.986   3.586   0.180
 1354TIP3    H2 4069   4.113   3.544   0.111
 1355TIP3   OH2 4070   6.351   5.914   2.681
 1355TIP3    H1 4071   6.313   6.001   2.667
 1355TIP3    H2 4072   6.342   5.899   2.775
 1356TIP3   OH2 4073   0.970   4.130   3.946
 1356TIP3    H1 4074   1.035   4.061   3.935
 1356TIP3    H2 4075   0.992   4.170   4.030
 1357TIP3   OH2 4076   5.198   1.667   2.833
 1357TIP3    H1 4077   5.263   1.738   2.839
 1357TIP3    H2 4078   5.127   1.696   2.890
 1358TIP3   OH2 4079   0.785   0.169   0.468
 1358TIP3    H1 4080   0.821   0.086   0.499
 1358TIP3    H2 4081   0.691   0.163   0.488
 1359TIP3   OH2 4082   4.726   0.258   4.762
 1359TIP3    H1 4083   4.661   0.293   4.823
 1359TIP3    H2 4084   4.807   0.255   4.813
 1360TIP3   OH2 4085   5.206   0.229   3.224
 1360TIP3    H1 4086   5.166   0.144   3.246
 1360TIP3    H2 4087   5.135   0.279   3.183
 1361TIP3   OH2 4088   1.875   5.742   2.048
 1361TIP3    H1 4089   1.870   5.756   2.142
 1361TIP3    H2 4090   1.798   5.689   2.027
 1362TIP3   OH2 4091   5.025   2.284   0.248
 1362TIP3    H1 4092   5.083   2.269   0.322
 1362TIP3    H2 4093   4.949   2.329   0.285
 1363TIP3   OH2 4094   2.616   1.249   0.124
 1363TIP3    H1 4095   2.630   1.260   0.218
 1363TIP3    H2 4096   2.687   1.299   0.084
 1364TIP3   OH2 4097   4.013   2.448   1.011
 1364TIP3    H1 4098   4.088   2.487   1.056
 1364TIP3    H2 4099   3.946   2.516   1.012
 1365TIP3   OH2 4100   4.492   2.703   4.701
 1365TIP3    H1 4101   4.428   2.636   4.723
 1365TIP3    H2 4102   4.446   2.759   4.638
 1366TIP3   OH2 4103   1.675   0.197   2.429
 1366TIP3    H1 4104   1.642   0.152   2.352
 1366TIP3    H2 4105   1.771   0.193   2.420
 1367TIP3   OH2 4106   4.446   3.623   2.648
 1367TIP3    H1 4107   4.516   3.660   2.595
 1367TIP3    H2 4108   4.479   3.628   2.738
 1368TIP3   OH2 4109   3.941   3.390   1.640
 1368TIP3    H1 4110   3.915   3.429   1.556
 1368TIP3    H2 4111   3.981   3.462   1.688
 1369TIP3   OH2 4112   6.047   4.784   3.519
 1369TIP3    H1 4113   5.984   4.790   3.448
 1369TIP3    H2 4114   6.127   4.752   3.477
 1370TIP3   OH2 4115   4.720   3.194   0.408
 1370TIP3    H1 4116   4.706   3.111   0.362
 1370TIP3    H2 4117   4.700   3.173   0.500
 1371TIP3   OH2 4118   1.297   4.023   4.912
 1371TIP3    H1 4119   1.236   4.095   4.900
 1371TIP3    H2 4120   1.246   3.945   4.890
 1372TIP3   OH2 4121   5.047   1.251   3.459
 1372TIP3    H1 4122   5.040   1.282   3.369
 1372TIP3    H2 4123   5.058   1.156   3.452
 1373TIP3   OH2 4124   4.420   5.721   0.646
 1373TIP3    H1 4125   4.423   5.656   0.575
 1373TIP3    H2 4126   4.327   5.742   0.654
 1374TIP3   OH2 4127   2.311   1.710   0.689
 1374TIP3    H1 4128   2.369   1.748   0.755
 1374TIP3    H2 4129   2.244   1.777   0.674
 1375TIP3   OH2 4130   1.467   3.746   4.211
 1375TIP3    H1 4131   1.418   3.769   4.290
 1375TIP3    H2 4132   1.403   3.752   4.140
 1376TIP3   OH2 4133   5.769   4.454   3.478
 1376TIP3    H1 4134   5.800   4.464   3.388
 1376TIP3    H2 4135   5.691   4.400   3.470
 1377TIP3   OH2 4136   4.665   1.040   0.300
 1377TIP3    H1 4137   4.643   0.958   0.345
 1377TIP3    H2 4138   4.739   1.017   0.244
 1378TIP3   OH2 4139   2.180   0.889   0.090
 1378TIP3    H1 4140   2.138   0.803   0.086
 1378TIP3    H2 4141   2.268   0.874   0.056
 1379TIP3   OH2 4142   5.820   4.438   4.698
 1379TIP3    H1 4143   5.889   4.379   4.728
 1379TIP3    H2 4144   5.865   4.522   4.682
 1380TIP3   OH2 4145   0.837   4.761   2.478
 1380TIP3    H1 4146   0.764   4.772   2.539
 1380TIP3    H2 4147   0.877   4.678   2.503
 1381TIP3   OH2 4148   4.911   2.247   4.946
 1381TIP3    H1 4149   4.869   2.179   4.894
 1381TIP3    H2 4150   4.981   2.281   4.889
 1382TIP3   OH2 4151   3.100   2.639   2.706
 1382TIP3    H1 4152   3.025   2.623   2.764
 1382TIP3    H2 4153   3.147   2.556   2.704
 1383TIP3   OH2 4154   5.448   2.379   4.917
 1383TIP3    H1 4155   5.478   2.456   4.869
 1383TIP3    H2 4156   5.396   2.414   4.989
 1384TIP3   OH2 4157   4.699   1.454   2.615
 1384TIP3    H1 4158   4.711   1.365   2.581
 1384TIP3    H2 4159   4.608   1.456   2.646
 1385TIP3   OH2 4160   0.954   5.928   2.275
 1385TIP3    H1 4161   0.940   6.008   2.224
 1385TIP3    H2 4162   0.887   5.868   2.244
 1386TIP3   OH2 4163   5.369   4.084   2.971
 1386TIP3    H1 4164   5.406   4.056   2.888
 1386TIP3    H2 4165   5.341   4.175   2.955
 1387TIP3   OH2 4166   1.125   3.097   2.440
 1387TIP3    H1 4167   1.202   3.041   2.434
 1387TIP3    H2 4168   1.160   3.185   2.457
 1388TIP3   OH2 4169   5.720   5.555   3.594
 1388TIP3    H1 4170   5.704   5.528   3.685
 1388TIP3    H2 4171   5.647   5.518   3.545
 1389TIP3   OH2 4172   2.578   5.441   1.948
 1389TIP3    H1 4173   2.654   5.412   1.897
 1389TIP3    H2 4174   2.561   5.530   1.917
 1390TIP3   OH2 4175   5.097   0.130   0.010
 1390TIP3    H1 4176   5.098   0.108   0.103
 1390TIP3    H2 4177   5.093   0.046  -0.035
 1391TIP3   OH2 4178   0.331   2.619   1.515
 1391TIP3    H1 4179   0.278   2.544   1.486
 1391TIP3    H2 4180   0.393   2.633   1.443
 1392TIP3   OH2 4181   5.207   4.157   4.708
 1392TIP3    H1 4182   5.220   4.221   4.638
 1392TIP3    H2 4183   5.173   4.080   4.663
 1393TIP3   OH2 4184   4.358   0.344   4.234
 1393TIP3    H1 4185   4.382   0.321   4.324
 1393TIP3    H2 4186   4.432   0.315   4.181
 1394TIP3   OH2 4187   2.702   4.675   3.648
 1394TIP3    H1 4188   2.736   4.603   3.594
 1394TIP3    H2 4189   2.766   4.745   3.637
 1395TIP3   OH2 4190   3.502   2.569   4.478
 1395TIP3    H1 4191   3.428   2.521   4.440
 1395TIP3    H2 4192   3.547   2.606   4.402
 1396TIP3   OH2 4193   1.452   4.859   2.809
 1396TIP3    H1 4194   1.435   4.800   2.881
 1396TIP3    H2 4195   1.454   4.946   2.848
 1397TIP3   OH2 4196   4.800   1.548   0.251
 1397TIP3    H1 4197   4.871   1.564   0.314
 1397TIP3    H2 4198   4.783   1.454   0.257
 1398TIP3   OH2 4199   5.189   3.899   3.586
 1398TIP3    H1 4200   5.148   3.885   3.501
 1398TIP3    H2 4201   5.150   3.832   3.643
 1399TIP3   OH2 4202   5.025   3.699   2.534
 1399TIP3    H1 4203   4.989   3.611   2.547
 1399TIP3    H2 4204   5.012   3.743   2.619
 1400TIP3   OH2 4205   5.165   2.035   4.498
 1400TIP3    H1 4206   5.185   2.062   4.408
 1400TIP3    H2 4207   5.245   2.055   4.546
 1401TIP3   OH2 4208   4.817   2.677   1.149
 1401TIP3    H1 4209   4.727   2.658   1.121
 1401TIP3    H2 4210   4.837   2.608   1.212
 1402TIP3   OH2 4211   4.398   2.432   0.999
 1402TIP3    H1 4212   4.365   2.481   0.923
 1402TIP3    H2 4213   4.488   2.464   1.010
 1403TIP3   OH2 4214   2.143   5.947   2.154
 1403TIP3    H1 4215   2.166   5.985   2.070
 1403TIP3    H2 4216   2.080   6.008   2.192
 1404TIP3   OH2 4217   0.019   3.391   4.083
 1404TIP3    H1 4218   0.102   3.345   4.068
 1404TIP3    H2 4219   0.011   3.452   4.010
 1405TIP3   OH2 4220   0.299   0.992   4.965
 1405TIP3    H1 4221   0.240   1.065   4.951
 1405TIP3    H2 4222   0.260   0.943   5.038
 1406TIP3   OH2 4223   5.043   5.621   0.404
 1406TIP3    H1 4224   5.057   5.641   0.311
 1406TIP3    H2 4225   5.003   5.534   0.403
 1407TIP3   OH2 4226   2.600   0.033   4.665
 1407TIP3    H1 4227   2.636   0.017   4.752
 1407TIP3    H2 4228   2.599   0.129   4.657
 1408TIP3   OH2 4229   3.353   0.900   1.512
 1408TIP3    H1 4230   3.403   0.888   1.431
 1408TIP3    H2 4231   3.420   0.923   1.577
 1409TIP3   OH2 4232   2.020   5.830   1.127
 1409TIP3    H1 4233   1.978   5.778   1.058
 1409TIP3    H2 4234   2.090   5.774   1.159
 1410TIP3   OH2 4235   5.135   1.744   3.565
 1410TIP3    H1 4236   5.180   1.678   3.512
 1410TIP3    H2 4237   5.125   1.703   3.651
 1411TIP3   OH2 4238   1.955   0.207   1.496
 1411TIP3    H1 4239   1.921   0.269   1.432
 1411TIP3    H2 4240   2.037   0.176   1.459
 1412TIP3   OH2 4241   0.622   0.705   3.874
 1412TIP3    H1 4242   0.638   0.643   3.803
 1412TIP3    H2 4243   0.554   0.763   3.840
 1413TIP3   OH2 4244   0.704   1.032   3.773
 1413TIP3    H1 4245   0.618   0.990   3.770
 1413TIP3    H2 4246   0.758   0.982   3.712
 1414TIP3   OH2 4247   0.538  -0.009   3.195
 1414TIP3    H1 4248   0.494   0.030   3.119
 1414TIP3    H2 4249   0.468  -0.022   3.259
 1415TIP3   OH2 4250   1.987   4.111   1.518
 1415TIP3    H1 4251   1.950   4.195   1.543
 1415TIP3    H2 4252   2.076   4.112   1.552
 1416TIP3   OH2 4253   6.294   1.865   4.515
 1416TIP3    H1 4254   6.244   1.784   4.523
 1416TIP3    H2 4255   6.238   1.924   4.465
 1417TIP3   OH2 4256   0.729   0.178   2.520
 1417TIP3    H1 4257   0.809   0.128   2.536
 1417TIP3    H2 4258   0.758   0.255   2.472
 1418TIP3   OH2 4259   5.472   3.980   5.147
 1418TIP3    H1 4260   5.550   3.926   5.155
 1418TIP3    H2 4261   5.483   4.026   5.064
 1419TIP3   OH2 4262   2.887   5.905   1.099
 1419TIP3    H1 4263   2.854   5.823   1.137
 1419TIP3    H2 4264   2.811   5.963   1.097
 1420TIP3   OH2 4265   3.195   3.994   3.898
 1420TIP3    H1 4266   3.190   3.900   3.883
 1420TIP3    H2 4267   3.216   4.030   3.811
 1421TIP3   OH2 4268   1.930   3.196   1.947
 1421TIP3    H1 4269   1.880   3.242   2.015
 1421TIP3    H2 4270   2.018   3.190   1.983
 1422TIP3   OH2 4271   1.454   2.294   2.672
 1422TIP3    H1 4272   1.491   2.250   2.748
 1422TIP3    H2 4273   1.524   2.354   2.643
 1423TIP3   OH2 4274   1.892   5.920   4.455
 1423TIP3    H1 4275   1.891   5.878   4.368
 1423TIP3    H2 4276   1.843   5.861   4.511
 1424TIP3   OH2 4277   5.984   1.841   3.961
 1424TIP3    H1 4278   6.057   1.903   3.955
 1424TIP3    H2 4279   5.909   1.890   3.927
 1425TIP3   OH2 4280   3.990   0.254   1.970
 1425TIP3    H1 4281   3.954   0.182   2.020
 1425TIP3    H2 4282   4.017   0.215   1.886
 1426TIP3   OH2 4283   3.938   2.553   1.742
 1426TIP3    H1 4284   3.924   2.460   1.724
 1426TIP3    H2 4285   4.017   2.575   1.694
 1427TIP3   OH2 4286   4.349   2.265   2.045
 1427TIP3    H1 4287   4.352   2.353   2.085
 1427TIP3    H2 4288   4.266   2.262   1.999
 1428TIP3   OH2 4289   0.758   0.431   3.145
 1428TIP3    H1 4290   0.702   0.492   3.194
 1428TIP3    H2 4291   0.847   0.466   3.157
 1429TIP3   OH2 4292   2.675   0.531   4.358
 1429TIP3    H1 4293   2.684   0.492   4.271
 1429TIP3    H2 4294   2.634   0.462   4.411
 1430TIP3   OH2 4295   4.868   1.598   3.384
 1430TIP3    H1 4296   4.858   1.554   3.469
 1430TIP3    H2 4297   4.812   1.548   3.325
 1431TIP3   OH2 4298   0.251   0.159   4.197
 1431TIP3    H1 4299   0.309   0.084   4.189
 1431TIP3    H2 4300   0.195   0.155   4.120
 1432TIP3   OH2 4301   0.792   0.323   4.563
 1432TIP3    H1 4302   0.721   0.364   4.614
 1432TIP3    H2 4303   0.809   0.241   4.609
 1433TIP3   OH2 4304   5.046   4.246   1.842
 1433TIP3    H1 4305   5.095   4.323   1.815
 1433TIP3    H2 4306   5.110   4.192   1.889
 1434TIP3   OH2 4307   4.584   4.506   2.019
 1434TIP3    H1 4308   4.625   4.586   2.052
 1434TIP3    H2 4309   4.610   4.438   2.080
 1435TIP3   OH2 4310   1.657   4.950   2.037
 1435TIP3    H1 4311   1.562   4.956   2.030
 1435TIP3    H2 4312   1.691   4.999   1.962
 1436TIP3   OH2 4313   5.201   1.595   0.593
 1436TIP3    H1 4314   5.296   1.596   0.578
 1436TIP3    H2 4315   5.186   1.514   0.641
 1437TIP3   OH2 4316   2.260   0.811   0.629
 1437TIP3    H1 4317   2.214   0.827   0.547
 1437TIP3    H2 4318   2.300   0.725   0.618
 1438TIP3   OH2 4319   5.618   4.918   1.793
 1438TIP3    H1 4320   5.526   4.895   1.794
 1438TIP3    H2 4321   5.623   4.997   1.738
 1439TIP3   OH2 4322   4.266   4.265   3.440
 1439TIP3    H1 4323   4.219   4.200   3.493
 1439TIP3    H2 4324   4.217   4.268   3.358
 1440TIP3   OH2 4325   0.485   0.230   3.036
 1440TIP3    H1 4326   0.567   0.269   3.005
 1440TIP3    H2 4327   0.425   0.238   2.961
 1441TIP3   OH2 4328   1.531   1.351   0.198
 1441TIP3    H1 4329   1.471   1.314   0.133
 1441TIP3    H2 4330   1.617   1.349   0.156
 1442TIP3   OH2 4331   2.390   4.400   4.297
 1442TIP3    H1 4332   2.479   4.400   4.332
 1442TIP3    H2 4333   2.395   4.448   4.215
 1443TIP3   OH2 4334   1.614   0.159   2.715
 1443TIP3    H1 4335   1.582   0.072   2.689
 1443TIP3    H2 4336   1.651   0.195   2.634
 1444TIP3   OH2 4337   2.682   3.817   4.103
 1444TIP3    H1 4338   2.689   3.724   4.084
 1444TIP3    H2 4339   2.758   3.856   4.061
 1445TIP3   OH2 4340   4.827   4.744   0.738
 1445TIP3    H1 4341   4.732   4.738   0.735
 1445TIP3    H2 4342   4.853   4.679   0.804
 1446TIP3   OH2 4343   3.197   4.854   2.477
 1446TIP3    H1 4344   3.255   4.826   2.407
 1446TIP3    H2 4345   3.209   4.949   2.483
 1447TIP3   OH2 4346   6.312   4.873   1.058
 1447TIP3    H1 4347   6.248   4.933   1.095
 1447TIP3    H2 4348   6.287   4.787   1.092
 1448TIP3   OH2 4349   5.452   5.870   3.940
 1448TIP3    H1 4350   5.425   5.801   4.000
 1448TIP3    H2 4351   5.382   5.935   3.945
 1449TIP3   OH2 4352   3.492   0.333   2.518
 1449TIP3    H1 4353   3.425   0.388   2.477
 1449TIP3    H2 4354   3.560   0.395   2.544
 1450TIP3   OH2 4355   2.952   3.887   3.525
 1450TIP3    H1 4356   3.015   3.815   3.523
 1450TIP3    H2 4357   2.867   3.846   3.536
 1451TIP3   OH2 4358   0.321   2.383   2.548
 1451TIP3    H1 4359   0.365   2.411   2.628
 1451TIP3    H2 4360   0.393   2.362   2.487
 1452TIP3   OH2 4361   2.789   1.171   4.866
 1452TIP3    H1 4362   2.873   1.130   4.888
 1452TIP3    H2 4363   2.775   1.148   4.774
 1453TIP3   OH2 4364   3.954   2.321   3.222
 1453TIP3    H1 4365   3.943   2.297   3.130
 1453TIP3    H2 4366   4.019   2.259   3.255
 1454TIP3   OH2 4367   0.665   2.027   2.191
 1454TIP3    H1 4368   0.596   1.964   2.215
 1454TIP3    H2 4369   0.622   2.112   2.195
 1455TIP3   OH2 4370   0.973   2.499   3.869
 1455TIP3    H1 4371   1.027   2.423   3.891
 1455TIP3    H2 4372   0.914   2.468   3.801
 1456TIP3   OH2 4373   5.936   5.510   2.172
 1456TIP3    H1 4374   5.889   5.426   2.174
 1456TIP3    H2 4375   5.892   5.560   2.103
 1457TIP3   OH2 4376   5.458   5.098   3.764
 1457TIP3    H1 4377   5.428   5.031   3.704
 1457TIP3    H2 4378   5.431   5.067   3.851
 1458TIP3   OH2 4379   4.926   4.163   0.133
 1458TIP3    H1 4380   5.011   4.193   0.100
 1458TIP3    H2 4381   4.881   4.129   0.055
 1459TIP3   OH2 4382   0.082   4.704   4.496
 1459TIP3    H1 4383   0.156   4.762   4.519
 1459TIP3    H2 4384   0.007   4.763   4.492
 1460TIP3   OH2 4385   5.851   5.632   3.313
 1460TIP3    H1 4386   5.802   5.601   3.389
 1460TIP3    H2 4387   5.831   5.726   3.308
 1461TIP3   OH2 4388   5.246   3.026   4.805
 1461TIP3    H1 4389   5.221   3.068   4.888
 1461TIP3    H2 4390   5.256   2.933   4.828
 1462TIP3   OH2 4391   3.234   3.537   2.287
 1462TIP3    H1 4392   3.249   3.577   2.201
 1462TIP3    H2 4393   3.168   3.592   2.328
 1463TIP3   OH2 4394   0.090   3.829   2.376
 1463TIP3    H1 4395   0.162   3.803   2.433
 1463TIP3    H2 4396   0.014   3.779   2.407
 1464TIP3   OH2 4397   3.392   4.596   3.966
 1464TIP3    H1 4398   3.487   4.584   3.962
 1464TIP3    H2 4399   3.371   4.645   3.886
 1465TIP3   OH2 4400   0.125   0.300   1.514
 1465TIP3    H1 4401   0.106   0.207   1.522
 1465TIP3    H2 4402   0.175   0.307   1.433
 1466TIP3   OH2 4403   4.746   3.506   3.592
 1466TIP3    H1 4404   4.691   3.525   3.668
 1466TIP3    H2 4405   4.694   3.447   3.539
 1467TIP3   OH2 4406   3.977   3.321   3.004
 1467TIP3    H1 4407   4.055   3.344   3.055
 1467TIP3    H2 4408   3.974   3.225   3.007
 1468TIP3   OH2 4409   0.869   4.543   4.097
 1468TIP3    H1 4410   0.839   4.529   4.187
 1468TIP3    H2 4411   0.941   4.606   4.105
 1469TIP3   OH2 4412   0.549   4.505   2.308
 1469TIP3    H1 4413   0.574   4.454   2.385
 1469TIP3    H2 4414   0.628   4.508   2.255
 1470TIP3   OH2 4415   2.198   3.791   4.780
 1470TIP3    H1 4416   2.134   3.858   4.754
 1470TIP3    H2 4417   2.264   3.793   4.711
 1471TIP3   OH2 4418   2.475   5.539   1.221
 1471TIP3    H1 4419   2.407   5.482   1.257
 1471TIP3    H2 4420   2.491   5.505   1.133
 1472TIP3   OH2 4421   1.954   1.973   4.098
 1472TIP3    H1 4422   2.044   1.958   4.070
 1472TIP3    H2 4423   1.962   2.004   4.188
 1473TIP3   OH2 4424   4.043   0.292   1.470
 1473TIP3    H1 4425   4.007   0.207   1.444
 1473TIP3    H2 4426   3.983   0.356   1.434
 1474TIP3   OH2 4427   0.605   1.600   2.381
 1474TIP3    H1 4428   0.608   1.615   2.287
 1474TIP3    H2 4429   0.693   1.624   2.411
 1475TIP3   OH2 4430   3.258   0.163   3.270
 1475TIP3    H1 4431   3.265   0.086   3.326
 1475TIP3    H2 4432   3.197   0.221   3.316
 1476TIP3   OH2 4433   3.445   5.639   5.066
 1476TIP3    H1 4434   3.427   5.732   5.059
 1476TIP3    H2 4435   3.362   5.596   5.048
 1477TIP3   OH2 4436   2.359   1.349   1.809
 1477TIP3    H1 4437   2.296   1.407   1.852
 1477TIP3    H2 4438   2.385   1.396   1.730
 1478TIP3   OH2 4439   3.652   2.484   3.886
 1478TIP3    H1 4440   3.673   2.449   3.799
 1478TIP3    H2 4441   3.689   2.573   3.885
 1479TIP3   OH2 4442   0.225   1.183   3.413
 1479TIP3    H1 4443   0.244   1.131   3.334
 1479TIP3    H2 4444   0.247   1.273   3.388
 1480TIP3   OH2 4445   2.426   2.039   3.980
 1480TIP3    H1 4446   2.459   2.129   3.978
 1480TIP3    H2 4447   2.504   1.985   3.995
 1481TIP3   OH2 4448   1.459   5.501   2.725
 1481TIP3    H1 4449   1.382   5.459   2.764
 1481TIP3    H2 4450   1.516   5.521   2.799
 1482TIP3   OH2 4451   0.668   1.292   4.878
 1482TIP3    H1 4452   0.713   1.375   4.861
 1482TIP3    H2 4453   0.734   1.225   4.859
 1483TIP3   OH2 4454   4.306   2.210   5.152
 1483TIP3    H1 4455   4.366   2.243   5.219
 1483TIP3    H2 4456   4.336   2.251   5.071
 1484TIP3   OH2 4457   3.507   4.359   3.281
 1484TIP3    H1 4458   3.504   4.444   3.237
 1484TIP3    H2 4459   3.417   4.343   3.308
 1485TIP3   OH2 4460   0.382   0.614   0.275
 1485TIP3    H1 4461   0.352   0.659   0.354
 1485TIP3    H2 4462   0.306   0.616   0.217
 1486TIP3   OH2 4463   3.981   2.847   4.617
 1486TIP3    H1 4464   3.964   2.756   4.638
 1486TIP3    H2 4465   3.994   2.848   4.523
 1487TIP3   OH2 4466   5.703   3.707   1.038
 1487TIP3    H1 4467   5.787   3.729   0.998
 1487TIP3    H2 4468   5.676   3.787   1.084
 1488TIP3   OH2 4469   2.898   4.243   3.157
 1488TIP3    H1 4470   2.914   4.293   3.077
 1488TIP3    H2 4471   2.986   4.222   3.189
 1489TIP3   OH2 4472   1.188   1.164   0.883
 1489TIP3    H1 4473   1.183   1.151   0.978
 1489TIP3    H2 4474   1.280   1.146   0.861
 1490TIP3   OH2 4475   6.064   5.231   4.844
 1490TIP3    H1 4476   5.987   5.183   4.812
 1490TIP3    H2 4477   6.067   5.310   4.791
 1491TIP3   OH2 4478   3.779   4.800   3.441
 1491TIP3    H1 4479   3.835   4.877   3.429
 1491TIP3    H2 4480   3.839   4.729   3.461
 1492TIP3   OH2 4481   2.233   1.153   0.427
 1492TIP3    H1 4482   2.226   1.063   0.458
 1492TIP3    H2 4483   2.186   1.154   0.344
 1493TIP3   OH2 4484   1.185   3.490   3.899
 1493TIP3    H1 4485   1.181   3.585   3.906
 1493TIP3    H2 4486   1.100   3.459   3.931
 1494TIP3   OH2 4487   1.035   1.839   4.211
 1494TIP3    H1 4488   0.992   1.892   4.278
 1494TIP3    H2 4489   1.106   1.794   4.258
 1495TIP3   OH2 4490   1.757  -0.027   0.309
 1495TIP3    H1 4491   1.730   0.028   0.235
 1495TIP3    H2 4492   1.693  -0.008   0.378
 1496TIP3   OH2 4493   0.744   0.722   4.779
 1496TIP3    H1 4494   0.776   0.809   4.804
 1496TIP3    H2 4495   0.789   0.702   4.697
 1497TIP3   OH2 4496   3.604   0.939   0.206
 1497TIP3    H1 4497   3.602   0.863   0.148
 1497TIP3    H2 4498   3.688   0.932   0.252
 1498TIP3   OH2 4499   0.107   0.990   2.446
 1498TIP3    H1 4500   0.154   0.928   2.502
 1498TIP3    H2 4501   0.046   0.936   2.397
 1499TIP3   OH2 4502   4.595   3.314   3.382
 1499TIP3    H1 4503   4.528   3.246   3.392
 1499TIP3    H2 4504   4.566   3.364   3.306
 1500TIP3   OH2 4505   1.446   1.391   4.915
 1500TIP3    H1 4506   1.435   1.300   4.942
 1500TIP3    H2 4507   1.374   1.407   4.854
 1501TIP3   OH2 4508   6.200   0.543   1.445
 1501TIP3    H1 4509   6.182   0.632   1.414
 1501TIP3    H2 4510   6.267   0.554   1.512
 1502TIP3   OH2 4511   4.372   4.906   2.713
 1502TIP3    H1 4512   4.391   4.968   2.783
 1502TIP3    H2 4513   4.351   4.824   2.757
 1503TIP3   OH2 4514   3.680   3.613   3.243
 1503TIP3    H1 4515   3.589   3.604   3.217
 1503TIP3    H2 4516   3.719   3.670   3.177
 1504TIP3   OH2 4517   1.931   1.744   3.493
 1504TIP3    H1 4518   1.878   1.808   3.541
 1504TIP3    H2 4519   2.021   1.764   3.517
 1505TIP3   OH2 4520   0.053   1.092   3.624
 1505TIP3    H1 4521   0.002   1.171   3.645
 1505TIP3    H2 4522   0.124   1.124   3.568
 1506TIP3   OH2 4523   5.583   2.417   3.280
 1506TIP3    H1 4524   5.625   2.449   3.360
 1506TIP3    H2 4525   5.654   2.376   3.231
 1507TIP3   OH2 4526   5.135   0.606   3.854
 1507TIP3    H1 4527   5.142   0.585   3.761
 1507TIP3    H2 4528   5.065   0.550   3.886
 1508TIP3   OH2 4529   3.810   2.278   4.015
 1508TIP3    H1 4530   3.745   2.332   3.971
 1508TIP3    H2 4531   3.863   2.341   4.065
 1509TIP3   OH2 4532   5.087   4.734   3.024
 1509TIP3    H1 4533   5.164   4.726   2.968
 1509TIP3    H2 4534   5.021   4.775   2.968
 1510TIP3   OH2 4535   5.894   2.523   0.614
 1510TIP3    H1 4536   5.960   2.456   0.635
 1510TIP3    H2 4537   5.892   2.526   0.518
 1511TIP3   OH2 4538   5.451   3.963   3.197
 1511TIP3    H1 4539   5.407   4.018   3.131
 1511TIP3    H2 4540   5.476   3.884   3.150
 1512TIP3   OH2 4541   0.940   4.963   0.220
 1512TIP3    H1 4542   0.868   4.918   0.175
 1512TIP3    H2 4543   0.925   4.947   0.313
 1513TIP3   OH2 4544   1.272   4.460   2.764
 1513TIP3    H1 4545   1.240   4.424   2.681
 1513TIP3    H2 4546   1.198   4.510   2.799
 1514TIP3   OH2 4547   0.395   4.872   4.317
 1514TIP3    H1 4548   0.421   4.791   4.272
 1514TIP3    H2 4549   0.299   4.870   4.316
 1515TIP3   OH2 4550   6.012   3.614   3.839
 1515TIP3    H1 4551   6.062   3.650   3.766
 1515TIP3    H2 4552   5.956   3.687   3.867
 1516TIP3   OH2 4553   5.071   5.291   3.775
 1516TIP3    H1 4554   5.105   5.243   3.700
 1516TIP3    H2 4555   5.098   5.382   3.760
 1517TIP3   OH2 4556   1.132   4.367   4.020
 1517TIP3    H1 4557   1.142   4.332   3.931
 1517TIP3    H2 4558   1.203   4.431   4.028
 1518TIP3   OH2 4559   3.430   5.619   1.827
 1518TIP3    H1 4560   3.468   5.693   1.873
 1518TIP3    H2 4561   3.388   5.567   1.895
 1519TIP3   OH2 4562   2.089   4.781   3.218
 1519TIP3    H1 4563   2.170   4.737   3.245
 1519TIP3    H2 4564   2.058   4.730   3.142
 1520TIP3   OH2 4565   3.103   4.750   5.127
 1520TIP3    H1 4566   3.047   4.792   5.192
 1520TIP3    H2 4567   3.129   4.667   5.168
 1521TIP3   OH2 4568   3.474   3.157   0.111
 1521TIP3    H1 4569   3.404   3.195   0.164
 1521TIP3    H2 4570   3.441   3.160   0.022
 1522TIP3   OH2 4571   6.285   5.635   1.017
 1522TIP3    H1 4572   6.241   5.665   1.097
 1522TIP3    H2 4573   6.357   5.697   1.004
 1523TIP3   OH2 4574   0.260   1.899   4.740
 1523TIP3    H1 4575   0.345   1.858   4.725
 1523TIP3    H2 4576   0.219   1.843   4.807
 1524TIP3   OH2 4577   4.600   2.207   2.258
 1524TIP3    H1 4578   4.576   2.286   2.209
 1524TIP3    H2 4579   4.594   2.136   2.194
 1525TIP3   OH2 4580   1.335   5.500   1.171
 1525TIP3    H1 4581   1.375   5.444   1.104
 1525TIP3    H2 4582   1.246   5.466   1.180
 1526TIP3   OH2 4583   5.812   1.756   1.725
 1526TIP3    H1 4584   5.844   1.843   1.702
 1526TIP3    H2 4585   5.867   1.696   1.675
 1527TIP3   OH2 4586   2.941   0.389   1.503
 1527TIP3    H1 4587   2.879   0.462   1.495
 1527TIP3    H2 4588   2.891   0.312   1.474
 1528TIP3   OH2 4589   6.028   0.610   0.578
 1528TIP3    H1 4590   5.954   0.663   0.550
 1528TIP3    H2 4591   6.024   0.613   0.674
 1529TIP3   OH2 4592   0.179   3.735   4.958
 1529TIP3    H1 4593   0.213   3.805   5.014
 1529TIP3    H2 4594   0.084   3.742   4.966
 1530TIP3   OH2 4595   3.603   4.342   2.913
 1530TIP3    H1 4596   3.522   4.392   2.912
 1530TIP3    H2 4597   3.666   4.396   2.866
 1531TIP3   OH2 4598   0.022   1.990   4.215
 1531TIP3    H1 4599   0.109   1.949   4.207
 1531TIP3    H2 4600   0.040   2.083   4.224
 1532TIP3   OH2 4601   1.627   3.602   1.140
 1532TIP3    H1 4602   1.617   3.533   1.075
 1532TIP3    H2 4603   1.614   3.684   1.091
 1533TIP3   OH2 4604   3.407   5.389   1.045
 1533TIP3    H1 4605   3.332   5.448   1.056
 1533TIP3    H2 4606   3.385   5.336   0.968
 1534TIP3   OH2 4607   6.055   5.820   3.019
 1534TIP3    H1 4608   5.968   5.841   2.984
 1534TIP3    H2 4609   6.038   5.788   3.108
 1535TIP3   OH2 4610   2.015   3.975   4.678
 1535TIP3    H1 4611   1.952   3.969   4.750
 1535TIP3    H2 4612   1.969   4.024   4.611
 1536TIP3   OH2 4613   2.053   0.060   3.728
 1536TIP3    H1 4614   2.124   0.116   3.761
 1536TIP3    H2 4615   2.059   0.068   3.633
 1537TIP3   OH2 4616   1.186   4.260   3.769
 1537TIP3    H1 4617   1.280   4.246   3.766
 1537TIP3    H2 4618   1.150   4.178   3.802
 1538TIP3   OH2 4619   4.198   5.689   5.136
 1538TIP3    H1 4620   4.175   5.763   5.080
 1538TIP3    H2 4621   4.137   5.619   5.111
 1539TIP3   OH2 4622   3.975   0.735   4.100
 1539TIP3    H1 4623   3.915   0.668   4.066
 1539TIP3    H2 4624   3.928   0.818   4.086
 1540TIP3   OH2 4625   0.467   5.710   3.526
 1540TIP3    H1 4626   0.473   5.728   3.619
 1540TIP3    H2 4627   0.545   5.659   3.506
 1541TIP3   OH2 4628   1.887   4.778   0.860
 1541TIP3    H1 4629   1.980   4.758   0.866
 1541TIP3    H2 4630   1.848   4.698   0.824
 1542TIP3   OH2 4631   0.691   5.531   1.233
 1542TIP3    H1 4632   0.679   5.498   1.322
 1542TIP3    H2 4633   0.643   5.614   1.232
 1543TIP3   OH2 4634   5.799   5.847   0.793
 1543TIP3    H1 4635   5.767   5.853   0.883
 1543TIP3    H2 4636   5.774   5.930   0.753
 1544TIP3   OH2 4637   0.195   2.856   0.823
 1544TIP3    H1 4638   0.282   2.872   0.786
 1544TIP3    H2 4639   0.197   2.764   0.851
 1545TIP3   OH2 4640   1.670   0.806   0.018
 1545TIP3    H1 4641   1.607   0.737  -0.004
 1545TIP3    H2 4642   1.751   0.779  -0.024
 1546TIP3   OH2 4643   3.988   1.684   4.597
 1546TIP3    H1 4644   3.966   1.739   4.522
 1546TIP3    H2 4645   3.916   1.697   4.659
 1547TIP3   OH2 4646   5.990   2.847   1.338
 1547TIP3    H1 4647   6.009   2.774   1.397
 1547TIP3    H2 4648   5.985   2.923   1.396
 1548TIP3   OH2 4649   1.873   2.496   3.089
 1548TIP3    H1 4650   1.874   2.414   3.140
 1548TIP3    H2 4651   1.787   2.496   3.047
 1549TIP3   OH2 4652   4.792   2.204   2.703
 1549TIP3    H1 4653   4.767   2.147   2.631
 1549TIP3    H2 4654   4.832   2.280   2.661
 1550TIP3   OH2 4655   4.429   1.003   3.725
 1550TIP3    H1 4656   4.392   1.043   3.804
 1550TIP3    H2 4657   4.370   0.931   3.704
 1551TIP3   OH2 4658   1.961   4.661   1.547
 1551TIP3    H1 4659   1.947   4.718   1.623
 1551TIP3    H2 4660   1.964   4.721   1.473
 1552TIP3   OH2 4661   2.873   3.233   3.326
 1552TIP3    H1 4662   2.869   3.302   3.259
 1552TIP3    H2 4663   2.797   3.250   3.382
 1553TIP3   OH2 4664   1.692   5.549   3.848
 1553TIP3    H1 4665   1.713   5.512   3.762
 1553TIP3    H2 4666   1.596   5.549   3.850
 1554TIP3   OH2 4667   3.751   0.321   2.098
 1554TIP3    H1 4668   3.671   0.328   2.048
 1554TIP3    H2 4669   3.819   0.300   2.034
 1555TIP3   OH2 4670   3.518   2.799   2.606
 1555TIP3    H1 4671   3.481   2.784   2.693
 1555TIP3    H2 4672   3.482   2.730   2.552
 1556TIP3   OH2 4673   4.069   5.166   3.468
 1556TIP3    H1 4674   4.034   5.196   3.552
 1556TIP3    H2 4675   4.138   5.228   3.448
 1557TIP3   OH2 4676   1.475   4.209   3.447
 1557TIP3    H1 4677   1.469   4.190   3.353
 1557TIP3    H2 4678   1.452   4.126   3.489
 1558TIP3   OH2 4679   2.113   0.454   3.971
 1558TIP3    H1 4680   2.048   0.441   3.903
 1558TIP3    H2 4681   2.063   0.451   4.053
 1559TIP3   OH2 4682   2.416   0.013   2.659
 1559TIP3    H1 4683   2.336  -0.039   2.661
 1559TIP3    H2 4684   2.445   0.009   2.568
 1560TIP3   OH2 4685   4.454   0.128   3.916
 1560TIP3    H1 4686   4.391   0.198   3.935
 1560TIP3    H2 4687   4.528   0.172   3.875
 1561TIP3   OH2 4688   1.373   2.646   1.389
 1561TIP3    H1 4689   1.410   2.624   1.304
 1561TIP3    H2 4690   1.362   2.561   1.433
 1562TIP3   OH2 4691   5.009   2.287   2.934
 1562TIP3    H1 4692   4.914   2.279   2.934
 1562TIP3    H2 4693   5.026   2.381   2.929
 1563TIP3   OH2 4694   0.590   2.951   3.126
 1563TIP3    H1 4695   0.578   3.034   3.079
 1563TIP3    H2 4696   0.657   2.905   3.075
 1564TIP3   OH2 4697   4.404   4.347   2.773
 1564TIP3    H1 4698   4.342   4.309   2.835
 1564TIP3    H2 4699   4.352   4.407   2.720
 1565TIP3   OH2 4700   0.514   1.720   1.538
 1565TIP3    H1 4701   0.560   1.638   1.522
 1565TIP3    H2 4702   0.428   1.707   1.498
 1566TIP3   OH2 4703   5.229   1.309   3.684
 1566TIP3    H1 4704   5.164   1.299   3.615
 1566TIP3    H2 4705   5.213   1.235   3.742
 1567TIP3   OH2 4706   1.015   3.525   0.156
 1567TIP3    H1 4707   0.935   3.526   0.104
 1567TIP3    H2 4708   1.021   3.614   0.193
 1568TIP3   OH2 4709   0.440   0.223   4.420
 1568TIP3    H1 4710   0.387   0.238   4.498
 1568TIP3    H2 4711   0.379   0.232   4.347
 1569TIP3   OH2 4712   1.653   3.800   1.679
 1569TIP3    H1 4713   1.701   3.719   1.696
 1569TIP3    H2 4714   1.684   3.830   1.594
 1570TIP3   OH2 4715   5.152   3.635   0.223
 1570TIP3    H1 4716   5.241   3.635   0.187
 1570TIP3    H2 4717   5.110   3.558   0.184
 1571TIP3   OH2 4718   0.139   0.513   3.134
 1571TIP3    H1 4719   0.212   0.485   3.189
 1571TIP3    H2 4720   0.061   0.496   3.188
 1572TIP3   OH2 4721   3.155   4.074   3.635
 1572TIP3    H1 4722   3.198   4.115   3.560
 1572TIP3    H2 4723   3.088   4.018   3.597
 1573TIP3   OH2 4724   5.313   0.156   5.047
 1573TIP3    H1 4725   5.342   0.243   5.075
 1573TIP3    H2 4726   5.388   0.118   5.002
 1574TIP3   OH2 4727   1.023   2.549   4.695
 1574TIP3    H1 4728   1.014   2.530   4.789
 1574TIP3    H2 4729   0.955   2.614   4.678
 1575TIP3   OH2 4730   1.748   1.921   0.059
 1575TIP3    H1 4731   1.789   2.001   0.026
 1575TIP3    H2 4732   1.655   1.933   0.042
 1576TIP3   OH2 4733   2.793   5.898   1.762
 1576TIP3    H1 4734   2.763   5.808   1.747
 1576TIP3    H2 4735   2.834   5.896   1.848
 1577TIP3   OH2 4736   1.691   4.657   2.020
 1577TIP3    H1 4737   1.786   4.664   2.029
 1577TIP3    H2 4738   1.658   4.741   2.053
 1578TIP3   OH2 4739   2.883   2.429   2.650
 1578TIP3    H1 4740   2.899   2.360   2.585
 1578TIP3    H2 4741   2.821   2.488   2.607
 1579TIP3   OH2 4742   2.290   0.313   2.563
 1579TIP3    H1 4743   2.329   0.227   2.578
 1579TIP3    H2 4744   2.214   0.296   2.506
 1580TIP3   OH2 4745   0.559   5.788   0.097
 1580TIP3    H1 4746   0.464   5.793   0.094
 1580TIP3    H2 4747   0.581   5.712   0.044
 1581TIP3   OH2 4748   0.356   0.393   3.247
 1581TIP3    H1 4749   0.380   0.332   3.178
 1581TIP3    H2 4750   0.407   0.364   3.323
 1582TIP3   OH2 4751   1.381   1.643   5.064
 1582TIP3    H1 4752   1.420   1.567   5.020
 1582TIP3    H2 4753   1.299   1.658   5.017
 1583TIP3   OH2 4754   1.766   2.650   0.607
 1583TIP3    H1 4755   1.740   2.594   0.534
 1583TIP3    H2 4756   1.741   2.738   0.580
 1584TIP3   OH2 4757   1.281   4.502   2.405
 1584TIP3    H1 4758   1.293   4.418   2.450
 1584TIP3    H2 4759   1.195   4.495   2.363
 1585TIP3   OH2 4760   5.138   1.267   1.759
 1585TIP3    H1 4761   5.136   1.213   1.680
 1585TIP3    H2 4762   5.051   1.254   1.798
 1586TIP3   OH2 4763   5.149   3.561   2.087
 1586TIP3    H1 4764   5.212   3.618   2.042
 1586TIP3    H2 4765   5.069   3.567   2.034
 1587TIP3   OH2 4766   3.992   2.199   2.610
 1587TIP3    H1 4767   4.037   2.160   2.535
 1587TIP3    H2 4768   4.004   2.135   2.680
 1588TIP3   OH2 4769   1.264   2.072   1.264
 1588TIP3    H1 4770   1.285   1.979   1.253
 1588TIP3    H2 4771   1.310   2.098   1.343
 1589TIP3   OH2 4772   5.902   2.753   4.993
 1589TIP3    H1 4773   5.993   2.740   4.967
 1589TIP3    H2 4774   5.872   2.827   4.940
 1590TIP3   OH2 4775   5.904   2.310   3.312
 1590TIP3    H1 4776   5.850   2.231   3.304
 1590TIP3    H2 4777   5.984   2.289   3.265
 1591TIP3   OH2 4778   2.390   3.741   2.870
 1591TIP3    H1 4779   2.352   3.657   2.897
 1591TIP3    H2 4780   2.321   3.805   2.889
 1592TIP3   OH2 4781   5.782   5.323   4.156
 1592TIP3    H1 4782   5.720   5.395   4.172
 1592TIP3    H2 4783   5.865   5.366   4.139
 1593TIP3   OH2 4784   2.776   1.078   3.049
 1593TIP3    H1 4785   2.844   1.132   3.090
 1593TIP3    H2 4786   2.824   1.023   2.987
 1594TIP3   OH2 4787   3.820   2.156   0.287
 1594TIP3    H1 4788   3.794   2.209   0.363
 1594TIP3    H2 4789   3.817   2.217   0.213
 1595TIP3   OH2 4790   4.381   5.936   5.079
 1595TIP3    H1 4791   4.430   5.857   5.055
 1595TIP3    H2 4792   4.291   5.919   5.049
 1596TIP3   OH2 4793   6.319   5.714   3.545
 1596TIP3    H1 4794   6.402   5.757   3.567
 1596TIP3    H2 4795   6.273   5.707   3.629
 1597TIP3   OH2 4796   3.301   5.843   1.355
 1597TIP3    H1 4797   3.283   5.756   1.391
 1597TIP3    H2 4798   3.215   5.875   1.326
 1598TIP3   OH2 4799   0.868   2.311   1.872
 1598TIP3    H1 4800   0.870   2.338   1.781
 1598TIP3    H2 4801   0.947   2.349   1.910
 1599TIP3   OH2 4802   2.899   0.390   4.879
 1599TIP3    H1 4803   2.906   0.481   4.850
 1599TIP3    H2 4804   2.965   0.382   4.948
 1600TIP3   OH2 4805   3.648   1.778   3.456
 1600TIP3    H1 4806   3.635   1.855   3.401
 1600TIP3    H2 4807   3.664   1.812   3.544
 1601TIP3   OH2 4808   4.761   0.659   1.350
 1601TIP3    H1 4809   4.729   0.670   1.440
 1601TIP3    H2 4810   4.712   0.583   1.317
 1602TIP3   OH2 4811   5.532   3.064   0.615
 1602TIP3    H1 4812   5.464   3.023   0.668
 1602TIP3    H2 4813   5.558   2.997   0.553
 1603TIP3   OH2 4814   6.142   2.332   0.899
 1603TIP3    H1 4815   6.166   2.417   0.936
 1603TIP3    H2 4816   6.127   2.349   0.806
 1604TIP3   OH2 4817   4.373   5.425   2.717
 1604TIP3    H1 4818   4.359   5.416   2.812
 1604TIP3    H2 4819   4.385   5.336   2.685
 1605TIP3   OH2 4820   2.410   1.040   2.995
 1605TIP3    H1 4821   2.336   0.982   3.014
 1605TIP3    H2 4822   2.448   1.060   3.081
 1606TIP3   OH2 4823   4.182   0.556   4.115
 1606TIP3    H1 4824   4.239   0.532   4.188
 1606TIP3    H2 4825   4.171   0.651   4.123
 1607TIP3   OH2 4826   0.047   2.425   2.076
 1607TIP3    H1 4827   0.049   2.454   2.168
 1607TIP3    H2 4828   0.119   2.473   2.034
 1608TIP3   OH2 4829   5.020   1.202   2.237
 1608TIP3    H1 4830   4.989   1.135   2.176
 1608TIP3    H2 4831   5.113   1.212   2.216
 1609TIP3   OH2 4832   1.538   0.328   2.932
 1609TIP3    H1 4833   1.533   0.259   2.998
 1609TIP3    H2 4834   1.556   0.282   2.850
 1610TIP3   OH2 4835   4.609   2.167   4.741
 1610TIP3    H1 4836   4.676   2.101   4.760
 1610TIP3    H2 4837   4.649   2.224   4.676
 1611TIP3   OH2 4838   4.103   5.730   4.378
 1611TIP3    H1 4839   4.023   5.696   4.418
 1611TIP3    H2 4840   4.072   5.792   4.312
 1612TIP3   OH2 4841   3.189   3.685   2.026
 1612TIP3    H1 4842   3.266   3.661   1.974
 1612TIP3    H2 4843   3.204   3.777   2.050
 1613TIP3   OH2 4844   0.045   0.508   1.657
 1613TIP3    H1 4845   0.122   0.536   1.606
 1613TIP3    H2 4846   0.031   0.417   1.631
 1614TIP3   OH2 4847   1.944   2.257   3.204
 1614TIP3    H1 4848   2.018   2.202   3.177
 1614TIP3    H2 4849   1.950   2.260   3.299
 1615TIP3   OH2 4850   4.343   0.898   4.102
 1615TIP3    H1 4851   4.355   0.897   4.197
 1615TIP3    H2 4852   4.407   0.835   4.069
 1616TIP3   OH2 4853   5.664   3.910   2.952
 1616TIP3    H1 4854   5.633   3.840   3.010
 1616TIP3    H2 4855   5.657   3.989   3.004
 1617TIP3   OH2 4856   3.790   2.492   4.319
 1617TIP3    H1 4857   3.853   2.499   4.247
 1617TIP3    H2 4858   3.709   2.461   4.277
 1618TIP3   OH2 4859   3.829   5.614   3.036
 1618TIP3    H1 4860   3.918   5.644   3.055
 1618TIP3    H2 4861   3.773   5.668   3.093
 1619TIP3   OH2 4862   3.753   3.177   3.198
 1619TIP3    H1 4863   3.802   3.143   3.123
 1619TIP3    H2 4864   3.751   3.272   3.184
 1620TIP3   OH2 4865   0.095   1.864   0.836
 1620TIP3    H1 4866   0.187   1.889   0.841
 1620TIP3    H2 4867   0.063   1.907   0.756
 1621TIP3   OH2 4868   2.175   4.851   0.938
 1621TIP3    H1 4869   2.220   4.880   0.859
 1621TIP3    H2 4870   2.238   4.794   0.982
 1622TIP3   OH2 4871   1.692   4.571   1.421
 1622TIP3    H1 4872   1.607   4.527   1.427
 1622TIP3    H2 4873   1.699   4.621   1.502
 1623TIP3   OH2 4874   1.657   5.410   4.726
 1623TIP3    H1 4875   1.686   5.485   4.778
 1623TIP3    H2 4876   1.707   5.418   4.644
 1624TIP3   OH2 4877   1.578   5.488   0.184
 1624TIP3    H1 4878   1.656   5.511   0.135
 1624TIP3    H2 4879   1.581   5.544   0.262
 1625TIP3   OH2 4880   0.724   5.038   1.920
 1625TIP3    H1 4881   0.763   4.952   1.936
 1625TIP3    H2 4882   0.766   5.095   1.984
 1626TIP3   OH2 4883   0.031   1.421   4.401
 1626TIP3    H1 4884   0.038   1.498   4.345
 1626TIP3    H2 4885   0.023   1.455   4.489
 1627TIP3   OH2 4886   6.051   1.255   1.005
 1627TIP3    H1 4887   6.031   1.256   0.911
 1627TIP3    H2 4888   5.985   1.197   1.043
 1628TIP3   OH2 4889   0.180   0.592   2.874
 1628TIP3    H1 4890   0.166   0.552   2.960
 1628TIP3    H2 4891   0.190   0.686   2.893
 1629TIP3   OH2 4892   3.862   5.017   4.476
 1629TIP3    H1 4893   3.790   4.973   4.430
 1629TIP3    H2 4894   3.823   5.099   4.508
 1630TIP3   OH2 4895   4.568   2.560   2.426
 1630TIP3    H1 4896   4.579   2.538   2.334
 1630TIP3    H2 4897   4.504   2.632   2.426
 1631TIP3   OH2 4898   1.303   0.717   0.922
 1631TIP3    H1 4899   1.233   0.782   0.927
 1631TIP3    H2 4900   1.382   0.765   0.944
 1632TIP3   OH2 4901   3.609   0.531   1.821
 1632TIP3    H1 4902   3.655   0.609   1.852
 1632TIP3    H2 4903   3.516   0.555   1.825
 1633TIP3   OH2 4904   2.803   4.431   3.946
 1633TIP3    H1 4905   2.729   4.374   3.928
 1633TIP3    H2 4906   2.872   4.402   3.886
 1634TIP3   OH2 4907   3.368   2.229   4.744
 1634TIP3    H1 4908   3.285   2.273   4.756
 1634TIP3    H2 4909   3.433   2.299   4.744
 1635TIP3   OH2 4910   1.600   0.467   1.551
 1635TIP3    H1 4911   1.561   0.407   1.614
 1635TIP3    H2 4912   1.612   0.549   1.599
 1636TIP3   OH2 4913   1.466   3.324   1.114
 1636TIP3    H1 4914   1.438   3.233   1.126
 1636TIP3    H2 4915   1.391   3.376   1.141
 1637TIP3   OH2 4916   4.150   4.266   2.884
 1637TIP3    H1 4917   4.099   4.329   2.832
 1637TIP3    H2 4918   4.109   4.181   2.866
 1638TIP3   OH2 4919   1.784   1.297   3.509
 1638TIP3    H1 4920   1.836   1.259   3.579
 1638TIP3    H2 4921   1.814   1.388   3.503
 1639TIP3   OH2 4922   5.346   5.996   1.944
 1639TIP3    H1 4923   5.380   5.945   2.018
 1639TIP3    H2 4924   5.307   6.074   1.983
 1640TIP3   OH2 4925   3.936   0.713   4.772
 1640TIP3    H1 4926   3.944   0.623   4.802
 1640TIP3    H2 4927   3.871   0.710   4.702
 1641TIP3   OH2 4928   5.855   1.128   2.974
 1641TIP3    H1 4929   5.774   1.085   2.946
 1641TIP3    H2 4930   5.924   1.086   2.924
 1642TIP3   OH2 4931   4.724   3.323   0.933
 1642TIP3    H1 4932   4.687   3.256   0.990
 1642TIP3    H2 4933   4.814   3.334   0.964
 1643TIP3   OH2 4934   5.758   3.904   4.254
 1643TIP3    H1 4935   5.853   3.893   4.247
 1643TIP3    H2 4936   5.747   3.992   4.291
 1644TIP3   OH2 4937   2.498   1.072   2.742
 1644TIP3    H1 4938   2.432   1.031   2.686
 1644TIP3    H2 4939   2.467   1.057   2.831
 1645TIP3   OH2 4940   6.209   5.191   2.751
 1645TIP3    H1 4941   6.259   5.196   2.833
 1645TIP3    H2 4942   6.126   5.150   2.777
 1646TIP3   OH2 4943   1.989   0.328   3.320
 1646TIP3    H1 4944   1.925   0.257   3.313
 1646TIP3    H2 4945   1.974   0.382   3.242
 1647TIP3   OH2 4946   1.124   3.156   4.385
 1647TIP3    H1 4947   1.198   3.155   4.324
 1647TIP3    H2 4948   1.132   3.074   4.434
 1648TIP3   OH2 4949   2.431   5.800   2.062
 1648TIP3    H1 4950   2.361   5.786   2.126
 1648TIP3    H2 4951   2.508   5.820   2.116
 1649TIP3   OH2 4952   6.246   4.937   1.501
 1649TIP3    H1 4953   6.200   4.957   1.582
 1649TIP3    H2 4954   6.187   4.879   1.453
 1650TIP3   OH2 4955   3.515   4.369   4.200
 1650TIP3    H1 4956   3.557   4.360   4.114
 1650TIP3    H2 4957   3.565   4.309   4.257
 1651TIP3   OH2 4958   3.822   3.121   4.310
 1651TIP3    H1 4959   3.758   3.097   4.377
 1651TIP3    H2 4960   3.885   3.176   4.356
 1652TIP3   OH2 4961   5.060   4.247   3.489
 1652TIP3    H1 4962   5.069   4.159   3.453
 1652TIP3    H2 4963   4.968   4.253   3.516
 1653TIP3   OH2 4964   4.017   4.513   2.792
 1653TIP3    H1 4965   4.030   4.577   2.863
 1653TIP3    H2 4966   3.941   4.546   2.744
 1654TIP3   OH2 4967   1.504   5.359   3.397
 1654TIP3    H1 4968   1.444   5.372   3.470
 1654TIP3    H2 4969   1.589   5.389   3.430
 1655TIP3   OH2 4970   3.971   2.745   1.958
 1655TIP3    H1 4971   4.054   2.716   1.997
 1655TIP3    H2 4972   3.958   2.687   1.883
 1656TIP3   OH2 4973   1.876   5.273   0.075
 1656TIP3    H1 4974   1.878   5.360   0.115
 1656TIP3    H2 4975   1.960   5.266   0.029
 1657TIP3   OH2 4976   1.169   1.428   4.038
 1657TIP3    H1 4977   1.195   1.414   4.130
 1657TIP3    H2 4978   1.192   1.519   4.021
 1658TIP3   OH2 4979   2.908   4.043   1.573
 1658TIP3    H1 4980   2.932   4.135   1.578
 1658TIP3    H2 4981   2.881   4.019   1.662
 1659TIP3   OH2 4982   1.844   2.254   3.949
 1659TIP3    H1 4983   1.932   2.265   3.987
 1659TIP3    H2 4984   1.853   2.182   3.887
 1660TIP3   OH2 4985   2.810   1.834   2.909
 1660TIP3    H1 4986   2.726   1.786   2.911
 1660TIP3    H2 4987   2.874   1.770   2.940
 1661TIP3   OH2 4988   2.704   0.658   3.121
 1661TIP3    H1 4989   2.722   0.608   3.041
 1661TIP3    H2 4990   2.782   0.645   3.176
 1662TIP3   OH2 4991   2.961   3.489   2.524
 1662TIP3    H1 4992   3.003   3.405   2.506
 1662TIP3    H2 4993   2.983   3.543   2.448
 1663TIP3   OH2 4994   3.986   0.106   4.712
 1663TIP3    H1 4995   3.902   0.087   4.755
 1663TIP3    H2 4996   3.977   0.065   4.626
 1664TIP3   OH2 4997   5.800   0.935   5.189
 1664TIP3    H1 4998   5.710   0.927   5.159
 1664TIP3    H2 4999   5.850   0.874   5.134
 1665TIP3   OH2 5000   0.188   4.534   0.804
 1665TIP3    H1 5001   0.129   4.606   0.828
 1665TIP3    H2 5002   0.142   4.487   0.735
 1666TIP3   OH2 5003   1.897   4.384   2.051
 1666TIP3    H1 5004   1.991   4.386   2.032
 1666TIP3    H2 5005   1.856   4.402   1.966
 1667TIP3   OH2 5006   4.687   2.910   0.821
 1667TIP3    H1 5007   4.737   2.962   0.884
 1667TIP3    H2 5008   4.602   2.897   0.862
 1668TIP3   OH2 5009   2.396   1.624   2.616
 1668TIP3    H1 5010   2.382   1.718   2.627
 1668TIP3    H2 5011   2.309   1.585   2.620
 1669TIP3   OH2 5012   1.230   1.369   3.275
 1669TIP3    H1 5013   1.325   1.372   3.286
 1669TIP3    H2 5014   1.203   1.287   3.316
 1670TIP3   OH2 5015   0.507   1.138   4.150
 1670TIP3    H1 5016   0.565   1.062   4.149
 1670TIP3    H2 5017   0.458   1.130   4.232
 1671TIP3   OH2 5018   5.874   5.505   3.079
 1671TIP3    H1 5019   5.943   5.439   3.089
 1671TIP3    H2 5020   5.843   5.522   3.168
 1672TIP3   OH2 5021   5.756   2.919   3.727
 1672TIP3    H1 5022   5.837   2.945   3.771
 1672TIP3    H2 5023   5.706   3.000   3.719
 1673TIP3   OH2 5024   3.762   2.587   1.001
 1673TIP3    H1 5025   3.749   2.544   0.917
 1673TIP3    H2 5026   3.738   2.679   0.985
 1674TIP3   OH2 5027   3.482   2.304   0.416
 1674TIP3    H1 5028   3.565   2.290   0.461
 1674TIP3    H2 5029   3.506   2.339   0.330
 1675TIP3   OH2 5030   5.534   3.281   1.087
 1675TIP3    H1 5031   5.620   3.255   1.052
 1675TIP3    H2 5032   5.477   3.206   1.069
 1676TIP3   OH2 5033   1.261   4.718   2.112
 1676TIP3    H1 5034   1.166   4.726   2.111
 1676TIP3    H2 5035   1.279   4.639   2.060
 1677TIP3   OH2 5036   1.281   3.585   1.952
 1677TIP3    H1 5037   1.225   3.550   1.883
 1677TIP3    H2 5038   1.298   3.510   2.009
 1678TIP3   OH2 5039   2.201   3.799   1.665
 1678TIP3    H1 5040   2.223   3.887   1.694
 1678TIP3    H2 5041   2.285   3.758   1.644
 1679TIP3   OH2 5042   4.531   2.030   0.724
 1679TIP3    H1 5043   4.457   1.989   0.678
 1679TIP3    H2 5044   4.501   2.117   0.746
 1680TIP3   OH2 5045   1.722   3.697   0.140
 1680TIP3    H1 5046   1.659   3.709   0.069
 1680TIP3    H2 5047   1.670   3.660   0.212
 1681TIP3   OH2 5048   1.070   3.201   0.667
 1681TIP3    H1 5049   0.983   3.161   0.668
 1681TIP3    H2 5050   1.097   3.202   0.758
 1682TIP3   OH2 5051   4.545   2.249   3.920
 1682TIP3    H1 5052   4.478   2.204   3.868
 1682TIP3    H2 5053   4.619   2.259   3.859
 1683TIP3   OH2 5054   5.577   4.021   4.563
 1683TIP3    H1 5055   5.559   4.106   4.525
 1683TIP3    H2 5056   5.573   3.960   4.490
 1684TIP3   OH2 5057   6.230   5.944   4.633
 1684TIP3    H1 5058   6.275   5.864   4.661
 1684TIP3    H2 5059   6.140   5.916   4.619
 1685TIP3   OH2 5060   1.493   2.652   1.126
 1685TIP3    H1 5061   1.535   2.737   1.112
 1685TIP3    H2 5062   1.551   2.589   1.082
 1686TIP3   OH2 5063   3.479   4.513   2.002
 1686TIP3    H1 5064   3.533   4.586   1.972
 1686TIP3    H2 5065   3.529   4.435   1.982
 1687TIP3   OH2 5066   5.061   3.528   4.627
 1687TIP3    H1 5067   5.031   3.582   4.554
 1687TIP3    H2 5068   5.018   3.565   4.704
 1688TIP3   OH2 5069   6.229   2.164   3.508
 1688TIP3    H1 5070   6.263   2.208   3.430
 1688TIP3    H2 5071   6.149   2.212   3.530
 1689TIP3   OH2 5072   0.119   2.468   2.337
 1689TIP3    H1 5073   0.167   2.388   2.359
 1689TIP3    H2 5074   0.187   2.528   2.305
 1690TIP3   OH2 5075   3.041   4.622   4.625
 1690TIP3    H1 5076   2.953   4.659   4.634
 1690TIP3    H2 5077   3.062   4.588   4.712
 1691TIP3   OH2 5078   1.934   5.001   4.652
 1691TIP3    H1 5079   1.880   4.950   4.592
 1691TIP3    H2 5080   2.024   4.983   4.626
 1692TIP3   OH2 5081   1.799   5.733   2.711
 1692TIP3    H1 5082   1.836   5.688   2.635
 1692TIP3    H2 5083   1.706   5.742   2.691
 1693TIP3   OH2 5084   5.735   3.661   1.614
 1693TIP3    H1 5085   5.816   3.671   1.665
 1693TIP3    H2 5086   5.765   3.653   1.523
 1694TIP3   OH2 5087   5.150   3.487   4.265
 1694TIP3    H1 5088   5.138   3.521   4.354
 1694TIP3    H2 5089   5.216   3.543   4.226
 1695TIP3   OH2 5090   3.875   3.129   1.782
 1695TIP3    H1 5091   3.915   3.065   1.724
 1695TIP3    H2 5092   3.900   3.214   1.746
 1696TIP3   OH2 5093   1.323   1.580   2.263
 1696TIP3    H1 5094   1.399   1.588   2.320
 1696TIP3    H2 5095   1.268   1.655   2.285
 1697TIP3   OH2 5096   0.798   2.414   1.184
 1697TIP3    H1 5097   0.742   2.449   1.253
 1697TIP3    H2 5098   0.852   2.348   1.227
 1698TIP3   OH2 5099   0.899   5.057   1.377
 1698TIP3    H1 5100   0.932   4.970   1.397
 1698TIP3    H2 5101   0.977   5.107   1.353
 1699TIP3   OH2 5102   2.907   1.456   3.609
 1699TIP3    H1 5103   2.974   1.388   3.597
 1699TIP3    H2 5104   2.952   1.538   3.590
 1700TIP3   OH2 5105   3.826   0.879   5.119
 1700TIP3    H1 5106   3.826   0.875   5.023
 1700TIP3    H2 5107   3.763   0.812   5.146
 1701TIP3   OH2 5108   1.041   4.352   4.465
 1701TIP3    H1 5109   0.967   4.301   4.500
 1701TIP3    H2 5110   1.107   4.348   4.533
 1702TIP3   OH2 5111   1.652   1.108   4.654
 1702TIP3    H1 5112   1.655   1.203   4.666
 1702TIP3    H2 5113   1.685   1.073   4.736
 1703TIP3   OH2 5114   1.993   0.861   4.126
 1703TIP3    H1 5115   1.978   0.802   4.199
 1703TIP3    H2 5116   1.921   0.844   4.065
 1704TIP3   OH2 5117   4.979   4.099   5.061
 1704TIP3    H1 5118   5.021   4.025   5.105
 1704TIP3    H2 5119   5.050   4.162   5.047
 1705TIP3   OH2 5120   5.439   2.175   5.171
 1705TIP3    H1 5121   5.351   2.209   5.187
 1705TIP3    H2 5122   5.492   2.252   5.149
 1706TIP3   OH2 5123   2.176   4.760   0.478
 1706TIP3    H1 5124   2.168   4.809   0.397
 1706TIP3    H2 5125   2.269   4.737   0.484
 1707TIP3   OH2 5126   0.178   2.166   2.348
 1707TIP3    H1 5127   0.240   2.168   2.422
 1707TIP3    H2 5128   0.129   2.085   2.360
 1708TIP3   OH2 5129   3.092   0.778   2.566
 1708TIP3    H1 5130   3.087   0.749   2.475
 1708TIP3    H2 5131   3.068   0.870   2.564
 1709TIP3   OH2 5132   3.049   0.419   2.994
 1709TIP3    H1 5133   3.005   0.337   2.975
 1709TIP3    H2 5134   3.139   0.407   2.963
 1710TIP3   OH2 5135   3.224   3.036   5.068
 1710TIP3    H1 5136   3.202   3.092   4.993
 1710TIP3    H2 5137   3.216   3.094   5.144
 1711TIP3   OH2 5138   4.582   5.969   1.032
 1711TIP3    H1 5139   4.641   6.040   1.005
 1711TIP3    H2 5140   4.569   5.917   0.953
 1712TIP3   OH2 5141  -0.031   5.831   3.219
 1712TIP3    H1 5142  -0.046   5.836   3.125
 1712TIP3    H2 5143   0.044   5.888   3.235
 1713TIP3   OH2 5144   4.007   1.786   0.422
 1713TIP3    H1 5145   3.953   1.864   0.405
 1713TIP3    H2 5146   4.027   1.791   0.516
 1714TIP3   OH2 5147   4.362   1.323   1.714
 1714TIP3    H1 5148   4.291   1.278   1.760
 1714TIP3    H2 5149   4.366   1.409   1.754
 1715TIP3   OH2 5150   1.677   3.455   2.451
 1715TIP3    H1 5151   1.711   3.541   2.426
 1715TIP3    H2 5152   1.754   3.398   2.453
 1716TIP3   OH2 5153   5.818   0.787   0.513
 1716TIP3    H1 5154   5.734   0.747   0.491
 1716TIP3    H2 5155   5.834   0.850   0.443
 1717TIP3   OH2 5156   0.434   3.963   2.335
 1717TIP3    H1 5157   0.361   3.942   2.277
 1717TIP3    H2 5158   0.504   3.992   2.276
 1718TIP3   OH2 5159   4.314   5.343   2.985
 1718TIP3    H1 5160   4.357   5.395   3.053
 1718TIP3    H2 5161   4.247   5.293   3.031
 1719TIP3   OH2 5162   3.675   0.827   2.850
 1719TIP3    H1 5163   3.687   0.921   2.833
 1719TIP3    H2 5164   3.710   0.814   2.938
 1720TIP3   OH2 5165   5.766   4.230   2.571
 1720TIP3    H1 5166   5.855   4.263   2.584
 1720TIP3    H2 5167   5.724   4.237   2.657
 1721TIP3   OH2 5168   2.325   3.139   5.137
 1721TIP3    H1 5169   2.291   3.219   5.099
 1721TIP3    H2 5170   2.420   3.144   5.122
 1722TIP3   OH2 5171   1.704   1.894   4.228
 1722TIP3    H1 5172   1.719   1.803   4.254
 1722TIP3    H2 5173   1.787   1.922   4.187
 1723TIP3   OH2 5174   3.593   1.932   4.246
 1723TIP3    H1 5175   3.556   1.982   4.318
 1723TIP3    H2 5176   3.688   1.944   4.254
 1724TIP3   OH2 5177   0.376   2.129   0.493
 1724TIP3    H1 5178   0.324   2.167   0.564
 1724TIP3    H2 5179   0.413   2.049   0.530
 1725TIP3   OH2 5180   4.542   1.711   2.819
 1725TIP3    H1 5181   4.591   1.779   2.866
 1725TIP3    H2 5182   4.499   1.660   2.887
 1726TIP3   OH2 5183   2.005   2.226   4.552
 1726TIP3    H1 5184   2.045   2.313   4.553
 1726TIP3    H2 5185   1.911   2.244   4.543
 1727TIP3   OH2 5186   0.397   0.390   4.039
 1727TIP3    H1 5187   0.460   0.439   4.090
 1727TIP3    H2 5188   0.445   0.312   4.010
 1728TIP3   OH2 5189   4.292   1.905   1.833
 1728TIP3    H1 5190   4.337   1.988   1.820
 1728TIP3    H2 5191   4.322   1.875   1.920
 1729TIP3   OH2 5192   3.053   2.313   2.111
 1729TIP3    H1 5193   3.088   2.278   2.192
 1729TIP3    H2 5194   3.097   2.265   2.041
 1730TIP3   OH2 5195   3.783   5.300   4.580
 1730TIP3    H1 5196   3.717   5.302   4.511
 1730TIP3    H2 5197   3.745   5.349   4.653
 1731TIP3   OH2 5198   2.763   2.498   2.407
 1731TIP3    H1 5199   2.751   2.405   2.389
 1731TIP3    H2 5200   2.675   2.535   2.404
 1732TIP3   OH2 5201   1.843   0.160  -0.005
 1732TIP3    H1 5202   1.756   0.165   0.036
 1732TIP3    H2 5203   1.878   0.076   0.025
 1733TIP3   OH2 5204   0.367   3.349   4.225
 1733TIP3    H1 5205   0.312   3.278   4.258
 1733TIP3    H2 5206   0.419   3.377   4.301
 1734TIP3   OH2 5207   5.583   4.558   5.020
 1734TIP3    H1 5208   5.660   4.506   5.041
 1734TIP3    H2 5209   5.588   4.634   5.079
 1735TIP3   OH2 5210   1.936   3.072   3.893
 1735TIP3    H1 5211   2.029   3.068   3.918
 1735TIP3    H2 5212   1.889   3.052   3.975
 1736TIP3   OH2 5213   6.130   2.392   4.907
 1736TIP3    H1 5214   6.148   2.298   4.906
 1736TIP3    H2 5215   6.042   2.400   4.943
 1737TIP3   OH2 5216   6.074   2.936   3.555
 1737TIP3    H1 5217   6.158   2.891   3.546
 1737TIP3    H2 5218   6.092   3.026   3.527
 1738TIP3   OH2 5219   5.840   2.264   1.804
 1738TIP3    H1 5220   5.862   2.200   1.871
 1738TIP3    H2 5221   5.845   2.349   1.849
 1739TIP3   OH2 5222   0.799   5.793   1.840
 1739TIP3    H1 5223   0.866   5.841   1.889
 1739TIP3    H2 5224   0.840   5.709   1.820
 1740TIP3   OH2 5225   1.831   4.897   4.871
 1740TIP3    H1 5226   1.861   4.925   4.785
 1740TIP3    H2 5227   1.735   4.899   4.864
 1741TIP3   OH2 5228   2.488   3.328   3.095
 1741TIP3    H1 5229   2.545   3.264   3.051
 1741TIP3    H2 5230   2.549   3.390   3.134
 1742TIP3   OH2 5231   0.046   3.691   3.622
 1742TIP3    H1 5232   0.048   3.779   3.585
 1742TIP3    H2 5233   0.040   3.705   3.717
 1743TIP3   OH2 5234   0.843   4.329   1.210
 1743TIP3    H1 5235   0.751   4.314   1.186
 1743TIP3    H2 5236   0.879   4.377   1.136
 1744TIP3   OH2 5237   5.305   0.735   4.007
 1744TIP3    H1 5238   5.226   0.695   3.972
 1744TIP3    H2 5239   5.321   0.811   3.951
 1745TIP3   OH2 5240   3.273   2.089   1.611
 1745TIP3    H1 5241   3.298   2.089   1.519
 1745TIP3    H2 5242   3.352   2.060   1.657
 1746TIP3   OH2 5243   2.195   5.043   5.104
 1746TIP3    H1 5244   2.253   5.099   5.155
 1746TIP3    H2 5245   2.244   4.961   5.093
 1747TIP3   OH2 5246   0.775   3.923   3.680
 1747TIP3    H1 5247   0.811   3.867   3.611
 1747TIP3    H2 5248   0.773   3.868   3.758
 1748TIP3   OH2 5249   5.782   1.403   0.890
 1748TIP3    H1 5250   5.857   1.348   0.868
 1748TIP3    H2 5251   5.742   1.360   0.965
 1749TIP3   OH2 5252   2.316   4.179   3.731
 1749TIP3    H1 5253   2.248   4.235   3.768
 1749TIP3    H2 5254   2.392   4.236   3.722
 1750TIP3   OH2 5255   1.186   4.761   0.468
 1750TIP3    H1 5256   1.152   4.845   0.497
 1750TIP3    H2 5257   1.269   4.782   0.425
 1751TIP3   OH2 5258   2.684   3.997   3.022
 1751TIP3    H1 5259   2.713   4.002   3.113
 1751TIP3    H2 5260   2.727   4.070   2.978
 1752TIP3   OH2 5261   2.844   2.760   2.972
 1752TIP3    H1 5262   2.850   2.782   2.879
 1752TIP3    H2 5263   2.776   2.692   2.975
 1753TIP3   OH2 5264   3.808   0.739   3.056
 1753TIP3    H1 5265   3.887   0.774   3.098
 1753TIP3    H2 5266   3.813   0.645   3.070
 1754TIP3   OH2 5267   2.930   2.028   1.360
 1754TIP3    H1 5268   2.839   2.055   1.352
 1754TIP3    H2 5269   2.963   2.076   1.436
 1755TIP3   OH2 5270   4.849   4.975   1.969
 1755TIP3    H1 5271   4.890   5.027   2.038
 1755TIP3    H2 5272   4.923   4.946   1.914
 1756TIP3   OH2 5273   2.370   2.699   0.451
 1756TIP3    H1 5274   2.465   2.688   0.448
 1756TIP3    H2 5275   2.340   2.670   0.364
 1757TIP3   OH2 5276   3.263   1.032   4.077
 1757TIP3    H1 5277   3.333   0.990   4.128
 1757TIP3    H2 5278   3.306   1.108   4.037
 1758TIP3   OH2 5279   2.208   0.671   2.021
 1758TIP3    H1 5280   2.294   0.683   2.062
 1758TIP3    H2 5281   2.218   0.706   1.933
 1759TIP3   OH2 5282   4.391   5.164   2.607
 1759TIP3    H1 5283   4.341   5.082   2.602
 1759TIP3    H2 5284   4.393   5.196   2.517
 1760TIP3   OH2 5285   1.387   3.143   2.767
 1760TIP3    H1 5286   1.476   3.131   2.734
 1760TIP3    H2 5287   1.372   3.067   2.823
 1761TIP3   OH2 5288   1.587   0.363   4.384
 1761TIP3    H1 5289   1.496   0.374   4.410
 1761TIP3    H2 5290   1.591   0.394   4.294
 1762TIP3   OH2 5291   4.452   0.305   3.266
 1762TIP3    H1 5292   4.367   0.264   3.284
 1762TIP3    H2 5293   4.473   0.353   3.346
 1763TIP3   OH2 5294   3.321   0.001   4.601
 1763TIP3    H1 5295   3.279  -0.046   4.529
 1763TIP3    H2 5296   3.267   0.079   4.612
 1764TIP3   OH2 5297   1.799   3.970   4.829
 1764TIP3    H1 5298   1.754   3.891   4.801
 1764TIP3    H2 5299   1.751   4.000   4.906
 1765TIP3   OH2 5300   0.399   0.950   4.379
 1765TIP3    H1 5301   0.330   0.984   4.436
 1765TIP3    H2 5302   0.476   0.943   4.436
 1766TIP3   OH2 5303   3.720   2.920   5.124
 1766TIP3    H1 5304   3.631   2.922   5.089
 1766TIP3    H2 5305   3.776   2.906   5.047
 1767TIP3   OH2 5306   1.678   0.704   4.344
 1767TIP3    H1 5307   1.697   0.798   4.347
 1767TIP3    H2 5308   1.760   0.664   4.315
 1768TIP3   OH2 5309   4.456   4.975   4.436
 1768TIP3    H1 5310   4.476   4.959   4.528
 1768TIP3    H2 5311   4.388   4.911   4.415
 1769TIP3   OH2 5312   4.765   5.652   2.539
 1769TIP3    H1 5313   4.848   5.641   2.586
 1769TIP3    H2 5314   4.769   5.741   2.505
 1770TIP3   OH2 5315   5.949   2.819   0.613
 1770TIP3    H1 5316   5.904   2.842   0.532
 1770TIP3    H2 5317   5.938   2.724   0.620
 1771TIP3   OH2 5318   4.208   0.558   2.517
 1771TIP3    H1 5319   4.169   0.641   2.492
 1771TIP3    H2 5320   4.191   0.500   2.442
 1772TIP3   OH2 5321   5.252   0.415   1.404
 1772TIP3    H1 5322   5.321   0.378   1.349
 1772TIP3    H2 5323   5.206   0.477   1.347
 1773TIP3   OH2 5324   3.620   1.506   4.712
 1773TIP3    H1 5325   3.716   1.505   4.715
 1773TIP3    H2 5326   3.593   1.462   4.793
 1774TIP3   OH2 5327   2.817   0.135   3.233
 1774TIP3    H1 5328   2.763   0.150   3.155
 1774TIP3    H2 5329   2.774   0.063   3.279
 1775TIP3   OH2 5330   0.575   5.784   3.013
 1775TIP3    H1 5331   0.536   5.734   3.084
 1775TIP3    H2 5332   0.543   5.873   3.027
 1776TIP3   OH2 5333   0.477   1.219   4.682
 1776TIP3    H1 5334   0.552   1.277   4.695
 1776TIP3    H2 5335   0.507   1.133   4.712
 1777TIP3   OH2 5336   2.182   2.740   1.267
 1777TIP3    H1 5337   2.192   2.705   1.178
 1777TIP3    H2 5338   2.124   2.678   1.311
 1778TIP3   OH2 5339   2.070   2.955   4.502
 1778TIP3    H1 5340   2.047   2.927   4.413
 1778TIP3    H2 5341   2.061   3.050   4.500
 1779TIP3   OH2 5342   4.796   3.377   0.218
 1779TIP3    H1 5343   4.858   3.408   0.284
 1779TIP3    H2 5344   4.771   3.290   0.249
 1780TIP3   OH2 5345   5.487   3.072   2.095
 1780TIP3    H1 5346   5.519   3.157   2.064
 1780TIP3    H2 5347   5.400   3.092   2.131
 1781TIP3   OH2 5348   4.611   0.706   3.460
 1781TIP3    H1 5349   4.673   0.649   3.414
 1781TIP3    H2 5350   4.610   0.672   3.550
 1782TIP3   OH2 5351   2.476   2.283   1.103
 1782TIP3    H1 5352   2.541   2.308   1.169
 1782TIP3    H2 5353   2.398   2.261   1.153
 1783TIP3   OH2 5354   4.197   2.890   3.101
 1783TIP3    H1 5355   4.226   2.882   3.010
 1783TIP3    H2 5356   4.188   2.984   3.115
 1784TIP3   OH2 5357   3.338   3.935   1.829
 1784TIP3    H1 5358   3.411   3.995   1.844
 1784TIP3    H2 5359   3.309   3.954   1.740
 1785TIP3   OH2 5360   5.591   3.994   4.041
 1785TIP3    H1 5361   5.652   3.941   4.092
 1785TIP3    H2 5362   5.517   4.008   4.101
 1786TIP3   OH2 5363   2.497   3.748   0.377
 1786TIP3    H1 5364   2.565   3.798   0.332
 1786TIP3    H2 5365   2.488   3.668   0.326
 1787TIP3   OH2 5366   5.785   4.697   0.652
 1787TIP3    H1 5367   5.700   4.729   0.620
 1787TIP3    H2 5368   5.829   4.775   0.685
 1788TIP3   OH2 5369   5.138   0.827   1.128
 1788TIP3    H1 5370   5.219   0.874   1.145
 1788TIP3    H2 5371   5.158   0.735   1.150
 1789TIP3   OH2 5372   3.630   3.198   1.530
 1789TIP3    H1 5373   3.692   3.161   1.593
 1789TIP3    H2 5374   3.559   3.232   1.584
 1790TIP3   OH2 5375   5.225   2.762   2.713
 1790TIP3    H1 5376   5.130   2.767   2.711
 1790TIP3    H2 5377   5.251   2.745   2.623
 1791TIP3   OH2 5378   2.528   0.023   5.091
 1791TIP3    H1 5379   2.601   0.064   5.044
 1791TIP3    H2 5380   2.550  -0.070   5.094
 1792TIP3   OH2 5381   1.671   4.108   3.698
 1792TIP3    H1 5382   1.705   4.135   3.612
 1792TIP3    H2 5383   1.695   4.016   3.706
 1793TIP3   OH2 5384   4.877   0.046   3.057
 1793TIP3    H1 5385   4.831   0.127   3.079
 1793TIP3    H2 5386   4.954   0.046   3.114
 1794TIP3   OH2 5387   0.614   1.638   0.120
 1794TIP3    H1 5388   0.672   1.563   0.133
 1794TIP3    H2 5389   0.550   1.608   0.055
 1795TIP3   OH2 5390   0.306   0.730   1.837
 1795TIP3    H1 5391   0.294   0.824   1.820
 1795TIP3    H2 5392   0.380   0.705   1.781
 1796TIP3   OH2 5393   2.976   3.186   4.080
 1796TIP3    H1 5394   3.048   3.243   4.109
 1796TIP3    H2 5395   2.919   3.244   4.029
 1797TIP3   OH2 5396   5.573   4.626   1.337
 1797TIP3    H1 5397   5.493   4.584   1.306
 1797TIP3    H2 5398   5.551   4.719   1.344
 1798TIP3   OH2 5399   1.824   3.146   0.548
 1798TIP3    H1 5400   1.906   3.097   0.552
 1798TIP3    H2 5401   1.758   3.081   0.525
 1799TIP3   OH2 5402   3.680   2.274   2.849
 1799TIP3    H1 5403   3.656   2.194   2.802
 1799TIP3    H2 5404   3.620   2.340   2.815
 1800TIP3   OH2 5405   1.164   3.531   1.031
 1800TIP3    H1 5406   1.093   3.570   0.980
 1800TIP3    H2 5407   1.229   3.505   0.966
 1801TIP3   OH2 5408   2.909   0.834   0.318
 1801TIP3    H1 5409   2.860   0.859   0.396
 1801TIP3    H2 5410   2.875   0.747   0.295
 1802TIP3   OH2 5411   0.968   5.301   1.999
 1802TIP3    H1 5412   1.035   5.235   1.977
 1802TIP3    H2 5413   1.004   5.346   2.076
 1803TIP3   OH2 5414   5.924   4.117   0.092
 1803TIP3    H1 5415   5.846   4.151   0.136
 1803TIP3    H2 5416   5.894   4.037   0.049
 1804TIP3   OH2 5417   3.367   3.238   2.721
 1804TIP3    H1 5418   3.336   3.286   2.644
 1804TIP3    H2 5419   3.290   3.193   2.754
 1805TIP3   OH2 5420   3.609   1.660   0.433
 1805TIP3    H1 5421   3.646   1.748   0.423
 1805TIP3    H2 5422   3.514   1.674   0.433
 1806TIP3   OH2 5423   3.385   1.168   2.321
 1806TIP3    H1 5424   3.314   1.218   2.280
 1806TIP3    H2 5425   3.349   1.140   2.405
 1807TIP3   OH2 5426   4.658   2.009   0.295
 1807TIP3    H1 5427   4.585   1.949   0.311
 1807TIP3    H2 5428   4.713   1.963   0.232
 1808TIP3   OH2 5429   3.213   4.568   1.974
 1808TIP3    H1 5430   3.205   4.590   1.882
 1808TIP3    H2 5431   3.304   4.541   1.985
 1809TIP3   OH2 5432   3.973   1.486   2.084
 1809TIP3    H1 5433   3.991   1.579   2.098
 1809TIP3    H2 5434   3.899   1.466   2.141
 1810TIP3   OH2 5435   1.217   0.167   5.062
 1810TIP3    H1 5436   1.206   0.162   4.967
 1810TIP3    H2 5437   1.141   0.216   5.092
 1811TIP3   OH2 5438   4.852   0.861   2.188
 1811TIP3    H1 5439   4.861   0.913   2.108
 1811TIP3    H2 5440   4.925   0.889   2.243
 1812TIP3   OH2 5441   4.196   1.126   4.320
 1812TIP3    H1 5442   4.243   1.097   4.398
 1812TIP3    H2 5443   4.151   1.048   4.288
 1813TIP3   OH2 5444   0.132   4.118   5.055
 1813TIP3    H1 5445   0.128   4.047   5.119
 1813TIP3    H2 5446   0.058   4.101   4.996
 1814TIP3   OH2 5447   3.280   0.365   1.937
 1814TIP3    H1 5448   3.351   0.303   1.923
 1814TIP3    H2 5449   3.227   0.360   1.858
 1815TIP3   OH2 5450   5.384   1.256   1.000
 1815TIP3    H1 5451   5.384   1.177   0.945
 1815TIP3    H2 5452   5.414   1.325   0.941
 1816TIP3   OH2 5453   1.460   1.611   1.982
 1816TIP3    H1 5454   1.430   1.686   1.930
 1816TIP3    H2 5455   1.392   1.600   2.048
 1817TIP3   OH2 5456   2.015   3.301   0.889
 1817TIP3    H1 5457   2.068   3.228   0.922
 1817TIP3    H2 5458   1.993   3.352   0.966
 1818TIP3   OH2 5459   0.325   2.637   2.323
 1818TIP3    H1 5460   0.400   2.615   2.267
 1818TIP3    H2 5461   0.357   2.709   2.377
 1819TIP3   OH2 5462   2.414   0.144   3.608
 1819TIP3    H1 5463   2.401   0.184   3.695
 1819TIP3    H2 5464   2.336   0.170   3.559
 1820TIP3   OH2 5465   0.437   3.790   2.739
 1820TIP3    H1 5466   0.482   3.856   2.686
 1820TIP3    H2 5467   0.507   3.739   2.780
 1821TIP3   OH2 5468   0.112   4.602   2.697
 1821TIP3    H1 5469   0.182   4.537   2.692
 1821TIP3    H2 5470   0.150   4.681   2.660
 1822TIP3   OH2 5471   4.089   4.947   2.330
 1822TIP3    H1 5472   4.178   4.925   2.358
 1822TIP3    H2 5473   4.070   4.885   2.259
 1823TIP3   OH2 5474   1.334   5.684   2.491
 1823TIP3    H1 5475   1.296   5.772   2.490
 1823TIP3    H2 5476   1.368   5.673   2.579
 1824TIP3   OH2 5477   2.404   5.401   3.447
 1824TIP3    H1 5478   2.323   5.426   3.493
 1824TIP3    H2 5479   2.419   5.472   3.385
 1825TIP3   OH2 5480   2.018   5.062   2.321
 1825TIP3    H1 5481   2.031   4.978   2.365
 1825TIP3    H2 5482   2.106   5.091   2.298
 1826TIP3   OH2 5483   1.679   2.208   4.183
 1826TIP3    H1 5484   1.609   2.232   4.123
 1826TIP3    H2 5485   1.754   2.188   4.127
 1827TIP3   OH2 5486   2.801   2.935   2.744
 1827TIP3    H1 5487   2.742   2.941   2.669
 1827TIP3    H2 5488   2.888   2.956   2.708
 1828TIP3   OH2 5489   3.664   4.850   3.910
 1828TIP3    H1 5490   3.749   4.893   3.907
 1828TIP3    H2 5491   3.672   4.787   3.981
 1829TIP3   OH2 5492   0.726   3.479   1.474
 1829TIP3    H1 5493   0.772   3.563   1.478
 1829TIP3    H2 5494   0.634   3.502   1.481
 1830TIP3   OH2 5495   3.810   5.192   3.859
 1830TIP3    H1 5496   3.755   5.141   3.800
 1830TIP3    H2 5497   3.802   5.282   3.827
 1831TIP3   OH2 5498   2.745   3.704   3.117
 1831TIP3    H1 5499   2.685   3.778   3.109
 1831TIP3    H2 5500   2.831   3.741   3.097
 1832TIP3   OH2 5501   3.717   0.030   4.338
 1832TIP3    H1 5502   3.770   0.101   4.373
 1832TIP3    H2 5503   3.646   0.074   4.291
 1833TIP3   OH2 5504   0.788   1.745   4.497
 1833TIP3    H1 5505   0.779   1.795   4.416
 1833TIP3    H2 5506   0.862   1.786   4.541
 1834TIP3   OH2 5507   0.718   0.248   1.635
 1834TIP3    H1 5508   0.765   0.329   1.657
 1834TIP3    H2 5509   0.634   0.279   1.599
 1835TIP3   OH2 5510   2.571   5.952   1.614
 1835TIP3    H1 5511   2.613   5.919   1.694
 1835TIP3    H2 5512   2.538   5.873   1.570
 1836TIP3   OH2 5513   4.233   3.774   1.819
 1836TIP3    H1 5514   4.247   3.869   1.819
 1836TIP3    H2 5515   4.160   3.760   1.759
 1837TIP3   OH2 5516   2.375   3.097   2.477
 1837TIP3    H1 5517   2.389   3.158   2.405
 1837TIP3    H2 5518   2.345   3.152   2.550
 1838TIP3   OH2 5519   3.085   5.306   2.751
 1838TIP3    H1 5520   3.130   5.228   2.784
 1838TIP3    H2 5521   3.151   5.375   2.755
 1839TIP3   OH2 5522   4.928   2.495   1.324
 1839TIP3    H1 5523   5.016   2.463   1.306
 1839TIP3    H2 5524   4.896   2.438   1.394
 1840TIP3   OH2 5525   0.374   2.485   0.442
 1840TIP3    H1 5526   0.278   2.490   0.449
 1840TIP3    H2 5527   0.390   2.467   0.350
 1841TIP3   OH2 5528   3.095   2.912   2.409
 1841TIP3    H1 5529   3.007   2.882   2.388
 1841TIP3    H2 5530   3.106   2.895   2.502
 1842TIP3   OH2 5531   2.356   2.405   0.370
 1842TIP3    H1 5532   2.403   2.430   0.449
 1842TIP3    H2 5533   2.286   2.347   0.400
 1843TIP3   OH2 5534   0.771   3.470   3.489
 1843TIP3    H1 5535   0.679   3.496   3.503
 1843TIP3    H2 5536   0.773   3.376   3.507
 1844TIP3   OH2 5537   2.471   3.197   0.048
 1844TIP3    H1 5538   2.557   3.225   0.079
 1844TIP3    H2 5539   2.422   3.279   0.036
 1845TIP3   OH2 5540   1.184   0.183   3.479
 1845TIP3    H1 5541   1.213   0.235   3.554
 1845TIP3    H2 5542   1.090   0.199   3.473
 1846TIP3   OH2 5543   0.545   2.120   3.458
 1846TIP3    H1 5544   0.547   2.113   3.363
 1846TIP3    H2 5545   0.453   2.136   3.480
 1847TIP3   OH2 5546   1.174   5.573   0.234
 1847TIP3    H1 5547   1.206   5.483   0.238
 1847TIP3    H2 5548   1.252   5.626   0.224
 1848TIP3   OH2 5549   2.250   3.925   1.395
 1848TIP3    H1 5550   2.205   3.886   1.470
 1848TIP3    H2 5551   2.291   4.005   1.430
 1849TIP3   OH2 5552   1.245   5.046   3.478
 1849TIP3    H1 5553   1.186   5.119   3.458
 1849TIP3    H2 5554   1.246   5.042   3.574
 1850TIP3   OH2 5555   5.816   5.046   4.056
 1850TIP3    H1 5556   5.788   5.024   3.967
 1850TIP3    H2 5557   5.809   5.141   4.060
 1851TIP3   OH2 5558   1.978   4.888   1.401
 1851TIP3    H1 5559   2.019   4.933   1.475
 1851TIP3    H2 5560   2.040   4.897   1.329
 1852TIP3   OH2 5561   3.684   1.950   3.669
 1852TIP3    H1 5562   3.656   2.016   3.606
 1852TIP3    H2 5563   3.743   1.996   3.728
 1853TIP3   OH2 5564   5.280   1.479   2.237
 1853TIP3    H1 5565   5.332   1.559   2.229
 1853TIP3    H2 5566   5.189   1.508   2.227
 1854TIP3   OH2 5567   4.253   2.558   4.400
 1854TIP3    H1 5568   4.237   2.559   4.305
 1854TIP3    H2 5569   4.256   2.651   4.424
 1855TIP3   OH2 5570   1.198   5.299   0.304
 1855TIP3    H1 5571   1.281   5.295   0.257
 1855TIP3    H2 5572   1.223   5.300   0.396
 1856TIP3   OH2 5573   4.919   0.760   5.134
 1856TIP3    H1 5574   4.835   0.735   5.095
 1856TIP3    H2 5575   4.899   0.835   5.189
 1857TIP3   OH2 5576   0.317   4.449   4.859
 1857TIP3    H1 5577   0.253   4.513   4.891
 1857TIP3    H2 5578   0.295   4.438   4.767
 1858TIP3   OH2 5579   4.369   4.046   2.864
 1858TIP3    H1 5580   4.304   4.095   2.914
 1858TIP3    H2 5581   4.318   3.988   2.808
 1859TIP3   OH2 5582   1.657   2.104   2.448
 1859TIP3    H1 5583   1.641   2.191   2.412
 1859TIP3    H2 5584   1.683   2.120   2.539
 1860TIP3   OH2 5585   2.336   1.420   5.139
 1860TIP3    H1 5586   2.346   1.482   5.211
 1860TIP3    H2 5587   2.287   1.469   5.072
 1861TIP3   OH2 5588   5.939   4.756   3.766
 1861TIP3    H1 5589   5.903   4.841   3.791
 1861TIP3    H2 5590   5.994   4.775   3.690
 1862TIP3   OH2 5591   6.327   3.467   0.927
 1862TIP3    H1 5592   6.274   3.393   0.898
 1862TIP3    H2 5593   6.396   3.427   0.980
 1863TIP3   OH2 5594   5.885   0.142   3.559
 1863TIP3    H1 5595   5.955   0.132   3.623
 1863TIP3    H2 5596   5.864   0.235   3.559
 1864TIP3   OH2 5597   3.370   0.783   2.159
 1864TIP3    H1 5598   3.275   0.796   2.159
 1864TIP3    H2 5599   3.381   0.692   2.188
 1865TIP3   OH2 5600   4.445   3.033   3.098
 1865TIP3    H1 5601   4.441   3.000   3.008
 1865TIP3    H2 5602   4.527   3.084   3.101
 1866TIP3   OH2 5603   6.050   3.639   0.341
 1866TIP3    H1 5604   6.048   3.623   0.246
 1866TIP3    H2 5605   6.138   3.671   0.358
 1867TIP3   OH2 5606   3.488   3.125   4.253
 1867TIP3    H1 5607   3.397   3.120   4.282
 1867TIP3    H2 5608   3.540   3.127   4.333
 1868TIP3   OH2 5609   0.285   2.432   1.115
 1868TIP3    H1 5610   0.207   2.438   1.171
 1868TIP3    H2 5611   0.333   2.357   1.149
 1869TIP3   OH2 5612   5.076   0.593   1.574
 1869TIP3    H1 5613   5.100   0.540   1.498
 1869TIP3    H2 5614   5.085   0.534   1.648
 1870TIP3   OH2 5615   0.419   1.752   1.103
 1870TIP3    H1 5616   0.406   1.665   1.140
 1870TIP3    H2 5617   0.444   1.737   1.012
 1871TIP3   OH2 5618   2.961   0.093   3.477
 1871TIP3    H1 5619   2.901   0.092   3.403
 1871TIP3    H2 5620   2.916   0.043   3.545
 1872TIP3   OH2 5621   4.936   2.949   5.088
 1872TIP3    H1 5622   4.999   2.885   5.054
 1872TIP3    H2 5623   4.893   2.904   5.160
 1873TIP3   OH2 5624   2.233   4.370   1.164
 1873TIP3    H1 5625   2.307   4.312   1.179
 1873TIP3    H2 5626   2.202   4.393   1.252
 1874TIP3   OH2 5627   1.957   0.643   4.316
 1874TIP3    H1 5628   1.964   0.554   4.283
 1874TIP3    H2 5629   2.034   0.655   4.370
 1875TIP3   OH2 5630   2.183   1.880   3.939
 1875TIP3    H1 5631   2.256   1.926   3.981
 1875TIP3    H2 5632   2.222   1.839   3.862
 1876TIP3   OH2 5633   3.142   0.726   1.462
 1876TIP3    H1 5634   3.147   0.657   1.396
 1876TIP3    H2 5635   3.224   0.775   1.451
 1877TIP3   OH2 5636   4.741   4.518   4.997
 1877TIP3    H1 5637   4.753   4.599   4.947
 1877TIP3    H2 5638   4.723   4.547   5.086
 1878TIP3   OH2 5639   1.516   3.247   0.200
 1878TIP3    H1 5640   1.473   3.177   0.151
 1878TIP3    H2 5641   1.491   3.232   0.291
 1879TIP3   OH2 5642   3.588   4.278   4.904
 1879TIP3    H1 5643   3.649   4.210   4.933
 1879TIP3    H2 5644   3.518   4.230   4.860
 1880TIP3   OH2 5645   2.856   0.279   4.618
 1880TIP3    H1 5646   2.931   0.223   4.596
 1880TIP3    H2 5647   2.875   0.310   4.707
 1881TIP3   OH2 5648   1.836   0.132   2.974
 1881TIP3    H1 5649   1.859   0.041   2.955
 1881TIP3    H2 5650   1.750   0.127   3.016
 1882TIP3   OH2 5651   0.437   1.843   2.201
 1882TIP3    H1 5652   0.351   1.814   2.168
 1882TIP3    H2 5653   0.499   1.783   2.161
 1883TIP3   OH2 5654   2.376   1.197   0.779
 1883TIP3    H1 5655   2.354   1.277   0.732
 1883TIP3    H2 5656   2.291   1.161   0.805
 1884TIP3   OH2 5657   0.081   4.770   0.188
 1884TIP3    H1 5658   0.067   4.855   0.145
 1884TIP3    H2 5659   0.173   4.771   0.214
 1885TIP3   OH2 5660   6.063   5.377   0.959
 1885TIP3    H1 5661   6.046   5.424   0.877
 1885TIP3    H2 5662   6.049   5.442   1.028
 1886TIP3   OH2 5663   1.027   0.481   1.961
 1886TIP3    H1 5664   1.026   0.573   1.987
 1886TIP3    H2 5665   1.119   0.464   1.938
 1887TIP3   OH2 5666   3.544   3.465   4.643
 1887TIP3    H1 5667   3.626   3.482   4.596
 1887TIP3    H2 5668   3.516   3.379   4.612
 1888TIP3   OH2 5669   2.759   4.479   2.550
 1888TIP3    H1 5670   2.692   4.546   2.538
 1888TIP3    H2 5671   2.842   4.525   2.540
 1889TIP3   OH2 5672   4.749   3.381   4.417
 1889TIP3    H1 5673   4.668   3.367   4.368
 1889TIP3    H2 5674   4.764   3.297   4.461
 1890TIP3   OH2 5675   6.022   2.092   0.533
 1890TIP3    H1 5676   6.045   2.001   0.514
 1890TIP3    H2 5677   6.001   2.130   0.448
 1891TIP3   OH2 5678   3.663   5.936   0.280
 1891TIP3    H1 5679   3.713   5.899   0.208
 1891TIP3    H2 5680   3.658   6.029   0.260
 1892TIP3   OH2 5681   4.275   4.267   0.977
 1892TIP3    H1 5682   4.266   4.200   1.045
 1892TIP3    H2 5683   4.298   4.346   1.025
 1893TIP3   OH2 5684   0.529   1.783   3.969
 1893TIP3    H1 5685   0.465   1.719   4.000
 1893TIP3    H2 5686   0.598   1.730   3.929
 1894TIP3   OH2 5687   4.686   0.941   3.331
 1894TIP3    H1 5688   4.665   0.854   3.364
 1894TIP3    H2 5689   4.666   0.937   3.238
 1895TIP3   OH2 5690   4.672   5.599   1.096
 1895TIP3    H1 5691   4.754   5.568   1.057
 1895TIP3    H2 5692   4.614   5.614   1.022
 1896TIP3   OH2 5693   5.049   2.816   4.709
 1896TIP3    H1 5694   4.959   2.789   4.693
 1896TIP3    H2 5695   5.046   2.912   4.707
 1897TIP3   OH2 5696   4.334   5.239   4.462
 1897TIP3    H1 5697   4.385   5.212   4.538
 1897TIP3    H2 5698   4.301   5.158   4.425
 1898TIP3   OH2 5699   5.786   4.674   1.042
 1898TIP3    H1 5700   5.805   4.630   1.125
 1898TIP3    H2 5701   5.691   4.678   1.039
 1899TIP3   OH2 5702   4.739   3.982   2.924
 1899TIP3    H1 5703   4.697   3.897   2.926
 1899TIP3    H2 5704   4.668   4.045   2.939
 1900TIP3   OH2 5705   2.594   1.324   4.602
 1900TIP3    H1 5706   2.639   1.346   4.684
 1900TIP3    H2 5707   2.656   1.348   4.533
 1901TIP3   OH2 5708   0.448   4.130   4.136
 1901TIP3    H1 5709   0.384   4.195   4.106
 1901TIP3    H2 5710   0.501   4.112   4.058
 1902TIP3   OH2 5711   4.792   5.225   2.374
 1902TIP3    H1 5712   4.749   5.311   2.380
 1902TIP3    H2 5713   4.723   5.163   2.398
 1903TIP3   OH2 5714   1.326   0.507   2.995
 1903TIP3    H1 5715   1.270   0.492   2.919
 1903TIP3    H2 5716   1.398   0.445   2.985
 1904TIP3   OH2 5717   1.609   0.509   0.938
 1904TIP3    H1 5718   1.680   0.458   0.901
 1904TIP3    H2 5719   1.530   0.476   0.895
 1905TIP3   OH2 5720   2.220   2.158   3.829
 1905TIP3    H1 5721   2.194   2.230   3.887
 1905TIP3    H2 5722   2.297   2.120   3.870
 1906TIP3   OH2 5723   0.669   5.574   3.954
 1906TIP3    H1 5724   0.626   5.642   3.902
 1906TIP3    H2 5725   0.599   5.514   3.978
 1907TIP3   OH2 5726   2.925   5.180   4.842
 1907TIP3    H1 5727   2.835   5.165   4.813
 1907TIP3    H2 5728   2.946   5.105   4.897
 1908TIP3   OH2 5729   3.562   5.697   0.395
 1908TIP3    H1 5730   3.649   5.681   0.432
 1908TIP3    H2 5731   3.568   5.785   0.358
 1909TIP3   OH2 5732   3.762   2.756   1.610
 1909TIP3    H1 5733   3.780   2.689   1.676
 1909TIP3    H2 5734   3.819   2.829   1.634
 1910TIP3   OH2 5735   4.065   5.561   4.117
 1910TIP3    H1 5736   4.061   5.520   4.204
 1910TIP3    H2 5737   4.003   5.634   4.122
 1911TIP3   OH2 5738   5.269   4.417   0.261
 1911TIP3    H1 5739   5.321   4.448   0.186
 1911TIP3    H2 5740   5.189   4.469   0.258
 1912TIP3   OH2 5741   5.637   1.316   3.881
 1912TIP3    H1 5742   5.639   1.253   3.809
 1912TIP3    H2 5743   5.635   1.263   3.960
 1913TIP3   OH2 5744   4.852   1.283   1.864
 1913TIP3    H1 5745   4.846   1.227   1.787
 1913TIP3    H2 5746   4.762   1.298   1.891
 1914TIP3   OH2 5747   5.248  -0.047   4.674
 1914TIP3    H1 5748   5.249  -0.034   4.579
 1914TIP3    H2 5749   5.339  -0.066   4.696
 1915TIP3   OH2 5750   5.204   5.921   1.259
 1915TIP3    H1 5751   5.143   5.942   1.188
 1915TIP3    H2 5752   5.162   5.851   1.308
 1916TIP3   OH2 5753   0.325   4.570   1.678
 1916TIP3    H1 5754   0.330   4.535   1.767
 1916TIP3    H2 5755   0.376   4.509   1.625
 1917TIP3   OH2 5756   0.214   4.144   0.898
 1917TIP3    H1 5757   0.201   4.217   0.958
 1917TIP3    H2 5758   0.304   4.156   0.865
 1918TIP3   OH2 5759   0.437   0.092   2.084
 1918TIP3    H1 5760   0.483   0.093   2.168
 1918TIP3    H2 5761   0.379   0.168   2.087
 1919TIP3   OH2 5762   4.395   5.900   0.233
 1919TIP3    H1 5763   4.477   5.853   0.245
 1919TIP3    H2 5764   4.346   5.883   0.314
 1920TIP3   OH2 5765   6.257   2.577   1.129
 1920TIP3    H1 5766   6.311   2.498   1.124
 1920TIP3    H2 5767   6.180   2.550   1.179
 1921TIP3   OH2 5768   1.972   0.896   2.030
 1921TIP3    H1 5769   2.051   0.842   2.025
 1921TIP3    H2 5770   1.919   0.867   1.955
 1922TIP3   OH2 5771   0.614   2.530   0.231
 1922TIP3    H1 5772   0.586   2.622   0.237
 1922TIP3    H2 5773   0.703   2.535   0.195
 1923TIP3   OH2 5774   6.219   5.344   0.536
 1923TIP3    H1 5775   6.296   5.400   0.526
 1923TIP3    H2 5776   6.148   5.394   0.497
 1924TIP3   OH2 5777   0.239   5.330   1.202
 1924TIP3    H1 5778   0.223   5.240   1.171
 1924TIP3    H2 5779   0.334   5.337   1.205
 1925TIP3   OH2 5780   2.392   5.040   4.837
 1925TIP3    H1 5781   2.430   5.065   4.921
 1925TIP3    H2 5782   2.376   4.946   4.845
 1926TIP3   OH2 5783   4.591   1.917   1.833
 1926TIP3    H1 5784   4.541   1.921   1.751
 1926TIP3    H2 5785   4.674   1.959   1.812
 1927TIP3   OH2 5786   2.444   1.491   4.797
 1927TIP3    H1 5787   2.500   1.493   4.719
 1927TIP3    H2 5788   2.360   1.525   4.767
 1928TIP3   OH2 5789   1.272   1.385   4.314
 1928TIP3    H1 5790   1.206   1.316   4.323
 1928TIP3    H2 5791   1.335   1.366   4.383
 1929TIP3   OH2 5792   0.474   5.343   4.785
 1929TIP3    H1 5793   0.484   5.436   4.806
 1929TIP3    H2 5794   0.474   5.299   4.870
 1930TIP3   OH2 5795   1.436   5.570   2.197
 1930TIP3    H1 5796   1.485   5.648   2.174
 1930TIP3    H2 5797   1.487   5.497   2.162
 1931TIP3   OH2 5798   3.763   0.284   1.476
 1931TIP3    H1 5799   3.764   0.283   1.572
 1931TIP3    H2 5800   3.688   0.340   1.453
 1932TIP3   OH2 5801   4.844   3.193   1.452
 1932TIP3    H1 5802   4.902   3.167   1.380
 1932TIP3    H2 5803   4.888   3.268   1.492
 1933TIP3   OH2 5804   4.987   4.650   1.941
 1933TIP3    H1 5805   5.010   4.645   1.849
 1933TIP3    H2 5806   4.898   4.615   1.946
 1934TIP3   OH2 5807   4.728   2.060   4.291
 1934TIP3    H1 5808   4.816   2.095   4.276
 1934TIP3    H2 5809   4.697   2.034   4.205
 1935TIP3   OH2 5810   4.443   2.331   0.293
 1935TIP3    H1 5811   4.397   2.254   0.326
 1935TIP3    H2 5812   4.402   2.405   0.338
 1936TIP3   OH2 5813   2.878   3.856   4.596
 1936TIP3    H1 5814   2.790   3.867   4.559
 1936TIP3    H2 5815   2.919   3.791   4.539
 1937TIP3   OH2 5816   0.150   0.501   4.158
 1937TIP3    H1 5817   0.218   0.448   4.116
 1937TIP3    H2 5818   0.198   0.560   4.216
 1938TIP3   OH2 5819   3.303   3.741   0.956
 1938TIP3    H1 5820   3.231   3.703   1.006
 1938TIP3    H2 5821   3.267   3.753   0.868
 1939TIP3   OH2 5822   3.715   3.749   1.818
 1939TIP3    H1 5823   3.690   3.827   1.867
 1939TIP3    H2 5824   3.723   3.680   1.884
 1940TIP3   OH2 5825   0.240   4.231   3.503
 1940TIP3    H1 5826   0.308   4.199   3.443
 1940TIP3    H2 5827   0.176   4.273   3.447
 1941TIP3   OH2 5828   3.461   2.899   5.044
 1941TIP3    H1 5829   3.383   2.954   5.045
 1941TIP3    H2 5830   3.434   2.819   5.091
 1942TIP3   OH2 5831   5.775   4.126   2.314
 1942TIP3    H1 5832   5.775   4.160   2.404
 1942TIP3    H2 5833   5.765   4.204   2.259
 1943TIP3   OH2 5834   5.591   1.680   1.447
 1943TIP3    H1 5835   5.535   1.627   1.390
 1943TIP3    H2 5836   5.677   1.677   1.404
 1944TIP3   OH2 5837   5.034   1.526   2.663
 1944TIP3    H1 5838   4.948   1.563   2.682
 1944TIP3    H2 5839   5.094   1.571   2.722
 1945TIP3   OH2 5840   2.844   5.520   2.121
 1945TIP3    H1 5841   2.880   5.514   2.033
 1945TIP3    H2 5842   2.920   5.535   2.177
 1946TIP3   OH2 5843   6.275   5.509   2.268
 1946TIP3    H1 5844   6.279   5.499   2.363
 1946TIP3    H2 5845   6.205   5.450   2.240
 1947TIP3   OH2 5846   5.696   0.265   3.335
 1947TIP3    H1 5847   5.713   0.316   3.415
 1947TIP3    H2 5848   5.615   0.217   3.355
 1948TIP3   OH2 5849   3.369   0.915   2.941
 1948TIP3    H1 5850   3.419   0.997   2.950
 1948TIP3    H2 5851   3.369   0.877   3.029
 1949TIP3   OH2 5852   5.940   3.151   0.367
 1949TIP3    H1 5853   5.896   3.066   0.370
 1949TIP3    H2 5854   5.871   3.214   0.385
 1950TIP3   OH2 5855   2.596   2.943   0.102
 1950TIP3    H1 5856   2.531   3.007   0.073
 1950TIP3    H2 5857   2.626   2.902   0.021
 1951TIP3   OH2 5858   5.658   5.081   0.712
 1951TIP3    H1 5859   5.611   5.015   0.763
 1951TIP3    H2 5860   5.737   5.098   0.762
 1952TIP3   OH2 5861   3.987   0.776   1.272
 1952TIP3    H1 5862   3.940   0.789   1.189
 1952TIP3    H2 5863   3.925   0.728   1.326
 1953TIP3   OH2 5864   1.823   1.117   0.463
 1953TIP3    H1 5865   1.793   1.027   0.478
 1953TIP3    H2 5866   1.834   1.123   0.368
 1954TIP3   OH2 5867   0.836   3.094   3.094
 1954TIP3    H1 5868   0.802   3.171   3.141
 1954TIP3    H2 5869   0.918   3.073   3.138
 1955TIP3   OH2 5870   4.098   1.480   3.087
 1955TIP3    H1 5871   4.032   1.533   3.132
 1955TIP3    H2 5872   4.182   1.513   3.120
 1956TIP3   OH2 5873   3.941   5.816   2.177
 1956TIP3    H1 5874   3.907   5.753   2.114
 1956TIP3    H2 5875   3.949   5.897   2.128
 1957TIP3   OH2 5876   2.615   4.312   0.970
 1957TIP3    H1 5877   2.548   4.289   0.907
 1957TIP3    H2 5878   2.672   4.373   0.923
 1958TIP3   OH2 5879   2.082   0.744   3.819
 1958TIP3    H1 5880   2.109   0.658   3.851
 1958TIP3    H2 5881   2.145   0.765   3.750
 1959TIP3   OH2 5882   2.771   0.183   5.211
 1959TIP3    H1 5883   2.712   0.241   5.260
 1959TIP3    H2 5884   2.732   0.175   5.125
 1960TIP3   OH2 5885   3.905   5.186   0.846
 1960TIP3    H1 5886   3.851   5.154   0.919
 1960TIP3    H2 5887   3.956   5.257   0.885
 1961TIP3   OH2 5888   2.519   5.127   5.089
 1961TIP3    H1 5889   2.540   5.210   5.132
 1961TIP3    H2 5890   2.590   5.068   5.113
 1962TIP3   OH2 5891   2.485   3.205   3.992
 1962TIP3    H1 5892   2.436   3.285   4.012
 1962TIP3    H2 5893   2.544   3.193   4.066
 1963TIP3   OH2 5894   1.375   0.074   3.338
 1963TIP3    H1 5895   1.310   0.108   3.401
 1963TIP3    H2 5896   1.416   0.001   3.384
 1964TIP3   OH2 5897   1.590   4.480   0.570
 1964TIP3    H1 5898   1.524   4.463   0.502
 1964TIP3    H2 5899   1.674   4.463   0.527
 1965TIP3   OH2 5900   2.607   0.326   4.496
 1965TIP3    H1 5901   2.537   0.329   4.562
 1965TIP3    H2 5902   2.686   0.307   4.547
 1966TIP3   OH2 5903   5.157   3.143   2.619
 1966TIP3    H1 5904   5.077   3.096   2.642
 1966TIP3    H2 5905   5.200   3.087   2.554
 1967TIP3   OH2 5906   2.771   5.068   1.620
 1967TIP3    H1 5907   2.744   5.042   1.532
 1967TIP3    H2 5908   2.798   5.159   1.611
 1968TIP3   OH2 5909   3.536   2.272   3.264
 1968TIP3    H1 5910   3.445   2.291   3.289
 1968TIP3    H2 5911   3.564   2.348   3.213
 1969TIP3   OH2 5912   1.070   4.038   2.206
 1969TIP3    H1 5913   1.095   4.023   2.297
 1969TIP3    H2 5914   1.110   3.965   2.158
 1970TIP3   OH2 5915   6.270   4.112   4.844
 1970TIP3    H1 5916   6.185   4.068   4.843
 1970TIP3    H2 5917   6.253   4.196   4.886
 1971TIP3   OH2 5918   4.018   2.720   1.325
 1971TIP3    H1 5919   3.922   2.722   1.319
 1971TIP3    H2 5920   4.042   2.811   1.339
 1972TIP3   OH2 5921   0.594   5.924   1.705
 1972TIP3    H1 5922   0.652   5.859   1.746
 1972TIP3    H2 5923   0.514   5.876   1.686
 1973TIP3   OH2 5924   3.148   4.415   2.701
 1973TIP3    H1 5925   3.150   4.329   2.658
 1973TIP3    H2 5926   3.187   4.474   2.637
 1974TIP3   OH2 5927   1.990   0.956   1.474
 1974TIP3    H1 5928   2.052   1.015   1.430
 1974TIP3    H2 5929   1.990   0.985   1.565
 1975TIP3   OH2 5930   0.054   3.467   4.366
 1975TIP3    H1 5931   0.049   3.431   4.455
 1975TIP3    H2 5932   0.029   3.394   4.310
 1976TIP3   OH2 5933   0.225   3.356   3.773
 1976TIP3    H1 5934   0.149   3.346   3.716
 1976TIP3    H2 5935   0.217   3.285   3.837
 1977TIP3   OH2 5936   2.613   4.158   0.339
 1977TIP3    H1 5937   2.649   4.246   0.351
 1977TIP3    H2 5938   2.587   4.130   0.427
 1978TIP3   OH2 5939   5.405   5.133   1.599
 1978TIP3    H1 5940   5.494   5.133   1.636
 1978TIP3    H2 5941   5.398   5.216   1.553
 1979TIP3   OH2 5942   2.713   3.738   3.512
 1979TIP3    H1 5943   2.624   3.742   3.476
 1979TIP3    H2 5944   2.756   3.669   3.461
 1980TIP3   OH2 5945   5.958   1.067   4.012
 1980TIP3    H1 5946   5.955   1.148   4.064
 1980TIP3    H2 5947   5.961   0.997   4.077
 1981TIP3   OH2 5948   5.870   1.895   3.142
 1981TIP3    H1 5949   5.850   1.923   3.232
 1981TIP3    H2 5950   5.905   1.973   3.100
 1982TIP3   OH2 5951   3.315   4.034   1.310
 1982TIP3    H1 5952   3.244   3.974   1.335
 1982TIP3    H2 5953   3.290   4.069   1.225
 1983TIP3   OH2 5954   0.670   2.269   4.869
 1983TIP3    H1 5955   0.605   2.293   4.803
 1983TIP3    H2 5956   0.752   2.261   4.820
 1984TIP3   OH2 5957   4.530   5.319   2.123
 1984TIP3    H1 5958   4.536   5.225   2.102
 1984TIP3    H2 5959   4.481   5.356   2.050
 1985TIP3   OH2 5960   2.962   3.844   3.024
 1985TIP3    H1 5961   2.948   3.938   3.014
 1985TIP3    H2 5962   3.057   3.833   3.017
 1986TIP3   OH2 5963   6.268   0.650   0.119
 1986TIP3    H1 5964   6.233   0.618   0.036
 1986TIP3    H2 5965   6.222   0.733   0.134
 1987TIP3   OH2 5966   0.829   0.466   2.673
 1987TIP3    H1 5967   0.740   0.462   2.639
 1987TIP3    H2 5968   0.834   0.396   2.737
 1988TIP3   OH2 5969   0.060   4.479   1.332
 1988TIP3    H1 5970   0.128   4.420   1.365
 1988TIP3    H2 5971  -0.009   4.477   1.398
 1989TIP3   OH2 5972   2.023   4.010   3.669
 1989TIP3    H1 5973   2.022   4.038   3.761
 1989TIP3    H2 5974   2.107   4.043   3.636
 1990TIP3   OH2 5975   4.262   5.173   4.107
 1990TIP3    H1 5976   4.349   5.136   4.094
 1990TIP3    H2 5977   4.277   5.252   4.159
 1991TIP3   OH2 5978   2.436   1.298   3.435
 1991TIP3    H1 5979   2.343   1.288   3.413
 1991TIP3    H2 5980   2.462   1.212   3.467
 1992TIP3   OH2 5981   4.440   2.904   3.864
 1992TIP3    H1 5982   4.441   2.966   3.790
 1992TIP3    H2 5983   4.429   2.818   3.824
 1993TIP3   OH2 5984   5.622   0.359   1.743
 1993TIP3    H1 5985   5.533   0.361   1.706
 1993TIP3    H2 5986   5.677   0.395   1.674
 1994TIP3   OH2 5987   3.874   4.293   1.937
 1994TIP3    H1 5988   3.928   4.358   1.981
 1994TIP3    H2 5989   3.903   4.295   1.846
 1995TIP3   OH2 5990   3.098   4.859   4.897
 1995TIP3    H1 5991   3.120   4.843   4.988
 1995TIP3    H2 5992   3.025   4.800   4.879
 1996TIP3   OH2 5993   0.508   4.450   1.501
 1996TIP3    H1 5994   0.541   4.495   1.423
 1996TIP3    H2 5995   0.568   4.378   1.515
 1997TIP3   OH2 5996   2.366   5.918   4.858
 1997TIP3    H1 5997   2.421   5.950   4.787
 1997TIP3    H2 5998   2.317   5.845   4.820
 1998TIP3   OH2 5999   5.867   2.402   4.978
 1998TIP3    H1 6000   5.841   2.342   5.048
 1998TIP3    H2 6001   5.802   2.472   4.982
 1999TIP3   OH2 6002   3.662   1.844   1.101
 1999TIP3    H1 6003   3.614   1.784   1.044
 1999TIP3    H2 6004   3.731   1.790   1.140
 2000TIP3   OH2 6005   0.725   2.322   4.125
 2000TIP3    H1 6006   0.666   2.354   4.193
 2000TIP3    H2 6007   0.811   2.356   4.149
 2001TIP3   OH2 6008   3.989   3.946   3.795
 2001TIP3    H1 6009   4.022   3.975   3.880
 2001TIP3    H2 6010   3.994   4.023   3.739
 2002TIP3   OH2 6011   2.239   5.233   1.747
 2002TIP3    H1 6012   2.181   5.232   1.670
 2002TIP3    H2 6013   2.287   5.151   1.742
 2003TIP3   OH2 6014   3.438   4.298   3.602
 2003TIP3    H1 6015   3.489   4.258   3.672
 2003TIP3    H2 6016   3.410   4.382   3.639
 2004TIP3   OH2 6017   4.455   0.132   0.275
 2004TIP3    H1 6018   4.407   0.163   0.198
 2004TIP3    H2 6019   4.527   0.081   0.240
 2005TIP3   OH2 6020   0.622   3.625   2.910
 2005TIP3    H1 6021   0.700   3.669   2.945
 2005TIP3    H2 6022   0.550   3.659   2.964
 2006TIP3   OH2 6023   5.173   0.156   2.035
 2006TIP3    H1 6024   5.194   0.203   1.955
 2006TIP3    H2 6025   5.082   0.179   2.053
 2007TIP3   OH2 6026   0.166   0.907   3.817
 2007TIP3    H1 6027   0.127   0.977   3.765
 2007TIP3    H2 6028   0.181   0.836   3.755
 2008TIP3   OH2 6029   5.320   2.990   0.774
 2008TIP3    H1 6030   5.266   3.036   0.838
 2008TIP3    H2 6031   5.285   2.900   0.774
 2009TIP3   OH2 6032   3.703   4.011   5.033
 2009TIP3    H1 6033   3.786   4.058   5.033
 2009TIP3    H2 6034   3.715   3.941   5.096
 2010TIP3   OH2 6035   5.066   2.704   5.123
 2010TIP3    H1 6036   5.093   2.694   5.214
 2010TIP3    H2 6037   4.997   2.639   5.110
 2011TIP3   OH2 6038   0.728   0.699   3.540
 2011TIP3    H1 6039   0.792   0.752   3.587
 2011TIP3    H2 6040   0.656   0.760   3.521
 2012TIP3   OH2 6041   5.782   0.469   4.058
 2012TIP3    H1 6042   5.700   0.433   4.024
 2012TIP3    H2 6043   5.778   0.562   4.038
 2013TIP3   OH2 6044   3.069   4.840   2.014
 2013TIP3    H1 6045   3.089   4.860   1.923
 2013TIP3    H2 6046   3.148   4.798   2.048
 2014TIP3   OH2 6047   4.868   1.924   2.072
 2014TIP3    H1 6048   4.790   1.938   2.126
 2014TIP3    H2 6049   4.872   2.001   2.015
 2015TIP3   OH2 6050   3.671   5.391   2.068
 2015TIP3    H1 6051   3.581   5.412   2.094
 2015TIP3    H2 6052   3.670   5.298   2.048
 2016TIP3   OH2 6053   5.087   1.402   4.394
 2016TIP3    H1 6054   5.081   1.475   4.455
 2016TIP3    H2 6055   5.060   1.440   4.310
 2017TIP3   OH2 6056   0.088   4.215   1.961
 2017TIP3    H1 6057   0.057   4.170   2.040
 2017TIP3    H2 6058   0.106   4.304   1.990
 2018TIP3   OH2 6059   4.206   2.843   4.885
 2018TIP3    H1 6060   4.138   2.877   4.828
 2018TIP3    H2 6061   4.286   2.886   4.856
 2019TIP3   OH2 6062   1.698   1.492   1.913
 2019TIP3    H1 6063   1.620   1.547   1.921
 2019TIP3    H2 6064   1.668   1.413   1.868
 2020TIP3   OH2 6065   2.893   0.845   1.463
 2020TIP3    H1 6066   2.858   0.756   1.472
 2020TIP3    H2 6067   2.988   0.834   1.463
 2021TIP3   OH2 6068   1.411   5.891   3.602
 2021TIP3    H1 6069   1.341   5.864   3.542
 2021TIP3    H2 6070   1.389   5.848   3.684
 2022TIP3   OH2 6071   1.819   2.867   4.658
 2022TIP3    H1 6072   1.874   2.916   4.597
 2022TIP3    H2 6073   1.876   2.796   4.689
 2023TIP3   OH2 6074   0.780   2.915   4.430
 2023TIP3    H1 6075   0.799   3.004   4.401
 2023TIP3    H2 6076   0.711   2.926   4.496
 2024TIP3   OH2 6077   2.847   5.199   0.263
 2024TIP3    H1 6078   2.849   5.204   0.359
 2024TIP3    H2 6079   2.868   5.107   0.244
 2025TIP3   OH2 6080   3.144   4.768   0.563
 2025TIP3    H1 6081   3.187   4.850   0.588
 2025TIP3    H2 6082   3.191   4.700   0.612
 2026TIP3   OH2 6083   0.177   3.007   4.706
 2026TIP3    H1 6084   0.100   3.016   4.762
 2026TIP3    H2 6085   0.147   3.036   4.620
 2027TIP3   OH2 6086   3.590   0.457   0.648
 2027TIP3    H1 6087   3.494   0.457   0.640
 2027TIP3    H2 6088   3.606   0.413   0.732
 2028TIP3   OH2 6089   6.056   5.485   5.091
 2028TIP3    H1 6090   6.092   5.405   5.129
 2028TIP3    H2 6091   5.983   5.455   5.037
 2029TIP3   OH2 6092   5.943   5.759   5.183
 2029TIP3    H1 6093   5.924   5.775   5.276
 2029TIP3    H2 6094   5.970   5.667   5.180
 2030TIP3   OH2 6095   3.413   3.006   0.870
 2030TIP3    H1 6096   3.326   2.988   0.834
 2030TIP3    H2 6097   3.430   3.097   0.846
 2031TIP3   OH2 6098   5.865   3.543   4.454
 2031TIP3    H1 6099   5.848   3.449   4.459
 2031TIP3    H2 6100   5.949   3.555   4.499
 2032TIP3   OH2 6101   1.665   5.105   1.295
 2032TIP3    H1 6102   1.591   5.154   1.331
 2032TIP3    H2 6103   1.734   5.171   1.283
 2033TIP3   OH2 6104   3.294   1.867   0.822
 2033TIP3    H1 6105   3.327   1.943   0.871
 2033TIP3    H2 6106   3.242   1.819   0.887
 2034TIP3   OH2 6107   0.444   5.688   4.745
 2034TIP3    H1 6108   0.365   5.709   4.794
 2034TIP3    H2 6109   0.413   5.661   4.658
 2035TIP3   OH2 6110   3.746   0.761   1.893
 2035TIP3    H1 6111   3.756   0.782   1.986
 2035TIP3    H2 6112   3.798   0.828   1.849
 2036TIP3   OH2 6113   2.037   2.917   0.256
 2036TIP3    H1 6114   2.106   2.975   0.225
 2036TIP3    H2 6115   1.963   2.933   0.197
 2037TIP3   OH2 6116   3.625   5.490   2.493
 2037TIP3    H1 6117   3.628   5.585   2.490
 2037TIP3    H2 6118   3.604   5.469   2.584
 2038TIP3   OH2 6119   0.431   2.356   3.864
 2038TIP3    H1 6120   0.343   2.358   3.900
 2038TIP3    H2 6121   0.441   2.440   3.819
 2039TIP3   OH2 6122   0.771   0.720   2.780
 2039TIP3    H1 6123   0.859   0.712   2.816
 2039TIP3    H2 6124   0.773   0.666   2.700
 2040TIP3   OH2 6125   0.175   1.549   3.790
 2040TIP3    H1 6126   0.197   1.524   3.879
 2040TIP3    H2 6127   0.158   1.643   3.795
 2041TIP3   OH2 6128   4.277   3.709   3.202
 2041TIP3    H1 6129   4.222   3.689   3.126
 2041TIP3    H2 6130   4.315   3.794   3.182
 2042TIP3   OH2 6131   5.847   2.545   0.356
 2042TIP3    H1 6132   5.926   2.545   0.302
 2042TIP3    H2 6133   5.826   2.452   0.368
 2043TIP3   OH2 6134   4.651   2.768   0.501
 2043TIP3    H1 6135   4.719   2.708   0.471
 2043TIP3    H2 6136   4.667   2.849   0.454
 2044TIP3   OH2 6137   4.917   3.511   1.859
 2044TIP3    H1 6138   4.926   3.600   1.824
 2044TIP3    H2 6139   4.876   3.461   1.789
 2045TIP3   OH2 6140   2.842   4.647   3.078
 2045TIP3    H1 6141   2.875   4.577   3.022
 2045TIP3    H2 6142   2.892   4.724   3.051
 2046TIP3   OH2 6143   3.789   2.345   0.517
 2046TIP3    H1 6144   3.738   2.424   0.499
 2046TIP3    H2 6145   3.813   2.353   0.609
 2047TIP3   OH2 6146   3.954   5.512   1.373
 2047TIP3    H1 6147   3.944   5.585   1.434
 2047TIP3    H2 6148   3.889   5.528   1.305
 2048TIP3   OH2 6149   4.092   3.971   2.095
 2048TIP3    H1 6150   4.140   4.002   2.018
 2048TIP3    H2 6151   4.135   4.013   2.169
 2049TIP3   OH2 6152   2.335   0.486   1.433
 2049TIP3    H1 6153   2.428   0.463   1.422
 2049TIP3    H2 6154   2.288   0.406   1.410
 2050TIP3   OH2 6155   4.668   1.378   1.163
 2050TIP3    H1 6156   4.648   1.296   1.117
 2050TIP3    H2 6157   4.753   1.405   1.129
 2051TIP3   OH2 6158   6.231   4.270   4.042
 2051TIP3    H1 6159   6.273   4.186   4.062
 2051TIP3    H2 6160   6.286   4.335   4.085
 2052TIP3   OH2 6161   1.927   2.175   3.478
 2052TIP3    H1 6162   1.858   2.136   3.532
 2052TIP3    H2 6163   1.998   2.110   3.479
 2053TIP3   OH2 6164   1.417   4.189   0.627
 2053TIP3    H1 6165   1.373   4.106   0.642
 2053TIP3    H2 6166   1.451   4.183   0.538
 2054TIP3   OH2 6167   0.036   1.095   1.082
 2054TIP3    H1 6168  -0.009   1.016   1.113
 2054TIP3    H2 6169  -0.014   1.167   1.121
 2055TIP3   OH2 6170   3.578   2.322   1.785
 2055TIP3    H1 6171   3.519   2.355   1.852
 2055TIP3    H2 6172   3.620   2.401   1.750
 2056TIP3   OH2 6173   6.094   5.355   3.794
 2056TIP3    H1 6174   6.034   5.337   3.722
 2056TIP3    H2 6175   6.113   5.269   3.832
 2057TIP3   OH2 6176   1.481   5.662   4.147
 2057TIP3    H1 6177   1.438   5.727   4.203
 2057TIP3    H2 6178   1.476   5.700   4.059
 2058TIP3   OH2 6179   2.969   1.710   4.315
 2058TIP3    H1 6180   3.054   1.735   4.280
 2058TIP3    H2 6181   2.950   1.626   4.274
 2059TIP3   OH2 6182   1.212   3.232   1.991
 2059TIP3    H1 6183   1.249   3.272   2.070
 2059TIP3    H2 6184   1.118   3.248   1.998
 2060TIP3   OH2 6185   4.068   3.569   4.198
 2060TIP3    H1 6186   3.988   3.568   4.146
 2060TIP3    H2 6187   4.065   3.488   4.249
 2061TIP3   OH2 6188   3.118   2.820   3.407
 2061TIP3    H1 6189   3.031   2.787   3.387
 2061TIP3    H2 6190   3.129   2.805   3.501
 2062TIP3   OH2 6191   4.142   0.472   2.058
 2062TIP3    H1 6192   4.091   0.398   2.024
 2062TIP3    H2 6193   4.087   0.508   2.128
 2063TIP3   OH2 6194   2.198   2.624   4.358
 2063TIP3    H1 6195   2.147   2.618   4.277
 2063TIP3    H2 6196   2.274   2.567   4.342
 2064TIP3   OH2 6197   0.922   2.360   0.424
 2064TIP3    H1 6198   0.927   2.441   0.475
 2064TIP3    H2 6199   0.853   2.309   0.466
 2065TIP3   OH2 6200   4.186   2.466   2.559
 2065TIP3    H1 6201   4.097   2.431   2.559
 2065TIP3    H2 6202   4.238   2.403   2.609
 2066TIP3   OH2 6203   5.402   5.002   4.987
 2066TIP3    H1 6204   5.371   5.052   5.062
 2066TIP3    H2 6205   5.492   5.032   4.974
 2067TIP3   OH2 6206   3.210   0.840   3.890
 2067TIP3    H1 6207   3.222   0.923   3.935
 2067TIP3    H2 6208   3.269   0.845   3.815
 2068TIP3   OH2 6209   4.812   4.895   2.504
 2068TIP3    H1 6210   4.736   4.946   2.473
 2068TIP3    H2 6211   4.791   4.805   2.483
 2069TIP3   OH2 6212   1.042   3.265   0.246
 2069TIP3    H1 6213   1.052   3.360   0.246
 2069TIP3    H2 6214   0.957   3.250   0.204
 2070TIP3   OH2 6215   6.267   4.401   1.561
 2070TIP3    H1 6216   6.212   4.459   1.613
 2070TIP3    H2 6217   6.211   4.325   1.542
 2071TIP3   OH2 6218   5.197   2.747   4.269
 2071TIP3    H1 6219   5.105   2.744   4.244
 2071TIP3    H2 6220   5.197   2.734   4.364
 2072TIP3   OH2 6221   4.664   0.981   4.222
 2072TIP3    H1 6222   4.700   0.900   4.187
 2072TIP3    H2 6223   4.738   1.023   4.267
 2073TIP3   OH2 6224   1.734   3.437   0.928
 2073TIP3    H1 6225   1.821   3.443   0.966
 2073TIP3    H2 6226   1.722   3.343   0.911
 2074TIP3   OH2 6227   3.135   0.589   0.352
 2074TIP3    H1 6228   3.075   0.592   0.426
 2074TIP3    H2 6229   3.144   0.680   0.323
 2075TIP3   OH2 6230   2.305   4.040   4.447
 2075TIP3    H1 6231   2.372   3.983   4.409
 2075TIP3    H2 6232   2.350   4.089   4.515
 2076TIP3   OH2 6233   2.987   0.900   0.837
 2076TIP3    H1 6234   2.898   0.936   0.838
 2076TIP3    H2 6235   3.015   0.906   0.746
 2077TIP3   OH2 6236   0.607   3.014   1.464
 2077TIP3    H1 6237   0.696   3.046   1.450
 2077TIP3    H2 6238   0.561   3.036   1.382
 2078TIP3   OH2 6239   2.358   4.804   3.468
 2078TIP3    H1 6240   2.343   4.797   3.374
 2078TIP3    H2 6241   2.330   4.719   3.503
 2079TIP3   OH2 6242   1.881   0.301   0.382
 2079TIP3    H1 6243   1.912   0.355   0.455
 2079TIP3    H2 6244   1.920   0.342   0.305
 2080TIP3   OH2 6245   2.203   2.898   1.485
 2080TIP3    H1 6246   2.215   2.858   1.399
 2080TIP3    H2 6247   2.204   2.824   1.546
 2081TIP3   OH2 6248   4.293   5.519   3.928
 2081TIP3    H1 6249   4.218   5.531   3.986
 2081TIP3    H2 6250   4.255   5.511   3.840
 2082TIP3   OH2 6251   3.975   0.501   0.403
 2082TIP3    H1 6252   4.070   0.517   0.405
 2082TIP3    H2 6253   3.966   0.418   0.357
 2083TIP3   OH2 6254   2.934   5.388   4.175
 2083TIP3    H1 6255   2.905   5.314   4.228
 2083TIP3    H2 6256   2.855   5.416   4.128
 2084TIP3   OH2 6257   2.388   1.018   1.346
 2084TIP3    H1 6258   2.409   1.090   1.287
 2084TIP3    H2 6259   2.471   0.971   1.358
 2085TIP3   OH2 6260   2.515   5.319   1.620
 2085TIP3    H1 6261   2.603   5.294   1.592
 2085TIP3    H2 6262   2.460   5.299   1.544
 2086TIP3   OH2 6263   1.603   2.441   3.742
 2086TIP3    H1 6264   1.539   2.433   3.812
 2086TIP3    H2 6265   1.647   2.524   3.759
 2087TIP3   OH2 6266   3.341   3.529   1.240
 2087TIP3    H1 6267   3.254   3.564   1.223
 2087TIP3    H2 6268   3.400   3.602   1.223
 2088TIP3   OH2 6269   4.082   5.429   0.257
 2088TIP3    H1 6270   4.169   5.439   0.217
 2088TIP3    H2 6271   4.084   5.487   0.333
 2089TIP3   OH2 6272   1.714   5.595   1.248
 2089TIP3    H1 6273   1.630   5.630   1.279
 2089TIP3    H2 6274   1.778   5.662   1.270
 2090TIP3   OH2 6275   1.433   3.908   4.678
 2090TIP3    H1 6276   1.415   3.936   4.768
 2090TIP3    H2 6277   1.419   3.813   4.679
 2091TIP3   OH2 6278   3.320   3.175   3.940
 2091TIP3    H1 6279   3.245   3.224   3.905
 2091TIP3    H2 6280   3.388   3.185   3.874
 2092TIP3   OH2 6281   1.208   5.455   2.499
 2092TIP3    H1 6282   1.278   5.391   2.502
 2092TIP3    H2 6283   1.250   5.536   2.469
 2093TIP3   OH2 6284   0.896   5.122   1.659
 2093TIP3    H1 6285   0.983   5.160   1.675
 2093TIP3    H2 6286   0.900   5.093   1.567
 2094TIP3   OH2 6287   1.714   4.663   3.016
 2094TIP3    H1 6288   1.622   4.666   2.990
 2094TIP3    H2 6289   1.716   4.607   3.094
 2095TIP3   OH2 6290   4.100   0.557   3.869
 2095TIP3    H1 6291   4.122   0.518   3.953
 2095TIP3    H2 6292   4.071   0.646   3.890
 2096TIP3   OH2 6293   0.187   5.344   2.319
 2096TIP3    H1 6294   0.172   5.411   2.252
 2096TIP3    H2 6295   0.251   5.384   2.379
 2097TIP3   OH2 6296   3.968   0.426   1.723
 2097TIP3    H1 6297   4.017   0.498   1.762
 2097TIP3    H2 6298   4.034   0.370   1.684
 2098TIP3   OH2 6299   1.990   4.279   0.059
 2098TIP3    H1 6300   1.918   4.225   0.026
 2098TIP3    H2 6301   2.022   4.326  -0.018
 2099TIP3   OH2 6302   1.841   4.124   3.482
 2099TIP3    H1 6303   1.862   4.208   3.442
 2099TIP3    H2 6304   1.922   4.096   3.525
 2100TIP3   OH2 6305   3.608   2.973   4.036
 2100TIP3    H1 6306   3.527   3.016   4.065
 2100TIP3    H2 6307   3.674   3.041   4.042
 2101TIP3   OH2 6308   2.669   2.122  -0.029
 2101TIP3    H1 6309   2.696   2.149   0.060
 2101TIP3    H2 6310   2.732   2.055  -0.053
 2102TIP3   OH2 6311   2.643   0.170   0.304
 2102TIP3    H1 6312   2.591   0.152   0.225
 2102TIP3    H2 6313   2.732   0.144   0.281
 2103TIP3   OH2 6314   3.691   5.876   4.553
 2103TIP3    H1 6315   3.627   5.828   4.606
 2103TIP3    H2 6316   3.690   5.965   4.589
 2104TIP3   OH2 6317   0.658   0.567   0.434
 2104TIP3    H1 6318   0.654   0.504   0.506
 2104TIP3    H2 6319   0.641   0.515   0.355
 2105TIP3   OH2 6320   4.591   2.361   1.832
 2105TIP3    H1 6321   4.654   2.369   1.904
 2105TIP3    H2 6322   4.527   2.297   1.864
 2106TIP3   OH2 6323   5.078   0.986   3.499
 2106TIP3    H1 6324   4.996   0.942   3.521
 2106TIP3    H2 6325   5.123   0.997   3.583
 2107TIP3   OH2 6326   3.723   2.859   1.229
 2107TIP3    H1 6327   3.774   2.935   1.256
 2107TIP3    H2 6328   3.651   2.895   1.177
 2108TIP3   OH2 6329   2.254   0.469   3.632
 2108TIP3    H1 6330   2.284   0.560   3.632
 2108TIP3    H2 6331   2.255   0.444   3.724
 2109TIP3   OH2 6332   4.120   2.896   0.238
 2109TIP3    H1 6333   4.197   2.854   0.276
 2109TIP3    H2 6334   4.065   2.917   0.314
 2110TIP3   OH2 6335   2.561   0.052   1.094
 2110TIP3    H1 6336   2.633   0.111   1.070
 2110TIP3    H2 6337   2.568  -0.020   1.032
 2111TIP3   OH2 6338   6.073   5.961   1.337
 2111TIP3    H1 6339   6.136   5.930   1.273
 2111TIP3    H2 6340   6.125   5.977   1.416
 2112TIP3   OH2 6341   4.898   3.120   3.652
 2112TIP3    H1 6342   4.847   3.040   3.665
 2112TIP3    H2 6343   4.860   3.160   3.574
 2113TIP3   OH2 6344   2.651   1.593   2.346
 2113TIP3    H1 6345   2.621   1.586   2.436
 2113TIP3    H2 6346   2.729   1.648   2.351
 2114TIP3   OH2 6347   3.513   4.282   1.189
 2114TIP3    H1 6348   3.606   4.263   1.181
 2114TIP3    H2 6349   3.497   4.287   1.283
 2115TIP3   OH2 6350   3.097   5.897   3.478
 2115TIP3    H1 6351   3.185   5.933   3.482
 2115TIP3    H2 6352   3.090   5.842   3.556
 2116TIP3   OH2 6353   6.052   5.572   1.653
 2116TIP3    H1 6354   6.120   5.634   1.628
 2116TIP3    H2 6355   5.977   5.626   1.678
 2117TIP3   OH2 6356   2.335   5.017   2.016
 2117TIP3    H1 6357   2.300   5.101   2.045
 2117TIP3    H2 6358   2.396   5.039   1.947
 2118TIP3   OH2 6359   1.204   5.883   2.382
 2118TIP3    H1 6360   1.269   5.929   2.330
 2118TIP3    H2 6361   1.125   5.884   2.328
 2119TIP3   OH2 6362   5.466   0.751   1.420
 2119TIP3    H1 6363   5.553   0.723   1.447
 2119TIP3    H2 6364   5.451   0.709   1.335
 2120TIP3   OH2 6365   0.463   5.097   2.594
 2120TIP3    H1 6366   0.496   5.178   2.633
 2120TIP3    H2 6367   0.368   5.100   2.610
 2121TIP3   OH2 6368   0.721   4.014   2.005
 2121TIP3    H1 6369   0.771   3.950   1.955
 2121TIP3    H2 6370   0.738   4.097   1.962
 2122TIP3   OH2 6371   3.076   2.541   2.427
 2122TIP3    H1 6372   3.054   2.592   2.505
 2122TIP3    H2 6373   3.030   2.585   2.356
 2123TIP3   OH2 6374   4.150   5.525   3.582
 2123TIP3    H1 6375   4.077   5.587   3.590
 2123TIP3    H2 6376   4.167   5.520   3.488
 2124TIP3   OH2 6377   4.312   2.407   2.264
 2124TIP3    H1 6378   4.219   2.385   2.268
 2124TIP3    H2 6379   4.353   2.346   2.326
 2125TIP3   OH2 6380   5.276   3.161   5.062
 2125TIP3    H1 6381   5.354   3.198   5.103
 2125TIP3    H2 6382   5.251   3.224   4.995
 2126TIP3   OH2 6383   2.985   4.103   2.896
 2126TIP3    H1 6384   3.009   4.078   2.807
 2126TIP3    H2 6385   3.062   4.148   2.930
 2127TIP3   OH2 6386   5.384   3.467   4.891
 2127TIP3    H1 6387   5.324   3.393   4.895
 2127TIP3    H2 6388   5.435   3.451   4.811
 2128TIP3   OH2 6389   5.157   0.312   1.075
 2128TIP3    H1 6390   5.074   0.313   1.122
 2128TIP3    H2 6391   5.204   0.237   1.111
 2129TIP3   OH2 6392   3.437   5.221   2.655
 2129TIP3    H1 6393   3.381   5.182   2.723
 2129TIP3    H2 6394   3.474   5.299   2.696
 2130TIP3   OH2 6395   2.539   0.802   2.451
 2130TIP3    H1 6396   2.623   0.805   2.497
 2130TIP3    H2 6397   2.480   0.854   2.506
 2131TIP3   OH2 6398   2.319   1.703   0.099
 2131TIP3    H1 6399   2.264   1.772   0.136
 2131TIP3    H2 6400   2.334   1.730   0.008
 2132TIP3   OH2 6401   3.327   3.491   5.061
 2132TIP3    H1 6402   3.398   3.493   5.125
 2132TIP3    H2 6403   3.263   3.554   5.094
 2133TIP3   OH2 6404   5.356   0.189   2.490
 2133TIP3    H1 6405   5.327   0.279   2.475
 2133TIP3    H2 6406   5.284   0.149   2.539
 2134TIP3   OH2 6407   4.394   3.632   4.072
 2134TIP3    H1 6408   4.466   3.571   4.091
 2134TIP3    H2 6409   4.438   3.716   4.060
 2135TIP3   OH2 6410   2.208   0.290   3.105
 2135TIP3    H1 6411   2.205   0.275   3.200
 2135TIP3    H2 6412   2.271   0.226   3.073
 2136TIP3   OH2 6413   3.126   5.522   2.490
 2136TIP3    H1 6414   3.050   5.480   2.529
 2136TIP3    H2 6415   3.178   5.553   2.565
 2137TIP3   OH2 6416   4.244   3.347   4.830
 2137TIP3    H1 6417   4.172   3.408   4.846
 2137TIP3    H2 6418   4.250   3.296   4.911
 2138TIP3   OH2 6419   0.308   4.107   4.838
 2138TIP3    H1 6420   0.244   4.103   4.909
 2138TIP3    H2 6421   0.288   4.188   4.791
 2139TIP3   OH2 6422   3.934   5.209   0.487
 2139TIP3    H1 6423   3.883   5.230   0.409
 2139TIP3    H2 6424   3.882   5.245   0.560
 2140TIP3   OH2 6425   4.340   2.974   0.592
 2140TIP3    H1 6426   4.345   2.921   0.513
 2140TIP3    H2 6427   4.251   2.959   0.626
 2141TIP3   OH2 6428   6.033   0.974   0.008
 2141TIP3    H1 6429   6.098   1.036   0.042
 2141TIP3    H2 6430   5.962   1.029  -0.025
 2142TIP3   OH2 6431   4.485   5.125   5.115
 2142TIP3    H1 6432   4.573   5.110   5.150
 2142TIP3    H2 6433   4.470   5.219   5.124
 2143TIP3   OH2 6434   1.892   2.185   1.895
 2143TIP3    H1 6435   1.895   2.091   1.913
 2143TIP3    H2 6436   1.860   2.191   1.805
 2144TIP3   OH2 6437   3.242   4.847   3.886
 2144TIP3    H1 6438   3.242   4.942   3.887
 2144TIP3    H2 6439   3.276   4.822   3.972
 2145TIP3   OH2 6440   0.639   2.049   5.068
 2145TIP3    H1 6441   0.646   2.136   5.030
 2145TIP3    H2 6442   0.547   2.040   5.090
 2146TIP3   OH2 6443   1.563   0.108   3.104
 2146TIP3    H1 6444   1.485   0.107   3.160
 2146TIP3    H2 6445   1.599   0.020   3.110
 2147TIP3   OH2 6446   3.538   3.253   0.836
 2147TIP3    H1 6447   3.515   3.339   0.871
 2147TIP3    H2 6448   3.601   3.217   0.898
 2148TIP3   OH2 6449   4.038   4.639   3.824
 2148TIP3    H1 6450   4.092   4.713   3.797
 2148TIP3    H2 6451   4.006   4.662   3.911
 2149TIP3   OH2 6452   5.943   0.748   4.410
 2149TIP3    H1 6453   5.946   0.669   4.356
 2149TIP3    H2 6454   5.853   0.751   4.444
 2150TIP3   OH2 6455   2.859   3.414   0.555
 2150TIP3    H1 6456   2.851   3.446   0.465
 2150TIP3    H2 6457   2.815   3.480   0.608
 2151TIP3   OH2 6458   3.541   2.043   4.868
 2151TIP3    H1 6459   3.582   1.959   4.844
 2151TIP3    H2 6460   3.498   2.072   4.788
 2152TIP3   OH2 6461   6.270   3.816   4.691
 2152TIP3    H1 6462   6.355   3.814   4.648
 2152TIP3    H2 6463   6.268   3.901   4.737
 2153TIP3   OH2 6464   3.340   2.677   0.995
 2153TIP3    H1 6465   3.292   2.626   1.060
 2153TIP3    H2 6466   3.397   2.734   1.047
 2154TIP3   OH2 6467   2.148   4.254   4.327
 2154TIP3    H1 6468   2.182   4.181   4.379
 2154TIP3    H2 6469   2.218   4.319   4.327
 2155TIP3   OH2 6470   2.585   2.640   4.626
 2155TIP3    H1 6471   2.572   2.733   4.606
 2155TIP3    H2 6472   2.507   2.615   4.676
 2156TIP3   OH2 6473   2.600   4.635   1.863
 2156TIP3    H1 6474   2.672   4.680   1.906
 2156TIP3    H2 6475   2.547   4.705   1.825
 2157TIP3   OH2 6476   5.488   5.922   1.120
 2157TIP3    H1 6477   5.399   5.913   1.152
 2157TIP3    H2 6478   5.488   6.003   1.069
 2158TIP3   OH2 6479   2.934   0.554   4.092
 2158TIP3    H1 6480   3.008   0.614   4.079
 2158TIP3    H2 6481   2.859   0.601   4.055
 2159TIP3   OH2 6482   4.686   4.910   0.987
 2159TIP3    H1 6483   4.699   4.933   0.895
 2159TIP3    H2 6484   4.773   4.922   1.027
 2160TIP3   OH2 6485   5.714   0.241   4.890
 2160TIP3    H1 6486   5.651   0.171   4.906
 2160TIP3    H2 6487   5.702   0.303   4.961
 2161TIP3   OH2 6488   4.930   3.340   2.991
 2161TIP3    H1 6489   4.969   3.416   3.034
 2161TIP3    H2 6490   5.000   3.304   2.937
 2162TIP3   OH2 6491   5.751   4.816   4.540
 2162TIP3    H1 6492   5.815   4.757   4.580
 2162TIP3    H2 6493   5.671   4.803   4.591
 2163TIP3   OH2 6494   5.917   4.602   4.086
 2163TIP3    H1 6495   5.958   4.632   4.005
 2163TIP3    H2 6496   5.886   4.514   4.066
 2164TIP3   OH2 6497   5.844   2.919   4.111
 2164TIP3    H1 6498   5.886   2.954   4.033
 2164TIP3    H2 6499   5.806   2.995   4.155
 2165TIP3   OH2 6500   1.893   5.415   3.072
 2165TIP3    H1 6501   1.968   5.471   3.050
 2165TIP3    H2 6502   1.907   5.335   3.022
 2166TIP3   OH2 6503   0.824   0.445   1.797
 2166TIP3    H1 6504   0.785   0.361   1.822
 2166TIP3    H2 6505   0.896   0.457   1.859
 2167TIP3   OH2 6506   0.683   2.572   1.422
 2167TIP3    H1 6507   0.706   2.637   1.356
 2167TIP3    H2 6508   0.729   2.601   1.501
 2168TIP3   OH2 6509   6.126   5.333   1.785
 2168TIP3    H1 6510   6.204   5.300   1.741
 2168TIP3    H2 6511   6.111   5.419   1.745
 2169TIP3   OH2 6512   4.608   4.479   0.889
 2169TIP3    H1 6513   4.699   4.495   0.866
 2169TIP3    H2 6514   4.560   4.553   0.850
 2170TIP3   OH2 6515   5.427   2.649   4.572
 2170TIP3    H1 6516   5.353   2.614   4.621
 2170TIP3    H2 6517   5.395   2.732   4.536
 2171TIP3   OH2 6518   4.523   0.687   3.741
 2171TIP3    H1 6519   4.438   0.727   3.760
 2171TIP3    H2 6520   4.529   0.613   3.801
 2172TIP3   OH2 6521   5.159   4.277   0.034
 2172TIP3    H1 6522   5.215   4.222  -0.021
 2172TIP3    H2 6523   5.207   4.285   0.116
 2173TIP3   OH2 6524   5.514   2.447   2.913
 2173TIP3    H1 6525   5.458   2.376   2.882
 2173TIP3    H2 6526   5.585   2.403   2.960
 2174TIP3   OH2 6527   6.135   5.271  -0.042
 2174TIP3    H1 6528   6.226   5.263  -0.071
 2174TIP3    H2 6529   6.134   5.349   0.013
 2175TIP3   OH2 6530   0.961   2.460   4.960
 2175TIP3    H1 6531   0.903   2.406   5.013
 2175TIP3    H2 6532   1.042   2.409   4.954
 2176TIP3   OH2 6533   1.519   4.869   1.697
 2176TIP3    H1 6534   1.558   4.788   1.730
 2176TIP3    H2 6535   1.580   4.899   1.629
 2177TIP3   OH2 6536   5.148   2.099   2.531
 2177TIP3    H1 6537   5.235   2.065   2.510
 2177TIP3    H2 6538   5.124   2.054   2.612
 2178TIP3   OH2 6539   3.119   0.779   4.185
 2178TIP3    H1 6540   3.165   0.851   4.143
 2178TIP3    H2 6541   3.053   0.821   4.240
 2179TIP3   OH2 6542   4.783   2.910   3.024
 2179TIP3    H1 6543   4.774   2.844   3.092
 2179TIP3    H2 6544   4.750   2.867   2.945
 2180TIP3   OH2 6545   3.543   4.599   1.366
 2180TIP3    H1 6546   3.520   4.633   1.279
 2180TIP3    H2 6547   3.513   4.508   1.365
 2181TIP3   OH2 6548   4.640   3.547   4.128
 2181TIP3    H1 6549   4.620   3.476   4.190
 2181TIP3    H2 6550   4.716   3.590   4.165
 2182TIP3   OH2 6551   3.631   2.996   1.998
 2182TIP3    H1 6552   3.603   2.983   1.908
 2182TIP3    H2 6553   3.564   2.953   2.051
 2183TIP3   OH2 6554   4.000   0.603   0.715
 2183TIP3    H1 6555   3.950   0.525   0.739
 2183TIP3    H2 6556   3.981   0.617   0.623
 2184TIP3   OH2 6557   3.198   5.314   2.036
 2184TIP3    H1 6558   3.275   5.367   2.059
 2184TIP3    H2 6559   3.130   5.378   2.017
 2185TIP3   OH2 6560   5.211   5.151   1.838
 2185TIP3    H1 6561   5.262   5.210   1.783
 2185TIP3    H2 6562   5.148   5.208   1.882
 2186TIP3   OH2 6563   5.106   0.631   1.963
 2186TIP3    H1 6564   5.044   0.701   1.945
 2186TIP3    H2 6565   5.085   0.602   2.052
 2187TIP3   OH2 6566   0.234   0.618   1.469
 2187TIP3    H1 6567   0.204   0.708   1.458
 2187TIP3    H2 6568   0.273   0.595   1.385
 2188TIP3   OH2 6569   5.619   3.148   3.709
 2188TIP3    H1 6570   5.562   3.203   3.655
 2188TIP3    H2 6571   5.705   3.191   3.703
 2189TIP3   OH2 6572   1.675   0.738   1.602
 2189TIP3    H1 6573   1.600   0.797   1.608
 2189TIP3    H2 6574   1.702   0.743   1.510
 2190TIP3   OH2 6575   4.029   3.531   4.835
 2190TIP3    H1 6576   4.054   3.530   4.743
 2190TIP3    H2 6577   4.036   3.622   4.861
 2191TIP3   OH2 6578   3.081   2.914   2.666
 2191TIP3    H1 6579   3.096   2.819   2.675
 2191TIP3    H2 6580   3.079   2.946   2.756
 2192TIP3   OH2 6581   2.170   1.836   2.584
 2192TIP3    H1 6582   2.074   1.843   2.577
 2192TIP3    H2 6583   2.199   1.828   2.493
 2193TIP3   OH2 6584   2.403   1.806   4.899
 2193TIP3    H1 6585   2.489   1.830   4.864
 2193TIP3    H2 6586   2.345   1.806   4.823
 2194TIP3   OH2 6587   3.320   2.228   0.640
 2194TIP3    H1 6588   3.253   2.234   0.708
 2194TIP3    H2 6589   3.393   2.184   0.684
 2195TIP3   OH2 6590   1.720   5.409   3.598
 2195TIP3    H1 6591   1.730   5.323   3.637
 2195TIP3    H2 6592   1.767   5.403   3.514
 2196TIP3   OH2 6593   5.560   2.771   3.886
 2196TIP3    H1 6594   5.649   2.806   3.879
 2196TIP3    H2 6595   5.519   2.793   3.802
 2197TIP3   OH2 6596   5.055   3.105   4.573
 2197TIP3    H1 6597   5.005   3.168   4.625
 2197TIP3    H2 6598   5.054   3.141   4.484
 2198TIP3   OH2 6599   0.243   0.582   1.164
 2198TIP3    H1 6600   0.169   0.634   1.136
 2198TIP3    H2 6601   0.316   0.644   1.170
 2199TIP3   OH2 6602   6.299   0.215   4.887
 2199TIP3    H1 6603   6.234   0.204   4.817
 2199TIP3    H2 6604   6.274   0.296   4.931
 2200TIP3   OH2 6605   5.147   4.270   4.456
 2200TIP3    H1 6606   5.118   4.354   4.491
 2200TIP3    H2 6607   5.078   4.244   4.395
 2201TIP3   OH2 6608   2.747   3.454   3.186
 2201TIP3    H1 6609   2.749   3.461   3.281
 2201TIP3    H2 6610   2.777   3.540   3.155
 2202TIP3   OH2 6611   2.358   2.096   0.682
 2202TIP3    H1 6612   2.372   2.026   0.746
 2202TIP3    H2 6613   2.424   2.162   0.704
 2203TIP3   OH2 6614   2.754   3.581   2.080
 2203TIP3    H1 6615   2.790   3.594   1.992
 2203TIP3    H2 6616   2.818   3.524   2.124
 2204TIP3   OH2 6617   5.452   2.204   0.756
 2204TIP3    H1 6618   5.515   2.168   0.818
 2204TIP3    H2 6619   5.452   2.143   0.682
 2205TIP3   OH2 6620   3.017   5.786   1.539
 2205TIP3    H1 6621   2.949   5.753   1.599
 2205TIP3    H2 6622   3.051   5.707   1.497
 2206TIP3   OH2 6623   1.552   4.483   3.462
 2206TIP3    H1 6624   1.608   4.471   3.538
 2206TIP3    H2 6625   1.500   4.402   3.457
 2207TIP3   OH2 6626   2.435   3.817   2.377
 2207TIP3    H1 6627   2.477   3.746   2.327
 2207TIP3    H2 6628   2.447   3.792   2.468
 2208TIP3   OH2 6629   5.853   3.839   4.530
 2208TIP3    H1 6630   5.794   3.807   4.598
 2208TIP3    H2 6631   5.878   3.762   4.480
 2209TIP3   OH2 6632   2.696   2.216   3.284
 2209TIP3    H1 6633   2.773   2.226   3.340
 2209TIP3    H2 6634   2.712   2.136   3.234
 2210TIP3   OH2 6635   2.250   3.244   0.484
 2210TIP3    H1 6636   2.180   3.272   0.542
 2210TIP3    H2 6637   2.232   3.151   0.467
 2211TIP3   OH2 6638   2.897   5.740   5.117
 2211TIP3    H1 6639   2.924   5.796   5.044
 2211TIP3    H2 6640   2.802   5.749   5.121
 2212TIP3   OH2 6641   5.155   0.805   2.908
 2212TIP3    H1 6642   5.140   0.889   2.950
 2212TIP3    H2 6643   5.160   0.743   2.981
 2213TIP3   OH2 6644   0.388   2.861   0.039
 2213TIP3    H1 6645   0.384   2.956   0.030
 2213TIP3    H2 6646   0.397   2.846   0.133
 2214TIP3   OH2 6647   1.581   2.032   4.450
 2214TIP3    H1 6648   1.649   2.085   4.492
 2214TIP3    H2 6649   1.625   1.993   4.374
 2215TIP3   OH2 6650   0.878   4.761   0.938
 2215TIP3    H1 6651   0.803   4.802   0.893
 2215TIP3    H2 6652   0.924   4.834   0.979
 2216TIP3   OH2 6653   3.144   3.162   3.701
 2216TIP3    H1 6654   3.150   3.130   3.611
 2216TIP3    H2 6655   3.068   3.117   3.737
 2217TIP3   OH2 6656   3.600   3.120   0.584
 2217TIP3    H1 6657   3.572   3.163   0.665
 2217TIP3    H2 6658   3.519   3.099   0.538
 2218TIP3   OH2 6659   1.317   0.599   1.398
 2218TIP3    H1 6660   1.367   0.554   1.330
 2218TIP3    H2 6661   1.314   0.536   1.470
 2219TIP3   OH2 6662   2.221   1.968   1.104
 2219TIP3    H1 6663   2.248   2.059   1.116
 2219TIP3    H2 6664   2.126   1.970   1.114
 2220TIP3   OH2 6665   4.178   5.680   2.214
 2220TIP3    H1 6666   4.213   5.716   2.132
 2220TIP3    H2 6667   4.085   5.703   2.213
 2221TIP3   OH2 6668   2.134   3.862   4.054
 2221TIP3    H1 6669   2.167   3.861   4.144
 2221TIP3    H2 6670   2.198   3.811   4.004
 2222TIP3   OH2 6671   3.011   2.162   1.586
 2222TIP3    H1 6672   3.104   2.147   1.598
 2222TIP3    H2 6673   2.987   2.226   1.653
 2223TIP3   OH2 6674   4.026   0.045   2.394
 2223TIP3    H1 6675   4.015   0.057   2.488
 2223TIP3    H2 6676   4.026  -0.050   2.382
 2224TIP3   OH2 6677   2.819   4.797   4.347
 2224TIP3    H1 6678   2.880   4.728   4.322
 2224TIP3    H2 6679   2.835   4.867   4.284
 2225TIP3   OH2 6680   2.836   0.703   4.522
 2225TIP3    H1 6681   2.852   0.766   4.453
 2225TIP3    H2 6682   2.771   0.643   4.486
 2226TIP3   OH2 6683   4.358   0.652   2.116
 2226TIP3    H1 6684   4.317   0.714   2.176
 2226TIP3    H2 6685   4.288   0.593   2.090
 2227TIP3   OH2 6686   1.700   2.488   4.623
 2227TIP3    H1 6687   1.793   2.498   4.607
 2227TIP3    H2 6688   1.670   2.575   4.650
 2228TIP3   OH2 6689   1.179   2.990   1.272
 2228TIP3    H1 6690   1.144   2.959   1.355
 2228TIP3    H2 6691   1.157   2.921   1.209
 2229TIP3   OH2 6692   2.234   0.616   4.898
 2229TIP3    H1 6693   2.304   0.581   4.843
 2229TIP3    H2 6694   2.179   0.540   4.917
 2230TIP3   OH2 6695   2.587   3.583   2.931
 2230TIP3    H1 6696   2.644   3.616   3.000
 2230TIP3    H2 6697   2.523   3.653   2.917
 2231TIP3   OH2 6698   3.475   5.352   4.953
 2231TIP3    H1 6699   3.395   5.399   4.977
 2231TIP3    H2 6700   3.474   5.274   5.008
 2232TIP3   OH2 6701   2.429   3.734   1.553
 2232TIP3    H1 6702   2.515   3.761   1.583
 2232TIP3    H2 6703   2.446   3.664   1.491
 2233TIP3   OH2 6704   0.241   4.522   4.315
 2233TIP3    H1 6705   0.171   4.461   4.294
 2233TIP3    H2 6706   0.196   4.597   4.356
 2234TIP3   OH2 6707   1.995   3.604   4.482
 2234TIP3    H1 6708   2.029   3.659   4.412
 2234TIP3    H2 6709   1.929   3.549   4.440
 2235TIP3   OH2 6710   5.898   1.277   3.194
 2235TIP3    H1 6711   5.913   1.207   3.257
 2235TIP3    H2 6712   5.879   1.232   3.112
 2236TIP3   OH2 6713   1.514   4.098   0.970
 2236TIP3    H1 6714   1.521   4.003   0.981
 2236TIP3    H2 6715   1.556   4.115   0.886
 2237TIP3   OH2 6716   3.857   5.335   2.913
 2237TIP3    H1 6717   3.844   5.312   2.821
 2237TIP3    H2 6718   3.826   5.425   2.919
 2238TIP3   OH2 6719   1.291   5.433   4.193
 2238TIP3    H1 6720   1.340   5.351   4.197
 2238TIP3    H2 6721   1.354   5.498   4.160
 2239TIP3   OH2 6722   4.960   2.042   1.041
 2239TIP3    H1 6723   4.909   1.995   0.976
 2239TIP3    H2 6724   4.942   2.135   1.024
 2240TIP3   OH2 6725   3.366   2.084   0.970
 2240TIP3    H1 6726   3.317   2.160   1.004
 2240TIP3    H2 6727   3.457   2.105   0.989
 2241TIP3   OH2 6728   0.683   3.608   4.759
 2241TIP3    H1 6729   0.724   3.527   4.730
 2241TIP3    H2 6730   0.637   3.641   4.681
 2242TIP3   OH2 6731   5.239   3.327   1.757
 2242TIP3    H1 6732   5.257   3.420   1.768
 2242TIP3    H2 6733   5.203   3.299   1.841
 2243TIP3   OH2 6734   4.288   1.112   3.918
 2243TIP3    H1 6735   4.304   1.043   3.982
 2243TIP3    H2 6736   4.301   1.193   3.967
 2244TIP3   OH2 6737   0.576   2.405   4.355
 2244TIP3    H1 6738   0.631   2.480   4.377
 2244TIP3    H2 6739   0.486   2.437   4.366
 2245TIP3   OH2 6740   4.385   0.634   2.702
 2245TIP3    H1 6741   4.320   0.605   2.639
 2245TIP3    H2 6742   4.468   0.601   2.668
 2246TIP3   OH2 6743   2.857   5.592   3.232
 2246TIP3    H1 6744   2.783   5.652   3.229
 2246TIP3    H2 6745   2.822   5.510   3.195
 2247TIP3   OH2 6746   3.136   3.164   4.833
 2247TIP3    H1 6747   3.215   3.217   4.821
 2247TIP3    H2 6748   3.065   3.228   4.838
 2248TIP3   OH2 6749   3.660   3.295   3.633
 2248TIP3    H1 6750   3.699   3.365   3.581
 2248TIP3    H2 6751   3.686   3.314   3.723
 2249TIP3   OH2 6752   1.166   5.596   2.195
 2249TIP3    H1 6753   1.257   5.570   2.179
 2249TIP3    H2 6754   1.170   5.652   2.272
 2250TIP3   OH2 6755   2.747   0.086   4.374
 2250TIP3    H1 6756   2.673   0.144   4.357
 2250TIP3    H2 6757   2.824   0.134   4.341
 2251TIP3   OH2 6758   5.954   1.243   1.718
 2251TIP3    H1 6759   5.977   1.319   1.772
 2251TIP3    H2 6760   5.882   1.275   1.663
 2252TIP3   OH2 6761   4.199   4.042   1.848
 2252TIP3    H1 6762   4.284   4.084   1.833
 2252TIP3    H2 6763   4.154   4.048   1.764
 2253TIP3   OH2 6764   1.597   0.140   1.266
 2253TIP3    H1 6765   1.580   0.133   1.172
 2253TIP3    H2 6766   1.685   0.104   1.277
 2254TIP3   OH2 6767   3.927   5.695   0.974
 2254TIP3    H1 6768   3.883   5.666   1.054
 2254TIP3    H2 6769   3.876   5.770   0.944
 2255TIP3   OH2 6770   0.519   3.373   4.466
 2255TIP3    H1 6771   0.611   3.371   4.437
 2255TIP3    H2 6772   0.493   3.281   4.471
 2256TIP3   OH2 6773   4.402   4.494   1.085
 2256TIP3    H1 6774   4.425   4.462   1.172
 2256TIP3    H2 6775   4.483   4.491   1.035
 2257TIP3   OH2 6776   1.919   0.051   4.172
 2257TIP3    H1 6777   1.849   0.023   4.231
 2257TIP3    H2 6778   1.999   0.015   4.210
 2258TIP3   OH2 6779   3.020   4.333   1.193
 2258TIP3    H1 6780   2.992   4.260   1.138
 2258TIP3    H2 6781   3.113   4.344   1.173
 2259TIP3   OH2 6782   4.936   3.492   0.442
 2259TIP3    H1 6783   4.984   3.575   0.439
 2259TIP3    H2 6784   4.892   3.492   0.527
 2260TIP3   OH2 6785   4.641   2.799   2.754
 2260TIP3    H1 6786   4.661   2.814   2.662
 2260TIP3    H2 6787   4.564   2.854   2.771
 2261TIP3   OH2 6788   1.055   4.162   4.942
 2261TIP3    H1 6789   0.983   4.223   4.923
 2261TIP3    H2 6790   1.059   4.158   5.037
 2262TIP3   OH2 6791   3.156   3.264   2.216
 2262TIP3    H1 6792   3.215   3.334   2.243
 2262TIP3    H2 6793   3.194   3.231   2.134
 2263TIP3   OH2 6794   4.042   1.046   2.928
 2263TIP3    H1 6795   4.052   0.958   2.963
 2263TIP3    H2 6796   4.077   1.103   2.997
 2264TIP3   OH2 6797   2.409   2.777   0.729
 2264TIP3    H1 6798   2.420   2.838   0.657
 2264TIP3    H2 6799   2.431   2.691   0.692
 2265TIP3   OH2 6800   5.899   5.315   1.550
 2265TIP3    H1 6801   5.935   5.240   1.502
 2265TIP3    H2 6802   5.966   5.382   1.543
 2266TIP3   OH2 6803   2.064   1.816   0.693
 2266TIP3    H1 6804   1.973   1.803   0.717
 2266TIP3    H2 6805   2.066   1.809   0.598
 2267TIP3   OH2 6806   5.067   2.044   2.800
 2267TIP3    H1 6807   5.133   2.009   2.861
 2267TIP3    H2 6808   5.050   2.133   2.832
 2268TIP3   OH2 6809   1.866   1.851   1.415
 2268TIP3    H1 6810   1.837   1.795   1.343
 2268TIP3    H2 6811   1.802   1.836   1.485
 2269TIP3   OH2 6812   5.650   3.459   1.774
 2269TIP3    H1 6813   5.663   3.533   1.714
 2269TIP3    H2 6814   5.655   3.381   1.719
 2270TIP3   OH2 6815   3.617   0.598   1.013
 2270TIP3    H1 6816   3.580   0.670   1.064
 2270TIP3    H2 6817   3.609   0.626   0.922
 2271TIP3   OH2 6818   0.916   4.997   3.315
 2271TIP3    H1 6819   0.846   5.030   3.372
 2271TIP3    H2 6820   0.880   5.003   3.227
 2272TIP3   OH2 6821   1.401   5.266   3.173
 2272TIP3    H1 6822   1.396   5.176   3.206
 2272TIP3    H2 6823   1.437   5.316   3.247
 2273TIP3   OH2 6824   2.059   5.542   4.681
 2273TIP3    H1 6825   2.147   5.526   4.714
 2273TIP3    H2 6826   2.018   5.455   4.678
 2274TIP3   OH2 6827   4.018   0.526   4.479
 2274TIP3    H1 6828   4.109   0.555   4.478
 2274TIP3    H2 6829   3.999   0.503   4.388
 2275TIP3   OH2 6830   1.463   3.223   0.772
 2275TIP3    H1 6831   1.533   3.185   0.825
 2275TIP3    H2 6832   1.410   3.148   0.745
 2276TIP3   OH2 6833   1.422   5.430   1.578
 2276TIP3    H1 6834   1.455   5.342   1.564
 2276TIP3    H2 6835   1.341   5.434   1.527
 2277TIP3   OH2 6836   3.869   4.545   4.285
 2277TIP3    H1 6837   3.865   4.620   4.344
 2277TIP3    H2 6838   3.962   4.533   4.268
 2278TIP3   OH2 6839   4.205   5.622   2.618
 2278TIP3    H1 6840   4.231   5.533   2.639
 2278TIP3    H2 6841   4.214   5.671   2.700
 2279TIP3   OH2 6842   1.690   1.922   0.890
 2279TIP3    H1 6843   1.620   1.982   0.863
 2279TIP3    H2 6844   1.738   1.904   0.809
 2280TIP3   OH2 6845   5.073   0.220   0.755
 2280TIP3    H1 6846   5.052   0.131   0.727
 2280TIP3    H2 6847   5.163   0.213   0.788
 2281TIP3   OH2 6848   2.642   0.439   0.973
 2281TIP3    H1 6849   2.689   0.398   0.901
 2281TIP3    H2 6850   2.626   0.529   0.944
 2282TIP3   OH2 6851   5.259   3.866   1.544
 2282TIP3    H1 6852   5.243   3.933   1.477
 2282TIP3    H2 6853   5.341   3.825   1.517
 2283TIP3   OH2 6854   5.252   4.928   3.662
 2283TIP3    H1 6855   5.178   4.867   3.668
 2283TIP3    H2 6856   5.228   4.987   3.590
 2284TIP3   OH2 6857   5.717   2.714   4.268
 2284TIP3    H1 6858   5.771   2.789   4.243
 2284TIP3    H2 6859   5.628   2.740   4.243
 2285TIP3   OH2 6860   2.428   5.731   1.453
 2285TIP3    H1 6861   2.434   5.648   1.406
 2285TIP3    H2 6862   2.364   5.715   1.522
 2286TIP3   OH2 6863   4.607   3.332   1.425
 2286TIP3    H1 6864   4.673   3.265   1.444
 2286TIP3    H2 6865   4.648   3.388   1.359
 2287TIP3   OH2 6866   5.782   0.552   4.909
 2287TIP3    H1 6867   5.708   0.534   4.965
 2287TIP3    H2 6868   5.769   0.643   4.880
 2288TIP3   OH2 6869   1.127   0.279   3.186
 2288TIP3    H1 6870   1.156   0.236   3.266
 2288TIP3    H2 6871   1.099   0.366   3.215
 2289TIP3   OH2 6872   2.518   2.484   3.686
 2289TIP3    H1 6873   2.516   2.561   3.741
 2289TIP3    H2 6874   2.607   2.448   3.698
 2290TIP3   OH2 6875   1.240   5.525   5.055
 2290TIP3    H1 6876   1.311   5.575   5.017
 2290TIP3    H2 6877   1.193   5.488   4.980
 2291TIP3   OH2 6878   4.252   1.564   2.215
 2291TIP3    H1 6879   4.171   1.611   2.235
 2291TIP3    H2 6880   4.235   1.474   2.243
 2292TIP3   OH2 6881   0.050   1.673   1.269
 2292TIP3    H1 6882   0.002   1.745   1.310
 2292TIP3    H2 6883   0.012   1.667   1.181
 2293TIP3   OH2 6884   4.804   2.463   2.563
 2293TIP3    H1 6885   4.829   2.436   2.474
 2293TIP3    H2 6886   4.714   2.495   2.554
 2294TIP3   OH2 6887   5.723   1.198   1.041
 2294TIP3    H1 6888   5.634   1.163   1.043
 2294TIP3    H2 6889   5.759   1.176   1.127
 2295TIP3   OH2 6890   4.533   5.729   4.971
 2295TIP3    H1 6891   4.591   5.661   5.003
 2295TIP3    H2 6892   4.528   5.714   4.876
 2296TIP3   OH2 6893   5.184   4.309   0.543
 2296TIP3    H1 6894   5.104   4.261   0.527
 2296TIP3    H2 6895   5.185   4.377   0.475
 2297TIP3   OH2 6896   1.065   3.878   3.866
 2297TIP3    H1 6897   0.973   3.853   3.874
 2297TIP3    H2 6898   1.093   3.841   3.782
 2298TIP3   OH2 6899   4.337   3.289   4.477
 2298TIP3    H1 6900   4.368   3.367   4.522
 2298TIP3    H2 6901   4.248   3.311   4.450
 2299TIP3   OH2 6902   0.917   5.096   4.028
 2299TIP3    H1 6903   0.923   5.079   3.935
 2299TIP3    H2 6904   0.944   5.188   4.037
 2300TIP3   OH2 6905   0.064   1.990   2.051
 2300TIP3    H1 6906   0.006   2.062   2.073
 2300TIP3    H2 6907   0.079   1.998   1.957
 2301TIP3   OH2 6908   0.123   5.598   3.281
 2301TIP3    H1 6909   0.115   5.612   3.187
 2301TIP3    H2 6910   0.073   5.518   3.298
 2302TIP3   OH2 6911   3.888   2.705   4.046
 2302TIP3    H1 6912   3.827   2.729   3.976
 2302TIP3    H2 6913   3.885   2.779   4.107
 2303TIP3   OH2 6914   5.925   5.516   3.987
 2303TIP3    H1 6915   5.830   5.525   3.992
 2303TIP3    H2 6916   5.940   5.482   3.898
 2304TIP3   OH2 6917   4.361   0.784   4.748
 2304TIP3    H1 6918   4.433   0.824   4.796
 2304TIP3    H2 6919   4.283   0.831   4.777
 2305TIP3   OH2 6920   5.942   5.028   1.987
 2305TIP3    H1 6921   5.960   4.992   2.074
 2305TIP3    H2 6922   5.852   5.001   1.968
 2306TIP3   OH2 6923   1.225   2.371   4.974
 2306TIP3    H1 6924   1.209   2.278   4.956
 2306TIP3    H2 6925   1.300   2.394   4.919
 2307TIP3   OH2 6926   1.968   4.693   1.997
 2307TIP3    H1 6927   1.960   4.750   2.074
 2307TIP3    H2 6928   2.055   4.654   2.005
 2308TIP3   OH2 6929   0.039   1.955   5.225
 2308TIP3    H1 6930   0.042   1.988   5.135
 2308TIP3    H2 6931   0.067   1.863   5.217
 2309TIP3   OH2 6932   0.279   2.149   5.147
 2309TIP3    H1 6933   0.300   2.058   5.128
 2309TIP3    H2 6934   0.195   2.165   5.103
 2310TIP3   OH2 6935   0.292   1.870   0.160
 2310TIP3    H1 6936   0.316   1.853   0.069
 2310TIP3    H2 6937   0.202   1.840   0.168
 2311TIP3   OH2 6938   1.624   3.007   2.754
 2311TIP3    H1 6939   1.639   3.056   2.673
 2311TIP3    H2 6940   1.564   2.936   2.728
 2312TIP3   OH2 6941   2.274   5.790   3.049
 2312TIP3    H1 6942   2.260   5.885   3.053
 2312TIP3    H2 6943   2.363   5.781   3.013
 2313TIP3   OH2 6944   3.503   1.389   4.993
 2313TIP3    H1 6945   3.567   1.319   4.982
 2313TIP3    H2 6946   3.419   1.344   5.001
 2314TIP3   OH2 6947   6.106   3.993   2.214
 2314TIP3    H1 6948   6.159   4.072   2.218
 2314TIP3    H2 6949   6.080   3.986   2.122
 2315TIP3   OH2 6950   2.542   1.889   2.692
 2315TIP3    H1 6951   2.503   1.946   2.758
 2315TIP3    H2 6952   2.559   1.807   2.738
 2316TIP3   OH2 6953   5.562   1.967   4.191
 2316TIP3    H1 6954   5.630   1.904   4.170
 2316TIP3    H2 6955   5.529   1.996   4.105
 2317TIP3   OH2 6956   4.722   2.947   4.163
 2317TIP3    H1 6957   4.681   3.012   4.106
 2317TIP3    H2 6958   4.748   2.995   4.241
 2318TIP3   OH2 6959   2.520   2.296   0.836
 2318TIP3    H1 6960   2.515   2.289   0.931
 2318TIP3    H2 6961   2.614   2.291   0.816
 2319TIP3   OH2 6962   3.846   4.002   1.957
 2319TIP3    H1 6963   3.903   3.959   2.021
 2319TIP3    H2 6964   3.868   4.095   1.964
 2320TIP3   OH2 6965   5.697   0.835   3.607
 2320TIP3    H1 6966   5.689   0.817   3.701
 2320TIP3    H2 6967   5.781   0.880   3.598
 2321TIP3   OH2 6968   5.040   1.138   5.065
 2321TIP3    H1 6969   5.056   1.161   5.157
 2321TIP3    H2 6970   5.064   1.046   5.059
 2322TIP3   OH2 6971   5.613   3.561   0.843
 2322TIP3    H1 6972   5.690   3.583   0.791
 2322TIP3    H2 6973   5.615   3.623   0.916
 2323TIP3   OH2 6974   3.004   3.708   2.253
 2323TIP3    H1 6975   2.937   3.643   2.232
 2323TIP3    H2 6976   3.044   3.731   2.169
 2324TIP3   OH2 6977   1.227   2.139   2.260
 2324TIP3    H1 6978   1.272   2.186   2.331
 2324TIP3    H2 6979   1.160   2.087   2.304
 2325TIP3   OH2 6980   4.591   1.373   1.960
 2325TIP3    H1 6981   4.629   1.451   1.921
 2325TIP3    H2 6982   4.499   1.395   1.973
 2326TIP3   OH2 6983   4.321   1.689   3.991
 2326TIP3    H1 6984   4.398   1.632   3.987
 2326TIP3    H2 6985   4.251   1.633   4.024
 2327TIP3   OH2 6986   1.069   2.632   3.335
 2327TIP3    H1 6987   1.047   2.662   3.247
 2327TIP3    H2 6988   1.066   2.711   3.389
 2328TIP3   OH2 6989   4.643   5.887   4.228
 2328TIP3    H1 6990   4.699   5.816   4.198
 2328TIP3    H2 6991   4.596   5.850   4.304
 2329TIP3   OH2 6992   1.126   3.968   3.042
 2329TIP3    H1 6993   1.181   3.890   3.029
 2329TIP3    H2 6994   1.187   4.035   3.074
 2330TIP3   OH2 6995   4.648   5.937   2.918
 2330TIP3    H1 6996   4.584   5.891   2.863
 2330TIP3    H2 6997   4.714   5.969   2.857
 2331TIP3   OH2 6998   3.834   2.590   4.573
 2331TIP3    H1 6999   3.836   2.579   4.478
 2331TIP3    H2 7000   3.775   2.664   4.588
 2332TIP3   OH2 7001   4.247   1.952   4.444
 2332TIP3    H1 7002   4.263   1.920   4.533
 2332TIP3    H2 7003   4.246   1.873   4.390
 2333TIP3   OH2 7004   4.884   1.361   3.971
 2333TIP3    H1 7005   4.823   1.371   4.044
 2333TIP3    H2 7006   4.953   1.304   4.005
 2334TIP3   OH2 7007   4.926   2.585   0.439
 2334TIP3    H1 7008   4.911   2.600   0.533
 2334TIP3    H2 7009   4.864   2.517   0.415
 2335TIP3   OH2 7010   0.606   3.670   0.897
 2335TIP3    H1 7011   0.547   3.635   0.831
 2335TIP3    H2 7012   0.552   3.728   0.949
 2336TIP3   OH2 7013   4.682   0.052   0.146
 2336TIP3    H1 7014   4.730   0.076   0.225
 2336TIP3    H2 7015   4.684  -0.044   0.144
 2337TIP3   OH2 7016   1.947   0.580   1.053
 2337TIP3    H1 7017   2.037   0.571   1.082
 2337TIP3    H2 7018   1.925   0.495   1.016
 2338TIP3   OH2 7019   2.341   3.189   3.426
 2338TIP3    H1 7020   2.296   3.152   3.502
 2338TIP3    H2 7021   2.303   3.277   3.416
 2339TIP3   OH2 7022   5.239   0.683   2.655
 2339TIP3    H1 7023   5.323   0.637   2.659
 2339TIP3    H2 7024   5.221   0.709   2.746
 2340TIP3   OH2 7025   3.325   2.112   0.067
 2340TIP3    H1 7026   3.235   2.142   0.057
 2340TIP3    H2 7027   3.318   2.017   0.076
 2341TIP3   OH2 7028  -0.025   3.869   1.157
 2341TIP3    H1 7029  -0.012   3.865   1.063
 2341TIP3    H2 7030   0.060   3.894   1.192
 2342TIP3   OH2 7031   1.526   2.847   1.865
 2342TIP3    H1 7032   1.590   2.918   1.870
 2342TIP3    H2 7033   1.579   2.767   1.869
 2343TIP3   OH2 7034   2.334   2.467   2.030
 2343TIP3    H1 7035   2.342   2.529   2.103
 2343TIP3    H2 7036   2.280   2.397   2.064
 2344TIP3   OH2 7037   1.807   5.708   0.864
 2344TIP3    H1 7038   1.803   5.796   0.902
 2344TIP3    H2 7039   1.851   5.720   0.780
 2345TIP3   OH2 7040   3.800   5.238   1.657
 2345TIP3    H1 7041   3.841   5.286   1.729
 2345TIP3    H2 7042   3.865   5.242   1.586
 2346TIP3   OH2 7043   2.871   3.500   3.430
 2346TIP3    H1 7044   2.888   3.442   3.504
 2346TIP3    H2 7045   2.958   3.526   3.399
 2347TIP3   OH2 7046   6.178   4.846   4.496
 2347TIP3    H1 7047   6.162   4.881   4.584
 2347TIP3    H2 7048   6.104   4.788   4.480
 2348TIP3   OH2 7049   1.511   4.782   4.842
 2348TIP3    H1 7050   1.512   4.725   4.764
 2348TIP3    H2 7051   1.453   4.855   4.817
 2349TIP3   OH2 7052   4.367   4.524   2.394
 2349TIP3    H1 7053   4.315   4.500   2.471
 2349TIP3    H2 7054   4.352   4.453   2.332
 2350TIP3   OH2 7055   3.217   5.570   1.101
 2350TIP3    H1 7056   3.216   5.620   1.019
 2350TIP3    H2 7057   3.125   5.548   1.117
 2351TIP3   OH2 7058   5.599   0.398   2.076
 2351TIP3    H1 7059   5.637   0.432   1.995
 2351TIP3    H2 7060   5.516   0.360   2.050
 2352TIP3   OH2 7061   5.937   5.705   3.651
 2352TIP3    H1 7062   5.896   5.749   3.725
 2352TIP3    H2 7063   5.869   5.648   3.616
 2353TIP3   OH2 7064   6.101   4.979   4.739
 2353TIP3    H1 7065   6.141   4.914   4.797
 2353TIP3    H2 7066   6.105   5.061   4.788
 2354TIP3   OH2 7067   5.265   1.329   4.966
 2354TIP3    H1 7068   5.210   1.377   5.027
 2354TIP3    H2 7069   5.276   1.388   4.891
 2355TIP3   OH2 7070   6.165   0.407   3.025
 2355TIP3    H1 7071   6.108   0.482   3.009
 2355TIP3    H2 7072   6.167   0.398   3.120
 2356TIP3   OH2 7073   1.000   0.855   4.413
 2356TIP3    H1 7074   0.951   0.934   4.389
 2356TIP3    H2 7075   1.089   0.872   4.381
 2357TIP3   OH2 7076   2.670   3.198   4.190
 2357TIP3    H1 7077   2.736   3.140   4.153
 2357TIP3    H2 7078   2.714   3.242   4.263
 2358TIP3   OH2 7079   4.465   2.775   1.124
 2358TIP3    H1 7080   4.442   2.825   1.046
 2358TIP3    H2 7081   4.500   2.841   1.185
 2359TIP3   OH2 7082   1.012   1.288   1.455
 2359TIP3    H1 7083   0.924   1.293   1.492
 2359TIP3    H2 7084   1.009   1.346   1.379
 2360TIP3   OH2 7085   2.992   5.236   3.744
 2360TIP3    H1 7086   2.931   5.222   3.672
 2360TIP3    H2 7087   2.965   5.320   3.782
 2361TIP3   OH2 7088   4.580   5.407   4.114
 2361TIP3    H1 7089   4.551   5.428   4.203
 2361TIP3    H2 7090   4.581   5.491   4.068
 2362TIP3   OH2 7091   4.982   3.730   4.406
 2362TIP3    H1 7092   4.933   3.808   4.432
 2362TIP3    H2 7093   4.997   3.741   4.313
 2363TIP3   OH2 7094   0.531   2.929   2.827
 2363TIP3    H1 7095   0.577   3.013   2.817
 2363TIP3    H2 7096   0.599   2.863   2.825
 2364TIP3   OH2 7097   4.911   1.595   0.889
 2364TIP3    H1 7098   4.840   1.656   0.913
 2364TIP3    H2 7099   4.898   1.578   0.796
 2365TIP3   OH2 7100   3.867   2.407   0.775
 2365TIP3    H1 7101   3.883   2.497   0.746
 2365TIP3    H2 7102   3.942   2.386   0.831
 2366TIP3   OH2 7103   5.294   4.689   1.598
 2366TIP3    H1 7104   5.230   4.724   1.537
 2366TIP3    H2 7105   5.307   4.759   1.662
 2367TIP3   OH2 7106   3.361   1.823   0.194
 2367TIP3    H1 7107   3.406   1.770   0.127
 2367TIP3    H2 7108   3.373   1.774   0.275
 2368TIP3   OH2 7109   1.959   4.040   3.183
 2368TIP3    H1 7110   1.932   4.130   3.200
 2368TIP3    H2 7111   2.049   4.047   3.150
 2369TIP3   OH2 7112   0.070   4.971   2.728
 2369TIP3    H1 7113   0.006   5.001   2.664
 2369TIP3    H2 7114   0.146   4.946   2.675
 2370TIP3   OH2 7115   1.424   2.910   2.131
 2370TIP3    H1 7116   1.477   2.983   2.162
 2370TIP3    H2 7117   1.446   2.902   2.038
 2371TIP3   OH2 7118   3.159   0.485   2.151
 2371TIP3    H1 7119   3.088   0.421   2.163
 2371TIP3    H2 7120   3.196   0.463   2.065
 2372TIP3   OH2 7121   0.325   1.236   1.162
 2372TIP3    H1 7122   0.246   1.277   1.197
 2372TIP3    H2 7123   0.315   1.143   1.181
 2373TIP3   OH2 7124   1.549   2.063   2.070
 2373TIP3    H1 7125   1.626   2.015   2.038
 2373TIP3    H2 7126   1.497   1.996   2.115
 2374TIP3   OH2 7127   1.498   4.623   0.798
 2374TIP3    H1 7128   1.484   4.564   0.871
 2374TIP3    H2 7129   1.550   4.573   0.736
 2375TIP3   OH2 7130   2.987   1.743   2.302
 2375TIP3    H1 7131   3.000   1.710   2.392
 2375TIP3    H2 7132   3.076   1.747   2.266
 2376TIP3   OH2 7133   4.868   4.738   3.608
 2376TIP3    H1 7134   4.859   4.785   3.525
 2376TIP3    H2 7135   4.864   4.806   3.675
 2377TIP3   OH2 7136   5.885   5.688   2.810
 2377TIP3    H1 7137   5.923   5.631   2.878
 2377TIP3    H2 7138   5.957   5.701   2.748
 2378TIP3   OH2 7139   1.875   5.811   1.577
 2378TIP3    H1 7140   1.836   5.833   1.492
 2378TIP3    H2 7141   1.943   5.747   1.557
 2379TIP3   OH2 7142   5.191   5.099   5.157
 2379TIP3    H1 7143   5.143   5.017   5.142
 2379TIP3    H2 7144   5.168   5.153   5.081
 2380TIP3   OH2 7145   2.877   4.237   1.784
 2380TIP3    H1 7146   2.787   4.268   1.780
 2380TIP3    H2 7147   2.930   4.314   1.769
 2381TIP3   OH2 7148   0.151   3.640   0.234
 2381TIP3    H1 7149   0.208   3.580   0.283
 2381TIP3    H2 7150   0.209   3.707   0.200
 2382TIP3   OH2 7151   5.062   5.491   1.708
 2382TIP3    H1 7152   5.050   5.563   1.770
 2382TIP3    H2 7153   4.976   5.450   1.702
 2383TIP3   OH2 7154   2.418   4.161   2.018
 2383TIP3    H1 7155   2.414   4.255   2.035
 2383TIP3    H2 7156   2.482   4.128   2.080
 2384TIP3   OH2 7157   5.906   4.718   0.376
 2384TIP3    H1 7158   5.829   4.664   0.392
 2384TIP3    H2 7159   5.896   4.792   0.435
 2385TIP3   OH2 7160   3.760   5.306   2.333
 2385TIP3    H1 7161   3.753   5.336   2.242
 2385TIP3    H2 7162   3.707   5.367   2.383
 2386TIP3   OH2 7163   0.392   2.381   4.985
 2386TIP3    H1 7164   0.338   2.390   4.907
 2386TIP3    H2 7165   0.381   2.289   5.011
 2387TIP3   OH2 7166   0.386   4.207   1.732
 2387TIP3    H1 7167   0.392   4.116   1.703
 2387TIP3    H2 7168   0.300   4.237   1.701
 2388TIP3   OH2 7169   5.238   3.836   0.746
 2388TIP3    H1 7170   5.323   3.809   0.711
 2388TIP3    H2 7171   5.205   3.900   0.682
 2389TIP3   OH2 7172   6.088   1.833   1.014
 2389TIP3    H1 7173   6.111   1.895   0.945
 2389TIP3    H2 7174   6.011   1.873   1.057
 2390TIP3   OH2 7175   4.576   5.074   3.984
 2390TIP3    H1 7176   4.653   5.113   3.942
 2390TIP3    H2 7177   4.604   5.058   4.074
 2391TIP3   OH2 7178   1.685   2.098   4.877
 2391TIP3    H1 7179   1.665   2.034   4.946
 2391TIP3    H2 7180   1.745   2.052   4.819
 2392TIP3   OH2 7181   1.358   0.762   1.609
 2392TIP3    H1 7182   1.263   0.763   1.623
 2392TIP3    H2 7183   1.369   0.732   1.519
 2393TIP3   OH2 7184   3.126   2.654   4.623
 2393TIP3    H1 7185   3.187   2.620   4.558
 2393TIP3    H2 7186   3.043   2.666   4.575
 2394TIP3   OH2 7187   2.892   4.526   0.903
 2394TIP3    H1 7188   2.810   4.575   0.907
 2394TIP3    H2 7189   2.960   4.592   0.887
 2395TIP3   OH2 7190   5.027   5.510   2.583
 2395TIP3    H1 7191   5.029   5.441   2.649
 2395TIP3    H2 7192   5.100   5.567   2.605
 2396TIP3   OH2 7193   0.790   2.842   3.414
 2396TIP3    H1 7194   0.882   2.830   3.439
 2396TIP3    H2 7195   0.795   2.891   3.331
 2397TIP3   OH2 7196   1.572   0.677   5.032
 2397TIP3    H1 7197   1.665   0.653   5.037
 2397TIP3    H2 7198   1.569   0.766   5.066
 2398TIP3   OH2 7199   5.105   1.254   4.177
 2398TIP3    H1 7200   5.144   1.332   4.139
 2398TIP3    H2 7201   5.123   1.260   4.270
 2399TIP3   OH2 7202   3.927   3.652   3.841
 2399TIP3    H1 7203   3.897   3.644   3.932
 2399TIP3    H2 7204   3.975   3.735   3.839
 2400TIP3   OH2 7205   5.619   2.379   1.370
 2400TIP3    H1 7206   5.576   2.448   1.320
 2400TIP3    H2 7207   5.710   2.407   1.378
 2401TIP3   OH2 7208   6.042   0.647   1.077
 2401TIP3    H1 7209   6.101   0.721   1.096
 2401TIP3    H2 7210   5.986   0.641   1.154
 2402TIP3   OH2 7211   1.957   1.936   1.118
 2402TIP3    H1 7212   1.913   1.870   1.171
 2402TIP3    H2 7213   1.915   1.932   1.033
 2403TIP3   OH2 7214   4.249   0.546   0.420
 2403TIP3    H1 7215   4.301   0.505   0.351
 2403TIP3    H2 7216   4.293   0.628   0.439
 2404TIP3   OH2 7217   0.588   0.747   0.156
 2404TIP3    H1 7218   0.537   0.683   0.205
 2404TIP3    H2 7219   0.573   0.725   0.065
 2405TIP3   OH2 7220   0.288   2.608   4.453
 2405TIP3    H1 7221   0.277   2.627   4.360
 2405TIP3    H2 7222   0.230   2.534   4.469
 2406TIP3   OH2 7223   1.790   4.478   2.662
 2406TIP3    H1 7224   1.746   4.537   2.600
 2406TIP3    H2 7225   1.870   4.525   2.686
 2407TIP3   OH2 7226   2.507   4.362   4.656
 2407TIP3    H1 7227   2.511   4.362   4.752
 2407TIP3    H2 7228   2.506   4.269   4.632
 2408TIP3   OH2 7229   2.647   4.392   1.732
 2408TIP3    H1 7230   2.612   4.471   1.773
 2408TIP3    H2 7231   2.639   4.408   1.638
 2409TIP3   OH2 7232   4.340   0.054   0.011
 2409TIP3    H1 7233   4.361   0.122  -0.052
 2409TIP3    H2 7234   4.392  -0.022  -0.016
 2410TIP3   OH2 7235   4.105   0.959   1.677
 2410TIP3    H1 7236   4.111   0.944   1.772
 2410TIP3    H2 7237   4.188   1.002   1.655
 2411TIP3   OH2 7238   5.936   2.955   2.007
 2411TIP3    H1 7239   5.891   2.877   2.039
 2411TIP3    H2 7240   5.894   2.974   1.923
 2412TIP3   OH2 7241   1.118   2.376   1.958
 2412TIP3    H1 7242   1.182   2.388   1.887
 2412TIP3    H2 7243   1.163   2.410   2.036
 2413TIP3   OH2 7244   3.580   3.408   4.149
 2413TIP3    H1 7245   3.515   3.450   4.205
 2413TIP3    H2 7246   3.582   3.317   4.179
 2414TIP3   OH2 7247   4.346   4.343   4.467
 2414TIP3    H1 7248   4.421   4.292   4.498
 2414TIP3    H2 7249   4.270   4.287   4.481
 2415TIP3   OH2 7250   4.900   4.491   2.418
 2415TIP3    H1 7251   4.981   4.445   2.442
 2415TIP3    H2 7252   4.862   4.518   2.501
 2416TIP3   OH2 7253   4.649   0.940   1.828
 2416TIP3    H1 7254   4.648   0.865   1.769
 2416TIP3    H2 7255   4.646   0.902   1.915
 2417TIP3   OH2 7256   3.140   4.411   5.029
 2417TIP3    H1 7257   3.151   4.383   5.120
 2417TIP3    H2 7258   3.049   4.390   5.008
 2418TIP3   OH2 7259   0.935   3.494   4.079
 2418TIP3    H1 7260   0.845   3.524   4.062
 2418TIP3    H2 7261   0.966   3.552   4.149
 2419TIP3   OH2 7262   2.485   4.622   4.145
 2419TIP3    H1 7263   2.526   4.658   4.066
 2419TIP3    H2 7264   2.505   4.685   4.213
 2420TIP3   OH2 7265   4.374   3.033   2.204
 2420TIP3    H1 7266   4.326   3.052   2.123
 2420TIP3    H2 7267   4.448   2.979   2.177
 2421TIP3   OH2 7268   2.078   5.632   1.846
 2421TIP3    H1 7269   2.059   5.557   1.902
 2421TIP3    H2 7270   2.043   5.707   1.895
 2422TIP3   OH2 7271   4.254   4.077   1.176
 2422TIP3    H1 7272   4.290   3.991   1.197
 2422TIP3    H2 7273   4.236   4.118   1.261
 2423TIP3   OH2 7274   6.067   3.575   3.003
 2423TIP3    H1 7275   6.076   3.564   2.909
 2423TIP3    H2 7276   6.072   3.669   3.018
 2424TIP3   OH2 7277   5.591   3.928   1.148
 2424TIP3    H1 7278   5.515   3.888   1.190
 2424TIP3    H2 7279   5.554   3.995   1.090
 2425TIP3   OH2 7280   5.259   0.862   4.271
 2425TIP3    H1 7281   5.174   0.899   4.249
 2425TIP3    H2 7282   5.291   0.822   4.190
 2426TIP3   OH2 7283   0.030   0.405   3.594
 2426TIP3    H1 7284   0.095   0.335   3.586
 2426TIP3    H2 7285  -0.041   0.366   3.645
 2427TIP3   OH2 7286   4.334   2.067   4.761
 2427TIP3    H1 7287   4.411   2.102   4.715
 2427TIP3    H2 7288   4.370   2.015   4.833
 2428TIP3   OH2 7289   0.607   0.612   1.645
 2428TIP3    H1 7290   0.632   0.689   1.595
 2428TIP3    H2 7291   0.675   0.603   1.712
 2429TIP3   OH2 7292   3.291   0.467   3.542
 2429TIP3    H1 7293   3.295   0.543   3.484
 2429TIP3    H2 7294   3.209   0.424   3.518
 2430TIP3   OH2 7295   4.419   2.248   2.968
 2430TIP3    H1 7296   4.490   2.235   3.030
 2430TIP3    H2 7297   4.441   2.193   2.893
 2431TIP3   OH2 7298   2.880   1.164   4.534
 2431TIP3    H1 7299   2.946   1.221   4.573
 2431TIP3    H2 7300   2.838   1.219   4.467
 2432TIP3   OH2 7301   4.911   2.753   1.821
 2432TIP3    H1 7302   4.924   2.807   1.900
 2432TIP3    H2 7303   4.922   2.815   1.749
 2433TIP3   OH2 7304   3.195   5.533   4.167
 2433TIP3    H1 7305   3.105   5.512   4.141
 2433TIP3    H2 7306   3.202   5.500   4.256
 2434TIP3   OH2 7307   3.799   0.619   1.422
 2434TIP3    H1 7308   3.712   0.587   1.398
 2434TIP3    H2 7309   3.827   0.561   1.492
 2435TIP3   OH2 7310   5.460   4.081   0.762
 2435TIP3    H1 7311   5.521   4.050   0.829
 2435TIP3    H2 7312   5.468   4.017   0.691
 2436TIP3   OH2 7313   3.221   4.598   4.854
 2436TIP3    H1 7314   3.201   4.520   4.905
 2436TIP3    H2 7315   3.177   4.669   4.900
 2437TIP3   OH2 7316   0.958   3.823   5.199
 2437TIP3    H1 7317   0.927   3.787   5.116
 2437TIP3    H2 7318   0.967   3.916   5.182
 2438TIP3   OH2 7319   5.264   1.595   4.814
 2438TIP3    H1 7320   5.181   1.630   4.847
 2438TIP3    H2 7321   5.302   1.667   4.763
 2439TIP3   OH2 7322   2.699   3.056   2.984
 2439TIP3    H1 7323   2.694   3.027   2.893
 2439TIP3    H2 7324   2.760   2.994   3.025
 2440TIP3   OH2 7325   3.266   1.025   3.461
 2440TIP3    H1 7326   3.267   1.116   3.489
 2440TIP3    H2 7327   3.288   1.028   3.368
 2441TIP3   OH2 7328   5.393   2.240   3.141
 2441TIP3    H1 7329   5.455   2.190   3.088
 2441TIP3    H2 7330   5.446   2.308   3.182
 2442TIP3   OH2 7331   0.999   1.105   3.777
 2442TIP3    H1 7332   1.033   1.191   3.752
 2442TIP3    H2 7333   0.954   1.073   3.699
 2443TIP3   OH2 7334   0.855   1.142   0.264
 2443TIP3    H1 7335   0.884   1.052   0.248
 2443TIP3    H2 7336   0.812   1.138   0.350
 2444TIP3   OH2 7337   3.310   4.122   3.412
 2444TIP3    H1 7338   3.354   4.201   3.443
 2444TIP3    H2 7339   3.365   4.050   3.445
 2445TIP3   OH2 7340   5.622   0.304   0.692
 2445TIP3    H1 7341   5.680   0.229   0.705
 2445TIP3    H2 7342   5.581   0.288   0.607
 2446TIP3   OH2 7343   2.231   3.070   3.648
 2446TIP3    H1 7344   2.239   3.137   3.715
 2446TIP3    H2 7345   2.213   2.989   3.696
 2447TIP3   OH2 7346   2.002   1.768   2.992
 2447TIP3    H1 7347   1.938   1.711   2.948
 2447TIP3    H2 7348   1.969   1.777   3.081
 2448TIP3   OH2 7349   1.106   2.799   1.068
 2448TIP3    H1 7350   1.045   2.848   1.013
 2448TIP3    H2 7351   1.147   2.736   1.010
 2449TIP3   OH2 7352   5.917   0.337   2.272
 2449TIP3    H1 7353   5.832   0.360   2.233
 2449TIP3    H2 7354   5.973   0.413   2.252
 2450TIP3   OH2 7355   2.534   0.764   1.187
 2450TIP3    H1 7356   2.605   0.809   1.234
 2450TIP3    H2 7357   2.494   0.832   1.134
 2451TIP3   OH2 7358   0.653   1.849   3.012
 2451TIP3    H1 7359   0.638   1.814   3.100
 2451TIP3    H2 7360   0.584   1.810   2.958
 2452TIP3   OH2 7361   2.101   3.819   4.353
 2452TIP3    H1 7362   2.035   3.885   4.329
 2452TIP3    H2 7363   2.169   3.869   4.398
 2453TIP3   OH2 7364   0.641   0.818   0.547
 2453TIP3    H1 7365   0.649   0.733   0.505
 2453TIP3    H2 7366   0.547   0.837   0.545
 2454TIP3   OH2 7367   3.803   5.564   0.745
 2454TIP3    H1 7368   3.828   5.638   0.689
 2454TIP3    H2 7369   3.848   5.581   0.827
 2455TIP3   OH2 7370   3.989   4.047   1.033
 2455TIP3    H1 7371   4.080   4.044   1.061
 2455TIP3    H2 7372   3.975   4.138   1.006
 2456TIP3   OH2 7373   5.934   0.267   0.609
 2456TIP3    H1 7374   6.026   0.278   0.587
 2456TIP3    H2 7375   5.896   0.355   0.600
 2457TIP3   OH2 7376   1.875   5.053   3.451
 2457TIP3    H1 7377   1.935   5.079   3.381
 2457TIP3    H2 7378   1.794   5.031   3.406
 2458TIP3   OH2 7379   2.700   4.071   2.649
 2458TIP3    H1 7380   2.706   4.153   2.699
 2458TIP3    H2 7381   2.714   4.003   2.715
 2459TIP3   OH2 7382   0.167   4.366   1.033
 2459TIP3    H1 7383   0.194   4.434   0.972
 2459TIP3    H2 7384   0.075   4.349   1.011
 2460TIP3   OH2 7385   1.073   0.907   0.858
 2460TIP3    H1 7386   1.005   0.888   0.794
 2460TIP3    H2 7387   1.095   0.999   0.845
 2461TIP3   OH2 7388   0.201   4.042   4.296
 2461TIP3    H1 7389   0.133   4.050   4.229
 2461TIP3    H2 7390   0.283   4.045   4.246
 2462TIP3   OH2 7391   1.047   0.654   3.932
 2462TIP3    H1 7392   1.049   0.559   3.920
 2462TIP3    H2 7393   1.080   0.668   4.021
 2463TIP3   OH2 7394   6.115   3.942   3.405
 2463TIP3    H1 7395   6.198   3.986   3.387
 2463TIP3    H2 7396   6.049   4.011   3.398
 2464TIP3   OH2 7397   6.088   2.692   1.575
 2464TIP3    H1 7398   6.178   2.721   1.591
 2464TIP3    H2 7399   6.086   2.602   1.605
 2465TIP3   OH2 7400   5.056   4.153   1.321
 2465TIP3    H1 7401   4.981   4.102   1.290
 2465TIP3    H2 7402   5.119   4.087   1.351
 2466TIP3   OH2 7403   1.950   4.415   2.349
 2466TIP3    H1 7404   1.855   4.412   2.357
 2466TIP3    H2 7405   1.968   4.379   2.262
 2467TIP3   OH2 7406   2.234   2.658   2.960
 2467TIP3    H1 7407   2.292   2.698   2.895
 2467TIP3    H2 7408   2.290   2.642   3.036
 2468TIP3   OH2 7409   4.847   5.498   0.923
 2468TIP3    H1 7410   4.912   5.432   0.898
 2468TIP3    H2 7411   4.847   5.561   0.850
 2469TIP3   OH2 7412   3.475   5.059   1.926
 2469TIP3    H1 7413   3.556   5.110   1.931
 2469TIP3    H2 7414   3.455   5.054   1.832
 2470TIP3   OH2 7415   4.447   4.547   3.131
 2470TIP3    H1 7416   4.406   4.509   3.209
 2470TIP3    H2 7417   4.432   4.641   3.140
 2471TIP3   OH2 7418   4.366   2.833   1.450
 2471TIP3    H1 7419   4.417   2.898   1.402
 2471TIP3    H2 7420   4.397   2.840   1.540
 2472TIP3   OH2 7421   2.916   3.936   5.172
 2472TIP3    H1 7422   2.926   3.849   5.133
 2472TIP3    H2 7423   2.932   3.923   5.266
 2473TIP3   OH2 7424   3.687   0.542   2.577
 2473TIP3    H1 7425   3.630   0.561   2.652
 2473TIP3    H2 7426   3.659   0.603   2.509
 2474TIP3   OH2 7427   2.293   0.401   3.371
 2474TIP3    H1 7428   2.359   0.452   3.325
 2474TIP3    H2 7429   2.287   0.441   3.458
 2475TIP3   OH2 7430   4.783   1.320   4.253
 2475TIP3    H1 7431   4.798   1.256   4.322
 2475TIP3    H2 7432   4.801   1.405   4.295
 2476TIP3   OH2 7433   4.153   2.443   0.168
 2476TIP3    H1 7434   4.199   2.525   0.183
 2476TIP3    H2 7435   4.109   2.424   0.251
 2477TIP3   OH2 7436   6.050   1.197   2.002
 2477TIP3    H1 7437   6.042   1.250   1.923
 2477TIP3    H2 7438   6.047   1.107   1.970
 2478TIP3   OH2 7439   1.710   1.550   5.061
 2478TIP3    H1 7440   1.730   1.575   5.152
 2478TIP3    H2 7441   1.701   1.455   5.064
 2479TIP3   OH2 7442   6.190   5.906   0.122
 2479TIP3    H1 7443   6.143   5.842   0.069
 2479TIP3    H2 7444   6.136   5.918   0.200
 2480TIP3   OH2 7445   5.573   4.324   1.514
 2480TIP3    H1 7446   5.546   4.327   1.422
 2480TIP3    H2 7447   5.534   4.243   1.547
 2481TIP3   OH2 7448   5.265   3.262   2.129
 2481TIP3    H1 7449   5.257   3.357   2.130
 2481TIP3    H2 7450   5.191   3.233   2.075
 2482TIP3   OH2 7451   5.897   2.127   4.087
 2482TIP3    H1 7452   5.853   2.154   4.168
 2482TIP3    H2 7453   5.950   2.052   4.113
 2483TIP3   OH2 7454   5.980   3.334   3.859
 2483TIP3    H1 7455   6.022   3.315   3.943
 2483TIP3    H2 7456   5.989   3.428   3.849
 2484TIP3   OH2 7457   2.934   4.518   1.896
 2484TIP3    H1 7458   2.948   4.464   1.973
 2484TIP3    H2 7459   2.939   4.608   1.928
 2485TIP3   OH2 7460   5.752   0.827   4.833
 2485TIP3    H1 7461   5.714   0.915   4.833
 2485TIP3    H2 7462   5.819   0.830   4.764
 2486TIP3   OH2 7463   4.915   2.105   3.883
 2486TIP3    H1 7464   4.886   2.017   3.860
 2486TIP3    H2 7465   4.860   2.163   3.830
 2487TIP3   OH2 7466   5.784   3.568   3.650
 2487TIP3    H1 7467   5.804   3.656   3.681
 2487TIP3    H2 7468   5.722   3.534   3.715
 2488TIP3   OH2 7469   2.390   4.790   2.182
 2488TIP3    H1 7470   2.482   4.780   2.206
 2488TIP3    H2 7471   2.383   4.881   2.154
 2489TIP3   OH2 7472   5.822   5.717   1.995
 2489TIP3    H1 7473   5.835   5.678   1.908
 2489TIP3    H2 7474   5.856   5.806   1.987
 2490TIP3   OH2 7475   5.125   5.897   0.500
 2490TIP3    H1 7476   5.119   5.884   0.406
 2490TIP3    H2 7477   5.169   5.819   0.533
 2491TIP3   OH2 7478   3.155   1.829   5.119
 2491TIP3    H1 7479   3.231   1.887   5.113
 2491TIP3    H2 7480   3.082   1.887   5.136
 2492TIP3   OH2 7481   4.830   0.546   4.368
 2492TIP3    H1 7482   4.764   0.604   4.406
 2492TIP3    H2 7483   4.799   0.530   4.279
 2493TIP3   OH2 7484   1.883   0.694   0.253
 2493TIP3    H1 7485   1.798   0.654   0.237
 2493TIP3    H2 7486   1.930   0.686   0.170
 2494TIP3   OH2 7487   5.159   5.353   2.828
 2494TIP3    H1 7488   5.079   5.301   2.820
 2494TIP3    H2 7489   5.139   5.417   2.896
 2495TIP3   OH2 7490   0.896   4.603   1.305
 2495TIP3    H1 7491   0.838   4.529   1.286
 2495TIP3    H2 7492   0.957   4.605   1.231
 2496TIP3   OH2 7493   4.333   1.743   1.283
 2496TIP3    H1 7494   4.363   1.726   1.372
 2496TIP3    H2 7495   4.320   1.656   1.244
 2497TIP3   OH2 7496   1.665   4.811   3.488
 2497TIP3    H1 7497   1.746   4.767   3.512
 2497TIP3    H2 7498   1.607   4.797   3.563
 2498TIP3   OH2 7499   0.822   5.367   1.050
 2498TIP3    H1 7500   0.794   5.398   0.964
 2498TIP3    H2 7501   0.770   5.417   1.113
 2499TIP3   OH2 7502   4.731   4.362   2.218
 2499TIP3    H1 7503   4.760   4.441   2.262
 2499TIP3    H2 7504   4.794   4.295   2.244
 2500TIP3   OH2 7505   1.515   2.202   1.180
 2500TIP3    H1 7506   1.526   2.107   1.188
 2500TIP3    H2 7507   1.463   2.227   1.256
 2501TIP3   OH2 7508   0.551   3.504   2.174
 2501TIP3    H1 7509   0.525   3.479   2.262
 2501TIP3    H2 7510   0.469   3.525   2.129
 2502TIP3   OH2 7511   5.008   4.140   3.775
 2502TIP3    H1 7512   4.941   4.178   3.717
 2502TIP3    H2 7513   5.066   4.093   3.716
 2503TIP3   OH2 7514   4.274   5.074   1.245
 2503TIP3    H1 7515   4.295   5.103   1.334
 2503TIP3    H2 7516   4.258   4.980   1.254
 2504TIP3   OH2 7517   6.028   2.791   2.667
 2504TIP3    H1 7518   6.002   2.882   2.674
 2504TIP3    H2 7519   6.088   2.789   2.592
 2505TIP3   OH2 7520   1.625   5.577   2.533
 2505TIP3    H1 7521   1.575   5.551   2.610
 2505TIP3    H2 7522   1.562   5.627   2.480
 2506TIP3   OH2 7523   5.882   1.029   0.388
 2506TIP3    H1 7524   5.952   1.079   0.344
 2506TIP3    H2 7525   5.807   1.089   0.389
 2507TIP3   OH2 7526   0.817   4.273   2.365
 2507TIP3    H1 7527   0.776   4.349   2.407
 2507TIP3    H2 7528   0.878   4.239   2.430
 2508TIP3   OH2 7529   4.556   3.143   4.009
 2508TIP3    H1 7530   4.518   3.071   3.959
 2508TIP3    H2 7531   4.577   3.210   3.943
 2509TIP3   OH2 7532   5.236   5.314   0.213
 2509TIP3    H1 7533   5.253   5.223   0.238
 2509TIP3    H2 7534   5.152   5.310   0.166
 2510TIP3   OH2 7535   1.401   5.756   0.251
 2510TIP3    H1 7536   1.488   5.781   0.219
 2510TIP3    H2 7537   1.419   5.702   0.328
 2511TIP3   OH2 7538   1.224   3.554   0.550
 2511TIP3    H1 7539   1.130   3.564   0.561
 2511TIP3    H2 7540   1.235   3.467   0.512
 2512TIP3   OH2 7541   0.540   0.353   5.041
 2512TIP3    H1 7542   0.570   0.440   5.017
 2512TIP3    H2 7543   0.564   0.343   5.133
 2513TIP3   OH2 7544   2.525   5.788   0.864
 2513TIP3    H1 7545   2.453   5.837   0.904
 2513TIP3    H2 7546   2.550   5.724   0.930
 2514TIP3   OH2 7547   3.475   5.038   2.282
 2514TIP3    H1 7548   3.400   5.094   2.263
 2514TIP3    H2 7549   3.527   5.038   2.201
 2515TIP3   OH2 7550   5.823   1.682   1.285
 2515TIP3    H1 7551   5.788   1.743   1.221
 2515TIP3    H2 7552   5.891   1.633   1.237
 2516TIP3   OH2 7553   2.323   2.080   4.401
 2516TIP3    H1 7554   2.406   2.127   4.412
 2516TIP3    H2 7555   2.348   1.990   4.384
 2517TIP3   OH2 7556   5.153   3.274   0.951
 2517TIP3    H1 7557   5.214   3.338   0.914
 2517TIP3    H2 7558   5.093   3.325   1.005
 2518TIP3   OH2 7559   0.911   1.190   0.799
 2518TIP3    H1 7560   1.006   1.199   0.792
 2518TIP3    H2 7561   0.877   1.260   0.743
 2519TIP3   OH2 7562   3.576   1.180   1.415
 2519TIP3    H1 7563   3.648   1.196   1.476
 2519TIP3    H2 7564   3.506   1.239   1.445
 2520TIP3   OH2 7565   5.332   0.926   4.887
 2520TIP3    H1 7566   5.273   0.915   4.961
 2520TIP3    H2 7567   5.280   0.971   4.821
 2521TIP3   OH2 7568   1.918   5.891   5.126
 2521TIP3    H1 7569   1.988   5.868   5.187
 2521TIP3    H2 7570   1.955   5.872   5.040
 2522TIP3   OH2 7571   1.693   2.692   3.762
 2522TIP3    H1 7572   1.651   2.669   3.680
 2522TIP3    H2 7573   1.756   2.760   3.739
 2523TIP3   OH2 7574   2.465   4.851   1.721
 2523TIP3    H1 7575   2.426   4.861   1.634
 2523TIP3    H2 7576   2.489   4.940   1.746
 2524TIP3   OH2 7577   1.098   4.241   0.235
 2524TIP3    H1 7578   1.182   4.231   0.189
 2524TIP3    H2 7579   1.103   4.328   0.274
 2525TIP3   OH2 7580   5.212   4.047   3.342
 2525TIP3    H1 7581   5.140   3.984   3.331
 2525TIP3    H2 7582   5.288   4.003   3.302
 2526TIP3   OH2 7583   0.155   1.442   1.635
 2526TIP3    H1 7584   0.202   1.371   1.678
 2526TIP3    H2 7585   0.062   1.421   1.648
 2527TIP3   OH2 7586   0.739   5.780   2.189
 2527TIP3    H1 7587   0.692   5.703   2.222
 2527TIP3    H2 7588   0.709   5.789   2.098
 2528TIP3   OH2 7589   1.385   3.856   0.535
 2528TIP3    H1 7590   1.370   3.762   0.525
 2528TIP3    H2 7591   1.320   3.885   0.598
 2529TIP3   OH2 7592   3.581   2.026   0.103
 2529TIP3    H1 7593   3.627   2.109   0.110
 2529TIP3    H2 7594   3.492   2.049   0.075
 2530TIP3   OH2 7595   3.402   3.654   4.763
 2530TIP3    H1 7596   3.452   3.579   4.731
 2530TIP3    H2 7597   3.467   3.712   4.802
 2531TIP3   OH2 7598   1.907   5.835   2.974
 2531TIP3    H1 7599   1.867   5.795   3.051
 2531TIP3    H2 7600   1.887   5.775   2.902
 2532TIP3   OH2 7601   0.810   3.092   0.678
 2532TIP3    H1 7602   0.730   3.123   0.637
 2532TIP3    H2 7603   0.828   3.008   0.636
 2533TIP3   OH2 7604   1.957   0.429   1.664
 2533TIP3    H1 7605   1.980   0.353   1.610
 2533TIP3    H2 7606   1.964   0.503   1.604
 2534TIP3   OH2 7607   0.907   4.838   1.810
 2534TIP3    H1 7608   0.943   4.754   1.782
 2534TIP3    H2 7609   0.924   4.897   1.737
 2535TIP3   OH2 7610   1.214   3.280   0.452
 2535TIP3    H1 7611   1.165   3.261   0.372
 2535TIP3    H2 7612   1.149   3.270   0.522
 2536TIP3   OH2 7613   3.579   1.205   0.096
 2536TIP3    H1 7614   3.595   1.112   0.079
 2536TIP3    H2 7615   3.637   1.226   0.169
 2537TIP3   OH2 7616   5.965   4.677   3.235
 2537TIP3    H1 7617   5.953   4.599   3.181
 2537TIP3    H2 7618   5.976   4.749   3.173
 2538TIP3   OH2 7619   0.295   1.359  -0.016
 2538TIP3    H1 7620   0.212   1.405  -0.022
 2538TIP3    H2 7621   0.309   1.346   0.078
 2539TIP3   OH2 7622   3.076   1.354   3.891
 2539TIP3    H1 7623   3.112   1.435   3.855
 2539TIP3    H2 7624   3.126   1.338   3.971
 2540TIP3   OH2 7625   2.710   3.088   2.202
 2540TIP3    H1 7626   2.680   3.148   2.134
 2540TIP3    H2 7627   2.720   3.004   2.157
 2541TIP3   OH2 7628   5.330   4.526   0.993
 2541TIP3    H1 7629   5.275   4.599   0.963
 2541TIP3    H2 7630   5.268   4.455   1.008
 2542TIP3   OH2 7631   1.270   2.515   4.273
 2542TIP3    H1 7632   1.354   2.558   4.286
 2542TIP3    H2 7633   1.231   2.560   4.198
 2543TIP3   OH2 7634   1.408   0.627   4.757
 2543TIP3    H1 7635   1.429   0.631   4.850
 2543TIP3    H2 7636   1.416   0.534   4.734
 2544TIP3   OH2 7637   1.637   2.619   2.825
 2544TIP3    H1 7638   1.643   2.666   2.908
 2544TIP3    H2 7639   1.652   2.527   2.847
 2545TIP3   OH2 7640   4.871   1.012   2.772
 2545TIP3    H1 7641   4.962   1.019   2.743
 2545TIP3    H2 7642   4.871   1.050   2.860
 2546TIP3   OH2 7643   5.486   4.303   0.066
 2546TIP3    H1 7644   5.435   4.255   0.001
 2546TIP3    H2 7645   5.471   4.395   0.045
 2547TIP3   OH2 7646   4.823   2.934   0.297
 2547TIP3    H1 7647   4.887   2.887   0.243
 2547TIP3    H2 7648   4.759   2.968   0.235
 2548TIP3   OH2 7649   5.006   1.793   2.983
 2548TIP3    H1 7650   4.936   1.852   2.955
 2548TIP3    H2 7651   5.011   1.805   3.078
 2549TIP3   OH2 7652   4.543   3.356   5.096
 2549TIP3    H1 7653   4.542   3.450   5.115
 2549TIP3    H2 7654   4.621   3.344   5.042
 2550TIP3   OH2 7655   1.782   0.372   0.783
 2550TIP3    H1 7656   1.872   0.348   0.804
 2550TIP3    H2 7657   1.750   0.300   0.729
 2551TIP3   OH2 7658   5.617   5.483   2.374
 2551TIP3    H1 7659   5.684   5.448   2.432
 2551TIP3    H2 7660   5.644   5.574   2.358
 2552TIP3   OH2 7661   3.218   1.720   1.029
 2552TIP3    H1 7662   3.269   1.656   1.080
 2552TIP3    H2 7663   3.190   1.785   1.094
 2553TIP3   OH2 7664   4.473   3.983   4.692
 2553TIP3    H1 7665   4.513   4.055   4.644
 2553TIP3    H2 7666   4.507   3.992   4.781
 2554TIP3   OH2 7667   2.857   4.057   4.793
 2554TIP3    H1 7668   2.876   3.985   4.732
 2554TIP3    H2 7669   2.942   4.098   4.808
 2555TIP3   OH2 7670   5.492   4.674   4.372
 2555TIP3    H1 7671   5.576   4.716   4.353
 2555TIP3    H2 7672   5.506   4.628   4.454
 2556TIP3   OH2 7673   4.126   3.611   4.563
 2556TIP3    H1 7674   4.108   3.529   4.516
 2556TIP3    H2 7675   4.155   3.672   4.495
 2557TIP3   OH2 7676   3.077   3.888   1.413
 2557TIP3    H1 7677   3.027   3.967   1.436
 2557TIP3    H2 7678   3.029   3.817   1.455
 2558TIP3   OH2 7679   1.386   1.161   2.241
 2558TIP3    H1 7680   1.386   1.201   2.328
 2558TIP3    H2 7681   1.401   1.068   2.259
 2559TIP3   OH2 7682   6.161   1.089   4.673
 2559TIP3    H1 7683   6.251   1.063   4.691
 2559TIP3    H2 7684   6.162   1.121   4.583
 2560TIP3   OH2 7685   2.540   2.659   2.432
 2560TIP3    H1 7686   2.586   2.738   2.460
 2560TIP3    H2 7687   2.448   2.686   2.424
 2561TIP3   OH2 7688   1.284   3.128   4.696
 2561TIP3    H1 7689   1.313   3.203   4.749
 2561TIP3    H2 7690   1.267   3.059   4.760
 2562TIP3   OH2 7691   2.926   2.394   1.722
 2562TIP3    H1 7692   3.012   2.436   1.725
 2562TIP3    H2 7693   2.865   2.463   1.748
 2563TIP3   OH2 7694   5.275   0.463   2.434
 2563TIP3    H1 7695   5.359   0.505   2.451
 2563TIP3    H2 7696   5.225   0.528   2.384
 2564TIP3   OH2 7697   2.634   4.215   3.871
 2564TIP3    H1 7698   2.584   4.139   3.902
 2564TIP3    H2 7699   2.568   4.284   3.860
 2565TIP3   OH2 7700   1.286   2.108   2.553
 2565TIP3    H1 7701   1.332   2.176   2.602
 2565TIP3    H2 7702   1.194   2.117   2.579
 2566TIP3   OH2 7703   5.825   1.912   1.438
 2566TIP3    H1 7704   5.841   1.824   1.404
 2566TIP3    H2 7705   5.876   1.915   1.519
 2567TIP3   OH2 7706   4.896   3.204   4.805
 2567TIP3    H1 7707   4.813   3.195   4.758
 2567TIP3    H2 7708   4.877   3.263   4.878
 2568TIP3   OH2 7709   3.846   1.003   4.777
 2568TIP3    H1 7710   3.852   0.911   4.750
 2568TIP3    H2 7711   3.918   1.014   4.839
 2569TIP3   OH2 7712   6.017   4.511   0.578
 2569TIP3    H1 7713   5.953   4.579   0.557
 2569TIP3    H2 7714   6.034   4.521   0.671
 2570TIP3   OH2 7715   4.123   1.134   0.207
 2570TIP3    H1 7716   4.169   1.204   0.253
 2570TIP3    H2 7717   4.157   1.053   0.246
 2571TIP3   OH2 7718   1.093   1.441   1.070
 2571TIP3    H1 7719   1.042   1.469   1.146
 2571TIP3    H2 7720   1.040   1.466   0.995
 2572TIP3   OH2 7721   4.611   1.219   3.001
 2572TIP3    H1 7722   4.704   1.211   3.024
 2572TIP3    H2 7723   4.595   1.146   2.941
 2573TIP3   OH2 7724   6.178   4.749   4.887
 2573TIP3    H1 7725   6.219   4.673   4.847
 2573TIP3    H2 7726   6.206   4.746   4.978
 2574TIP3   OH2 7727   5.091   0.588   0.117
 2574TIP3    H1 7728   5.000   0.567   0.097
 2574TIP3    H2 7729   5.114   0.658   0.055
 2575TIP3   OH2 7730   4.081   5.303   1.732
 2575TIP3    H1 7731   4.091   5.276   1.824
 2575TIP3    H2 7732   4.131   5.238   1.683
 2576TIP3   OH2 7733   2.585   1.018   3.604
 2576TIP3    H1 7734   2.514   0.957   3.623
 2576TIP3    H2 7735   2.648   0.966   3.554
 2577TIP3   OH2 7736   2.125   3.355   4.201
 2577TIP3    H1 7737   2.040   3.346   4.245
 2577TIP3    H2 7738   2.183   3.297   4.251
 2578TIP3   OH2 7739   1.437   4.598   2.952
 2578TIP3    H1 7740   1.354   4.584   2.907
 2578TIP3    H2 7741   1.430   4.548   3.033
 2579TIP3   OH2 7742   4.274   2.823   2.837
 2579TIP3    H1 7743   4.292   2.731   2.854
 2579TIP3    H2 7744   4.232   2.825   2.751
 2580TIP3   OH2 7745   1.977   3.194   4.896
 2580TIP3    H1 7746   1.938   3.278   4.868
 2580TIP3    H2 7747   1.902   3.135   4.905
 2581TIP3   OH2 7748   2.320   1.933   0.440
 2581TIP3    H1 7749   2.327   1.972   0.528
 2581TIP3    H2 7750   2.244   1.875   0.446
 2582TIP3   OH2 7751   0.596   5.317   0.758
 2582TIP3    H1 7752   0.543   5.396   0.744
 2582TIP3    H2 7753   0.682   5.351   0.784
 2583TIP3   OH2 7754   5.608   5.627   0.644
 2583TIP3    H1 7755   5.519   5.648   0.615
 2583TIP3    H2 7756   5.613   5.662   0.733
 2584TIP3   OH2 7757   4.111   0.739   0.236
 2584TIP3    H1 7758   4.029   0.689   0.237
 2584TIP3    H2 7759   4.094   0.813   0.294
 2585TIP3   OH2 7760   5.601   0.826   0.828
 2585TIP3    H1 7761   5.671   0.887   0.803
 2585TIP3    H2 7762   5.621   0.746   0.779
 2586TIP3   OH2 7763   0.861   2.562   0.080
 2586TIP3    H1 7764   0.828   2.529  -0.004
 2586TIP3    H2 7765   0.844   2.656   0.077
 2587TIP3   OH2 7766   2.387   3.754   3.189
 2587TIP3    H1 7767   2.414   3.724   3.276
 2587TIP3    H2 7768   2.338   3.680   3.153
 2588TIP3   OH2 7769   3.642   5.845   4.252
 2588TIP3    H1 7770   3.654   5.852   4.346
 2588TIP3    H2 7771   3.587   5.767   4.241
 2589TIP3   OH2 7772   4.634   2.495   3.528
 2589TIP3    H1 7773   4.571   2.542   3.473
 2589TIP3    H2 7774   4.626   2.536   3.614
 2590TIP3   OH2 7775   2.749   0.910   0.525
 2590TIP3    H1 7776   2.806   0.982   0.550
 2590TIP3    H2 7777   2.660   0.943   0.539
 2591TIP3   OH2 7778   3.867   4.129   3.159
 2591TIP3    H1 7779   3.831   4.101   3.075
 2591TIP3    H2 7780   3.847   4.223   3.164
 2592TIP3   OH2 7781   1.765   0.178   4.463
 2592TIP3    H1 7782   1.703   0.239   4.423
 2592TIP3    H2 7783   1.740   0.092   4.429
 2593TIP3   OH2 7784   5.930   4.177   1.971
 2593TIP3    H1 7785   6.009   4.204   1.923
 2593TIP3    H2 7786   5.900   4.256   2.015
 2594TIP3   OH2 7787   1.893   2.545   5.090
 2594TIP3    H1 7788   1.961   2.480   5.072
 2594TIP3    H2 7789   1.812   2.494   5.096
 2595TIP3   OH2 7790   0.183   0.165   3.596
 2595TIP3    H1 7791   0.152   0.095   3.653
 2595TIP3    H2 7792   0.271   0.138   3.570
 2596TIP3   OH2 7793   0.658   5.136   1.296
 2596TIP3    H1 7794   0.617   5.053   1.272
 2596TIP3    H2 7795   0.741   5.112   1.337
 2597TIP3   OH2 7796   3.912   4.847   1.396
 2597TIP3    H1 7797   3.970   4.853   1.472
 2597TIP3    H2 7798   3.953   4.781   1.340
 2598TIP3   OH2 7799   3.152   1.346   0.969
 2598TIP3    H1 7800   3.091   1.277   0.997
 2598TIP3    H2 7801   3.098   1.424   0.960
 2599TIP3   OH2 7802   3.368   3.199   1.643
 2599TIP3    H1 7803   3.337   3.210   1.553
 2599TIP3    H2 7804   3.336   3.113   1.669
 2600TIP3   OH2 7805   6.210   0.290   3.764
 2600TIP3    H1 7806   6.269   0.281   3.839
 2600TIP3    H2 7807   6.134   0.337   3.798
 2601TIP3   OH2 7808   5.946   2.479   1.936
 2601TIP3    H1 7809   6.032   2.457   1.900
 2601TIP3    H2 7810   5.959   2.477   2.031
 2602TIP3   OH2 7811   4.118   2.835   0.784
 2602TIP3    H1 7812   4.089   2.806   0.870
 2602TIP3    H2 7813   4.103   2.930   0.784
 2603TIP3   OH2 7814   2.546   4.634   4.649
 2603TIP3    H1 7815   2.528   4.540   4.649
 2603TIP3    H2 7816   2.466   4.675   4.616
 2604TIP3   OH2 7817   1.984   3.779   3.314
 2604TIP3    H1 7818   1.893   3.775   3.344
 2604TIP3    H2 7819   1.997   3.871   3.290
 2605TIP3   OH2 7820   1.147   3.794   2.403
 2605TIP3    H1 7821   1.154   3.727   2.335
 2605TIP3    H2 7822   1.237   3.816   2.425
 2606TIP3   OH2 7823   1.765   3.955   1.494
 2606TIP3    H1 7824   1.852   3.992   1.482
 2606TIP3    H2 7825   1.726   3.958   1.406
 2607TIP3   OH2 7826   4.426   1.842   4.196
 2607TIP3    H1 7827   4.396   1.786   4.124
 2607TIP3    H2 7828   4.379   1.924   4.183
 2608TIP3   OH2 7829   4.681   4.898   1.371
 2608TIP3    H1 7830   4.615   4.889   1.440
 2608TIP3    H2 7831   4.694   4.993   1.363
 2609TIP3   OH2 7832   0.512   2.690   3.221
 2609TIP3    H1 7833   0.527   2.783   3.201
 2609TIP3    H2 7834   0.420   2.676   3.201
 2610TIP3   OH2 7835   5.679   5.059   2.957
 2610TIP3    H1 7836   5.602   5.035   2.905
 2610TIP3    H2 7837   5.701   4.979   3.006
 2611TIP3   OH2 7838   3.514   4.641   3.679
 2611TIP3    H1 7839   3.559   4.726   3.681
 2611TIP3    H2 7840   3.577   4.581   3.639
 2612TIP3   OH2 7841   2.866   1.999   2.211
 2612TIP3    H1 7842   2.913   1.936   2.265
 2612TIP3    H2 7843   2.912   1.999   2.128
 2613TIP3   OH2 7844   6.064   2.719   4.013
 2613TIP3    H1 7845   6.115   2.787   4.058
 2613TIP3    H2 7846   5.976   2.755   4.008
 2614TIP3   OH2 7847   5.648   4.204   0.241
 2614TIP3    H1 7848   5.588   4.224   0.169
 2614TIP3    H2 7849   5.619   4.260   0.313
 2615TIP3   OH2 7850   3.115   1.604   3.519
 2615TIP3    H1 7851   3.154   1.644   3.596
 2615TIP3    H2 7852   3.190   1.573   3.468
 2616TIP3   OH2 7853   5.038   2.809   0.160
 2616TIP3    H1 7854   5.067   2.748   0.092
 2616TIP3    H2 7855   5.081   2.778   0.240
 2617TIP3   OH2 7856   2.763   5.184   2.492
 2617TIP3    H1 7857   2.732   5.204   2.403
 2617TIP3    H2 7858   2.858   5.184   2.485
 2618TIP3   OH2 7859   6.256   2.982   2.907
 2618TIP3    H1 7860   6.189   3.021   2.851
 2618TIP3    H2 7861   6.220   2.897   2.932
 2619TIP3   OH2 7862   4.204   1.694   2.550
 2619TIP3    H1 7863   4.209   1.606   2.587
 2619TIP3    H2 7864   4.111   1.707   2.533
 2620TIP3   OH2 7865   4.073   1.985   2.809
 2620TIP3    H1 7866   4.078   1.958   2.901
 2620TIP3    H2 7867   4.162   1.970   2.775
 2621TIP3   OH2 7868   5.417   1.581   4.255
 2621TIP3    H1 7869   5.348   1.539   4.203
 2621TIP3    H2 7870   5.371   1.647   4.307
 2622TIP3   OH2 7871   0.295   0.661   4.348
 2622TIP3    H1 7872   0.377   0.637   4.390
 2622TIP3    H2 7873   0.244   0.704   4.417
 2623TIP3   OH2 7874   1.345   2.988   3.222
 2623TIP3    H1 7875   1.323   2.943   3.304
 2623TIP3    H2 7876   1.426   3.035   3.242
 2624TIP3   OH2 7877   6.001   2.796   0.889
 2624TIP3    H1 7878   5.981   2.797   0.795
 2624TIP3    H2 7879   6.063   2.867   0.902
 2625TIP3   OH2 7880   3.966   3.421   2.680
 2625TIP3    H1 7881   3.897   3.354   2.689
 2625TIP3    H2 7882   3.969   3.463   2.766
 2626TIP3   OH2 7883   3.836   0.306   2.590
 2626TIP3    H1 7884   3.787   0.388   2.589
 2626TIP3    H2 7885   3.831   0.276   2.681
 2627TIP3   OH2 7886   0.082   4.275   4.375
 2627TIP3    H1 7887   0.140   4.201   4.358
 2627TIP3    H2 7888   0.026   4.245   4.448
 2628TIP3   OH2 7889   2.290   1.014   4.455
 2628TIP3    H1 7890   2.266   1.005   4.547
 2628TIP3    H2 7891   2.334   1.099   4.450
 2629TIP3   OH2 7892   4.123   0.085   1.229
 2629TIP3    H1 7893   4.163   0.000   1.210
 2629TIP3    H2 7894   4.049   0.065   1.286
 2630TIP3   OH2 7895   5.296   1.342   2.976
 2630TIP3    H1 7896   5.358   1.296   3.033
 2630TIP3    H2 7897   5.291   1.430   3.014
 2631TIP3   OH2 7898   1.607   2.388   0.994
 2631TIP3    H1 7899   1.700   2.364   0.997
 2631TIP3    H2 7900   1.565   2.322   1.050
 2632TIP3   OH2 7901   4.844   1.933   1.686
 2632TIP3    H1 7902   4.894   2.005   1.648
 2632TIP3    H2 7903   4.863   1.858   1.630
 2633TIP3   OH2 7904   3.249   4.439   3.323
 2633TIP3    H1 7905   3.184   4.473   3.261
 2633TIP3    H2 7906   3.228   4.483   3.405
 2634TIP3   OH2 7907   4.374   3.339   0.045
 2634TIP3    H1 7908   4.340   3.429   0.051
 2634TIP3    H2 7909   4.466   3.350   0.021
 2635TIP3   OH2 7910   0.467   4.960   2.007
 2635TIP3    H1 7911   0.378   4.958   2.043
 2635TIP3    H2 7912   0.506   4.877   2.034
 2636TIP3   OH2 7913   5.987   4.761   1.573
 2636TIP3    H1 7914   6.017   4.841   1.617
 2636TIP3    H2 7915   5.891   4.768   1.575
 2637TIP3   OH2 7916   2.285   1.731   5.114
 2637TIP3    H1 7917   2.345   1.693   5.179
 2637TIP3    H2 7918   2.343   1.760   5.043
 2638TIP3   OH2 7919   1.494   0.834   3.964
 2638TIP3    H1 7920   1.428   0.809   3.900
 2638TIP3    H2 7921   1.445   0.851   4.044
 2639TIP3   OH2 7922   3.047   3.773   0.180
 2639TIP3    H1 7923   3.100   3.853   0.174
 2639TIP3    H2 7924   3.110   3.703   0.195
 2640TIP3   OH2 7925   0.161   5.985   4.988
 2640TIP3    H1 7926   0.116   5.988   5.072
 2640TIP3    H2 7927   0.252   6.002   5.009
 2641TIP3   OH2 7928   3.817   5.635   2.014
 2641TIP3    H1 7929   3.791   5.545   2.037
 2641TIP3    H2 7930   3.835   5.631   1.920
 2642TIP3   OH2 7931   5.318   2.706   1.631
 2642TIP3    H1 7932   5.337   2.741   1.545
 2642TIP3    H2 7933   5.332   2.611   1.623
 2643TIP3   OH2 7934   5.989   1.649   1.540
 2643TIP3    H1 7935   6.011   1.629   1.449
 2643TIP3    H2 7936   6.073   1.669   1.582
 2644TIP3   OH2 7937   6.169   3.192   3.497
 2644TIP3    H1 7938   6.189   3.184   3.404
 2644TIP3    H2 7939   6.130   3.279   3.506
 2645TIP3   OH2 7940   4.777   2.743   4.672
 2645TIP3    H1 7941   4.793   2.660   4.628
 2645TIP3    H2 7942   4.681   2.751   4.676
 2646TIP3   OH2 7943   2.406   0.311   4.667
 2646TIP3    H1 7944   2.401   0.339   4.758
 2646TIP3    H2 7945   2.349   0.234   4.662
 2647TIP3   OH2 7946   3.401   4.256   2.701
 2647TIP3    H1 7947   3.379   4.333   2.754
 2647TIP3    H2 7948   3.472   4.286   2.645
 2648TIP3   OH2 7949   4.326   0.220   2.412
 2648TIP3    H1 7950   4.246   0.269   2.432
 2648TIP3    H2 7951   4.345   0.241   2.321
 2649TIP3   OH2 7952   3.599   4.351   2.535
 2649TIP3    H1 7953   3.598   4.445   2.517
 2649TIP3    H2 7954   3.597   4.311   2.448
 2650TIP3   OH2 7955   1.912   0.087   0.718
 2650TIP3    H1 7956   1.828   0.068   0.761
 2650TIP3    H2 7957   1.908   0.039   0.636
 2651TIP3   OH2 7958   1.560   5.132   2.600
 2651TIP3    H1 7959   1.477   5.083   2.606
 2651TIP3    H2 7960   1.616   5.076   2.547
 2652TIP3   OH2 7961   5.701   1.963   2.283
 2652TIP3    H1 7962   5.772   2.020   2.312
 2652TIP3    H2 7963   5.729   1.875   2.307
 2653TIP3   OH2 7964   1.010   1.656   0.370
 2653TIP3    H1 7965   0.944   1.696   0.315
 2653TIP3    H2 7966   1.058   1.729   0.409
 2654TIP3   OH2 7967   5.187   5.402   2.242
 2654TIP3    H1 7968   5.277   5.375   2.222
 2654TIP3    H2 7969   5.192   5.496   2.255
 2655TIP3   OH2 7970   6.214   1.660   5.139
 2655TIP3    H1 7971   6.186   1.599   5.207
 2655TIP3    H2 7972   6.310   1.657   5.143
 2656TIP3   OH2 7973   4.854   4.913   3.827
 2656TIP3    H1 7974   4.904   4.913   3.909
 2656TIP3    H2 7975   4.848   5.005   3.803
 2657TIP3   OH2 7976   2.736   0.589   1.456
 2657TIP3    H1 7977   2.644   0.563   1.459
 2657TIP3    H2 7978   2.757   0.593   1.363
 2658TIP3   OH2 7979   0.558   0.581   4.138
 2658TIP3    H1 7980   0.482   0.637   4.155
 2658TIP3    H2 7981   0.587   0.607   4.051
 2659TIP3   OH2 7982   3.923   5.785   4.155
 2659TIP3    H1 7983   3.835   5.755   4.176
 2659TIP3    H2 7984   3.915   5.880   4.150
 2660TIP3   OH2 7985   3.937   3.014   2.041
 2660TIP3    H1 7986   3.928   2.922   2.018
 2660TIP3    H2 7987   3.932   3.061   1.958
 2661TIP3   OH2 7988   3.084   5.891   4.933
 2661TIP3    H1 7989   3.069   5.886   4.839
 2661TIP3    H2 7990   3.153   5.956   4.944
 2662TIP3   OH2 7991   4.180   3.630   1.219
 2662TIP3    H1 7992   4.266   3.618   1.259
 2662TIP3    H2 7993   4.157   3.543   1.185
 2663TIP3   OH2 7994   5.748   5.428   0.562
 2663TIP3    H1 7995   5.695   5.499   0.598
 2663TIP3    H2 7996   5.686   5.354   0.556
 2664TIP3   OH2 7997   2.463   4.212   1.187
 2664TIP3    H1 7998   2.438   4.134   1.137
 2664TIP3    H2 7999   2.553   4.230   1.160
 2665TIP3   OH2 8000   2.634   1.731   1.282
 2665TIP3    H1 8001   2.714   1.764   1.323
 2665TIP3    H2 8002   2.563   1.774   1.330
 2666TIP3   OH2 8003   5.018   4.989   0.415
 2666TIP3    H1 8004   5.008   5.023   0.504
 2666TIP3    H2 8005   4.963   4.911   0.412
 2667TIP3   OH2 8006   4.345   3.704   2.319
 2667TIP3    H1 8007   4.398   3.649   2.376
 2667TIP3    H2 8008   4.397   3.714   2.240
 2668TIP3   OH2 8009   1.843   1.246   1.000
 2668TIP3    H1 8010   1.840   1.202   0.915
 2668TIP3    H2 8011   1.904   1.194   1.052
 2669TIP3   OH2 8012   2.695   1.063   2.239
 2669TIP3    H1 8013   2.671   1.095   2.326
 2669TIP3    H2 8014   2.646   1.119   2.178
 2670TIP3   OH2 8015   3.649   1.502   2.629
 2670TIP3    H1 8016   3.631   1.409   2.613
 2670TIP3    H2 8017   3.608   1.547   2.556
 2671TIP3   OH2 8018   0.732   5.984   0.232
 2671TIP3    H1 8019   0.673   5.949   0.165
 2671TIP3    H2 8020   0.742   5.912   0.295
 2672TIP3   OH2 8021   0.965   3.675   3.255
 2672TIP3    H1 8022   0.933   3.687   3.165
 2672TIP3    H2 8023   1.043   3.730   3.260
 2673TIP3   OH2 8024   6.009   3.696   0.987
 2673TIP3    H1 8025   6.058   3.679   1.068
 2673TIP3    H2 8026   6.077   3.709   0.921
 2674TIP3   OH2 8027   3.229   2.652   1.893
 2674TIP3    H1 8028   3.205   2.611   1.810
 2674TIP3    H2 8029   3.314   2.614   1.915
 2675TIP3   OH2 8030   3.095   5.435   1.667
 2675TIP3    H1 8031   3.059   5.405   1.584
 2675TIP3    H2 8032   3.077   5.363   1.728
 2676TIP3   OH2 8033   4.291   4.289   4.852
 2676TIP3    H1 8034   4.277   4.278   4.758
 2676TIP3    H2 8035   4.384   4.270   4.864
 2677TIP3   OH2 8036   0.383   5.192   4.580
 2677TIP3    H1 8037   0.427   5.220   4.661
 2677TIP3    H2 8038   0.290   5.204   4.598
 2678TIP3   OH2 8039   1.668   2.378   3.439
 2678TIP3    H1 8040   1.657   2.341   3.526
 2678TIP3    H2 8041   1.605   2.331   3.384
 2679TIP3   OH2 8042   2.392   0.269   4.945
 2679TIP3    H1 8043   2.450   0.329   4.992
 2679TIP3    H2 8044   2.399   0.186   4.993
 2680TIP3   OH2 8045   5.802   2.719   2.054
 2680TIP3    H1 8046   5.852   2.652   2.006
 2680TIP3    H2 8047   5.835   2.713   2.144
 2681TIP3   OH2 8048   2.826   5.062   0.976
 2681TIP3    H1 8049   2.845   4.976   1.014
 2681TIP3    H2 8050   2.782   5.043   0.893
 2682TIP3   OH2 8051   5.617   0.567   2.285
 2682TIP3    H1 8052   5.571   0.646   2.260
 2682TIP3    H2 8053   5.614   0.511   2.207
 2683TIP3   OH2 8054   5.371   5.284   3.597
 2683TIP3    H1 8055   5.307   5.219   3.569
 2683TIP3    H2 8056   5.409   5.248   3.678
 2684TIP3   OH2 8057   3.202   0.524   4.212
 2684TIP3    H1 8058   3.188   0.619   4.219
 2684TIP3    H2 8059   3.276   0.507   4.271
 2685TIP3   OH2 8060   0.687   4.266   1.574
 2685TIP3    H1 8061   0.692   4.290   1.666
 2685TIP3    H2 8062   0.726   4.178   1.570
 2686TIP3   OH2 8063   1.105   4.816   3.657
 2686TIP3    H1 8064   1.194   4.840   3.680
 2686TIP3    H2 8065   1.104   4.815   3.562
 2687TIP3   OH2 8066   4.752   1.047   1.468
 2687TIP3    H1 8067   4.684   0.984   1.443
 2687TIP3    H2 8068   4.723   1.130   1.431
 2688TIP3   OH2 8069   3.504   4.745   3.396
 2688TIP3    H1 8070   3.514   4.699   3.313
 2688TIP3    H2 8071   3.589   4.733   3.439
 2689TIP3   OH2 8072   4.622   4.101   1.198
 2689TIP3    H1 8073   4.574   4.031   1.154
 2689TIP3    H2 8074   4.685   4.131   1.132
 2690TIP3   OH2 8075   1.338   5.853   4.350
 2690TIP3    H1 8076   1.350   5.935   4.303
 2690TIP3    H2 8077   1.325   5.879   4.441
 2691TIP3   OH2 8078   5.847   3.087   3.387
 2691TIP3    H1 8079   5.901   3.142   3.444
 2691TIP3    H2 8080   5.757   3.119   3.402
 2692TIP3   OH2 8081   4.207   4.867   4.981
 2692TIP3    H1 8082   4.296   4.858   5.015
 2692TIP3    H2 8083   4.150   4.855   5.058
 2693TIP3   OH2 8084   4.941   3.654   3.039
 2693TIP3    H1 8085   5.026   3.697   3.049
 2693TIP3    H2 8086   4.878   3.715   3.078
 2694TIP3   OH2 8087   2.956   5.079   0.606
 2694TIP3    H1 8088   3.049   5.057   0.612
 2694TIP3    H2 8089   2.954   5.172   0.586
 2695TIP3   OH2 8090   1.398   5.362   4.792
 2695TIP3    H1 8091   1.493   5.364   4.781
 2695TIP3    H2 8092   1.383   5.286   4.849
 2696TIP3   OH2 8093   0.113   0.876   1.384
 2696TIP3    H1 8094   0.028   0.833   1.399
 2696TIP3    H2 8095   0.099   0.966   1.414
 2697TIP3   OH2 8096   1.011   0.825   2.325
 2697TIP3    H1 8097   1.051   0.805   2.240
 2697TIP3    H2 8098   1.078   0.802   2.389
 2698TIP3   OH2 8099   2.484   1.813   1.830
 2698TIP3    H1 8100   2.517   1.856   1.751
 2698TIP3    H2 8101   2.554   1.754   1.856
 2699TIP3   OH2 8102   4.963   3.915   2.240
 2699TIP3    H1 8103   4.991   3.847   2.179
 2699TIP3    H2 8104   4.988   3.882   2.327
 2700TIP3   OH2 8105   5.283   4.527   1.329
 2700TIP3    H1 8106   5.265   4.543   1.422
 2700TIP3    H2 8107   5.248   4.605   1.284
 2701TIP3   OH2 8108   3.949   1.476   2.541
 2701TIP3    H1 8109   3.920   1.567   2.550
 2701TIP3    H2 8110   3.906   1.430   2.613
 2702TIP3   OH2 8111   0.164   3.056   2.853
 2702TIP3    H1 8112   0.144   3.149   2.843
 2702TIP3    H2 8113   0.078   3.014   2.859
 2703TIP3   OH2 8114   2.431   3.704   3.802
 2703TIP3    H1 8115   2.489   3.779   3.788
 2703TIP3    H2 8116   2.345   3.736   3.774
 2704TIP3   OH2 8117   2.850   4.159   0.079
 2704TIP3    H1 8118   2.875   4.073   0.046
 2704TIP3    H2 8119   2.780   4.188   0.020
 2705TIP3   OH2 8120   3.409   3.351   1.860
 2705TIP3    H1 8121   3.392   3.445   1.861
 2705TIP3    H2 8122   3.380   3.323   1.773
 2706TIP3   OH2 8123   4.784   5.658   3.670
 2706TIP3    H1 8124   4.725   5.621   3.736
 2706TIP3    H2 8125   4.804   5.584   3.613
 2707TIP3   OH2 8126   0.449   2.999   4.219
 2707TIP3    H1 8127   0.363   3.020   4.184
 2707TIP3    H2 8128   0.489   2.943   4.152
 2708TIP3   OH2 8129   0.941   2.979   0.022
 2708TIP3    H1 8130   0.991   3.035  -0.037
 2708TIP3    H2 8131   0.917   2.904  -0.032
 2709TIP3   OH2 8132   5.432   0.614   1.188
 2709TIP3    H1 8133   5.401   0.620   1.098
 2709TIP3    H2 8134   5.473   0.527   1.194
 2710TIP3   OH2 8135   2.776   3.280   3.895
 2710TIP3    H1 8136   2.692   3.238   3.917
 2710TIP3    H2 8137   2.781   3.274   3.799
 2711TIP3   OH2 8138   6.003   5.537   1.203
 2711TIP3    H1 8139   6.041   5.599   1.265
 2711TIP3    H2 8140   5.908   5.547   1.215
 2712TIP3   OH2 8141   0.412   5.021   1.727
 2712TIP3    H1 8142   0.427   5.040   1.634
 2712TIP3    H2 8143   0.370   4.935   1.727
 2713TIP3   OH2 8144   6.148   0.036   3.697
 2713TIP3    H1 8145   6.171   0.129   3.707
 2713TIP3    H2 8146   6.228  -0.010   3.722
 2714TIP3   OH2 8147   1.562   5.094   3.618
 2714TIP3    H1 8148   1.646   5.103   3.663
 2714TIP3    H2 8149   1.585   5.051   3.535
 2715TIP3   OH2 8150   2.547   5.850   2.989
 2715TIP3    H1 8151   2.527   5.897   2.909
 2715TIP3    H2 8152   2.638   5.874   3.009
 2716TIP3   OH2 8153   0.401   0.952   2.573
 2716TIP3    H1 8154   0.470   0.947   2.640
 2716TIP3    H2 8155   0.445   0.928   2.492
 2717TIP3   OH2 8156   1.095   4.519   0.374
 2717TIP3    H1 8157   1.102   4.612   0.399
 2717TIP3    H2 8158   1.087   4.473   0.458
 2718TIP3   OH2 8159   2.489   0.498   1.180
 2718TIP3    H1 8160   2.505   0.591   1.199
 2718TIP3    H2 8161   2.528   0.483   1.095
 2719TIP3   OH2 8162   3.317   0.982   0.693
 2719TIP3    H1 8163   3.357   0.896   0.701
 2719TIP3    H2 8164   3.340   1.027   0.775
 2720TIP3   OH2 8165   0.067   3.413   3.047
 2720TIP3    H1 8166  -0.021   3.374   3.050
 2720TIP3    H2 8167   0.111   3.365   2.977
 2721TIP3   OH2 8168   1.151   1.878   0.464
 2721TIP3    H1 8169   1.192   1.862   0.549
 2721TIP3    H2 8170   1.147   1.974   0.458
 2722TIP3   OH2 8171   0.728   3.276   1.668
 2722TIP3    H1 8172   0.641   3.237   1.666
 2722TIP3    H2 8173   0.716   3.364   1.632
 2723TIP3   OH2 8174   4.123   0.377   1.194
 2723TIP3    H1 8175   4.036   0.404   1.165
 2723TIP3    H2 8176   4.105   0.305   1.256
 2724TIP3   OH2 8177   6.313   3.796   3.172
 2724TIP3    H1 8178   6.239   3.822   3.118
 2724TIP3    H2 8179   6.279   3.726   3.228
 2725TIP3   OH2 8180   3.813   2.838   2.488
 2725TIP3    H1 8181   3.726   2.804   2.512
 2725TIP3    H2 8182   3.862   2.760   2.461
 2726TIP3   OH2 8183   5.954   2.140   5.059
 2726TIP3    H1 8184   6.008   2.082   5.004
 2726TIP3    H2 8185   6.018   2.193   5.107
 2727TIP3   OH2 8186   0.287   3.164   0.357
 2727TIP3    H1 8187   0.351   3.105   0.397
 2727TIP3    H2 8188   0.211   3.108   0.339
 2728TIP3   OH2 8189   2.937   3.447   2.242
 2728TIP3    H1 8190   2.897   3.406   2.319
 2728TIP3    H2 8191   3.021   3.404   2.232
 2729TIP3   OH2 8192   3.058   2.361   2.947
 2729TIP3    H1 8193   2.992   2.303   2.909
 2729TIP3    H2 8194   3.076   2.323   3.033
 2730TIP3   OH2 8195   1.520   0.580   1.186
 2730TIP3    H1 8196   1.540   0.672   1.169
 2730TIP3    H2 8197   1.524   0.539   1.100
 2731TIP3   OH2 8198   1.343   0.382   2.163
 2731TIP3    H1 8199   1.291   0.315   2.208
 2731TIP3    H2 8200   1.423   0.390   2.216
 2732TIP3   OH2 8201   3.322   1.782   2.179
 2732TIP3    H1 8202   3.411   1.747   2.183
 2732TIP3    H2 8203   3.320   1.848   2.248
 2733TIP3   OH2 8204   4.545   0.411   4.428
 2733TIP3    H1 8205   4.541   0.318   4.450
 2733TIP3    H2 8206   4.521   0.456   4.509
 2734TIP3   OH2 8207   2.309   5.230   4.104
 2734TIP3    H1 8208   2.220   5.212   4.074
 2734TIP3    H2 8209   2.344   5.143   4.125
 2735TIP3   OH2 8210   3.686   1.508   3.562
 2735TIP3    H1 8211   3.746   1.492   3.489
 2735TIP3    H2 8212   3.647   1.593   3.543
 2736TIP3   OH2 8213   0.783   5.853   3.640
 2736TIP3    H1 8214   0.808   5.771   3.683
 2736TIP3    H2 8215   0.788   5.834   3.547
 2737TIP3   OH2 8216   0.286   1.929   4.350
 2737TIP3    H1 8217   0.266   1.853   4.404
 2737TIP3    H2 8218   0.331   1.893   4.274
 2738TIP3   OH2 8219   4.706   3.894   4.264
 2738TIP3    H1 8220   4.788   3.874   4.308
 2738TIP3    H2 8221   4.641   3.837   4.305
 2739TIP3   OH2 8222   1.022   4.480   4.957
 2739TIP3    H1 8223   0.956   4.506   5.021
 2739TIP3    H2 8224   1.008   4.540   4.884
 2740TIP3   OH2 8225   5.634   5.291   0.929
 2740TIP3    H1 8226   5.664   5.380   0.911
 2740TIP3    H2 8227   5.713   5.238   0.924
 2741TIP3   OH2 8228   2.040   0.153   2.589
 2741TIP3    H1 8229   1.991   0.214   2.534
 2741TIP3    H2 8230   2.043   0.195   2.675
 2742TIP3   OH2 8231   1.719   0.972   4.413
 2742TIP3    H1 8232   1.677   1.023   4.482
 2742TIP3    H2 8233   1.808   0.957   4.444
 2743TIP3   OH2 8234   2.419   3.515   4.011
 2743TIP3    H1 8235   2.353   3.542   4.075
 2743TIP3    H2 8236   2.411   3.579   3.940
 2744TIP3   OH2 8237   2.645   1.861   4.027
 2744TIP3    H1 8238   2.642   1.813   3.944
 2744TIP3    H2 8239   2.631   1.794   4.094
 2745TIP3   OH2 8240   0.421   1.875   2.458
 2745TIP3    H1 8241   0.415   1.875   2.363
 2745TIP3    H2 8242   0.463   1.792   2.479
 2746TIP3   OH2 8243   5.298   5.395   0.467
 2746TIP3    H1 8244   5.378   5.346   0.453
 2746TIP3    H2 8245   5.242   5.373   0.392
 2747TIP3   OH2 8246   2.556   2.141   2.088
 2747TIP3    H1 8247   2.652   2.136   2.089
 2747TIP3    H2 8248   2.528   2.075   2.151
 2748TIP3   OH2 8249   0.182   2.100   4.569
 2748TIP3    H1 8250   0.138   2.057   4.495
 2748TIP3    H2 8251   0.199   2.029   4.631
 2749TIP3   OH2 8252   2.681   0.043   3.984
 2749TIP3    H1 8253   2.668   0.137   3.967
 2749TIP3    H2 8254   2.602   0.016   4.031
 2750TIP3   OH2 8255   2.124   3.056   0.963
 2750TIP3    H1 8256   2.090   2.970   0.985
 2750TIP3    H2 8257   2.173   3.084   1.041
 2751TIP3   OH2 8258   4.652   1.970   2.935
 2751TIP3    H1 8259   4.729   1.949   2.882
 2751TIP3    H2 8260   4.604   2.036   2.885
 2752TIP3   OH2 8261   3.861   0.490   0.102
 2752TIP3    H1 8262   3.792   0.468   0.039
 2752TIP3    H2 8263   3.852   0.426   0.172
 2753TIP3   OH2 8264   2.628   3.269   3.469
 2753TIP3    H1 8265   2.566   3.237   3.403
 2753TIP3    H2 8266   2.581   3.337   3.516
 2754TIP3   OH2 8267   2.797   1.306   2.805
 2754TIP3    H1 8268   2.711   1.304   2.847
 2754TIP3    H2 8269   2.859   1.288   2.876
 2755TIP3   OH2 8270   5.955   4.586   5.066
 2755TIP3    H1 8271   6.049   4.592   5.050
 2755TIP3    H2 8272   5.939   4.493   5.084
 2756TIP3   OH2 8273   6.234   0.263   4.202
 2756TIP3    H1 8274   6.268   0.343   4.241
 2756TIP3    H2 8275   6.263   0.193   4.261
 2757TIP3   OH2 8276   6.247   1.392   3.966
 2757TIP3    H1 8277   6.165   1.391   4.015
 2757TIP3    H2 8278   6.271   1.484   3.961
 2758TIP3   OH2 8279   5.674   3.734   4.751
 2758TIP3    H1 8280   5.630   3.740   4.836
 2758TIP3    H2 8281   5.689   3.640   4.739
 2759TIP3   OH2 8282   2.069   5.664   3.492
 2759TIP3    H1 8283   2.032   5.747   3.462
 2759TIP3    H2 8284   2.082   5.677   3.586
 2760TIP3   OH2 8285   5.237   4.017   2.534
 2760TIP3    H1 8286   5.296   4.031   2.609
 2760TIP3    H2 8287   5.224   4.105   2.498
 2761TIP3   OH2 8288   0.440   5.656   3.229
 2761TIP3    H1 8289   0.356   5.641   3.273
 2761TIP3    H2 8290   0.505   5.642   3.298
 2762TIP3   OH2 8291   2.923   2.337   0.309
 2762TIP3    H1 8292   2.929   2.426   0.275
 2762TIP3    H2 8293   2.834   2.309   0.288
 2763TIP3   OH2 8294   4.115   4.166   4.580
 2763TIP3    H1 8295   4.069   4.246   4.555
 2763TIP3    H2 8296   4.071   4.097   4.530
 2764TIP3   OH2 8297   2.761   1.983   1.745
 2764TIP3    H1 8298   2.706   2.059   1.764
 2764TIP3    H2 8299   2.842   1.999   1.794
 2765TIP3   OH2 8300   5.531   5.225   0.525
 2765TIP3    H1 8301   5.569   5.171   0.595
 2765TIP3    H2 8302   5.535   5.169   0.447
 2766TIP3   OH2 8303   2.438   5.352   4.815
 2766TIP3    H1 8304   2.414   5.406   4.740
 2766TIP3    H2 8305   2.400   5.266   4.796
 2767TIP3   OH2 8306   2.405   0.264   0.718
 2767TIP3    H1 8307   2.429   0.352   0.748
 2767TIP3    H2 8308   2.488   0.218   0.710
 2768TIP3   OH2 8309   6.221   1.135   2.937
 2768TIP3    H1 8310   6.142   1.176   2.901
 2768TIP3    H2 8311   6.293   1.182   2.895
 2769TIP3   OH2 8312   3.677   5.454   1.046
 2769TIP3    H1 8313   3.705   5.364   1.028
 2769TIP3    H2 8314   3.586   5.445   1.074
 2770TIP3   OH2 8315   3.503   0.835   1.113
 2770TIP3    H1 8316   3.545   0.879   1.186
 2770TIP3    H2 8317   3.410   0.855   1.122
 2771TIP3   OH2 8318   2.889   2.759   2.369
 2771TIP3    H1 8319   2.852   2.787   2.286
 2771TIP3    H2 8320   2.826   2.696   2.404
 2772TIP3   OH2 8321   6.168   3.422   1.918
 2772TIP3    H1 8322   6.081   3.422   1.877
 2772TIP3    H2 8323   6.221   3.366   1.861
 2773TIP3   OH2 8324   1.700   5.506   0.991
 2773TIP3    H1 8325   1.716   5.517   1.085
 2773TIP3    H2 8326   1.715   5.592   0.953
 2774TIP3   OH2 8327   2.672   2.229   0.277
 2774TIP3    H1 8328   2.631   2.144   0.263
 2774TIP3    H2 8329   2.606   2.280   0.324
 2775TIP3   OH2 8330   3.922   5.734   1.531
 2775TIP3    H1 8331   3.887   5.823   1.523
 2775TIP3    H2 8332   4.007   5.746   1.574
 2776TIP3   OH2 8333   2.696   5.671   1.606
 2776TIP3    H1 8334   2.614   5.652   1.652
 2776TIP3    H2 8335   2.679   5.645   1.515
 2777TIP3   OH2 8336   1.346   5.378   1.872
 2777TIP3    H1 8337   1.429   5.370   1.826
 2777TIP3    H2 8338   1.356   5.457   1.926
 2778TIP3   OH2 8339   2.801   2.309   0.816
 2778TIP3    H1 8340   2.873   2.268   0.864
 2778TIP3    H2 8341   2.820   2.291   0.724
 2779TIP3   OH2 8342   4.479   4.652   3.657
 2779TIP3    H1 8343   4.509   4.737   3.687
 2779TIP3    H2 8344   4.557   4.609   3.623
 2780TIP3   OH2 8345   1.002   5.354   3.836
 2780TIP3    H1 8346   1.089   5.347   3.795
 2780TIP3    H2 8347   0.941   5.362   3.762
 2781TIP3   OH2 8348   4.670   3.541   1.256
 2781TIP3    H1 8349   4.635   3.544   1.167
 2781TIP3    H2 8350   4.717   3.624   1.267
 2782TIP3   OH2 8351   0.699   5.658   4.844
 2782TIP3    H1 8352   0.721   5.751   4.847
 2782TIP3    H2 8353   0.613   5.655   4.801
 2783TIP3   OH2 8354   3.594   4.297   1.903
 2783TIP3    H1 8355   3.684   4.289   1.935
 2783TIP3    H2 8356   3.571   4.209   1.874
 2784TIP3   OH2 8357   4.561   4.083   4.139
 2784TIP3    H1 8358   4.595   4.156   4.189
 2784TIP3    H2 8359   4.613   4.008   4.168
 2785TIP3   OH2 8360   4.599   2.989   1.329
 2785TIP3    H1 8361   4.535   3.039   1.380
 2785TIP3    H2 8362   4.675   2.980   1.387
 2786TIP3   OH2 8363   2.764   3.563   4.626
 2786TIP3    H1 8364   2.757   3.598   4.716
 2786TIP3    H2 8365   2.675   3.570   4.592
 2787TIP3   OH2 8366   0.685   4.255   1.859
 2787TIP3    H1 8367   0.662   4.337   1.902
 2787TIP3    H2 8368   0.602   4.221   1.825
 2788TIP3   OH2 8369   3.969   0.442   4.237
 2788TIP3    H1 8370   4.050   0.461   4.188
 2788TIP3    H2 8371   3.936   0.361   4.198
 2789TIP3   OH2 8372   3.276   5.847   3.228
 2789TIP3    H1 8373   3.328   5.843   3.148
 2789TIP3    H2 8374   3.193   5.807   3.205
 2790TIP3   OH2 8375   5.382   4.414   4.873
 2790TIP3    H1 8376   5.451   4.457   4.924
 2790TIP3    H2 8377   5.429   4.352   4.817
 2791TIP3   OH2 8378   2.613   0.158   2.781
 2791TIP3    H1 8379   2.530   0.126   2.748
 2791TIP3    H2 8380   2.651   0.206   2.707
 2792TIP3   OH2 8381   0.183   1.819   1.597
 2792TIP3    H1 8382   0.249   1.864   1.545
 2792TIP3    H2 8383   0.194   1.727   1.575
 2793TIP3   OH2 8384   4.397   1.145   2.532
 2793TIP3    H1 8385   4.354   1.088   2.596
 2793TIP3    H2 8386   4.395   1.232   2.572
 2794TIP3   OH2 8387   0.480   1.779   0.355
 2794TIP3    H1 8388   0.402   1.811   0.312
 2794TIP3    H2 8389   0.521   1.720   0.292
 2795TIP3   OH2 8390   3.126   2.882   4.327
 2795TIP3    H1 8391   3.091   2.832   4.400
 2795TIP3    H2 8392   3.220   2.887   4.343
 2796TIP3   OH2 8393   1.624   0.026   1.748
 2796TIP3    H1 8394   1.606  -0.009   1.835
 2796TIP3    H2 8395   1.543   0.070   1.723
 2797TIP3   OH2 8396   1.992   2.998   1.291
 2797TIP3    H1 8397   2.020   2.907   1.281
 2797TIP3    H2 8398   2.044   3.032   1.363
 2798TIP3   OH2 8399   5.777   1.729   2.401
 2798TIP3    H1 8400   5.725   1.648   2.397
 2798TIP3    H2 8401   5.866   1.699   2.418
 2799TIP3   OH2 8402   0.147   1.708   2.538
 2799TIP3    H1 8403   0.192   1.702   2.623
 2799TIP3    H2 8404   0.210   1.674   2.475
 2800TIP3   OH2 8405   0.263   3.644   4.389
 2800TIP3    H1 8406   0.297   3.633   4.478
 2800TIP3    H2 8407   0.205   3.568   4.376
 2801TIP3   OH2 8408   2.958   1.007   2.466
 2801TIP3    H1 8409   2.962   1.056   2.383
 2801TIP3    H2 8410   2.875   1.034   2.505
 2802TIP3   OH2 8411   2.268   1.754   2.313
 2802TIP3    H1 8412   2.180   1.730   2.285
 2802TIP3    H2 8413   2.320   1.675   2.296
 2803TIP3   OH2 8414   5.795   3.250   2.385
 2803TIP3    H1 8415   5.737   3.323   2.364
 2803TIP3    H2 8416   5.867   3.290   2.433
 2804TIP3   OH2 8417   1.447   2.890   1.477
 2804TIP3    H1 8418   1.423   2.819   1.418
 2804TIP3    H2 8419   1.537   2.870   1.504
 2805TIP3   OH2 8420   5.478   0.056   1.141
 2805TIP3    H1 8421   5.405   0.024   1.088
 2805TIP3    H2 8422   5.463   0.016   1.228
 2806TIP3   OH2 8423   6.238   1.602   2.277
 2806TIP3    H1 8424   6.220   1.690   2.308
 2806TIP3    H2 8425   6.201   1.544   2.344
 2807TIP3   OH2 8426   5.728   3.976   0.820
 2807TIP3    H1 8427   5.796   4.032   0.855
 2807TIP3    H2 8428   5.711   4.010   0.732
 2808TIP3   OH2 8429   5.580   2.119   1.777
 2808TIP3    H1 8430   5.666   2.152   1.806
 2808TIP3    H2 8431   5.587   2.024   1.789
 2809TIP3   OH2 8432   1.391   5.622   3.065
 2809TIP3    H1 8433   1.380   5.564   2.990
 2809TIP3    H2 8434   1.479   5.603   3.097
 2810TIP3   OH2 8435   0.930   5.285   0.308
 2810TIP3    H1 8436   1.009   5.238   0.282
 2810TIP3    H2 8437   0.894   5.318   0.225
 2811TIP3   OH2 8438   1.871   1.107   4.102
 2811TIP3    H1 8439   1.926   1.035   4.133
 2811TIP3    H2 8440   1.838   1.148   4.181
 2812TIP3   OH2 8441   4.263   5.050   0.142
 2812TIP3    H1 8442   4.246   4.957   0.157
 2812TIP3    H2 8443   4.191   5.077   0.084
 2813TIP3   OH2 8444   5.697   2.081   2.791
 2813TIP3    H1 8445   5.763   2.145   2.819
 2813TIP3    H2 8446   5.748   2.004   2.766
 2814TIP3   OH2 8447   6.129   1.346   4.762
 2814TIP3    H1 8448   6.145   1.266   4.713
 2814TIP3    H2 8449   6.211   1.395   4.757
 2815TIP3   OH2 8450   2.296   0.928   2.591
 2815TIP3    H1 8451   2.270   0.840   2.618
 2815TIP3    H2 8452   2.217   0.981   2.602
 2816TIP3   OH2 8453   3.016   5.559   0.127
 2816TIP3    H1 8454   3.035   5.644   0.166
 2816TIP3    H2 8455   2.930   5.536   0.161
 2817TIP3   OH2 8456   1.031   4.555   2.279
 2817TIP3    H1 8457   1.008   4.564   2.371
 2817TIP3    H2 8458   1.015   4.641   2.241
 2818TIP3   OH2 8459   6.263   1.657   3.986
 2818TIP3    H1 8460   6.191   1.656   3.923
 2818TIP3    H2 8461   6.278   1.750   4.004
 2819TIP3   OH2 8462   0.187   3.225   4.996
 2819TIP3    H1 8463   0.228   3.311   4.997
 2819TIP3    H2 8464   0.260   3.164   5.008
 2820TIP3   OH2 8465   2.026   2.128   0.691
 2820TIP3    H1 8466   2.078   2.174   0.756
 2820TIP3    H2 8467   2.072   2.045   0.676
 2821TIP3   OH2 8468   1.828   2.890   0.077
 2821TIP3    H1 8469   1.740   2.924   0.093
 2821TIP3    H2 8470   1.815   2.818   0.015
 2822TIP3   OH2 8471   5.749   2.303   2.484
 2822TIP3    H1 8472   5.699   2.293   2.565
 2822TIP3    H2 8473   5.685   2.334   2.420
 2823TIP3   OH2 8474   2.741   5.219   2.913
 2823TIP3    H1 8475   2.698   5.184   2.990
 2823TIP3    H2 8476   2.693   5.300   2.893
 2824TIP3   OH2 8477   6.080   4.188   1.470
 2824TIP3    H1 8478   5.994   4.150   1.489
 2824TIP3    H2 8479   6.118   4.129   1.404
 2825TIP3   OH2 8480   2.870   5.168   4.430
 2825TIP3    H1 8481   2.800   5.175   4.496
 2825TIP3    H2 8482   2.824   5.161   4.347
 2826TIP3   OH2 8483   0.307   0.482   2.644
 2826TIP3    H1 8484   0.243   0.507   2.710
 2826TIP3    H2 8485   0.269   0.512   2.561
 2827TIP3   OH2 8486   3.109   5.505   2.978
 2827TIP3    H1 8487   3.035   5.471   3.028
 2827TIP3    H2 8488   3.185   5.494   3.036
 2828TIP3   OH2 8489   3.152   3.856   2.710
 2828TIP3    H1 8490   3.187   3.860   2.621
 2828TIP3    H2 8491   3.199   3.924   2.758
 2829TIP3   OH2 8492   0.250   2.601   1.911
 2829TIP3    H1 8493   0.243   2.535   1.842
 2829TIP3    H2 8494   0.320   2.569   1.968
 2830TIP3   OH2 8495   3.689   2.213   0.812
 2830TIP3    H1 8496   3.677   2.194   0.905
 2830TIP3    H2 8497   3.747   2.289   0.811
 2831TIP3   OH2 8498   3.991   2.160   1.066
 2831TIP3    H1 8499   3.988   2.256   1.060
 2831TIP3    H2 8500   4.083   2.141   1.087
 2832TIP3   OH2 8501   5.856   1.671   0.932
 2832TIP3    H1 8502   5.910   1.693   0.856
 2832TIP3    H2 8503   5.814   1.588   0.909
 2833TIP3   OH2 8504   1.027   2.439   3.528
 2833TIP3    H1 8505   1.042   2.515   3.472
 2833TIP3    H2 8506   1.018   2.365   3.467
 2834TIP3   OH2 8507   1.171   1.727   4.893
 2834TIP3    H1 8508   1.131   1.755   4.811
 2834TIP3    H2 8509   1.109   1.664   4.930
 2835TIP3   OH2 8510   3.897   4.406   1.675
 2835TIP3    H1 8511   3.821   4.457   1.702
 2835TIP3    H2 8512   3.964   4.471   1.654
 2836TIP3   OH2 8513   1.834   1.193   2.702
 2836TIP3    H1 8514   1.843   1.190   2.797
 2836TIP3    H2 8515   1.788   1.113   2.679
 2837TIP3   OH2 8516   1.058   2.728   0.353
 2837TIP3    H1 8517   1.135   2.749   0.405
 2837TIP3    H2 8518   1.082   2.649   0.305
 2838TIP3   OH2 8519   3.081   5.133   1.073
 2838TIP3    H1 8520   3.095   5.226   1.093
 2838TIP3    H2 8521   2.989   5.128   1.047
 2839TIP3   OH2 8522   6.312   4.823   2.932
 2839TIP3    H1 8523   6.350   4.870   2.858
 2839TIP3    H2 8524   6.329   4.878   3.008
 2840TIP3   OH2 8525   2.670   1.054   5.105
 2840TIP3    H1 8526   2.587   1.014   5.128
 2840TIP3    H2 8527   2.665   1.068   5.010
 2841TIP3   OH2 8528   2.486   5.171   1.368
 2841TIP3    H1 8529   2.573   5.184   1.329
 2841TIP3    H2 8530   2.427   5.217   1.309
 2842TIP3   OH2 8531   3.910   0.258   0.261
 2842TIP3    H1 8532   3.982   0.229   0.205
 2842TIP3    H2 8533   3.863   0.178   0.284
 2843TIP3   OH2 8534   4.215   4.766   0.152
 2843TIP3    H1 8535   4.155   4.708   0.198
 2843TIP3    H2 8536   4.255   4.711   0.084
 2844TIP3   OH2 8537   6.143   5.598   1.973
 2844TIP3    H1 8538   6.074   5.547   2.015
 2844TIP3    H2 8539   6.189   5.641   2.046
 2845TIP3   OH2 8540   1.321   3.049   4.217
 2845TIP3    H1 8541   1.320   2.955   4.198
 2845TIP3    H2 8542   1.373   3.056   4.297
 2846TIP3   OH2 8543   0.987   5.042   5.080
 2846TIP3    H1 8544   1.043   5.118   5.096
 2846TIP3    H2 8545   0.937   5.031   5.161
 2847TIP3   OH2 8546   6.295   3.884   5.076
 2847TIP3    H1 8547   6.297   3.809   5.135
 2847TIP3    H2 8548   6.209   3.923   5.088
 2848TIP3   OH2 8549   0.887   3.126   1.429
 2848TIP3    H1 8550   0.965   3.097   1.477
 2848TIP3    H2 8551   0.920   3.190   1.366
 2849TIP3   OH2 8552   2.192   3.354   5.040
 2849TIP3    H1 8553   2.133   3.390   5.106
 2849TIP3    H2 8554   2.135   3.303   4.983
 2850TIP3   OH2 8555   3.180   1.381   2.327
 2850TIP3    H1 8556   3.096   1.339   2.346
 2850TIP3    H2 8557   3.164   1.434   2.249
 2851TIP3   OH2 8558   5.840   3.273   3.637
 2851TIP3    H1 8559   5.849   3.365   3.612
 2851TIP3    H2 8560   5.888   3.267   3.720
 2852TIP3   OH2 8561   2.255   3.276   1.416
 2852TIP3    H1 8562   2.169   3.317   1.418
 2852TIP3    H2 8563   2.251   3.207   1.482
 2853TIP3   OH2 8564   0.226   5.068   2.938
 2853TIP3    H1 8565   0.172   5.089   2.862
 2853TIP3    H2 8566   0.297   5.015   2.903
 2854TIP3   OH2 8567   1.876   0.809   0.943
 2854TIP3    H1 8568   1.885   0.725   0.987
 2854TIP3    H2 8569   1.859   0.787   0.852
 2855TIP3   OH2 8570   3.509   1.200   1.140
 2855TIP3    H1 8571   3.604   1.196   1.155
 2855TIP3    H2 8572   3.475   1.244   1.218
 2856TIP3   OH2 8573   2.560   3.264   5.075
 2856TIP3    H1 8574   2.559   3.320   5.153
 2856TIP3    H2 8575   2.518   3.317   5.008
 2857TIP3   OH2 8576   4.875   2.978   2.342
 2857TIP3    H1 8577   4.845   3.067   2.320
 2857TIP3    H2 8578   4.838   2.923   2.272
 2858TIP3   OH2 8579   3.714   1.600   4.293
 2858TIP3    H1 8580   3.782   1.568   4.232
 2858TIP3    H2 8581   3.741   1.688   4.315
 2859TIP3   OH2 8582   2.022   0.053   0.441
 2859TIP3    H1 8583   1.956   0.107   0.398
 2859TIP3    H2 8584   2.069   0.114   0.498
 2860TIP3   OH2 8585   3.489   0.194   4.844
 2860TIP3    H1 8586   3.510   0.110   4.883
 2860TIP3    H2 8587   3.574   0.232   4.820
 2861TIP3   OH2 8588   0.463   3.127   5.070
 2861TIP3    H1 8589   0.480   3.078   5.150
 2861TIP3    H2 8590   0.500   3.071   5.000
 2862TIP3   OH2 8591   2.401   4.047   0.658
 2862TIP3    H1 8592   2.350   4.070   0.580
 2862TIP3    H2 8593   2.380   3.954   0.672
 2863TIP3   OH2 8594   0.401   1.851   5.100
 2863TIP3    H1 8595   0.448   1.782   5.053
 2863TIP3    H2 8596   0.402   1.823   5.191
 2864TIP3   OH2 8597   5.501   0.600   4.934
 2864TIP3    H1 8598   5.416   0.557   4.928
 2864TIP3    H2 8599   5.538   0.594   4.846
 2865TIP3   OH2 8600   0.950   0.806   3.725
 2865TIP3    H1 8601   0.975   0.752   3.800
 2865TIP3    H2 8602   0.947   0.895   3.759
 2866TIP3   OH2 8603   2.249   4.568   1.648
 2866TIP3    H1 8604   2.155   4.570   1.668
 2866TIP3    H2 8605   2.288   4.626   1.714
 2867TIP3   OH2 8606   4.170   2.701   3.878
 2867TIP3    H1 8607   4.121   2.765   3.930
 2867TIP3    H2 8608   4.109   2.628   3.866
 2868TIP3   OH2 8609   2.514   4.744   2.726
 2868TIP3    H1 8610   2.532   4.651   2.739
 2868TIP3    H2 8611   2.428   4.758   2.766
 2869TIP3   OH2 8612   1.253   4.794   1.665
 2869TIP3    H1 8613   1.338   4.769   1.700
 2869TIP3    H2 8614   1.191   4.736   1.710
 2870TIP3   OH2 8615   2.906   4.706   2.496
 2870TIP3    H1 8616   2.996   4.738   2.491
 2870TIP3    H2 8617   2.865   4.736   2.415
 2871TIP3   OH2 8618   6.011   0.087   4.159
 2871TIP3    H1 8619   6.045   0.064   4.246
 2871TIP3    H2 8620   6.063   0.163   4.133
 2872TIP3   OH2 8621   0.091   1.373   1.278
 2872TIP3    H1 8622   0.060   1.462   1.261
 2872TIP3    H2 8623   0.016   1.317   1.257
 2873TIP3   OH2 8624   1.622   1.933   1.159
 2873TIP3    H1 8625   1.591   1.850   1.194
 2873TIP3    H2 8626   1.641   1.916   1.067
 2874TIP3   OH2 8627   0.959   4.049   4.667
 2874TIP3    H1 8628   0.989   4.127   4.713
 2874TIP3    H2 8629   0.904   4.003   4.730
 2875TIP3   OH2 8630   1.467   4.114   4.093
 2875TIP3    H1 8631   1.393   4.054   4.093
 2875TIP3    H2 8632   1.448   4.177   4.163
 2876TIP3   OH2 8633   2.135   3.858   2.923
 2876TIP3    H1 8634   2.080   3.802   2.978
 2876TIP3    H2 8635   2.095   3.855   2.837
 2877TIP3   OH2 8636   5.697   1.091   4.827
 2877TIP3    H1 8637   5.657   1.173   4.797
 2877TIP3    H2 8638   5.763   1.119   4.891
 2878TIP3   OH2 8639   0.145   0.247   1.928
 2878TIP3    H1 8640   0.114   0.232   2.017
 2878TIP3    H2 8641   0.144   0.342   1.917
 2879TIP3   OH2 8642   4.510   1.141   2.145
 2879TIP3    H1 8643   4.557   1.159   2.064
 2879TIP3    H2 8644   4.573   1.095   2.200
 2880TIP3   OH2 8645   0.702   5.118   2.869
 2880TIP3    H1 8646   0.773   5.142   2.809
 2880TIP3    H2 8647   0.656   5.201   2.886
 2881TIP3   OH2 8648   0.886   5.125   4.626
 2881TIP3    H1 8649   0.848   5.212   4.615
 2881TIP3    H2 8650   0.906   5.096   4.537
 2882TIP3   OH2 8651   1.419   3.328   3.347
 2882TIP3    H1 8652   1.475   3.406   3.353
 2882TIP3    H2 8653   1.405   3.316   3.254
 2883TIP3   OH2 8654   3.711   4.181   1.613
 2883TIP3    H1 8655   3.753   4.126   1.548
 2883TIP3    H2 8656   3.774   4.252   1.629
 2884TIP3   OH2 8657   5.470   5.332   5.121
 2884TIP3    H1 8658   5.492   5.250   5.165
 2884TIP3    H2 8659   5.456   5.395   5.192
 2885TIP3   OH2 8660   1.360   3.643   4.661
 2885TIP3    H1 8661   1.383   3.555   4.692
 2885TIP3    H2 8662   1.266   3.650   4.679
 2886TIP3   OH2 8663   1.883   2.996   2.873
 2886TIP3    H1 8664   1.929   2.922   2.912
 2886TIP3    H2 8665   1.799   2.960   2.844
 2887TIP3   OH2 8666   1.912   5.255   0.614
 2887TIP3    H1 8667   1.941   5.171   0.651
 2887TIP3    H2 8668   1.981   5.316   0.639
 2888TIP3   OH2 8669   4.836   3.746   4.930
 2888TIP3    H1 8670   4.873   3.831   4.954
 2888TIP3    H2 8671   4.746   3.766   4.903
 2889TIP3   OH2 8672   3.544   4.851   1.055
 2889TIP3    H1 8673   3.503   4.937   1.056
 2889TIP3    H2 8674   3.480   4.793   1.096
 2890TIP3   OH2 8675   3.433   3.933   0.120
 2890TIP3    H1 8676   3.457   3.853   0.168
 2890TIP3    H2 8677   3.410   3.901   0.032
 2891TIP3   OH2 8678   5.289   0.544   0.955
 2891TIP3    H1 8679   5.233   0.472   0.984
 2891TIP3    H2 8680   5.309   0.522   0.864
 2892TIP3   OH2 8681   0.512   3.941   1.716
 2892TIP3    H1 8682   0.591   3.956   1.664
 2892TIP3    H2 8683   0.477   3.858   1.684
 2893TIP3   OH2 8684   1.915   3.848   2.719
 2893TIP3    H1 8685   1.873   3.927   2.685
 2893TIP3    H2 8686   1.856   3.777   2.693
 2894TIP3   OH2 8687   3.054   4.946   3.353
 2894TIP3    H1 8688   2.963   4.947   3.382
 2894TIP3    H2 8689   3.096   4.879   3.407
 2895TIP3   OH2 8690   5.192   4.672   4.007
 2895TIP3    H1 8691   5.225   4.757   4.035
 2895TIP3    H2 8692   5.182   4.680   3.913
 2896TIP3   OH2 8693   4.869   2.301   1.017
 2896TIP3    H1 8694   4.830   2.314   0.930
 2896TIP3    H2 8695   4.810   2.347   1.077
 2897TIP3   OH2 8696   0.206   2.497   3.916
 2897TIP3    H1 8697   0.129   2.547   3.887
 2897TIP3    H2 8698   0.272   2.516   3.850
 2898TIP3   OH2 8699   2.646   5.107   3.165
 2898TIP3    H1 8700   2.592   5.186   3.162
 2898TIP3    H2 8701   2.668   5.096   3.258
 2899TIP3   OH2 8702   0.130   4.759   0.575
 2899TIP3    H1 8703   0.074   4.740   0.651
 2899TIP3    H2 8704   0.072   4.801   0.512
 2900TIP3   OH2 8705   2.563   2.651   0.223
 2900TIP3    H1 8706   2.479   2.607   0.206
 2900TIP3    H2 8707   2.560   2.730   0.169
 2901TIP3   OH2 8708   2.980   3.344   0.965
 2901TIP3    H1 8709   2.926   3.422   0.950
 2901TIP3    H2 8710   3.022   3.328   0.881
 2902TIP3   OH2 8711   6.357   1.444   5.024
 2902TIP3    H1 8712   6.307   1.523   5.004
 2902TIP3    H2 8713   6.444   1.476   5.045
 2903TIP3   OH2 8714   5.027   3.851   1.960
 2903TIP3    H1 8715   4.968   3.833   1.887
 2903TIP3    H2 8716   5.112   3.869   1.919
 2904TIP3   OH2 8717   1.369   2.667   3.219
 2904TIP3    H1 8718   1.354   2.573   3.227
 2904TIP3    H2 8719   1.337   2.703   3.301
 2905TIP3   OH2 8720   1.861   0.705   2.769
 2905TIP3    H1 8721   1.924   0.634   2.776
 2905TIP3    H2 8722   1.776   0.661   2.766
 2906TIP3   OH2 8723   3.201   1.758   4.136
 2906TIP3    H1 8724   3.251   1.836   4.113
 2906TIP3    H2 8725   3.244   1.724   4.214
 2907TIP3   OH2 8726   1.293   3.171   1.424
 2907TIP3    H1 8727   1.284   3.082   1.391
 2907TIP3    H2 8728   1.254   3.226   1.356
 2908TIP3   OH2 8729   1.132   1.598   0.126
 2908TIP3    H1 8730   1.146   1.504   0.119
 2908TIP3    H2 8731   1.087   1.609   0.210
 2909TIP3   OH2 8732   5.278   5.841   0.755
 2909TIP3    H1 8733   5.290   5.817   0.847
 2909TIP3    H2 8734   5.267   5.936   0.755
 2910TIP3   OH2 8735   3.649   0.350   0.927
 2910TIP3    H1 8736   3.615   0.291   0.994
 2910TIP3    H2 8737   3.642   0.437   0.966
 2911TIP3   OH2 8738   4.795   5.457   2.087
 2911TIP3    H1 8739   4.711   5.421   2.114
 2911TIP3    H2 8740   4.826   5.506   2.164
 2912TIP3   OH2 8741   1.713   4.543   4.803
 2912TIP3    H1 8742   1.786   4.589   4.760
 2912TIP3    H2 8743   1.664   4.612   4.847
 2913TIP3   OH2 8744   5.422   3.399   3.106
 2913TIP3    H1 8745   5.383   3.482   3.135
 2913TIP3    H2 8746   5.356   3.333   3.128
 2914TIP3   OH2 8747   2.887   4.378   4.226
 2914TIP3    H1 8748   2.890   4.282   4.221
 2914TIP3    H2 8749   2.846   4.405   4.144
 2915TIP3   OH2 8750   1.333   2.907   2.953
 2915TIP3    H1 8751   1.377   2.822   2.944
 2915TIP3    H2 8752   1.313   2.914   3.046
 2916TIP3   OH2 8753   5.071   4.524   4.863
 2916TIP3    H1 8754   4.998   4.579   4.833
 2916TIP3    H2 8755   5.134   4.528   4.791
 2917TIP3   OH2 8756   4.699   0.238   4.070
 2917TIP3    H1 8757   4.628   0.174   4.078
 2917TIP3    H2 8758   4.756   0.202   4.002
 2918TIP3   OH2 8759   5.365   3.743   1.213
 2918TIP3    H1 8760   5.417   3.670   1.246
 2918TIP3    H2 8761   5.289   3.702   1.172
 2919TIP3   OH2 8762   1.786   3.501   0.505
 2919TIP3    H1 8763   1.876   3.531   0.496
 2919TIP3    H2 8764   1.794   3.410   0.533
 2920TIP3   OH2 8765   5.824   4.764   2.617
 2920TIP3    H1 8766   5.870   4.725   2.692
 2920TIP3    H2 8767   5.732   4.757   2.640
 2921TIP3   OH2 8768   5.801   2.971   1.180
 2921TIP3    H1 8769   5.872   2.917   1.214
 2921TIP3    H2 8770   5.739   2.910   1.141
 2922TIP3   OH2 8771   6.006   2.295   3.609
 2922TIP3    H1 8772   5.992   2.386   3.582
 2922TIP3    H2 8773   5.941   2.280   3.677
 2923TIP3   OH2 8774   0.245   1.237   2.375
 2923TIP3    H1 8775   0.257   1.250   2.281
 2923TIP3    H2 8776   0.209   1.149   2.383
 2924TIP3   OH2 8777   0.630   2.042   2.574
 2924TIP3    H1 8778   0.538   2.028   2.553
 2924TIP3    H2 8779   0.651   2.126   2.532
 2925TIP3   OH2 8780   0.077   2.312   1.795
 2925TIP3    H1 8781   0.163   2.354   1.792
 2925TIP3    H2 8782   0.093   2.222   1.767
 2926TIP3   OH2 8783   3.511   3.308   3.391
 2926TIP3    H1 8784   3.546   3.319   3.479
 2926TIP3    H2 8785   3.585   3.280   3.338
 2927TIP3   OH2 8786   2.989   2.491   4.115
 2927TIP3    H1 8787   2.920   2.457   4.057
 2927TIP3    H2 8788   2.950   2.488   4.202
 2928TIP3   OH2 8789   5.618   5.911   4.949
 2928TIP3    H1 8790   5.706   5.946   4.942
 2928TIP3    H2 8791   5.562   5.988   4.957
 2929TIP3   OH2 8792   3.702   5.744   3.221
 2929TIP3    H1 8793   3.652   5.718   3.298
 2929TIP3    H2 8794   3.728   5.834   3.238
 2930TIP3   OH2 8795   3.256   1.251   2.776
 2930TIP3    H1 8796   3.342   1.244   2.818
 2930TIP3    H2 8797   3.270   1.310   2.702
 2931TIP3   OH2 8798   5.159   5.543   0.767
 2931TIP3    H1 8799   5.215   5.466   0.764
 2931TIP3    H2 8800   5.209   5.611   0.721
 2932TIP3   OH2 8801   2.584   0.341   1.484
 2932TIP3    H1 8802   2.632   0.357   1.566
 2932TIP3    H2 8803   2.550   0.252   1.494
 2933TIP3   OH2 8804   4.591   3.873   2.158
 2933TIP3    H1 8805   4.630   3.787   2.143
 2933TIP3    H2 8806   4.544   3.893   2.077
 2934TIP3   OH2 8807   6.066   0.146   3.205
 2934TIP3    H1 8808   6.075   0.086   3.131
 2934TIP3    H2 8809   6.152   0.145   3.247
 2935TIP3   OH2 8810   2.498   0.313   1.830
 2935TIP3    H1 8811   2.462   0.319   1.918
 2935TIP3    H2 8812   2.427   0.340   1.773
 2936TIP3   OH2 8813   5.605   2.142   0.396
 2936TIP3    H1 8814   5.575   2.233   0.398
 2936TIP3    H2 8815   5.577   2.107   0.481
 2937TIP3   OH2 8816   4.482   0.283   2.894
 2937TIP3    H1 8817   4.396   0.262   2.859
 2937TIP3    H2 8818   4.476   0.373   2.923
 2938TIP3   OH2 8819   5.299   2.174   1.987
 2938TIP3    H1 8820   5.263   2.200   2.072
 2938TIP3    H2 8821   5.381   2.130   2.009
 2939TIP3   OH2 8822   4.332   4.683   2.903
 2939TIP3    H1 8823   4.240   4.707   2.912
 2939TIP3    H2 8824   4.358   4.654   2.990
 2940TIP3   OH2 8825   1.543   1.454   3.593
 2940TIP3    H1 8826   1.609   1.471   3.525
 2940TIP3    H2 8827   1.521   1.361   3.583
 2941TIP3   OH2 8828   4.112   0.824   5.168
 2941TIP3    H1 8829   4.017   0.836   5.173
 2941TIP3    H2 8830   4.125   0.730   5.179
 2942TIP3   OH2 8831   1.098   2.102   1.965
 2942TIP3    H1 8832   1.027   2.067   2.019
 2942TIP3    H2 8833   1.107   2.193   1.993
 2943TIP3   OH2 8834   2.546   0.728   4.200
 2943TIP3    H1 8835   2.599   0.663   4.246
 2943TIP3    H2 8836   2.605   0.802   4.188
 2944TIP3   OH2 8837   4.180   2.632   3.476
 2944TIP3    H1 8838   4.127   2.629   3.396
 2944TIP3    H2 8839   4.270   2.623   3.445
 2945TIP3   OH2 8840   3.886   4.656   2.370
 2945TIP3    H1 8841   3.930   4.688   2.449
 2945TIP3    H2 8842   3.893   4.561   2.376
 2946TIP3   OH2 8843   4.290   2.679   2.406
 2946TIP3    H1 8844   4.279   2.617   2.477
 2946TIP3    H2 8845   4.298   2.764   2.449
 2947TIP3   OH2 8846   0.799   2.510   3.660
 2947TIP3    H1 8847   0.884   2.500   3.619
 2947TIP3    H2 8848   0.758   2.424   3.653
 2948TIP3   OH2 8849   1.982   0.418   3.731
 2948TIP3    H1 8850   1.941   0.473   3.664
 2948TIP3    H2 8851   1.951   0.329   3.711
 2949TIP3   OH2 8852   3.897   0.361   0.784
 2949TIP3    H1 8853   3.804   0.359   0.807
 2949TIP3    H2 8854   3.939   0.308   0.852
 2950TIP3   OH2 8855   4.366   2.207   0.853
 2950TIP3    H1 8856   4.305   2.143   0.890
 2950TIP3    H2 8857   4.407   2.248   0.929
 2951TIP3   OH2 8858   5.147   4.604   0.608
 2951TIP3    H1 8859   5.127   4.511   0.602
 2951TIP3    H2 8860   5.076   4.647   0.561
 2952TIP3   OH2 8861   3.384   3.900   2.556
 2952TIP3    H1 8862   3.414   3.810   2.567
 2952TIP3    H2 8863   3.465   3.951   2.545
 2953TIP3   OH2 8864   1.060   5.026   2.204
 2953TIP3    H1 8865   1.118   5.048   2.277
 2953TIP3    H2 8866   1.080   5.091   2.137
 2954TIP3   OH2 8867   4.793   1.907   3.279
 2954TIP3    H1 8868   4.855   1.835   3.287
 2954TIP3    H2 8869   4.840   1.973   3.226
 2955TIP3   OH2 8870   2.455   2.960   1.564
 2955TIP3    H1 8871   2.471   3.035   1.507
 2955TIP3    H2 8872   2.367   2.931   1.542
 2956TIP3   OH2 8873   3.757   4.391   4.708
 2956TIP3    H1 8874   3.808   4.454   4.759
 2956TIP3    H2 8875   3.714   4.336   4.773
 2957TIP3   OH2 8876   4.004   3.484   3.598
 2957TIP3    H1 8877   3.951   3.532   3.662
 2957TIP3    H2 8878   4.087   3.532   3.596
 2958TIP3   OH2 8879   5.456   0.353   2.913
 2958TIP3    H1 8880   5.383   0.401   2.952
 2958TIP3    H2 8881   5.524   0.353   2.981
 2959TIP3   OH2 8882   0.526   4.332   3.731
 2959TIP3    H1 8883   0.592   4.279   3.685
 2959TIP3    H2 8884   0.460   4.269   3.760
 2960TIP3   OH2 8885   4.710   4.522   3.598
 2960TIP3    H1 8886   4.764   4.601   3.594
 2960TIP3    H2 8887   4.756   4.459   3.543
 2961TIP3   OH2 8888   1.473   0.694   3.506
 2961TIP3    H1 8889   1.442   0.691   3.416
 2961TIP3    H2 8890   1.404   0.652   3.557
 2962TIP3   OH2 8891   5.014   5.865   2.061
 2962TIP3    H1 8892   4.926   5.863   2.098
 2962TIP3    H2 8893   5.069   5.897   2.134
 2963TIP3   OH2 8894   4.954   1.946   0.578
 2963TIP3    H1 8895   5.042   1.956   0.615
 2963TIP3    H2 8896   4.956   1.862   0.532
 2964TIP3   OH2 8897   2.813   2.827   2.124
 2964TIP3    H1 8898   2.772   2.768   2.060
 2964TIP3    H2 8899   2.901   2.842   2.089
 2965TIP3   OH2 8900   3.600   5.075   3.678
 2965TIP3    H1 8901   3.585   4.982   3.696
 2965TIP3    H2 8902   3.596   5.082   3.583
 2966TIP3   OH2 8903   5.793   1.096   4.501
 2966TIP3    H1 8904   5.704   1.060   4.502
 2966TIP3    H2 8905   5.828   1.076   4.587
 2967TIP3   OH2 8906   4.815   1.725   5.060
 2967TIP3    H1 8907   4.730   1.749   5.097
 2967TIP3    H2 8908   4.843   1.650   5.113
 2968TIP3   OH2 8909   0.400   2.637   4.892
 2968TIP3    H1 8910   0.413   2.557   4.943
 2968TIP3    H2 8911   0.474   2.639   4.831
 2969TIP3   OH2 8912   2.061   1.518   3.800
 2969TIP3    H1 8913   2.112   1.450   3.844
 2969TIP3    H2 8914   2.124   1.564   3.744
 2970TIP3   OH2 8915   3.336   5.398   1.357
 2970TIP3    H1 8916   3.385   5.461   1.410
 2970TIP3    H2 8917   3.381   5.399   1.272
 2971TIP3   OH2 8918   3.168   2.790   5.132
 2971TIP3    H1 8919   3.102   2.741   5.083
 2971TIP3    H2 8920   3.167   2.877   5.092
 2972TIP3   OH2 8921   1.592   4.642   0.105
 2972TIP3    H1 8922   1.614   4.550   0.123
 2972TIP3    H2 8923   1.497   4.645   0.114
 2973TIP3   OH2 8924   3.702   1.984   3.056
 2973TIP3    H1 8925   3.773   1.992   3.120
 2973TIP3    H2 8926   3.681   1.891   3.054
 2974TIP3   OH2 8927   6.102   2.213   2.562
 2974TIP3    H1 8928   6.135   2.188   2.649
 2974TIP3    H2 8929   6.068   2.301   2.574
 2975TIP3   OH2 8930   2.744   4.313   3.440
 2975TIP3    H1 8931   2.731   4.235   3.494
 2975TIP3    H2 8932   2.734   4.281   3.350
 2976TIP3   OH2 8933   6.160   5.134   0.712
 2976TIP3    H1 8934   6.172   5.189   0.635
 2976TIP3    H2 8935   6.205   5.181   0.783
 2977TIP3   OH2 8936   6.104   1.997   4.191
 2977TIP3    H1 8937   6.196   1.973   4.204
 2977TIP3    H2 8938   6.087   2.062   4.260
 2978TIP3   OH2 8939   0.795   0.400   2.354
 2978TIP3    H1 8940   0.880   0.443   2.345
 2978TIP3    H2 8941   0.735   0.452   2.301
 2979TIP3   OH2 8942   4.958   2.130   3.177
 2979TIP3    H1 8943   4.987   2.196   3.114
 2979TIP3    H2 8944   4.992   2.161   3.261
 2980TIP3   OH2 8945   3.841   3.532   1.416
 2980TIP3    H1 8946   3.773   3.589   1.451
 2980TIP3    H2 8947   3.839   3.547   1.321
 2981TIP3   OH2 8948   5.498   5.968   3.098
 2981TIP3    H1 8949   5.513   6.001   3.186
 2981TIP3    H2 8950   5.520   6.041   3.041
 2982TIP3   OH2 8951   2.947   2.787   4.886
 2982TIP3    H1 8952   2.967   2.844   4.812
 2982TIP3    H2 8953   2.897   2.715   4.848
 2983TIP3   OH2 8954   5.963   1.962   1.667
 2983TIP3    H1 8955   6.049   1.924   1.683
 2983TIP3    H2 8956   5.981   2.052   1.642
 2984TIP3   OH2 8957   2.290   4.064   0.145
 2984TIP3    H1 8958   2.382   4.069   0.117
 2984TIP3    H2 8959   2.240   4.092   0.069
 2985TIP3   OH2 8960   5.904   4.891   0.873
 2985TIP3    H1 8961   5.857   4.813   0.904
 2985TIP3    H2 8962   5.959   4.860   0.801
 2986TIP3   OH2 8963   2.218   4.520   4.754
 2986TIP3    H1 8964   2.283   4.493   4.690
 2986TIP3    H2 8965   2.166   4.441   4.770
 2987TIP3   OH2 8966   3.569   1.045   2.152
 2987TIP3    H1 8967   3.515   1.074   2.226
 2987TIP3    H2 8968   3.507   1.033   2.080
 2988TIP3   OH2 8969   3.618   5.043   2.540
 2988TIP3    H1 8970   3.552   5.100   2.578
 2988TIP3    H2 8971   3.591   5.033   2.448
 2989TIP3   OH2 8972   2.151   0.015   2.363
 2989TIP3    H1 8973   2.245   0.001   2.367
 2989TIP3    H2 8974   2.130   0.058   2.447
 2990TIP3   OH2 8975   4.988   0.531   4.922
 2990TIP3    H1 8976   4.945   0.507   4.841
 2990TIP3    H2 8977   4.968   0.624   4.934
 2991TIP3   OH2 8978   5.018   3.211   0.490
 2991TIP3    H1 8979   5.000   3.276   0.559
 2991TIP3    H2 8980   4.933   3.170   0.474
 2992TIP3   OH2 8981   4.685   0.114   5.132
 2992TIP3    H1 8982   4.771   0.140   5.100
 2992TIP3    H2 8983   4.647   0.195   5.168
 2993TIP3   OH2 8984   0.736   4.642   3.839
 2993TIP3    H1 8985   0.653   4.638   3.791
 2993TIP3    H2 8986   0.718   4.700   3.913
 2994TIP3   OH2 8987   2.808   4.969   1.353
 2994TIP3    H1 8988   2.787   5.045   1.298
 2994TIP3    H2 8989   2.797   4.894   1.295
 2995TIP3   OH2 8990   1.686   0.458   3.350
 2995TIP3    H1 8991   1.713   0.387   3.292
 2995TIP3    H2 8992   1.685   0.535   3.295
 2996TIP3   OH2 8993   2.899   2.746   4.008
 2996TIP3    H1 8994   2.895   2.703   3.922
 2996TIP3    H2 8995   2.966   2.698   4.056
 2997TIP3   OH2 8996   3.954   4.609   3.564
 2997TIP3    H1 8997   3.925   4.629   3.653
 2997TIP3    H2 8998   4.036   4.657   3.553
 2998TIP3   OH2 8999   3.090   3.327   0.702
 2998TIP3    H1 9000   3.092   3.233   0.688
 2998TIP3    H2 9001   3.036   3.361   0.631
 2999TIP3   OH2 9002   2.909   5.858   4.016
 2999TIP3    H1 9003   2.885   5.828   3.928
 2999TIP3    H2 9004   3.004   5.845   4.020
 3000TIP3   OH2 9005   0.487   4.979   1.165
 3000TIP3    H1 9006   0.464   5.011   1.078
 3000TIP3    H2 9007   0.452   4.890   1.168
 3001TIP3   OH2 9008   0.162   1.425   0.320
 3001TIP3    H1 9009   0.153   1.415   0.414
 3001TIP3    H2 9010   0.251   1.396   0.300
 3002TIP3   OH2 9011   5.474   1.182   5.062
 3002TIP3    H1 9012   5.391   1.229   5.051
 3002TIP3    H2 9013   5.484   1.132   4.980
 3003TIP3   OH2 9014   3.164   3.429   4.629
 3003TIP3    H1 9015   3.119   3.357   4.586
 3003TIP3    H2 9016   3.250   3.393   4.653
 3004TIP3   OH2 9017   4.206   3.793   1.431
 3004TIP3    H1 9018   4.145   3.802   1.358
 3004TIP3    H2 9019   4.212   3.699   1.446
 3005TIP3   OH2 9020   1.678   3.862   0.500
 3005TIP3    H1 9021   1.584   3.866   0.518
 3005TIP3    H2 9022   1.711   3.945   0.534
 3006TIP3   OH2 9023   4.706   1.753   1.038
 3006TIP3    H1 9024   4.729   1.718   1.124
 3006TIP3    H2 9025   4.682   1.844   1.054
 3007TIP3   OH2 9026   4.691   4.409   3.841
 3007TIP3    H1 9027   4.725   4.450   3.762
 3007TIP3    H2 9028   4.660   4.482   3.895
 3008TIP3   OH2 9029   1.634   3.818   2.654
 3008TIP3    H1 9030   1.582   3.747   2.618
 3008TIP3    H2 9031   1.603   3.827   2.744
 3009TIP3   OH2 9032   5.404   4.144   0.451
 3009TIP3    H1 9033   5.373   4.128   0.362
 3009TIP3    H2 9034   5.333   4.192   0.493
 3010TIP3   OH2 9035   5.834   0.008   3.309
 3010TIP3    H1 9036   5.880   0.056   3.378
 3010TIP3    H2 9037   5.799   0.077   3.252
 3011TIP3   OH2 9038   4.829   2.665   0.701
 3011TIP3    H1 9039   4.775   2.741   0.678
 3011TIP3    H2 9040   4.899   2.701   0.755
 3012TIP3   OH2 9041   1.768   0.739   4.034
 3012TIP3    H1 9042   1.776   0.678   3.961
 3012TIP3    H2 9043   1.706   0.805   4.004
 3013TIP3   OH2 9044   0.133   4.380   2.968
 3013TIP3    H1 9045   0.145   4.289   2.994
 3013TIP3    H2 9046   0.062   4.378   2.904
 3014TIP3   OH2 9047   2.886   4.496   3.547
 3014TIP3    H1 9048   2.930   4.427   3.595
 3014TIP3    H2 9049   2.832   4.451   3.483
 3015TIP3   OH2 9050   2.068   1.372   0.593
 3015TIP3    H1 9051   2.057   1.279   0.577
 3015TIP3    H2 9052   2.157   1.381   0.627
 3016TIP3   OH2 9053   4.572   1.534   3.499
 3016TIP3    H1 9054   4.614   1.547   3.414
 3016TIP3    H2 9055   4.494   1.483   3.480
 3017TIP3   OH2 9056   2.725   3.282   0.142
 3017TIP3    H1 9057   2.820   3.287   0.155
 3017TIP3    H2 9058   2.688   3.320   0.222
 3018TIP3   OH2 9059   0.245   1.660   4.901
 3018TIP3    H1 9060   0.195   1.594   4.852
 3018TIP3    H2 9061   0.333   1.623   4.907
 3019TIP3   OH2 9062   1.496   3.219   1.832
 3019TIP3    H1 9063   1.402   3.216   1.850
 3019TIP3    H2 9064   1.506   3.174   1.748
 3020TIP3   OH2 9065   4.087   0.484   2.806
 3020TIP3    H1 9066   4.134   0.522   2.732
 3020TIP3    H2 9067   4.007   0.537   2.815
 3021TIP3   OH2 9068   0.548   0.115   0.928
 3021TIP3    H1 9069   0.553   0.193   0.872
 3021TIP3    H2 9070   0.579   0.044   0.872
 3022TIP3   OH2 9071   1.799   5.507   0.577
 3022TIP3    H1 9072   1.828   5.520   0.668
 3022TIP3    H2 9073   1.825   5.417   0.556
 3023TIP3   OH2 9074   1.626   0.528   0.457
 3023TIP3    H1 9075   1.672   0.445   0.465
 3023TIP3    H2 9076   1.634   0.551   0.365
 3024TIP3   OH2 9077   4.913   3.348   0.711
 3024TIP3    H1 9078   4.944   3.426   0.758
 3024TIP3    H2 9079   4.827   3.330   0.749
 3025TIP3   OH2 9080   0.831   3.012   2.577
 3025TIP3    H1 9081   0.840   2.919   2.599
 3025TIP3    H2 9082   0.921   3.045   2.575
 3026TIP3   OH2 9083   1.397   2.639   3.884
 3026TIP3    H1 9084   1.361   2.681   3.806
 3026TIP3    H2 9085   1.486   2.673   3.891
 3027TIP3   OH2 9086   2.182   0.513   1.185
 3027TIP3    H1 9087   2.241   0.524   1.260
 3027TIP3    H2 9088   2.241   0.498   1.111
 3028TIP3   OH2 9089   5.235   0.519   3.607
 3028TIP3    H1 9090   5.307   0.575   3.636
 3028TIP3    H2 9091   5.250   0.507   3.513
 3029TIP3   OH2 9092   1.630   1.721   3.680
 3029TIP3    H1 9093   1.654   1.780   3.609
 3029TIP3    H2 9094   1.633   1.634   3.641
 3030TIP3   OH2 9095   1.398   4.654   1.850
 3030TIP3    H1 9096   1.476   4.612   1.885
 3030TIP3    H2 9097   1.365   4.594   1.784
 3031TIP3   OH2 9098   0.493   4.602   4.250
 3031TIP3    H1 9099   0.575   4.564   4.281
 3031TIP3    H2 9100   0.427   4.535   4.267
 3032TIP3   OH2 9101   0.351   4.797   0.204
 3032TIP3    H1 9102   0.418   4.731   0.186
 3032TIP3    H2 9103   0.387   4.850   0.274
 3033TIP3   OH2 9104   0.449   4.530   0.705
 3033TIP3    H1 9105   0.479   4.599   0.645
 3033TIP3    H2 9106   0.370   4.566   0.745
 3034TIP3   OH2 9107   5.286   2.573   3.621
 3034TIP3    H1 9108   5.267   2.590   3.528
 3034TIP3    H2 9109   5.302   2.660   3.658
 3035TIP3   OH2 9110   4.755   5.437   4.776
 3035TIP3    H1 9111   4.827   5.454   4.836
 3035TIP3    H2 9112   4.699   5.374   4.823
 3036TIP3   OH2 9113   1.739   3.448   1.349
 3036TIP3    H1 9114   1.699   3.489   1.272
 3036TIP3    H2 9115   1.692   3.485   1.423
 3037TIP3   OH2 9116   2.687   5.804   3.221
 3037TIP3    H1 9117   2.612   5.823   3.165
 3037TIP3    H2 9118   2.742   5.882   3.214
 3038TIP3   OH2 9119   2.592   5.263   4.462
 3038TIP3    H1 9120   2.561   5.330   4.400
 3038TIP3    H2 9121   2.628   5.313   4.535
 3039TIP3   OH2 9122   0.744   2.619   4.383
 3039TIP3    H1 9123   0.672   2.679   4.362
 3039TIP3    H2 9124   0.791   2.662   4.454
 3040TIP3   OH2 9125   2.030   2.412   0.158
 3040TIP3    H1 9126   2.011   2.482   0.221
 3040TIP3    H2 9127   2.014   2.332   0.207
 3041TIP3   OH2 9128   4.841   5.318   1.449
 3041TIP3    H1 9129   4.917   5.371   1.423
 3041TIP3    H2 9130   4.811   5.360   1.530
 3042TIP3   OH2 9131   0.237   3.038   1.823
 3042TIP3    H1 9132   0.249   3.025   1.917
 3042TIP3    H2 9133   0.244   2.951   1.785
 3043TIP3   OH2 9134   1.553   0.553   4.144
 3043TIP3    H1 9135   1.470   0.584   4.180
 3043TIP3    H2 9136   1.617   0.618   4.172
 3044TIP3   OH2 9137   3.277   4.163   1.549
 3044TIP3    H1 9138   3.193   4.206   1.530
 3044TIP3    H2 9139   3.292   4.106   1.474
 3045TIP3   OH2 9140   1.997   3.453   1.110
 3045TIP3    H1 9141   1.952   3.370   1.125
 3045TIP3    H2 9142   2.042   3.471   1.192
 3046TIP3   OH2 9143   1.678   5.116   5.025
 3046TIP3    H1 9144   1.765   5.081   5.006
 3046TIP3    H2 9145   1.640   5.053   5.086
 3047TIP3   OH2 9146   2.169   2.109   3.284
 3047TIP3    H1 9147   2.219   2.190   3.278
 3047TIP3    H2 9148   2.229   2.047   3.326
 3048TIP3   OH2 9149   5.194   5.029   1.467
 3048TIP3    H1 9150   5.269   5.071   1.509
 3048TIP3    H2 9151   5.193   5.065   1.378
 3049TIP3   OH2 9152   0.287   2.834   0.307
 3049TIP3    H1 9153   0.213   2.891   0.289
 3049TIP3    H2 9154   0.343   2.885   0.367
 3050TIP3   OH2 9155   5.493   5.766   2.405
 3050TIP3    H1 9156   5.484   5.727   2.491
 3050TIP3    H2 9157   5.520   5.857   2.422
 3051TIP3   OH2 9158   6.279   1.430   3.201
 3051TIP3    H1 9159   6.228   1.421   3.281
 3051TIP3    H2 9160   6.259   1.351   3.151
 3052TIP3   OH2 9161   1.005   0.594   4.199
 3052TIP3    H1 9162   1.007   0.524   4.264
 3052TIP3    H2 9163   0.937   0.654   4.229
 3053TIP3   OH2 9164   0.259   1.264   1.821
 3053TIP3    H1 9165   0.228   1.280   1.910
 3053TIP3    H2 9166   0.355   1.263   1.829
 3054TIP3   OH2 9167   3.707   1.719   3.053
 3054TIP3    H1 9168   3.718   1.679   2.967
 3054TIP3    H2 9169   3.791   1.702   3.097
 3055TIP3   OH2 9170   1.796   2.573   1.541
 3055TIP3    H1 9171   1.781   2.481   1.520
 3055TIP3    H2 9172   1.887   2.576   1.569
 3056TIP3   OH2 9173   0.618   4.636   2.734
 3056TIP3    H1 9174   0.609   4.723   2.693
 3056TIP3    H2 9175   0.631   4.655   2.827
 3057TIP3   OH2 9176   2.175   3.168   3.072
 3057TIP3    H1 9177   2.248   3.125   3.027
 3057TIP3    H2 9178   2.116   3.096   3.095
 3058TIP3   OH2 9179   5.595   2.090   0.126
 3058TIP3    H1 9180   5.514   2.135   0.102
 3058TIP3    H2 9181   5.594   2.088   0.222
 3059TIP3   OH2 9182   5.369   3.292   0.618
 3059TIP3    H1 9183   5.424   3.230   0.570
 3059TIP3    H2 9184   5.285   3.289   0.573
 3060TIP3   OH2 9185   1.875   3.785   1.225
 3060TIP3    H1 9186   1.914   3.710   1.180
 3060TIP3    H2 9187   1.781   3.773   1.214
 3061TIP3   OH2 9188   1.559   1.023   0.579
 3061TIP3    H1 9189   1.610   0.960   0.528
 3061TIP3    H2 9190   1.491   1.053   0.519
 3062TIP3   OH2 9191   5.926   0.374   3.236
 3062TIP3    H1 9192   5.841   0.331   3.243
 3062TIP3    H2 9193   5.988   0.303   3.220
 3063TIP3   OH2 9194   0.479   1.623   2.641
 3063TIP3    H1 9195   0.533   1.590   2.570
 3063TIP3    H2 9196   0.400   1.568   2.639
 3064TIP3   OH2 9197   5.299   4.330   3.285
 3064TIP3    H1 9198   5.260   4.243   3.277
 3064TIP3    H2 9199   5.239   4.388   3.238
 3065TIP3   OH2 9200   6.002   2.436   3.033
 3065TIP3    H1 9201   5.990   2.494   2.958
 3065TIP3    H2 9202   6.024   2.494   3.106
 3066TIP3   OH2 9203   0.634   4.808   1.444
 3066TIP3    H1 9204   0.613   4.725   1.401
 3066TIP3    H2 9205   0.728   4.819   1.429
 3067TIP3   OH2 9206   4.937   1.670   1.933
 3067TIP3    H1 9207   4.921   1.764   1.924
 3067TIP3    H2 9208   4.864   1.638   1.986
 3068TIP3   OH2 9209   4.078   0.900   3.460
 3068TIP3    H1 9210   4.173   0.886   3.464
 3068TIP3    H2 9211   4.045   0.860   3.540
 3069TIP3   OH2 9212   3.993   3.870   1.264
 3069TIP3    H1 9213   4.018   3.786   1.227
 3069TIP3    H2 9214   3.980   3.927   1.188
 3070TIP3   OH2 9215   3.734   3.485   0.730
 3070TIP3    H1 9216   3.653   3.509   0.775
 3070TIP3    H2 9217   3.707   3.419   0.665
 3071TIP3   OH2 9218   6.218   1.930   1.346
 3071TIP3    H1 9219   6.252   1.966   1.264
 3071TIP3    H2 9220   6.128   1.903   1.325
 3072TIP3   OH2 9221   4.609   2.417   0.102
 3072TIP3    H1 9222   4.576   2.479   0.038
 3072TIP3    H2 9223   4.533   2.396   0.157
 3073TIP3   OH2 9224   0.596   2.864   4.620
 3073TIP3    H1 9225   0.570   2.773   4.603
 3073TIP3    H2 9226   0.565   2.881   4.709
 3074TIP3   OH2 9227   5.953   5.395   2.698
 3074TIP3    H1 9228   5.927   5.313   2.656
 3074TIP3    H2 9229   5.930   5.463   2.634
 3075TIP3   OH2 9230   3.173   3.301   5.189
 3075TIP3    H1 9231   3.255   3.342   5.161
 3075TIP3    H2 9232   3.111   3.322   5.120
 3076TIP3   OH2 9233   3.466   5.782   3.845
 3076TIP3    H1 9234   3.408   5.817   3.777
 3076TIP3    H2 9235   3.524   5.855   3.866
 3077TIP3   OH2 9236   3.516   2.986   2.304
 3077TIP3    H1 9237   3.502   3.033   2.387
 3077TIP3    H2 9238   3.435   2.935   2.292
 3078TIP3   OH2 9239   5.454   0.704   0.118
 3078TIP3    H1 9240   5.370   0.707   0.071
 3078TIP3    H2 9241   5.480   0.796   0.125
 3079TIP3   OH2 9242   3.758   5.665   1.192
 3079TIP3    H1 9243   3.699   5.603   1.149
 3079TIP3    H2 9244   3.703   5.709   1.257
 3080TIP3   OH2 9245   3.593   2.688   1.390
 3080TIP3    H1 9246   3.636   2.741   1.322
 3080TIP3    H2 9247   3.647   2.702   1.468
 3081TIP3   OH2 9248   0.357   5.273   3.075
 3081TIP3    H1 9249   0.341   5.189   3.033
 3081TIP3    H2 9250   0.387   5.330   3.004
 3082TIP3   OH2 9251   3.401   1.798   2.976
 3082TIP3    H1 9252   3.394   1.703   2.972
 3082TIP3    H2 9253   3.472   1.815   3.038
 3083TIP3   OH2 9254   0.559   3.236   0.634
 3083TIP3    H1 9255   0.551   3.185   0.553
 3083TIP3    H2 9256   0.471   3.239   0.670
 3084TIP3   OH2 9257   0.204   0.838   0.902
 3084TIP3    H1 9258   0.192   0.834   0.997
 3084TIP3    H2 9259   0.232   0.927   0.885
 3085TIP3   OH2 9260   0.744   5.898   0.992
 3085TIP3    H1 9261   0.797   5.818   0.986
 3085TIP3    H2 9262   0.746   5.934   0.903
 3086TIP3   OH2 9263   0.760   3.099   3.789
 3086TIP3    H1 9264   0.675   3.139   3.808
 3086TIP3    H2 9265   0.813   3.119   3.866
 3087TIP3   OH2 9266   4.429   1.447   4.473
 3087TIP3    H1 9267   4.509   1.490   4.502
 3087TIP3    H2 9268   4.390   1.412   4.553
 3088TIP3   OH2 9269   4.982   5.013   4.052
 3088TIP3    H1 9270   5.032   5.088   4.020
 3088TIP3    H2 9271   4.921   5.050   4.116
 3089TIP3   OH2 9272   0.399   2.150   2.086
 3089TIP3    H1 9273   0.339   2.132   2.013
 3089TIP3    H2 9274   0.341   2.161   2.162
 3090TIP3   OH2 9275   4.023   2.346   3.776
 3090TIP3    H1 9276   3.961   2.310   3.840
 3090TIP3    H2 9277   3.982   2.428   3.747
 3091TIP3   OH2 9278   2.671   1.717   3.789
 3091TIP3    H1 9279   2.632   1.633   3.811
 3091TIP3    H2 9280   2.765   1.701   3.790
 3092TIP3   OH2 9281   0.449   2.874   0.724
 3092TIP3    H1 9282   0.460   2.810   0.654
 3092TIP3    H2 9283   0.527   2.866   0.778
 3093TIP3   OH2 9284   2.251   4.782   4.851
 3093TIP3    H1 9285   2.209   4.819   4.774
 3093TIP3    H2 9286   2.249   4.687   4.836
 3094TIP3   OH2 9287   3.805   0.770   2.366
 3094TIP3    H1 9288   3.773   0.834   2.303
 3094TIP3    H2 9289   3.779   0.685   2.329
 3095TIP3   OH2 9290   5.355   1.190   4.503
 3095TIP3    H1 9291   5.363   1.246   4.580
 3095TIP3    H2 9292   5.355   1.251   4.429
 3096TIP3   OH2 9293   1.163   1.017   2.493
 3096TIP3    H1 9294   1.099   0.992   2.426
 3096TIP3    H2 9295   1.224   0.943   2.496
 3097TIP3   OH2 9296   5.147   2.818   3.752
 3097TIP3    H1 9297   5.205   2.785   3.821
 3097TIP3    H2 9298   5.167   2.912   3.749
 3098TIP3   OH2 9299   4.509   4.178   2.575
 3098TIP3    H1 9300   4.600   4.184   2.603
 3098TIP3    H2 9301   4.458   4.215   2.647
 3099TIP3   OH2 9302   0.600   0.932   3.111
 3099TIP3    H1 9303   0.584   0.857   3.053
 3099TIP3    H2 9304   0.519   0.943   3.160
 3100TIP3   OH2 9305   1.796   1.533   0.975
 3100TIP3    H1 9306   1.763   1.537   0.885
 3100TIP3    H2 9307   1.813   1.439   0.990
 3101TIP3   OH2 9308   4.649   0.729   2.298
 3101TIP3    H1 9309   4.590   0.800   2.322
 3101TIP3    H2 9310   4.726   0.774   2.262
 3102TIP3   OH2 9311   1.795   1.553   0.360
 3102TIP3    H1 9312   1.708   1.560   0.320
 3102TIP3    H2 9313   1.783   1.496   0.435
 3103TIP3   OH2 9314   5.664   0.372   5.115
 3103TIP3    H1 9315   5.655   0.288   5.160
 3103TIP3    H2 9316   5.678   0.435   5.186
 3104TIP3   OH2 9317   3.014   0.614   0.791
 3104TIP3    H1 9318   3.042   0.562   0.866
 3104TIP3    H2 9319   3.025   0.705   0.820
 3105TIP3   OH2 9320   4.007   4.996   0.641
 3105TIP3    H1 9321   3.998   5.064   0.708
 3105TIP3    H2 9322   3.980   5.038   0.560
 3106TIP3   OH2 9323   5.160   3.360   2.394
 3106TIP3    H1 9324   5.167   3.276   2.350
 3106TIP3    H2 9325   5.237   3.409   2.364
 3107TIP3   OH2 9326   0.264   5.025   3.215
 3107TIP3    H1 9327   0.220   5.101   3.253
 3107TIP3    H2 9328   0.228   5.019   3.126
 3108TIP3   OH2 9329   6.107   1.531   1.312
 3108TIP3    H1 9330   6.110   1.441   1.279
 3108TIP3    H2 9331   6.195   1.546   1.346
 3109TIP3   OH2 9332   5.697   4.304   2.857
 3109TIP3    H1 9333   5.717   4.395   2.836
 3109TIP3    H2 9334   5.605   4.304   2.882
 3110TIP3   OH2 9335   5.089   5.461   1.386
 3110TIP3    H1 9336   5.098   5.540   1.333
 3110TIP3    H2 9337   5.079   5.493   1.476
 3111TIP3   OH2 9338   5.105   2.290   3.430
 3111TIP3    H1 9339   5.023   2.338   3.439
 3111TIP3    H2 9340   5.113   2.239   3.511
 3112TIP3   OH2 9341   3.501   2.513   2.830
 3112TIP3    H1 9342   3.434   2.470   2.776
 3112TIP3    H2 9343   3.465   2.600   2.847
 3113TIP3   OH2 9344   4.391   5.877   3.308
 3113TIP3    H1 9345   4.387   5.934   3.231
 3113TIP3    H2 9346   4.484   5.867   3.326
 3114TIP3   OH2 9347   5.691   5.330   2.946
 3114TIP3    H1 9348   5.768   5.374   2.983
 3114TIP3    H2 9349   5.711   5.237   2.952
 3115TIP3   OH2 9350   2.812   2.968   4.119
 3115TIP3    H1 9351   2.844   2.898   4.062
 3115TIP3    H2 9352   2.888   3.025   4.132
 3116TIP3   OH2 9353   3.805   4.229   4.298
 3116TIP3    H1 9354   3.790   4.166   4.369
 3116TIP3    H2 9355   3.874   4.287   4.332
 3117TIP3   OH2 9356   6.376   2.355   1.206
 3117TIP3    H1 9357   6.367   2.260   1.193
 3117TIP3    H2 9358   6.327   2.372   1.287
 3118TIP3   OH2 9359   1.976   0.947   4.501
 3118TIP3    H1 9360   2.054   0.937   4.447
 3118TIP3    H2 9361   1.981   1.037   4.535
 3119TIP3   OH2 9362   5.765   3.667   2.164
 3119TIP3    H1 9363   5.822   3.646   2.089
 3119TIP3    H2 9364   5.770   3.763   2.170
 3120TIP3   OH2 9365   2.127   2.381   5.119
 3120TIP3    H1 9366   2.180   2.329   5.059
 3120TIP3    H2 9367   2.162   2.470   5.112
 3121TIP3   OH2 9368   2.725   4.341   2.085
 3121TIP3    H1 9369   2.675   4.376   2.012
 3121TIP3    H2 9370   2.686   4.255   2.102
 3122TIP3   OH2 9371   5.859   3.714   0.754
 3122TIP3    H1 9372   5.829   3.799   0.785
 3122TIP3    H2 9373   5.933   3.692   0.811
 3123TIP3   OH2 9374   5.526   3.540   0.532
 3123TIP3    H1 9375   5.442   3.494   0.528
 3123TIP3    H2 9376   5.591   3.471   0.543
 3124TIP3   OH2 9377   2.056   2.026   4.351
 3124TIP3    H1 9378   2.151   2.035   4.360
 3124TIP3    H2 9379   2.021   2.105   4.393
 3125TIP3   OH2 9380   5.665   1.043   3.219
 3125TIP3    H1 9381   5.718   0.964   3.206
 3125TIP3    H2 9382   5.685   1.097   3.143
 3126TIP3   OH2 9383   2.105   5.258   1.502
 3126TIP3    H1 9384   2.033   5.320   1.512
 3126TIP3    H2 9385   2.141   5.277   1.415
 3127TIP3   OH2 9386   3.794   2.243   1.972
 3127TIP3    H1 9387   3.785   2.304   2.046
 3127TIP3    H2 9388   3.709   2.248   1.927
 3128TIP3   OH2 9389   0.433   5.899   2.130
 3128TIP3    H1 9390   0.401   5.838   2.196
 3128TIP3    H2 9391   0.425   5.852   2.047
 3129TIP3   OH2 9392   5.187   0.901   1.811
 3129TIP3    H1 9393   5.110   0.858   1.774
 3129TIP3    H2 9394   5.234   0.936   1.736
 3130TIP3   OH2 9395   0.724   4.189   3.589
 3130TIP3    H1 9396   0.806   4.225   3.556
 3130TIP3    H2 9397   0.747   4.102   3.621
 3131TIP3   OH2 9398   4.533   1.758   5.123
 3131TIP3    H1 9399   4.538   1.783   5.215
 3131TIP3    H2 9400   4.506   1.837   5.078
 3132TIP3   OH2 9401   2.016   4.910   2.919
 3132TIP3    H1 9402   2.061   4.980   2.965
 3132TIP3    H2 9403   2.056   4.830   2.952
 3133TIP3   OH2 9404   3.515   3.816   0.501
 3133TIP3    H1 9405   3.518   3.911   0.516
 3133TIP3    H2 9406   3.596   3.784   0.539
 3134TIP3   OH2 9407   3.704   2.289   0.023
 3134TIP3    H1 9408   3.747   2.358   0.073
 3134TIP3    H2 9409   3.665   2.334  -0.052
 3135TIP3   OH2 9410   1.060   0.648   2.643
 3135TIP3    H1 9411   0.994   0.621   2.579
 3135TIP3    H2 9412   1.143   0.622   2.605
 3136TIP3   OH2 9413   0.611   4.706   1.753
 3136TIP3    H1 9414   0.551   4.641   1.715
 3136TIP3    H2 9415   0.620   4.773   1.686
 3137TIP3   OH2 9416   1.774   4.713   4.584
 3137TIP3    H1 9417   1.757   4.645   4.518
 3137TIP3    H2 9418   1.698   4.771   4.578
 3138TIP3   OH2 9419   3.500   2.314   2.449
 3138TIP3    H1 9420   3.587   2.285   2.478
 3138TIP3    H2 9421   3.440   2.267   2.506
 3139TIP3   OH2 9422   4.528   2.723   0.164
 3139TIP3    H1 9423   4.502   2.678   0.084
 3139TIP3    H2 9424   4.616   2.691   0.181
 3140TIP3   OH2 9425   4.819   3.086   2.019
 3140TIP3    H1 9426   4.749   3.021   2.027
 3140TIP3    H2 9427   4.777   3.161   1.976
 3141TIP3   OH2 9428   1.187   2.928   1.945
 3141TIP3    H1 9429   1.220   3.016   1.929
 3141TIP3    H2 9430   1.262   2.870   1.932
 3142TIP3   OH2 9431   5.205   5.120   2.655
 3142TIP3    H1 9432   5.202   5.202   2.703
 3142TIP3    H2 9433   5.148   5.134   2.580
 3143TIP3   OH2 9434   1.113   2.397   0.700
 3143TIP3    H1 9435   1.049   2.464   0.675
 3143TIP3    H2 9436   1.086   2.368   0.787
 3144TIP3   OH2 9437   5.187   4.612   4.477
 3144TIP3    H1 9438   5.133   4.683   4.442
 3144TIP3    H2 9439   5.223   4.569   4.400
 3145TIP3   OH2 9440   2.808   5.472   1.764
 3145TIP3    H1 9441   2.804   5.542   1.699
 3145TIP3    H2 9442   2.832   5.394   1.714
 3146TIP3   OH2 9443   0.358   0.138   4.928
 3146TIP3    H1 9444   0.323   0.116   5.015
 3146TIP3    H2 9445   0.403   0.221   4.941
 3147TIP3   OH2 9446   3.108   2.380   4.738
 3147TIP3    H1 9447   3.096   2.472   4.715
 3147TIP3    H2 9448   3.059   2.331   4.671
 3148TIP3   OH2 9449   1.774   0.852   0.522
 3148TIP3    H1 9450   1.829   0.820   0.450
 3148TIP3    H2 9451   1.790   0.790   0.593
 3149TIP3   OH2 9452   2.384   5.057   3.335
 3149TIP3    H1 9453   2.379   5.137   3.389
 3149TIP3    H2 9454   2.441   4.998   3.384
 3150TIP3   OH2 9455   0.674   3.256   4.075
 3150TIP3    H1 9456   0.590   3.252   4.121
 3150TIP3    H2 9457   0.735   3.211   4.133
 3151TIP3   OH2 9458   2.284   3.217   2.720
 3151TIP3    H1 9459   2.303   3.189   2.809
 3151TIP3    H2 9460   2.189   3.230   2.719
 3152TIP3   OH2 9461   6.167   3.182   4.019
 3152TIP3    H1 9462   6.182   3.100   4.067
 3152TIP3    H2 9463   6.254   3.222   4.013
 3153TIP3   OH2 9464   4.500   3.580   3.338
 3153TIP3    H1 9465   4.540   3.552   3.255
 3153TIP3    H2 9466   4.425   3.634   3.311
 3154TIP3   OH2 9467   2.860   1.389   0.063
 3154TIP3    H1 9468   2.891   1.351  -0.019
 3154TIP3    H2 9469   2.879   1.482   0.055
 3155TIP3   OH2 9470   5.267   2.804   0.359
 3155TIP3    H1 9471   5.249   2.871   0.426
 3155TIP3    H2 9472   5.278   2.854   0.278
 3156TIP3   OH2 9473   5.607   1.498   2.424
 3156TIP3    H1 9474   5.593   1.532   2.512
 3156TIP3    H2 9475   5.537   1.435   2.411
 3157TIP3   OH2 9476   1.655   1.684   3.996
 3157TIP3    H1 9477   1.592   1.613   4.009
 3157TIP3    H2 9478   1.694   1.698   4.083
 3158TIP3   OH2 9479   6.095   5.738   2.663
 3158TIP3    H1 9480   6.151   5.661   2.668
 3158TIP3    H2 9481   6.118   5.779   2.579
 3159TIP3   OH2 9482   4.046   4.687   0.393
 3159TIP3    H1 9483   4.017   4.597   0.403
 3159TIP3    H2 9484   4.080   4.712   0.479
 3160TIP3   OH2 9485   0.633   4.251   0.338
 3160TIP3    H1 9486   0.668   4.331   0.376
 3160TIP3    H2 9487   0.550   4.236   0.384
 3161TIP3   OH2 9488   4.591   3.943   3.594
 3161TIP3    H1 9489   4.563   4.029   3.564
 3161TIP3    H2 9490   4.611   3.955   3.687
 3162TIP3   OH2 9491   0.472   0.955   1.694
 3162TIP3    H1 9492   0.505   1.044   1.679
 3162TIP3    H2 9493   0.535   0.898   1.651
 3163TIP3   OH2 9494   1.846   5.981   1.945
 3163TIP3    H1 9495   1.868   5.892   1.969
 3163TIP3    H2 9496   1.804   5.973   1.859
 3164TIP3   OH2 9497   6.186   2.441   1.805
 3164TIP3    H1 9498   6.216   2.524   1.768
 3164TIP3    H2 9499   6.267   2.390   1.818
 3165TIP3   OH2 9500   2.288   2.286   1.803
 3165TIP3    H1 9501   2.312   2.204   1.846
 3165TIP3    H2 9502   2.289   2.351   1.873
 3166TIP3   OH2 9503   4.880   1.533   3.034
 3166TIP3    H1 9504   4.930   1.479   2.972
 3166TIP3    H2 9505   4.912   1.622   3.019
 3167TIP3   OH2 9506   2.862   2.167   1.100
 3167TIP3    H1 9507   2.825   2.256   1.105
 3167TIP3    H2 9508   2.896   2.150   1.188
 3168TIP3   OH2 9509   2.184   0.723   4.453
 3168TIP3    H1 9510   2.223   0.742   4.538
 3168TIP3    H2 9511   2.259   0.702   4.396
 3169TIP3   OH2 9512   1.400   5.007   3.251
 3169TIP3    H1 9513   1.370   4.925   3.212
 3169TIP3    H2 9514   1.349   5.015   3.332
 3170TIP3   OH2 9515   5.150   0.108   2.659
 3170TIP3    H1 9516   5.122   0.200   2.657
 3170TIP3    H2 9517   5.078   0.062   2.702
 3171TIP3   OH2 9518   5.550   1.609   3.180
 3171TIP3    H1 9519   5.629   1.555   3.176
 3171TIP3    H2 9520   5.559   1.657   3.262
 3172TIP3   OH2 9521   1.018   4.648   4.446
 3172TIP3    H1 9522   1.009   4.555   4.466
 3172TIP3    H2 9523   0.928   4.681   4.442
 3173TIP3   OH2 9524   5.609   5.676   5.097
 3173TIP3    H1 9525   5.628   5.768   5.080
 3173TIP3    H2 9526   5.639   5.661   5.187
 3174TIP3   OH2 9527   0.640   1.687   2.099
 3174TIP3    H1 9528   0.684   1.731   2.026
 3174TIP3    H2 9529   0.589   1.617   2.057
 3175TIP3   OH2 9530   5.850   1.440   0.528
 3175TIP3    H1 9531   5.937   1.458   0.563
 3175TIP3    H2 9532   5.820   1.363   0.576
 3176TIP3   OH2 9533   0.681   1.082   2.462
 3176TIP3    H1 9534   0.629   1.162   2.455
 3176TIP3    H2 9535   0.770   1.109   2.440
 3177TIP3   OH2 9536   3.005   4.560   0.107
 3177TIP3    H1 9537   2.936   4.596   0.163
 3177TIP3    H2 9538   3.065   4.633   0.093
 3178TIP3   OH2 9539   0.432   0.033   3.528
 3178TIP3    H1 9540   0.460   0.010   3.616
 3178TIP3    H2 9541   0.461  -0.040   3.474
 3179TIP3   OH2 9542   2.025   5.791   4.813
 3179TIP3    H1 9543   1.941   5.798   4.769
 3179TIP3    H2 9544   2.051   5.700   4.801
 3180TIP3   OH2 9545   0.155   3.314   2.791
 3180TIP3    H1 9546   0.246   3.289   2.774
 3180TIP3    H2 9547   0.139   3.388   2.733
 3181TIP3   OH2 9548   0.209   3.017   3.682
 3181TIP3    H1 9549   0.262   3.089   3.646
 3181TIP3    H2 9550   0.119   3.047   3.672
 3182TIP3   OH2 9551   5.992   4.245   4.750
 3182TIP3    H1 9552   5.922   4.181   4.753
 3182TIP3    H2 9553   6.071   4.194   4.734
 3183TIP3   OH2 9554   1.906   5.751   4.199
 3183TIP3    H1 9555   1.976   5.778   4.139
 3183TIP3    H2 9556   1.923   5.658   4.214
 3184TIP3   OH2 9557   1.751   1.362   0.556
 3184TIP3    H1 9558   1.778   1.272   0.541
 3184TIP3    H2 9559   1.659   1.354   0.583
 3185TIP3   OH2 9560   1.052   0.782   4.765
 3185TIP3    H1 9561   0.975   0.828   4.731
 3185TIP3    H2 9562   1.112   0.852   4.791
 3186TIP3   OH2 9563   6.103   5.024   1.132
 3186TIP3    H1 9564   6.077   4.945   1.180
 3186TIP3    H2 9565   6.023   5.054   1.089
 3187TIP3   OH2 9566   1.190   0.487   1.638
 3187TIP3    H1 9567   1.247   0.466   1.713
 3187TIP3    H2 9568   1.144   0.566   1.665
 3188TIP3   OH2 9569   4.700   1.874   2.317
 3188TIP3    H1 9570   4.675   1.813   2.387
 3188TIP3    H2 9571   4.793   1.890   2.332
 3189TIP3   OH2 9572   4.214   4.274   0.112
 3189TIP3    H1 9573   4.183   4.332   0.042
 3189TIP3    H2 9574   4.227   4.332   0.187
 3190TIP3   OH2 9575   5.457   1.398   2.754
 3190TIP3    H1 9576   5.410   1.359   2.829
 3190TIP3    H2 9577   5.389   1.409   2.687
 3191TIP3   OH2 9578   5.828   5.014   1.485
 3191TIP3    H1 9579   5.915   5.052   1.478
 3191TIP3    H2 9580   5.788   5.030   1.400
 3192TIP3   OH2 9581   4.535   0.565   3.085
 3192TIP3    H1 9582   4.455   0.512   3.092
 3192TIP3    H2 9583   4.507   0.654   3.105
 3193TIP3   OH2 9584   4.856   2.897   4.471
 3193TIP3    H1 9585   4.854   2.837   4.545
 3193TIP3    H2 9586   4.911   2.970   4.500
 3194TIP3   OH2 9587   3.647   0.339   4.028
 3194TIP3    H1 9588   3.653   0.417   3.974
 3194TIP3    H2 9589   3.638   0.372   4.118
 3195TIP3   OH2 9590   6.277   4.539   3.118
 3195TIP3    H1 9591   6.269   4.452   3.079
 3195TIP3    H2 9592   6.366   4.567   3.095
 3196TIP3   OH2 9593   5.381   4.916   4.239
 3196TIP3    H1 9594   5.455   4.972   4.263
 3196TIP3    H2 9595   5.417   4.827   4.240
 3197TIP3   OH2 9596   2.972   1.574   1.165
 3197TIP3    H1 9597   2.933   1.534   1.087
 3197TIP3    H2 9598   3.031   1.641   1.131
 3198TIP3   OH2 9599   3.493   4.557   4.772
 3198TIP3    H1 9600   3.404   4.593   4.776
 3198TIP3    H2 9601   3.492   4.485   4.835
 3199TIP3   OH2 9602   6.190   2.886   1.898
 3199TIP3    H1 9603   6.235   2.968   1.916
 3199TIP3    H2 9604   6.107   2.893   1.945
 3200TIP3   OH2 9605   2.889   1.494   0.879
 3200TIP3    H1 9606   2.810   1.441   0.892
 3200TIP3    H2 9607   2.871   1.545   0.800
 3201TIP3   OH2 9608   6.302   4.476   4.217
 3201TIP3    H1 9609   6.321   4.412   4.286
 3201TIP3    H2 9610   6.262   4.549   4.263
 3202TIP3   OH2 9611   6.317   3.130   3.709
 3202TIP3    H1 9612   6.248   3.139   3.644
 3202TIP3    H2 9613   6.302   3.043   3.748
 3203TIP3   OH2 9614   3.568   5.751   1.383
 3203TIP3    H1 9615   3.477   5.763   1.358
 3203TIP3    H2 9616   3.567   5.757   1.479
 3204TIP3   OH2 9617   0.253   3.483   5.029
 3204TIP3    H1 9618   0.315   3.513   5.095
 3204TIP3    H2 9619   0.194   3.557   5.016
 3205TIP3   OH2 9620   6.354   2.754   4.359
 3205TIP3    H1 9621   6.418   2.718   4.420
 3205TIP3    H2 9622   6.270   2.720   4.388
 3206TIP3   OH2 9623   5.567   4.301   3.373
 3206TIP3    H1 9624   5.622   4.297   3.295
 3206TIP3    H2 9625   5.478   4.287   3.341
 3207TIP3   OH2 9626   2.913   4.392   2.944
 3207TIP3    H1 9627   2.976   4.404   2.873
 3207TIP3    H2 9628   2.832   4.365   2.900
 3208TIP3   OH2 9629   4.995   3.726   0.733
 3208TIP3    H1 9630   4.998   3.733   0.638
 3208TIP3    H2 9631   5.086   3.740   0.761
 3209TIP3   OH2 9632   4.944   2.780   2.117
 3209TIP3    H1 9633   4.991   2.711   2.163
 3209TIP3    H2 9634   4.997   2.859   2.131
 3210TIP3   OH2 9635   6.124   1.140   2.333
 3210TIP3    H1 9636   6.187   1.067   2.341
 3210TIP3    H2 9637   6.074   1.137   2.414
 3211TIP3   OH2 9638   0.200   5.314   1.829
 3211TIP3    H1 9639   0.136   5.336   1.761
 3211TIP3    H2 9640   0.207   5.218   1.825
 3212TIP3   OH2 9641   3.108   2.971   1.701
 3212TIP3    H1 9642   3.023   2.930   1.684
 3212TIP3    H2 9643   3.172   2.907   1.670
 3213TIP3   OH2 9644   0.199   4.975   4.580
 3213TIP3    H1 9645   0.152   5.041   4.528
 3213TIP3    H2 9646   0.290   4.982   4.551
 3214TIP3   OH2 9647   1.183   4.000   1.406
 3214TIP3    H1 9648   1.145   4.027   1.490
 3214TIP3    H2 9649   1.155   4.067   1.344
 3215TIP3   OH2 9650   3.998   0.264   3.797
 3215TIP3    H1 9651   4.050   0.342   3.815
 3215TIP3    H2 9652   3.916   0.298   3.760
 3216TIP3   OH2 9653   2.322   5.090   0.475
 3216TIP3    H1 9654   2.342   5.183   0.467
 3216TIP3    H2 9655   2.360   5.050   0.397
 3217TIP3   OH2 9656   1.709   3.880   4.554
 3217TIP3    H1 9657   1.627   3.859   4.599
 3217TIP3    H2 9658   1.735   3.798   4.513
 3218TIP3   OH2 9659   0.940   3.536   0.621
 3218TIP3    H1 9660   0.857   3.511   0.581
 3218TIP3    H2 9661   0.942   3.489   0.704
 3219TIP3   OH2 9662   2.283   1.329   2.920
 3219TIP3    H1 9663   2.248   1.296   2.838
 3219TIP3    H2 9664   2.279   1.425   2.912
 3220TIP3   OH2 9665   6.040   2.458   1.275
 3220TIP3    H1 9666   6.012   2.373   1.242
 3220TIP3    H2 9667   5.960   2.510   1.278
 3221TIP3   OH2 9668   1.605   5.772   4.511
 3221TIP3    H1 9669   1.555   5.818   4.578
 3221TIP3    H2 9670   1.600   5.829   4.434
 3222TIP3   OH2 9671   3.833   3.789   3.505
 3222TIP3    H1 9672   3.916   3.749   3.481
 3222TIP3    H2 9673   3.849   3.883   3.496
 3223TIP3   OH2 9674   1.340   4.960   3.716
 3223TIP3    H1 9675   1.413   5.013   3.683
 3223TIP3    H2 9676   1.332   4.985   3.808
 3224TIP3   OH2 9677   2.363   2.976   0.522
 3224TIP3    H1 9678   2.380   2.915   0.450
 3224TIP3    H2 9679   2.440   3.032   0.524
 3225TIP3   OH2 9680   5.860   5.272   1.832
 3225TIP3    H1 9681   5.928   5.289   1.767
 3225TIP3    H2 9682   5.900   5.210   1.893
 3226TIP3   OH2 9683   6.162   0.222   2.259
 3226TIP3    H1 9684   6.153   0.254   2.169
 3226TIP3    H2 9685   6.076   0.236   2.299
 3227TIP3   OH2 9686   0.080   2.047   4.943
 3227TIP3    H1 9687   0.133   1.998   4.880
 3227TIP3    H2 9688   0.001   2.072   4.894
 3228TIP3   OH2 9689   1.250   4.546   4.294
 3228TIP3    H1 9690   1.325   4.601   4.317
 3228TIP3    H2 9691   1.174   4.596   4.325
 3229TIP3   OH2 9692   2.010   1.998   3.713
 3229TIP3    H1 9693   2.064   2.065   3.754
 3229TIP3    H2 9694   2.072   1.942   3.666
 3230TIP3   OH2 9695   4.233   4.248   0.709
 3230TIP3    H1 9696   4.152   4.195   0.710
 3230TIP3    H2 9697   4.267   4.239   0.798
 3231TIP3   OH2 9698   0.980   2.941   2.912
 3231TIP3    H1 9699   0.898   2.968   2.954
 3231TIP3    H2 9700   1.047   2.998   2.950
 3232TIP3   OH2 9701   1.332   5.454   0.867
 3232TIP3    H1 9702   1.305   5.381   0.923
 3232TIP3    H2 9703   1.397   5.416   0.807
 3233TIP3   OH2 9704   0.721   4.118   4.015
 3233TIP3    H1 9705   0.807   4.109   3.974
 3233TIP3    H2 9706   0.738   4.171   4.093
 3234TIP3   OH2 9707   3.941   2.336   2.943
 3234TIP3    H1 9708   3.968   2.413   2.892
 3234TIP3    H2 9709   3.864   2.303   2.897
 3235TIP3   OH2 9710   2.956   2.262   4.956
 3235TIP3    H1 9711   2.867   2.292   4.937
 3235TIP3    H2 9712   3.000   2.261   4.871
 3236TIP3   OH2 9713   0.323   3.832   3.516
 3236TIP3    H1 9714   0.311   3.757   3.574
 3236TIP3    H2 9715   0.237   3.874   3.512
 3237TIP3   OH2 9716   4.273   1.664   4.341
 3237TIP3    H1 9717   4.348   1.693   4.290
 3237TIP3    H2 9718   4.305   1.587   4.389
 3238TIP3   OH2 9719   3.230   0.476   5.066
 3238TIP3    H1 9720   3.243   0.501   5.158
 3238TIP3    H2 9721   3.310   0.505   5.022
 3239TIP3   OH2 9722   5.325   3.218   0.111
 3239TIP3    H1 9723   5.379   3.225   0.190
 3239TIP3    H2 9724   5.386   3.190   0.043
 3240TIP3   OH2 9725   3.180   4.219   2.054
 3240TIP3    H1 9726   3.204   4.240   1.964
 3240TIP3    H2 9727   3.208   4.295   2.105
 3241TIP3   OH2 9728   1.949   2.811   5.014
 3241TIP3    H1 9729   1.998   2.852   5.085
 3241TIP3    H2 9730   1.935   2.721   5.044
 3242TIP3   OH2 9731   1.170   1.021   3.177
 3242TIP3    H1 9732   1.193   0.988   3.264
 3242TIP3    H2 9733   1.253   1.051   3.141
 3243TIP3   OH2 9734   4.579   0.568   3.997
 3243TIP3    H1 9735   4.651   0.631   3.986
 3243TIP3    H2 9736   4.565   0.564   4.091
 3244TIP3   OH2 9737   0.982   4.191   3.463
 3244TIP3    H1 9738   0.996   4.265   3.404
 3244TIP3    H2 9739   1.066   4.181   3.508
 3245TIP3   OH2 9740   3.987   3.324   1.353
 3245TIP3    H1 9741   3.931   3.398   1.373
 3245TIP3    H2 9742   4.065   3.337   1.407
 3246TIP3   OH2 9743   1.674   2.383   5.049
 3246TIP3    H1 9744   1.598   2.358   5.103
 3246TIP3    H2 9745   1.683   2.311   4.986
 3247TIP3   OH2 9746   4.627   1.102   0.648
 3247TIP3    H1 9747   4.662   1.077   0.734
 3247TIP3    H2 9748   4.646   1.028   0.591
 3248TIP3   OH2 9749   0.838   4.713   4.877
 3248TIP3    H1 9750   0.780   4.773   4.830
 3248TIP3    H2 9751   0.780   4.663   4.934
 3249TIP3   OH2 9752   3.325   3.122   3.269
 3249TIP3    H1 9753   3.376   3.180   3.325
 3249TIP3    H2 9754   3.246   3.102   3.321
 3250TIP3   OH2 9755   4.870   0.450   0.699
 3250TIP3    H1 9756   4.930   0.391   0.743
 3250TIP3    H2 9757   4.888   0.536   0.737
 3251TIP3   OH2 9758   0.762   2.282   2.474
 3251TIP3    H1 9759   0.816   2.261   2.398
 3251TIP3    H2 9760   0.803   2.359   2.512
 3252TIP3   OH2 9761   4.265   2.563   0.789
 3252TIP3    H1 9762   4.341   2.604   0.748
 3252TIP3    H2 9763   4.210   2.636   0.817
 3253TIP3   OH2 9764   2.934   2.867   0.103
 3253TIP3    H1 9765   2.874   2.849   0.176
 3253TIP3    H2 9766   2.884   2.844   0.025
 3254TIP3   OH2 9767   0.490   4.722   3.115
 3254TIP3    H1 9768   0.556   4.678   3.169
 3254TIP3    H2 9769   0.412   4.667   3.122
 3255TIP3   OH2 9770   3.748   4.795   0.302
 3255TIP3    H1 9771   3.824   4.754   0.262
 3255TIP3    H2 9772   3.673   4.745   0.269
 3256TIP3   OH2 9773   2.314   0.754   1.502
 3256TIP3    H1 9774   2.333   0.800   1.421
 3256TIP3    H2 9775   2.314   0.661   1.478
 3257TIP3   OH2 9776   3.228   1.284   4.685
 3257TIP3    H1 9777   3.179   1.314   4.608
 3257TIP3    H2 9778   3.281   1.360   4.710
 3258TIP3   OH2 9779   2.016   1.177   2.047
 3258TIP3    H1 9780   1.978   1.214   1.968
 3258TIP3    H2 9781   1.991   1.084   2.045
 3259TIP3   OH2 9782   0.388   1.532   3.971
 3259TIP3    H1 9783   0.477   1.497   3.958
 3259TIP3    H2 9784   0.365   1.504   4.059
 3260TIP3   OH2 9785   4.359   6.034   4.783
 3260TIP3    H1 9786   4.433   6.045   4.843
 3260TIP3    H2 9787   4.295   6.099   4.812
 3261TIP3   OH2 9788   1.006   0.070   3.941
 3261TIP3    H1 9789   1.008   0.089   3.847
 3261TIP3    H2 9790   1.006   0.156   3.983
 3262TIP3   OH2 9791   1.039   1.801   4.623
 3262TIP3    H1 9792   1.079   1.723   4.585
 3262TIP3    H2 9793   1.103   1.870   4.609
 3263TIP3   OH2 9794   5.572   4.570   2.688
 3263TIP3    H1 9795   5.543   4.523   2.610
 3263TIP3    H2 9796   5.560   4.662   2.666
 3264TIP3   OH2 9797   2.187   5.643   2.498
 3264TIP3    H1 9798   2.220   5.568   2.547
 3264TIP3    H2 9799   2.102   5.662   2.538
 3265TIP3   OH2 9800   0.477   4.237   0.829
 3265TIP3    H1 9801   0.480   4.332   0.830
 3265TIP3    H2 9802   0.567   4.209   0.844
 3266TIP3   OH2 9803   0.328   2.848   1.669
 3266TIP3    H1 9804   0.421   2.848   1.690
 3266TIP3    H2 9805   0.313   2.764   1.625
 3267TIP3   OH2 9806   1.053   3.721   4.200
 3267TIP3    H1 9807   1.068   3.732   4.294
 3267TIP3    H2 9808   0.967   3.761   4.185
 3268TIP3   OH2 9809   1.974   5.001   0.403
 3268TIP3    H1 9810   1.987   4.937   0.333
 3268TIP3    H2 9811   2.062   5.031   0.425
 3269TIP3   OH2 9812   4.368   1.569   2.999
 3269TIP3    H1 9813   4.344   1.549   2.908
 3269TIP3    H2 9814   4.396   1.485   3.035
 3270TIP3   OH2 9815   3.222   1.269   5.005
 3270TIP3    H1 9816   3.172   1.217   4.942
 3270TIP3    H2 9817   3.186   1.357   4.997
 3271TIP3   OH2 9818   5.076   4.467   3.158
 3271TIP3    H1 9819   5.072   4.543   3.099
 3271TIP3    H2 9820   5.024   4.494   3.234
 3272TIP3   OH2 9821   1.226   2.018   4.625
 3272TIP3    H1 9822   1.271   2.081   4.682
 3272TIP3    H2 9823   1.205   2.067   4.546
 3273TIP3   OH2 9824   3.774   4.642   0.554
 3273TIP3    H1 9825   3.766   4.687   0.470
 3273TIP3    H2 9826   3.774   4.712   0.619
 3274TIP3   OH2 9827   4.865   1.129   3.016
 3274TIP3    H1 9828   4.924   1.204   3.008
 3274TIP3    H2 9829   4.901   1.078   3.088
 3275TIP3   OH2 9830   4.167   4.640   4.752
 3275TIP3    H1 9831   4.153   4.732   4.775
 3275TIP3    H2 9832   4.082   4.599   4.766
 3276TIP3   OH2 9833   3.848   3.857   0.316
 3276TIP3    H1 9834   3.888   3.931   0.361
 3276TIP3    H2 9835   3.801   3.809   0.385
 3277TIP3   OH2 9836   3.793   1.611   1.188
 3277TIP3    H1 9837   3.799   1.605   1.093
 3277TIP3    H2 9838   3.867   1.559   1.220
 3278TIP3   OH2 9839   4.872   1.975   0.118
 3278TIP3    H1 9840   4.829   2.057   0.142
 3278TIP3    H2 9841   4.857   1.966   0.024
 3279TIP3   OH2 9842   1.931   0.862   3.008
 3279TIP3    H1 9843   1.938   0.938   2.952
 3279TIP3    H2 9844   1.903   0.791   2.950
 3280TIP3   OH2 9845   5.667   3.338   3.037
 3280TIP3    H1 9846   5.719   3.417   3.056
 3280TIP3    H2 9847   5.579   3.371   3.020
 3281TIP3   OH2 9848   0.726   1.300   3.712
 3281TIP3    H1 9849   0.727   1.208   3.738
 3281TIP3    H2 9850   0.649   1.336   3.756
 3282TIP3   OH2 9851   5.882   4.127   2.959
 3282TIP3    H1 9852   5.906   4.068   2.888
 3282TIP3    H2 9853   5.833   4.197   2.916
 3283TIP3   OH2 9854   3.810   0.041   0.689
 3283TIP3    H1 9855   3.898   0.059   0.654
 3283TIP3    H2 9856   3.823   0.024   0.782
 3284TIP3   OH2 9857   1.628   0.422   3.615
 3284TIP3    H1 9858   1.587   0.336   3.602
 3284TIP3    H2 9859   1.650   0.452   3.526
 3285TIP3   OH2 9860   5.428   1.298   3.448
 3285TIP3    H1 9861   5.382   1.270   3.527
 3285TIP3    H2 9862   5.507   1.341   3.481
 3286TIP3   OH2 9863   2.414   0.956   1.017
 3286TIP3    H1 9864   2.358   0.898   0.966
 3286TIP3    H2 9865   2.403   1.042   0.977
 3287TIP3   OH2 9866   2.909   2.803   1.610
 3287TIP3    H1 9867   2.902   2.724   1.664
 3287TIP3    H2 9868   2.822   2.813   1.570
 3288TIP3   OH2 9869   0.636   3.667   1.785
 3288TIP3    H1 9870   0.626   3.579   1.822
 3288TIP3    H2 9871   0.605   3.725   1.854
 3289TIP3   OH2 9872   1.729   0.714   2.062
 3289TIP3    H1 9873   1.674   0.638   2.080
 3289TIP3    H2 9874   1.811   0.677   2.028
 3290TIP3   OH2 9875   5.428   2.332   1.786
 3290TIP3    H1 9876   5.488   2.260   1.765
 3290TIP3    H2 9877   5.370   2.297   1.853
 3291TIP3   OH2 9878   3.510   4.725   0.175
 3291TIP3    H1 9879   3.456   4.801   0.195
 3291TIP3    H2 9880   3.526   4.731   0.081
 3292TIP3   OH2 9881   2.546   1.546   3.440
 3292TIP3    H1 9882   2.531   1.559   3.346
 3292TIP3    H2 9883   2.537   1.452   3.454
 3293TIP3   OH2 9884   3.415   2.573   3.495
 3293TIP3    H1 9885   3.394   2.614   3.412
 3293TIP3    H2 9886   3.400   2.642   3.560
 3294TIP3   OH2 9887   5.217   1.534   1.857
 3294TIP3    H1 9888   5.150   1.551   1.923
 3294TIP3    H2 9889   5.196   1.447   1.823
 3295TIP3   OH2 9890   3.505   4.539   2.329
 3295TIP3    H1 9891   3.417   4.506   2.343
 3295TIP3    H2 9892   3.493   4.630   2.301
 3296TIP3   OH2 9893   0.471   1.711   2.893
 3296TIP3    H1 9894   0.489   1.687   2.801
 3296TIP3    H2 9895   0.417   1.639   2.925
 3297TIP3   OH2 9896   6.111   2.368   0.183
 3297TIP3    H1 9897   6.105   2.273   0.170
 3297TIP3    H2 9898   6.138   2.402   0.097
 3298TIP3   OH2 9899   2.900   0.315   4.243
 3298TIP3    H1 9900   2.990   0.282   4.241
 3298TIP3    H2 9901   2.907   0.406   4.217
 3299TIP3   OH2 9902   2.850   5.198   3.497
 3299TIP3    H1 9903   2.759   5.226   3.488
 3299TIP3    H2 9904   2.901   5.279   3.494
 3300TIP3   OH2 9905   4.496   4.802   4.011
 3300TIP3    H1 9906   4.512   4.895   3.995
 3300TIP3    H2 9907   4.423   4.801   4.072
 3301TIP3   OH2 9908   0.179   3.134   4.284
 3301TIP3    H1 9909   0.144   3.110   4.370
 3301TIP3    H2 9910   0.145   3.066   4.225
 3302TIP3   OH2 9911   5.673   4.101   1.886
 3302TIP3    H1 9912   5.616   4.081   1.959
 3302TIP3    H2 9913   5.758   4.119   1.927
 3303TIP3   OH2 9914   0.805   1.674   4.998
 3303TIP3    H1 9915   0.848   1.618   4.933
 3303TIP3    H2 9916   0.872   1.687   5.065
 3304TIP3   OH2 9917   5.829   5.669   0.276
 3304TIP3    H1 9918   5.831   5.750   0.327
 3304TIP3    H2 9919   5.897   5.681   0.209
 3305TIP3   OH2 9920   1.670   5.013   2.331
 3305TIP3    H1 9921   1.601   4.961   2.290
 3305TIP3    H2 9922   1.674   5.093   2.279
 3306TIP3   OH2 9923   3.711   2.945   3.314
 3306TIP3    H1 9924   3.724   3.026   3.265
 3306TIP3    H2 9925   3.677   2.883   3.250
 3307TIP3   OH2 9926   4.776   5.273   0.532
 3307TIP3    H1 9927   4.754   5.240   0.445
 3307TIP3    H2 9928   4.848   5.335   0.517
 3308TIP3   OH2 9929   5.152   5.121   3.499
 3308TIP3    H1 9930   5.202   5.105   3.419
 3308TIP3    H2 9931   5.062   5.133   3.469
 3309TIP3   OH2 9932   5.588   2.055   3.047
 3309TIP3    H1 9933   5.603   2.078   2.955
 3309TIP3    H2 9934   5.585   1.960   3.048
 3310TIP3   OH2 9935   5.586   5.044   4.403
 3310TIP3    H1 9936   5.675   5.012   4.386
 3310TIP3    H2 9937   5.577   5.040   4.498
 3311TIP3   OH2 9938   6.301   2.829   4.818
 3311TIP3    H1 9939   6.312   2.792   4.905
 3311TIP3    H2 9940   6.261   2.759   4.766
 3312TIP3   OH2 9941   2.217   1.984   0.094
 3312TIP3    H1 9942   2.279   2.042   0.050
 3312TIP3    H2 9943   2.160   2.042   0.144
 3313TIP3   OH2 9944   6.292   5.367   3.327
 3313TIP3    H1 9945   6.226   5.352   3.259
 3313TIP3    H2 9946   6.283   5.291   3.386
 3314TIP3   OH2 9947   4.837   0.816   0.164
 3314TIP3    H1 9948   4.822   0.788   0.255
 3314TIP3    H2 9949   4.837   0.735   0.114
 3315TIP3   OH2 9950   2.767   5.257   2.199
 3315TIP3    H1 9951   2.843   5.210   2.163
 3315TIP3    H2 9952   2.786   5.349   2.181
 3316TIP3   OH2 9953   5.884   3.184   2.986
 3316TIP3    H1 9954   5.808   3.238   3.003
 3316TIP3    H2 9955   5.864   3.100   3.028
 3317TIP3   OH2 9956   3.831   1.442   3.327
 3317TIP3    H1 9957   3.910   1.405   3.367
 3317TIP3    H2 9958   3.857   1.529   3.298
 3318TIP3   OH2 9959   6.332   1.483   0.789
 3318TIP3    H1 9960   6.272   1.524   0.851
 3318TIP3    H2 9961   6.404   1.450   0.842
 3319TIP3   OH2 9962   1.241   5.391   2.836
 3319TIP3    H1 9963   1.241   5.342   2.919
 3319TIP3    H2 9964   1.148   5.405   2.817
 3320TIP3   OH2 9965   2.526   0.912   3.994
 3320TIP3    H1 9966   2.620   0.923   4.006
 3320TIP3    H2 9967   2.502   0.979   3.929
 3321TIP3   OH2 9968   6.074   3.113   2.167
 3321TIP3    H1 9969   6.021   3.067   2.101
 3321TIP3    H2 9970   6.164   3.098   2.140
 3322TIP3   OH2 9971   1.892   2.740   3.514
 3322TIP3    H1 9972   1.904   2.809   3.579
 3322TIP3    H2 9973   1.912   2.659   3.561
 3323TIP3   OH2 9974   6.335   2.532   3.677
 3323TIP3    H1 9975   6.256   2.537   3.730
 3323TIP3    H2 9976   6.376   2.618   3.687
 3324TIP3   OH2 9977   4.253   3.951   3.423
 3324TIP3    H1 9978   4.219   3.933   3.335
 3324TIP3    H2 9979   4.348   3.946   3.413
 3325TIP3   OH2 9980   3.552   2.576   0.809
 3325TIP3    H1 9981   3.473   2.586   0.862
 3325TIP3    H2 9982   3.535   2.501   0.753
 3326TIP3   OH2 9983   1.433   4.763   4.290
 3326TIP3    H1 9984   1.395   4.851   4.298
 3326TIP3    H2 9985   1.509   4.764   4.348
 3327TIP3   OH2 9986   2.610   3.253   2.005
 3327TIP3    H1 9987   2.580   3.337   1.970
 3327TIP3    H2 9988   2.602   3.193   1.931
 3328TIP3   OH2 9989   5.534   2.051   2.079
 3328TIP3    H1 9990   5.578   2.025   2.160
 3328TIP3    H2 9991   5.557   1.982   2.017
 3329TIP3   OH2 9992   4.870   1.375   5.076
 3329TIP3    H1 9993   4.952   1.421   5.059
 3329TIP3    H2 9994   4.892   1.282   5.062
 3330TIP3   OH2 9995   0.687   5.982   0.711
 3330TIP3    H1 9996   0.770   5.993   0.665
 3330TIP3    H2 9997   0.621   5.983   0.642
 3331TIP3   OH2 9998   1.837   2.959   2.207
 3331TIP3    H1 9999   1.816   2.905   2.283
 3331TIP3    H210000   1.930   2.943   2.190
 3332TIP3   OH210001   0.405   1.511   5.095
 3332TIP3    H110002   0.475   1.539   5.036
 3332TIP3    H210003   0.415   1.568   5.172
 3333TIP3   OH210004   1.485   3.165   4.906
 3333TIP3    H110005   1.445   3.104   4.967
 3333TIP3    H210006   1.577   3.141   4.904
 3334TIP3   OH210007   2.916   1.212   1.827
 3334TIP3    H110008   2.927   1.130   1.779
 3334TIP3    H210009   2.874   1.187   1.909
 3335TIP3   OH210010   4.434   2.600   3.741
 3335TIP3    H110011   4.357   2.622   3.795
 3335TIP3    H210012   4.399   2.548   3.669
 3336TIP3   OH210013   4.256   2.131   1.161
 3336TIP3    H110014   4.290   2.055   1.113
 3336TIP3    H210015   4.281   2.116   1.252
 3337TIP3   OH210016   4.150   5.579   1.678
 3337TIP3    H110017   4.119   5.489   1.691
 3337TIP3    H210018   4.115   5.627   1.754
 3338TIP3   OH210019   1.185   1.533   1.659
 3338TIP3    H110020   1.230   1.465   1.710
 3338TIP3    H210021   1.247   1.606   1.656
 3339TIP3   OH210022   2.579   1.205   4.119
 3339TIP3    H110023   2.674   1.203   4.109
 3339TIP3    H210024   2.545   1.170   4.037
 3340TIP3   OH210025   0.538   0.025   4.740
 3340TIP3    H110026   0.480   0.057   4.809
 3340TIP3    H210027   0.624   0.017   4.781
 3341TIP3   OH210028   0.149   2.310   0.072
 3341TIP3    H110029   0.240   2.282   0.078
 3341TIP3    H210030   0.154   2.406   0.069
 3342TIP3   OH210031   5.120   4.677   2.182
 3342TIP3    H110032   5.071   4.680   2.100
 3342TIP3    H210033   5.086   4.750   2.234
 3343TIP3   OH210034   0.043   0.090   2.490
 3343TIP3    H110035   0.033   0.114   2.582
 3343TIP3    H210036  -0.037   0.042   2.468
 3344TIP3   OH210037   3.939   4.308   1.070
 3344TIP3    H110038   3.974   4.383   1.022
 3344TIP3    H210039   3.959   4.326   1.162
 3345TIP3   OH210040   6.178   3.874   3.892
 3345TIP3    H110041   6.108   3.900   3.832
 3345TIP3    H210042   6.134   3.867   3.977
 3346TIP3   OH210043   6.208   2.906   0.598
 3346TIP3    H110044   6.118   2.873   0.588
 3346TIP3    H210045   6.207   2.955   0.679
 3347TIP3   OH210046   5.423   1.015   3.657
 3347TIP3    H110047   5.409   0.979   3.569
 3347TIP3    H210048   5.514   1.046   3.656
 3348TIP3   OH210049   3.979   2.481   4.125
 3348TIP3    H110050   3.932   2.564   4.123
 3348TIP3    H210051   4.072   2.506   4.127
 3349TIP3   OH210052   4.974   4.918   5.123
 3349TIP3    H110053   4.972   4.825   5.145
 3349TIP3    H210054   5.004   4.920   5.032
 3350TIP3   OH210055   6.291   5.691   4.745
 3350TIP3    H110056   6.228   5.628   4.709
 3350TIP3    H210057   6.301   5.665   4.837
 3351TIP3   OH210058   5.150   4.314   5.016
 3351TIP3    H110059   5.105   4.373   4.955
 3351TIP3    H210060   5.243   4.325   4.996
 3352TIP3   OH210061   2.916   3.515   4.175
 3352TIP3    H110062   2.837   3.525   4.122
 3352TIP3    H210063   2.963   3.597   4.162
 3353TIP3   OH210064   4.625   4.076   2.332
 3353TIP3    H110065   4.719   4.093   2.332
 3353TIP3    H210066   4.610   4.023   2.254
 3354TIP3   OH210067   0.659   5.266   2.139
 3354TIP3    H110068   0.597   5.231   2.203
 3354TIP3    H210069   0.744   5.234   2.170
 3355TIP3   OH210070   0.999   0.303   2.552
 3355TIP3    H110071   0.934   0.372   2.563
 3355TIP3    H210072   1.064   0.340   2.492
 3356TIP3   OH210073   1.839   1.626   2.822
 3356TIP3    H110074   1.744   1.635   2.812
 3356TIP3    H210075   1.873   1.627   2.733
 3357TIP3   OH210076   2.045   5.045   4.263
 3357TIP3    H110077   1.992   4.970   4.239
 3357TIP3    H210078   2.075   5.026   4.352
 3358TIP3   OH210079   3.363   4.683   1.153
 3358TIP3    H110080   3.299   4.706   1.219
 3358TIP3    H210081   3.338   4.596   1.124
 3359TIP3   OH210082   4.012   3.175   3.329
 3359TIP3    H110083   4.043   3.095   3.370
 3359TIP3    H210084   3.924   3.154   3.297
 3360TIP3   OH210085   4.592   2.605   4.958
 3360TIP3    H110086   4.587   2.610   4.862
 3360TIP3    H210087   4.515   2.653   4.988
 3361TIP3   OH210088   4.644   0.419   1.544
 3361TIP3    H110089   4.560   0.432   1.501
 3361TIP3    H210090   4.632   0.456   1.632
 3362TIP3   OH210091   5.730   2.272   4.738
 3362TIP3    H110092   5.751   2.243   4.827
 3362TIP3    H210093   5.668   2.343   4.751
 3363TIP3   OH210094   3.552   1.225   0.714
 3363TIP3    H110095   3.518   1.266   0.634
 3363TIP3    H210096   3.480   1.169   0.744
 3364TIP3   OH210097   1.211   0.147   0.977
 3364TIP3    H110098   1.142   0.159   0.912
 3364TIP3    H210099   1.242   0.235   0.995
 3365TIP3   OH210100   6.211   2.996   0.277
 3365TIP3    H110101   6.127   2.985   0.232
 3365TIP3    H210102   6.193   2.970   0.367
 3366TIP3   OH210103   5.713   4.819   4.188
 3366TIP3    H110104   5.771   4.748   4.161
 3366TIP3    H210105   5.755   4.898   4.154
 3367TIP3   OH210106   0.879   5.772   4.432
 3367TIP3    H110107   0.877   5.836   4.504
 3367TIP3    H210108   0.971   5.743   4.429
 3368TIP3   OH210109   0.211   3.223   2.447
 3368TIP3    H110110   0.204   3.300   2.391
 3368TIP3    H210111   0.121   3.205   2.475
 3369TIP3   OH210112   2.158   5.258   0.027
 3369TIP3    H110113   2.153   5.166   0.054
 3369TIP3    H210114   2.247   5.285   0.053
 3370TIP3   OH210115   0.021   0.595   2.169
 3370TIP3    H110116   0.050   0.572   2.081
 3370TIP3    H210117   0.100   0.593   2.222
 3371TIP3   OH210118   2.258   3.779   0.236
 3371TIP3    H110119   2.259   3.773   0.332
 3371TIP3    H210120   2.239   3.871   0.219
 3372TIP3   OH210121   5.352   5.361   1.430
 3372TIP3    H110122   5.257   5.363   1.419
 3372TIP3    H210123   5.386   5.339   1.343
 3373TIP3   OH210124   5.012   0.364   3.086
 3373TIP3    H110125   4.986   0.378   2.995
 3373TIP3    H210126   4.929   0.347   3.132
 3374TIP3   OH210127   1.204   4.912   0.095
 3374TIP3    H110128   1.150   4.948   0.165
 3374TIP3    H210129   1.250   4.987   0.060
 3375TIP3   OH210130   3.161   1.451   2.983
 3375TIP3    H110131   3.235   1.467   2.925
 3375TIP3    H210132   3.201   1.431   3.068
 3376TIP3   OH210133   4.489   5.405   1.602
 3376TIP3    H110134   4.439   5.323   1.597
 3376TIP3    H210135   4.497   5.434   1.512
 3377TIP3   OH210136   5.533   5.704   1.913
 3377TIP3    H110137   5.615   5.656   1.903
 3377TIP3    H210138   5.480   5.677   1.838
 3378TIP3   OH210139   4.192   0.534   3.626
 3378TIP3    H110140   4.117   0.542   3.567
 3378TIP3    H210141   4.153   0.527   3.714
 3379TIP3   OH210142   5.126   1.569   3.759
 3379TIP3    H110143   5.031   1.557   3.766
 3379TIP3    H210144   5.159   1.484   3.731
 3380TIP3   OH210145   4.078   4.639   1.812
 3380TIP3    H110146   4.160   4.681   1.837
 3380TIP3    H210147   4.075   4.646   1.716
 3381TIP3   OH210148   3.841   4.001   4.763
 3381TIP3    H110149   3.866   4.010   4.672
 3381TIP3    H210150   3.855   4.087   4.802
 3382TIP3   OH210151   3.221   5.176   5.084
 3382TIP3    H110152   3.127   5.188   5.096
 3382TIP3    H210153   3.246   5.111   5.150
 3383TIP3   OH210154   0.661   3.150   2.738
 3383TIP3    H110155   0.698   3.224   2.787
 3383TIP3    H210156   0.731   3.124   2.678
 3384TIP3   OH210157   0.800   4.539   1.891
 3384TIP3    H110158   0.872   4.507   1.836
 3384TIP3    H210159   0.759   4.607   1.838
 3385TIP3   OH210160   5.048   2.301   0.612
 3385TIP3    H110161   5.082   2.280   0.699
 3385TIP3    H210162   5.095   2.242   0.553
 3386TIP3   OH210163   3.508   1.487   4.468
 3386TIP3    H110164   3.553   1.482   4.552
 3386TIP3    H210165   3.573   1.522   4.408
 3387TIP3   OH210166   0.484   5.274   1.156
 3387TIP3    H110167   0.558   5.231   1.197
 3387TIP3    H210168   0.466   5.222   1.078
 3388TIP3   OH210169   2.250   4.568   0.988
 3388TIP3    H110170   2.257   4.482   1.029
 3388TIP3    H210171   2.280   4.555   0.898
 3389TIP3   OH210172   1.884   4.819   4.219
 3389TIP3    H110173   1.898   4.724   4.216
 3389TIP3    H210174   1.802   4.832   4.171
 3390TIP3   OH210175   1.001   5.369   4.123
 3390TIP3    H110176   1.088   5.381   4.161
 3390TIP3    H210177   1.017   5.355   4.030
 3391TIP3   OH210178   2.578   1.392   2.195
 3391TIP3    H110179   2.484   1.405   2.182
 3391TIP3    H210180   2.604   1.461   2.256
 3392TIP3   OH210181   5.110   3.387   2.733
 3392TIP3    H110182   5.182   3.407   2.673
 3392TIP3    H210183   5.109   3.292   2.738
 3393TIP3   OH210184   2.459   0.012   1.873
 3393TIP3    H110185   2.384   0.038   1.926
 3393TIP3    H210186   2.530   0.070   1.901
 3394TIP3   OH210187   0.679   2.349   2.115
 3394TIP3    H110188   0.741   2.407   2.160
 3394TIP3    H210189   0.728   2.317   2.039
 3395TIP3   OH210190   3.720   0.449   5.109
 3395TIP3    H110191   3.678   0.385   5.166
 3395TIP3    H210192   3.648   0.490   5.061
 3396TIP3   OH210193   4.110   0.109   3.559
 3396TIP3    H110194   4.056   0.150   3.628
 3396TIP3    H210195   4.184   0.071   3.606
 3397TIP3   OH210196   5.944   0.396   4.726
 3397TIP3    H110197   5.863   0.436   4.757
 3397TIP3    H210198   5.929   0.379   4.633
 3398TIP3   OH210199   3.857   2.763   2.995
 3398TIP3    H110200   3.909   2.732   3.070
 3398TIP3    H210201   3.766   2.753   3.023
 3399TIP3   OH210202   0.724   1.123   2.940
 3399TIP3    H110203   0.817   1.136   2.960
 3399TIP3    H210204   0.689   1.078   3.017
 3400TIP3   OH210205   5.132   3.323   4.873
 3400TIP3    H110206   5.061   3.270   4.837
 3400TIP3    H210207   5.096   3.411   4.878
 3401TIP3   OH210208   2.033   1.220   4.534
 3401TIP3    H110209   2.085   1.205   4.613
 3401TIP3    H210210   2.096   1.252   4.470
 3402TIP3   OH210211   1.105   0.173   4.466
 3402TIP3    H110212   1.160   0.141   4.394
 3402TIP3    H210213   1.095   0.097   4.523
 3403TIP3   OH210214   3.351   1.283   3.959
 3403TIP3    H110215   3.394   1.341   4.022
 3403TIP3    H210216   3.399   1.296   3.877
 3404TIP3   OH210217   2.776   2.346   4.003
 3404TIP3    H110218   2.800   2.264   3.960
 3404TIP3    H210219   2.682   2.355   3.988
 3405TIP3   OH210220   2.563   5.184   3.533
 3405TIP3    H110221   2.545   5.143   3.617
 3405TIP3    H210222   2.504   5.260   3.530
 3406TIP3   OH210223   1.616   4.014   3.294
 3406TIP3    H110224   1.664   4.081   3.342
 3406TIP3    H210225   1.651   3.931   3.327
 3407TIP3   OH210226   3.936   2.908   4.202
 3407TIP3    H110227   3.997   2.940   4.135
 3407TIP3    H210228   3.914   2.985   4.254
 3408TIP3   OH210229   3.458   0.883   2.388
 3408TIP3    H110230   3.444   0.867   2.295
 3408TIP3    H210231   3.374   0.915   2.420
 3409TIP3   OH210232   3.455   5.660   4.200
 3409TIP3    H110233   3.489   5.627   4.117
 3409TIP3    H210234   3.363   5.633   4.201
 3410TIP3   OH210235   6.161   1.881   2.682
 3410TIP3    H110236   6.210   1.957   2.715
 3410TIP3    H210237   6.195   1.867   2.594
 3411TIP3   OH210238   3.124   4.775   0.002
 3411TIP3    H110239   3.099   4.839   0.068
 3411TIP3    H210240   3.205   4.809  -0.037
 3412TIP3   OH210241   3.109   3.117   3.438
 3412TIP3    H110242   3.102   3.024   3.418
 3412TIP3    H210243   3.043   3.158   3.381
 3413TIP3   OH210244   1.309   2.210   0.145
 3413TIP3    H110245   1.251   2.171   0.210
 3413TIP3    H210246   1.308   2.303   0.165
 3414TIP3   OH210247   1.960   2.865   0.778
 3414TIP3    H110248   1.986   2.791   0.723
 3414TIP3    H210249   1.977   2.942   0.724
 3415TIP3   OH210250   3.157   1.324   2.022
 3415TIP3    H110251   3.217   1.250   2.019
 3415TIP3    H210252   3.075   1.290   1.986
 3416TIP3   OH210253   5.942   2.034   2.429
 3416TIP3    H110254   5.913   2.002   2.514
 3416TIP3    H210255   5.977   2.121   2.446
 3417TIP3   OH210256   3.381   0.817   2.685
 3417TIP3    H110257   3.365   0.902   2.645
 3417TIP3    H210258   3.413   0.837   2.773
 3418TIP3   OH210259   4.590   4.887   3.690
 3418TIP3    H110260   4.518   4.950   3.696
 3418TIP3    H210261   4.657   4.921   3.750
 3419TIP3   OH210262   1.169   4.471   1.976
 3419TIP3    H110263   1.109   4.423   2.033
 3419TIP3    H210264   1.256   4.445   2.006
 3420TIP3   OH210265   4.174   5.192   1.987
 3420TIP3    H110266   4.091   5.173   2.033
 3420TIP3    H210267   4.204   5.275   2.026
 3421TIP3   OH210268   1.504   1.496   0.970
 3421TIP3    H110269   1.479   1.442   1.045
 3421TIP3    H210270   1.585   1.539   0.998
 3422TIP3   OH210271   3.409   2.376   1.559
 3422TIP3    H110272   3.435   2.300   1.610
 3422TIP3    H210273   3.484   2.435   1.564
 3423TIP3   OH210274   5.393   5.686   4.936
 3423TIP3    H110275   5.389   5.780   4.954
 3423TIP3    H210276   5.471   5.656   4.984
 3424TIP3   OH210277   1.057   5.376   1.170
 3424TIP3    H110278   0.988   5.393   1.106
 3424TIP3    H210279   1.078   5.283   1.159
 3425TIP3   OH210280   1.695   2.166   3.719
 3425TIP3    H110281   1.687   2.240   3.779
 3425TIP3    H210282   1.651   2.094   3.764
 3426TIP3   OH210283   3.038   0.527   4.509
 3426TIP3    H110284   2.958   0.564   4.548
 3426TIP3    H210285   3.039   0.562   4.420
 3427TIP3   OH210286   3.745   1.773   0.149
 3427TIP3    H110287   3.745   1.774   0.245
 3427TIP3    H210288   3.681   1.840   0.125
 3428TIP3   OH210289   4.898   0.176   2.057
 3428TIP3    H110290   4.843   0.178   1.978
 3428TIP3    H210291   4.837   0.197   2.128
 3429TIP3   OH210292   1.244   0.108   4.788
 3429TIP3    H110293   1.316   0.126   4.727
 3429TIP3    H210294   1.179   0.062   4.735
 3430TIP3   OH210295   2.067   1.228   3.897
 3430TIP3    H110296   1.984   1.211   3.942
 3430TIP3    H210297   2.123   1.154   3.919
 3431TIP3   OH210298   4.730   0.806   2.576
 3431TIP3    H110299   4.785   0.749   2.522
 3431TIP3    H210300   4.769   0.801   2.663
 3432TIP3   OH210301   1.135   4.308   2.568
 3432TIP3    H110302   1.077   4.256   2.624
 3432TIP3    H210303   1.198   4.245   2.533
 3433TIP3   OH210304   3.725   4.273   0.884
 3433TIP3    H110305   3.780   4.309   0.953
 3433TIP3    H210306   3.758   4.314   0.803
 3434TIP3   OH210307   2.618   1.695   4.270
 3434TIP3    H110308   2.562   1.655   4.337
 3434TIP3    H210309   2.651   1.621   4.219
 3435TIP3   OH210310   2.506   4.366   3.648
 3435TIP3    H110311   2.594   4.385   3.615
 3435TIP3    H210312   2.464   4.315   3.579
 3436TIP3   OH210313   1.047   5.437   4.891
 3436TIP3    H110314   1.025   5.494   4.817
 3436TIP3    H210315   0.962   5.403   4.921
 3437TIP3   OH210316   0.073   5.495   1.316
 3437TIP3    H110317   0.133   5.433   1.275
 3437TIP3    H210318  -0.014   5.457   1.301
 3438TIP3   OH210319   2.730   2.216   4.436
 3438TIP3    H110320   2.659   2.242   4.495
 3438TIP3    H210321   2.703   2.129   4.404
 3439TIP3   OH210322   5.833   4.554   2.346
 3439TIP3    H110323   5.919   4.554   2.388
 3439TIP3    H210324   5.838   4.624   2.281
 3440TIP3   OH210325   5.269   3.634   4.002
 3440TIP3    H110326   5.318   3.648   4.083
 3440TIP3    H210327   5.320   3.677   3.934
 3441TIP3   OH210328   5.052   3.744   0.439
 3441TIP3    H110329   5.135   3.790   0.450
 3441TIP3    H210330   5.063   3.694   0.357
 3442TIP3   OH210331   1.677   0.206   4.706
 3442TIP3    H110332   1.728   0.207   4.625
 3442TIP3    H210333   1.586   0.202   4.676
 3443TIP3   OH210334   4.961   4.353   2.674
 3443TIP3    H110335   4.901   4.279   2.664
 3443TIP3    H210336   4.905   4.427   2.695
 3444TIP3   OH210337   2.621   2.942   3.932
 3444TIP3    H110338   2.677   2.961   4.007
 3444TIP3    H210339   2.567   3.020   3.922
 3445TIP3   OH210340   2.319   2.624   5.107
 3445TIP3    H110341   2.388   2.689   5.099
 3445TIP3    H210342   2.274   2.646   5.189
 3446TIP3   OH210343   2.357   2.640   3.206
 3446TIP3    H110344   2.427   2.665   3.266
 3446TIP3    H210345   2.279   2.682   3.242
 3447TIP3   OH210346   5.996   3.072   2.746
 3447TIP3    H110347   5.915   3.093   2.792
 3447TIP3    H210348   6.046   3.154   2.746
 3448TIP3   OH210349   0.801   3.751   3.458
 3448TIP3    H110350   0.855   3.728   3.383
 3448TIP3    H210351   0.768   3.668   3.491
 3449TIP3   OH210352   3.792   3.999   2.926
 3449TIP3    H110353   3.705   4.009   2.963
 3449TIP3    H210354   3.783   4.028   2.835
 3450TIP3   OH210355   0.184   2.454   3.066
 3450TIP3    H110356   0.166   2.544   3.093
 3450TIP3    H210357   0.261   2.428   3.116
 3451TIP3   OH210358   1.828   3.827   0.771
 3451TIP3    H110359   1.784   3.912   0.774
 3451TIP3    H210360   1.763   3.768   0.732
 3452TIP3   OH210361   6.206   3.281   0.412
 3452TIP3    H110362   6.116   3.307   0.395
 3452TIP3    H210363   6.201   3.187   0.431
 3453TIP3   OH210364   0.672   3.152   2.073
 3453TIP3    H110365   0.634   3.170   2.159
 3453TIP3    H210366   0.605   3.103   2.027
 3454TIP3   OH210367   4.193   0.744   1.512
 3454TIP3    H110368   4.162   0.823   1.557
 3454TIP3    H210369   4.121   0.722   1.452
 3455TIP3   OH210370   2.885   1.445   5.072
 3455TIP3    H110371   2.939   1.385   5.122
 3455TIP3    H210372   2.945   1.512   5.040
 3456TIP3   OH210373   1.586   3.728   3.941
 3456TIP3    H110374   1.556   3.734   4.032
 3456TIP3    H210375   1.653   3.797   3.934
 3457TIP3   OH210376   3.506   5.692   3.414
 3457TIP3    H110377   3.413   5.691   3.390
 3457TIP3    H210378   3.517   5.771   3.467
 3458TIP3   OH210379   2.805   1.825   1.520
 3458TIP3    H110380   2.899   1.841   1.511
 3458TIP3    H210381   2.775   1.888   1.585
 3459TIP3   OH210382   3.878  -0.057   0.991
 3459TIP3    H110383   3.799  -0.086   1.036
 3459TIP3    H210384   3.920   0.003   1.053
 3460TIP3   OH210385   1.147   1.342   3.732
 3460TIP3    H110386   1.077   1.385   3.782
 3460TIP3    H210387   1.226   1.390   3.756
 3461TIP3   OH210388   1.136   0.389   2.787
 3461TIP3    H110389   1.051   0.430   2.804
 3461TIP3    H210390   1.124   0.344   2.703
 3462TIP3   OH210391   3.088   2.636   0.468
 3462TIP3    H110392   3.052   2.721   0.493
 3462TIP3    H210393   3.044   2.615   0.385
 3463TIP3   OH210394   3.977   2.951   1.618
 3463TIP3    H110395   4.038   2.929   1.689
 3463TIP3    H210396   4.033   2.959   1.541
 3464TIP3   OH210397   0.682   1.590   3.827
 3464TIP3    H110398   0.674   1.506   3.873
 3464TIP3    H210399   0.771   1.619   3.845
 3465TIP3   OH210400   3.004   5.299   0.026
 3465TIP3    H110401   2.930   5.283   0.084
 3465TIP3    H210402   3.039   5.383   0.055
 3466TIP3   OH210403   2.215   0.792   0.914
 3466TIP3    H110404   2.237   0.701   0.938
 3466TIP3    H210405   2.217   0.792   0.818
 3467TIP3   OH210406   6.039   4.652   4.326
 3467TIP3    H110407   5.977   4.626   4.258
 3467TIP3    H210408   6.055   4.571   4.375
 3468TIP3   OH210409   3.279   5.853   0.486
 3468TIP3    H110410   3.330   5.803   0.550
 3468TIP3    H210411   3.266   5.793   0.412
 3469TIP3   OH210412   4.155   5.306   4.958
 3469TIP3    H110413   4.226   5.350   5.006
 3469TIP3    H210414   4.149   5.354   4.875
 3470TIP3   OH210415   3.005   1.128   4.118
 3470TIP3    H110416   3.100   1.123   4.108
 3470TIP3    H210417   2.971   1.116   4.030
 3471TIP3   OH210418   3.272   2.454   4.105
 3471TIP3    H110419   3.178   2.439   4.099
 3471TIP3    H210420   3.290   2.520   4.038
 3472TIP3   OH210421   5.134   2.359   4.480
 3472TIP3    H110422   5.228   2.373   4.494
 3472TIP3    H210423   5.129   2.315   4.395
 3473TIP3   OH210424  -0.009   2.607   0.029
 3473TIP3    H110425  -0.049   2.621   0.115
 3473TIP3    H210426   0.084   2.593   0.049
 3474TIP3   OH210427   5.671   2.725   1.476
 3474TIP3    H110428   5.610   2.672   1.527
 3474TIP3    H210429   5.616   2.793   1.437
 3475TIP3   OH210430   3.902   1.465   2.890
 3475TIP3    H110431   3.959   1.489   2.964
 3475TIP3    H210432   3.864   1.548   2.861
 3476TIP3   OH210433   2.779   1.218   1.339
 3476TIP3    H110434   2.833   1.294   1.360
 3476TIP3    H210435   2.722   1.206   1.414
 3477TIP3   OH210436   2.173   0.986   1.195
 3477TIP3    H110437   2.191   0.904   1.149
 3477TIP3    H210438   2.249   0.999   1.251
 3478TIP3   OH210439   5.521   3.813   0.630
 3478TIP3    H110440   5.551   3.725   0.612
 3478TIP3    H210441   5.592   3.870   0.600
 3479TIP3   OH210442   2.189   2.938   1.786
 3479TIP3    H110443   2.218   3.017   1.832
 3479TIP3    H210444   2.254   2.872   1.809
 3480TIP3   OH210445   3.966   2.701   3.290
 3480TIP3    H110446   3.875   2.679   3.308
 3480TIP3    H210447   3.978   2.788   3.326
 3481TIP3   OH210448   4.827   5.035   4.474
 3481TIP3    H110449   4.777   4.954   4.463
 3481TIP3    H210450   4.888   5.017   4.545
 3482TIP3   OH210451   3.056   4.519   1.605
 3482TIP3    H110452   2.997   4.554   1.671
 3482TIP3    H210453   3.126   4.584   1.597
 3483TIP3   OH210454   5.011   1.908   4.669
 3483TIP3    H110455   4.936   1.940   4.619
 3483TIP3    H210456   5.085   1.959   4.637
 3484TIP3   OH210457   3.411   1.040   4.718
 3484TIP3    H110458   3.502   1.055   4.690
 3484TIP3    H210459   3.362   1.112   4.677
 3485TIP3   OH210460   5.220   1.597   1.467
 3485TIP3    H110461   5.307   1.571   1.497
 3485TIP3    H210462   5.190   1.524   1.412
 3486TIP3   OH210463   4.283   1.966   0.586
 3486TIP3    H110464   4.233   2.026   0.530
 3486TIP3    H210465   4.254   1.986   0.675
 3487TIP3   OH210466   0.915   3.144   4.664
 3487TIP3    H110467   0.955   3.060   4.687
 3487TIP3    H210468   0.964   3.175   4.588
 3488TIP3   OH210469   1.921   5.418   5.114
 3488TIP3    H110470   1.927   5.357   5.040
 3488TIP3    H210471   1.994   5.479   5.100
 3489TIP3   OH210472   2.407   3.236   2.228
 3489TIP3    H110473   2.478   3.240   2.164
 3489TIP3    H210474   2.328   3.252   2.176
 3490TIP3   OH210475   4.440   4.190   0.510
 3490TIP3    H110476   4.384   4.206   0.586
 3490TIP3    H210477   4.394   4.122   0.460
 3491TIP3   OH210478   0.733   3.145   1.078
 3491TIP3    H110479   0.750   3.211   1.010
 3491TIP3    H210480   0.700   3.195   1.152
 3492TIP3   OH210481   3.496   0.353   3.691
 3492TIP3    H110482   3.487   0.418   3.762
 3492TIP3    H210483   3.429   0.377   3.628
 3493TIP3   OH210484   0.974   2.963   2.224
 3493TIP3    H110485   1.018   3.004   2.299
 3493TIP3    H210486   0.884   2.997   2.228
 3494TIP3   OH210487   4.269   1.382   4.667
 3494TIP3    H110488   4.278   1.406   4.759
 3494TIP3    H210489   4.180   1.406   4.644
 3495TIP3   OH210490   3.399   2.763   2.853
 3495TIP3    H110491   3.451   2.821   2.909
 3495TIP3    H210492   3.312   2.765   2.893
 3496TIP3   OH210493   2.242   2.668   0.174
 3496TIP3    H110494   2.190   2.695   0.099
 3496TIP3    H210495   2.180   2.620   0.230
 3497TIP3   OH210496   2.130   0.357   4.931
 3497TIP3    H110497   2.082   0.275   4.917
 3497TIP3    H210498   2.222   0.330   4.936
 3498TIP3   OH210499   2.540   4.977   2.462
 3498TIP3    H110500   2.587   5.056   2.434
 3498TIP3    H210501   2.553   4.973   2.556
 3499TIP3   OH210502   0.825   1.376   0.635
 3499TIP3    H110503   0.873   1.391   0.553
 3499TIP3    H210504   0.776   1.457   0.648
 3500TIP3   OH210505   0.929   3.349   3.291
 3500TIP3    H110506   1.006   3.404   3.285
 3500TIP3    H210507   0.895   3.364   3.379
 3501TIP3   OH210508   4.580  -0.001   2.751
 3501TIP3    H110509   4.624   0.083   2.738
 3501TIP3    H210510   4.493   0.011   2.712
 3502TIP3   OH210511   6.134   5.177   0.315
 3502TIP3    H110512   6.218   5.135   0.295
 3502TIP3    H210513   6.148   5.218   0.401
 3503TIP3   OH210514   3.563   5.049   4.730
 3503TIP3    H110515   3.580   5.143   4.743
 3503TIP3    H210516   3.484   5.032   4.782
 3504TIP3   OH210517   4.153   4.571   4.321
 3504TIP3    H110518   4.197   4.643   4.275
 3504TIP3    H210519   4.195   4.569   4.407
 3505TIP3   OH210520   2.572   4.690   2.478
 3505TIP3    H110521   2.532   4.770   2.446
 3505TIP3    H210522   2.560   4.693   2.573
 3506TIP3   OH210523   4.078   2.215   4.214
 3506TIP3    H110524   4.042   2.292   4.171
 3506TIP3    H210525   4.054   2.226   4.306
 3507TIP3   OH210526   2.207   3.592   3.379
 3507TIP3    H110527   2.134   3.654   3.371
 3507TIP3    H210528   2.182   3.519   3.322
 3508TIP3   OH210529   3.905   2.703   0.262
 3508TIP3    H110530   3.963   2.779   0.270
 3508TIP3    H210531   3.856   2.702   0.344
 3509TIP3   OH210532   5.563   4.506   4.122
 3509TIP3    H110533   5.567   4.569   4.194
 3509TIP3    H210534   5.474   4.472   4.125
 3510TIP3   OH210535   4.167   3.395   3.209
 3510TIP3    H110536   4.088   3.361   3.250
 3510TIP3    H210537   4.187   3.476   3.258
 3511TIP3   OH210538   5.650   5.838   4.462
 3511TIP3    H110539   5.612   5.784   4.531
 3511TIP3    H210540   5.737   5.800   4.447
 3512TIP3   OH210541   0.314   0.787   3.450
 3512TIP3    H110542   0.226   0.800   3.486
 3512TIP3    H210543   0.317   0.845   3.374
 3513TIP3   OH210544   1.777   5.673   3.224
 3513TIP3    H110545   1.804   5.591   3.267
 3513TIP3    H210546   1.797   5.741   3.288
 3514TIP3   OH210547   1.107   5.607   4.444
 3514TIP3    H110548   1.189   5.618   4.492
 3514TIP3    H210549   1.125   5.536   4.382
 3515TIP3   OH210550   2.475   4.431   3.358
 3515TIP3    H110551   2.563   4.469   3.363
 3515TIP3    H210552   2.481   4.365   3.288
 3516TIP3   OH210553   4.894   1.086   1.702
 3516TIP3    H110554   4.848   1.090   1.619
 3516TIP3    H210555   4.911   0.993   1.716
 3517TIP3   OH210556   0.117   2.019   1.756
 3517TIP3    H110557   0.173   1.951   1.717
 3517TIP3    H210558   0.057   2.043   1.685
 3518TIP3   OH210559   5.911   0.716   4.039
 3518TIP3    H110560   5.981   0.717   4.104
 3518TIP3    H210561   5.950   0.674   3.962
 3519TIP3   OH210562   2.767   5.689   3.846
 3519TIP3    H110563   2.753   5.668   3.754
 3519TIP3    H210564   2.688   5.735   3.873
 3520TIP3   OH210565   2.379   4.183   1.456
 3520TIP3    H110566   2.401   4.184   1.363
 3520TIP3    H210567   2.420   4.262   1.491
 3521TIP3   OH210568   3.144   4.137   5.143
 3521TIP3    H110569   3.183   4.124   5.056
 3521TIP3    H210570   3.073   4.073   5.147
 3522TIP3   OH210571   2.581   4.688   3.891
 3522TIP3    H110572   2.637   4.692   3.814
 3522TIP3    H210573   2.493   4.677   3.857
 3523TIP3   OH210574   1.919   4.423   5.064
 3523TIP3    H110575   1.882   4.403   5.150
 3523TIP3    H210576   1.876   4.361   5.005
 3524TIP3   OH210577   4.522   3.329   4.775
 3524TIP3    H110578   4.554   3.419   4.783
 3524TIP3    H210579   4.428   3.336   4.791
 3525TIP3   OH210580   1.815   0.616   2.400
 3525TIP3    H110581   1.781   0.704   2.419
 3525TIP3    H210582   1.883   0.630   2.334
 3526TIP3   OH210583   1.161   5.139   1.313
 3526TIP3    H110584   1.204   5.102   1.390
 3526TIP3    H210585   1.224   5.128   1.242
 3527TIP3   OH210586   0.479   3.129   2.316
 3527TIP3    H110587   0.392   3.095   2.339
 3527TIP3    H210588   0.477   3.220   2.346
 3528TIP3   OH210589   2.467   0.519   0.745
 3528TIP3    H110590   2.532   0.587   0.765
 3528TIP3    H210591   2.453   0.527   0.650
 3529TIP3   OH210592   5.671   4.587   0.364
 3529TIP3    H110593   5.636   4.519   0.422
 3529TIP3    H210594   5.644   4.669   0.405
 3530TIP3   OH210595   4.222   2.289   1.746
 3530TIP3    H110596   4.178   2.237   1.678
 3530TIP3    H210597   4.155   2.299   1.814
 3531TIP3   OH210598   1.873   3.464   3.439
 3531TIP3    H110599   1.930   3.387   3.439
 3531TIP3    H210600   1.788   3.431   3.467
 3532TIP3   OH210601   1.435   0.164   4.580
 3532TIP3    H110602   1.405   0.105   4.511
 3532TIP3    H210603   1.406   0.250   4.552
 3533TIP3   OH210604   3.211   1.617   2.679
 3533TIP3    H110605   3.241   1.643   2.766
 3533TIP3    H210606   3.116   1.626   2.682
 3534TIP3   OH210607   5.080   4.349   1.078
 3534TIP3    H110608   5.018   4.303   1.021
 3534TIP3    H210609   5.093   4.289   1.151
 3535TIP3   OH210610   4.288   1.784   3.154
 3535TIP3    H110611   4.368   1.828   3.181
 3535TIP3    H210612   4.316   1.723   3.086
 3536TIP3   OH210613   5.136   5.887   0.192
 3536TIP3    H110614   5.128   5.904   0.098
 3536TIP3    H210615   5.205   5.821   0.199
 3537TIP3   OH210616   3.183   5.512   3.651
 3537TIP3    H110617   3.215   5.510   3.561
 3537TIP3    H210618   3.167   5.605   3.668
 3538TIP3   OH210619   0.847   4.201   0.150
 3538TIP3    H110620   0.774   4.213   0.210
 3538TIP3    H210621   0.924   4.231   0.198
 3539TIP3   OH210622   0.808   0.317   1.069
 3539TIP3    H110623   0.873   0.368   1.118
 3539TIP3    H210624   0.732   0.313   1.127
 3540TIP3   OH210625   1.096   3.445   1.714
 3540TIP3    H110626   1.079   3.458   1.621
 3540TIP3    H210627   1.123   3.353   1.721
 3541TIP3   OH210628   0.848   0.033   1.028
 3541TIP3    H110629   0.831   0.122   1.059
 3541TIP3    H210630   0.848   0.041   0.933
 3542TIP3   OH210631   4.110   2.075   0.422
 3542TIP3    H110632   4.113   2.021   0.343
 3542TIP3    H210633   4.074   2.159   0.392
 3543TIP3   OH210634   2.684   0.729   4.977
 3543TIP3    H110635   2.724   0.773   4.903
 3543TIP3    H210636   2.757   0.685   5.022
 3544TIP3   OH210637   5.220   2.195   1.064
 3544TIP3    H110638   5.313   2.173   1.065
 3544TIP3    H210639   5.175   2.112   1.049
 3545TIP3   OH210640   5.277   3.947   2.192
 3545TIP3    H110641   5.194   3.994   2.198
 3545TIP3    H210642   5.262   3.866   2.241
 3546TIP3   OH210643   4.353   4.537   3.893
 3546TIP3    H110644   4.260   4.559   3.882
 3546TIP3    H210645   4.397   4.585   3.822
 3547TIP3   OH210646   4.817   2.894   1.455
 3547TIP3    H110647   4.884   2.849   1.404
 3547TIP3    H210648   4.866   2.958   1.507
 3548TIP3   OH210649   1.261   0.760  -0.017
 3548TIP3    H110650   1.262   0.792   0.074
 3548TIP3    H210651   1.179   0.711  -0.024
 3549TIP3   OH210652   5.185   0.946   0.718
 3549TIP3    H110653   5.114   1.004   0.746
 3549TIP3    H210654   5.143   0.861   0.707
 3550TIP3   OH210655   3.413   3.627   1.851
 3550TIP3    H110656   3.400   3.716   1.816
 3550TIP3    H210657   3.504   3.626   1.879
 3551TIP3   OH210658   1.025   5.862   4.195
 3551TIP3    H110659   1.024   5.940   4.140
 3551TIP3    H210660   1.107   5.818   4.173
 3552TIP3   OH210661   2.970   2.039   5.155
 3552TIP3    H110662   2.949   2.102   5.086
 3552TIP3    H210663   2.887   2.022   5.199
 3553TIP3   OH210664   1.474   5.919   3.154
 3553TIP3    H110665   1.429   5.835   3.148
 3553TIP3    H210666   1.521   5.916   3.237
 3554TIP3   OH210667   4.137   3.757   3.575
 3554TIP3    H110668   4.074   3.807   3.627
 3554TIP3    H210669   4.173   3.821   3.514
 3555TIP3   OH210670   1.820   2.191   1.214
 3555TIP3    H110671   1.733   2.168   1.182
 3555TIP3    H210672   1.862   2.107   1.233
 3556TIP3   OH210673   0.068   4.136   0.337
 3556TIP3    H110674  -0.023   4.144   0.307
 3556TIP3    H210675   0.106   4.071   0.278
 3557TIP3   OH210676   3.941   5.871   2.994
 3557TIP3    H110677   4.033   5.859   2.971
 3557TIP3    H210678   3.895   5.865   2.910
 3558TIP3   OH210679   0.891   0.142   4.803
 3558TIP3    H110680   0.914   0.234   4.819
 3558TIP3    H210681   0.818   0.125   4.862
 3559TIP3   OH210682   4.668   5.368   5.108
 3559TIP3    H110683   4.697   5.278   5.125
 3559TIP3    H210684   4.595   5.381   5.169
 3560TIP3   OH210685   4.710   3.739   3.185
 3560TIP3    H110686   4.638   3.711   3.129
 3560TIP3    H210687   4.709   3.678   3.259
 3561TIP3   OH210688   0.921   1.711   3.920
 3561TIP3    H110689   1.013   1.735   3.932
 3561TIP3    H210690   0.905   1.642   3.985
 3562TIP3   OH210691   1.356   1.906   2.169
 3562TIP3    H110692   1.335   1.993   2.204
 3562TIP3    H210693   1.373   1.852   2.246
 3563TIP3   OH210694   5.840   2.888   0.365
 3563TIP3    H110695   5.744   2.884   0.362
 3563TIP3    H210696   5.868   2.850   0.282
 3564TIP3   OH210697   6.064   4.970   4.234
 3564TIP3    H110698   6.152   4.947   4.264
 3564TIP3    H210699   6.021   4.886   4.219
 3565TIP3   OH210700   5.697   2.110   3.280
 3565TIP3    H110701   5.644   2.110   3.360
 3565TIP3    H210702   5.640   2.073   3.213
 3566TIP3   OH210703   0.132   2.744   3.681
 3566TIP3    H110704   0.141   2.838   3.661
 3566TIP3    H210705   0.211   2.704   3.644
 3567TIP3   OH210706   5.495   2.359   2.388
 3567TIP3    H110707   5.472   2.340   2.479
 3567TIP3    H210708   5.450   2.292   2.337
 3568TIP3   OH210709   3.824   4.589   1.346
 3568TIP3    H110710   3.731   4.604   1.365
 3568TIP3    H210711   3.837   4.624   1.258
 3569TIP3   OH210712   4.620   4.912   4.668
 3569TIP3    H110713   4.574   4.933   4.749
 3569TIP3    H210714   4.699   4.967   4.671
 3570TIP3   OH210715   4.087   3.096   0.730
 3570TIP3    H110716   4.080   3.166   0.665
 3570TIP3    H210717   3.998   3.084   0.762
 3571TIP3   OH210718   2.681   3.885   0.757
 3571TIP3    H110719   2.596   3.903   0.797
 3571TIP3    H210720   2.723   3.970   0.750
 3572TIP3   OH210721   0.122   4.928   1.336
 3572TIP3    H110722   0.164   4.855   1.382
 3572TIP3    H210723   0.033   4.931   1.372
 3573TIP3   OH210724   4.826   0.568   0.052
 3573TIP3    H110725   4.797   0.597  -0.035
 3573TIP3    H210726   4.811   0.473   0.052
 3574TIP3   OH210727   4.476   5.039   0.566
 3574TIP3    H110728   4.539   5.043   0.494
 3574TIP3    H210729   4.395   5.076   0.530
 3575TIP3   OH210730   4.163   0.061   3.087
 3575TIP3    H110731   4.208   0.122   3.029
 3575TIP3    H210732   4.176  -0.025   3.046
 3576TIP3   OH210733   3.453   3.237   5.116
 3576TIP3    H110734   3.483   3.225   5.206
 3576TIP3    H210735   3.525   3.203   5.063
 3577TIP3   OH210736   2.610   1.023   4.636
 3577TIP3    H110737   2.519   0.995   4.644
 3577TIP3    H210738   2.604   1.116   4.612
 3578TIP3   OH210739   5.969   0.987   2.787
 3578TIP3    H110740   5.922   0.906   2.766
 3578TIP3    H210741   6.031   0.998   2.714
 3579TIP3   OH210742   3.775   4.846   0.733
 3579TIP3    H110743   3.758   4.896   0.813
 3579TIP3    H210744   3.860   4.878   0.703
 3580TIP3   OH210745   5.258   2.754   4.890
 3580TIP3    H110746   5.203   2.718   4.820
 3580TIP3    H210747   5.204   2.748   4.969
 3581TIP3   OH210748   3.950   4.836   3.194
 3581TIP3    H110749   3.902   4.916   3.173
 3581TIP3    H210750   3.998   4.856   3.274
 3582TIP3   OH210751   5.078   2.253   5.239
 3582TIP3    H110752   5.048   2.305   5.165
 3582TIP3    H210753   5.045   2.164   5.221
 3583TIP3   OH210754   0.911   1.952   2.111
 3583TIP3    H110755   0.963   1.942   2.191
 3583TIP3    H210756   0.820   1.952   2.141
 3584TIP3   OH210757   5.560   1.568   3.515
 3584TIP3    H110758   5.597   1.651   3.486
 3584TIP3    H210759   5.635   1.518   3.547
 3585TIP3   OH210760   3.660   5.482   3.499
 3585TIP3    H110761   3.599   5.408   3.498
 3585TIP3    H210762   3.604   5.559   3.491
 3586TIP3   OH210763   2.721   2.821   0.915
 3586TIP3    H110764   2.792   2.771   0.954
 3586TIP3    H210765   2.705   2.892   0.977
 3587TIP3   OH210766   5.956   2.253   1.104
 3587TIP3    H110767   5.874   2.302   1.091
 3587TIP3    H210768   6.019   2.296   1.045
 3588TIP3   OH210769   2.273   1.459   3.606
 3588TIP3    H110770   2.248   1.498   3.522
 3588TIP3    H210771   2.344   1.400   3.585
 3589TIP3   OH210772   4.754   2.224   3.713
 3589TIP3    H110773   4.724   2.134   3.699
 3589TIP3    H210774   4.744   2.265   3.627
 3590TIP3   OH210775   2.200   5.676   2.216
 3590TIP3    H110776   2.208   5.681   2.312
 3590TIP3    H210777   2.173   5.764   2.189
 3591TIP3   OH210778   1.685   3.802   3.479
 3591TIP3    H110779   1.715   3.796   3.570
 3591TIP3    H210780   1.620   3.733   3.470
 3592TIP3   OH210781   1.726   2.492   4.056
 3592TIP3    H110782   1.747   2.401   4.033
 3592TIP3    H210783   1.810   2.531   4.078
 3593TIP3   OH210784   0.267   5.636   1.851
 3593TIP3    H110785   0.243   5.728   1.846
 3593TIP3    H210786   0.199   5.591   1.801
 3594TIP3   OH210787   4.041   4.771   2.898
 3594TIP3    H110788   3.999   4.831   2.836
 3594TIP3    H210789   4.038   4.816   2.982
 3595TIP3   OH210790   0.424   1.856   0.616
 3595TIP3    H110791   0.403   1.842   0.523
 3595TIP3    H210792   0.379   1.784   0.661
 3596TIP3   OH210793   6.107   4.884   0.664
 3596TIP3    H110794   6.162   4.874   0.586
 3596TIP3    H210795   6.136   4.966   0.703
 3597TIP3   OH210796   5.555   3.631   3.462
 3597TIP3    H110797   5.562   3.725   3.446
 3597TIP3    H210798   5.586   3.619   3.551
 3598TIP3   OH210799   0.385   2.010   3.882
 3598TIP3    H110800   0.457   2.071   3.896
 3598TIP3    H210801   0.421   1.924   3.904
 3599TIP3   OH210802   5.103   5.178   4.907
 3599TIP3    H110803   5.162   5.245   4.872
 3599TIP3    H210804   5.099   5.112   4.838
 3600TIP3   OH210805   6.177   5.233   2.055
 3600TIP3    H110806   6.134   5.153   2.025
 3600TIP3    H210807   6.150   5.299   1.992
 3601TIP3   OH210808   3.275   5.169   2.933
 3601TIP3    H110809   3.345   5.126   2.982
 3601TIP3    H210810   3.204   5.180   2.996
 3602TIP3   OH210811   1.369   2.436   3.568
 3602TIP3    H110812   1.449   2.451   3.618
 3602TIP3    H210813   1.398   2.431   3.477
 3603TIP3   OH210814   4.435   3.135   2.438
 3603TIP3    H110815   4.405   3.226   2.433
 3603TIP3    H210816   4.403   3.095   2.357
 3604TIP3   OH210817   0.144   1.830   3.801
 3604TIP3    H110818   0.233   1.864   3.811
 3604TIP3    H210819   0.089   1.888   3.853
 3605TIP3   OH210820   1.286   1.822   1.143
 3605TIP3    H110821   1.229   1.835   1.067
 3605TIP3    H210822   1.229   1.787   1.211
 3606TIP3   OH210823   3.044   3.421   2.942
 3606TIP3    H110824   3.104   3.480   2.896
 3606TIP3    H210825   3.003   3.475   3.009
 3607TIP3   OH210826   5.960   4.049   0.942
 3607TIP3    H110827   5.916   4.133   0.936
 3607TIP3    H210828   6.043   4.062   0.897
 3608TIP3   OH210829   4.745   0.783   4.045
 3608TIP3    H110830   4.745   0.835   3.965
 3608TIP3    H210831   4.836   0.754   4.055
 3609TIP3   OH210832   0.434   4.903   2.906
 3609TIP3    H110833   0.464   4.846   2.977
 3609TIP3    H210834   0.513   4.921   2.855
 3610TIP3   OH210835   2.504   5.456   2.375
 3610TIP3    H110836   2.433   5.520   2.381
 3610TIP3    H210837   2.475   5.394   2.307
 3611TIP3   OH210838   2.167   5.816   4.035
 3611TIP3    H110839   2.135   5.898   4.073
 3611TIP3    H210840   2.262   5.819   4.046
 3612TIP3   OH210841   0.504   0.318   3.472
 3612TIP3    H110842   0.590   0.293   3.440
 3612TIP3    H210843   0.475   0.242   3.523
 3613TIP3   OH210844   1.793   4.143   2.398
 3613TIP3    H110845   1.743   4.065   2.374
 3613TIP3    H210846   1.742   4.216   2.362
 3614TIP3   OH210847   2.385   5.194   2.604
 3614TIP3    H110848   2.459   5.176   2.663
 3614TIP3    H210849   2.313   5.143   2.640
 3615TIP3   OH210850   2.060   2.652   2.044
 3615TIP3    H110851   2.061   2.593   1.969
 3615TIP3    H210852   1.967   2.668   2.061
 3616TIP3   OH210853   1.791   4.521   4.331
 3616TIP3    H110854   1.802   4.530   4.236
 3616TIP3    H210855   1.768   4.430   4.344
 3617TIP3   OH210856   0.300   1.363   2.107
 3617TIP3    H110857   0.243   1.438   2.126
 3617TIP3    H210858   0.376   1.402   2.062
 3618TIP3   OH210859   5.643   5.442   1.492
 3618TIP3    H110860   5.695   5.363   1.511
 3618TIP3    H210861   5.553   5.417   1.512
 3619TIP3   OH210862   3.439   1.698   4.953
 3619TIP3    H110863   3.434   1.632   5.022
 3619TIP3    H210864   3.384   1.770   4.984
 3620TIP3   OH210865   5.378   3.897   4.736
 3620TIP3    H110866   5.299   3.915   4.685
 3620TIP3    H210867   5.450   3.915   4.676
 3621TIP3   OH210868   3.893   5.074   1.242
 3621TIP3    H110869   3.923   4.994   1.285
 3621TIP3    H210870   3.929   5.145   1.295
 3622TIP3   OH210871   0.964   3.434   2.562
 3622TIP3    H110872   0.977   3.522   2.525
 3622TIP3    H210873   0.877   3.408   2.534
 3623TIP3   OH210874   1.772   5.476   4.493
 3623TIP3    H110875   1.863   5.504   4.485
 3623TIP3    H210876   1.733   5.498   4.408
 3624TIP3   OH210877   0.384   0.993   0.513
 3624TIP3    H110878   0.324   1.059   0.549
 3624TIP3    H210879   0.398   1.021   0.423
 3625TIP3   OH210880   2.022   3.632   3.081
 3625TIP3    H110881   2.076   3.553   3.075
 3625TIP3    H210882   1.995   3.636   3.172
 3626TIP3   OH210883   5.671   3.281   4.857
 3626TIP3    H110884   5.622   3.214   4.810
 3626TIP3    H210885   5.723   3.232   4.921
 3627TIP3   OH210886   1.574   1.237   1.897
 3627TIP3    H110887   1.646   1.182   1.926
 3627TIP3    H210888   1.497   1.202   1.942
 3628TIP3   OH210889   2.598   0.584   2.232
 3628TIP3    H110890   2.539   0.636   2.178
 3628TIP3    H210891   2.545   0.557   2.307
 3629TIP3   OH210892   2.526   4.218   3.177
 3629TIP3    H110893   2.459   4.178   3.123
 3629TIP3    H210894   2.609   4.187   3.140
 3630TIP3   OH210895   5.735   4.752   3.393
 3630TIP3    H110896   5.806   4.725   3.336
 3630TIP3    H210897   5.719   4.677   3.450
 3631TIP3   OH210898   0.416   1.151   1.451
 3631TIP3    H110899   0.334   1.199   1.464
 3631TIP3    H210900   0.391   1.075   1.399
 3632TIP3   OH210901   0.545   0.013   0.532
 3632TIP3    H110902   0.470   0.067   0.507
 3632TIP3    H210903   0.546   0.017   0.628
 3633TIP3   OH210904   5.967   1.098   3.405
 3633TIP3    H110905   5.987   1.128   3.494
 3633TIP3    H210906   6.023   1.022   3.392
 3634TIP3   OH210907   6.167   0.671   2.798
 3634TIP3    H110908   6.229   0.687   2.869
 3634TIP3    H210909   6.109   0.603   2.832
 3635TIP3   OH210910   1.401   0.346   0.818
 3635TIP3    H110911   1.445   0.289   0.755
 3635TIP3    H210912   1.314   0.361   0.781
 3636TIP3   OH210913   1.259   4.359   0.806
 3636TIP3    H110914   1.282   4.273   0.839
 3636TIP3    H210915   1.309   4.369   0.726
 3637TIP3   OH210916   4.471   3.847   1.929
 3637TIP3    H110917   4.400   3.791   1.899
 3637TIP3    H210918   4.550   3.807   1.892
 3638TIP3   OH210919   2.141   1.041   0.862
 3638TIP3    H110920   2.054   1.043   0.822
 3638TIP3    H210921   2.158   0.949   0.878
 3639TIP3   OH210922   0.725   4.184   0.911
 3639TIP3    H110923   0.791   4.252   0.896
 3639TIP3    H210924   0.775   4.108   0.941
 3640TIP3   OH210925   5.703   1.926   3.862
 3640TIP3    H110926   5.664   1.839   3.872
 3640TIP3    H210927   5.628   1.986   3.866
 3641TIP3   OH210928   0.286   5.776   3.935
 3641TIP3    H110929   0.230   5.854   3.923
 3641TIP3    H210930   0.227   5.702   3.919
 3642TIP3   OH210931   1.941   1.593   2.525
 3642TIP3    H110932   1.956   1.636   2.441
 3642TIP3    H210933   1.862   1.540   2.511
 3643TIP3   OH210934   3.077   5.511   0.655
 3643TIP3    H110935   3.028   5.567   0.595
 3643TIP3    H210936   3.155   5.486   0.606
 3644TIP3   OH210937   5.598   4.017   2.490
 3644TIP3    H110938   5.561   4.103   2.469
 3644TIP3    H210939   5.678   4.012   2.438
 3645TIP3   OH210940   0.036   5.610   0.071
 3645TIP3    H110941   0.056   5.578  -0.017
 3645TIP3    H210942  -0.042   5.560   0.097
 3646TIP3   OH210943   3.788   4.927   2.726
 3646TIP3    H110944   3.862   4.978   2.691
 3646TIP3    H210945   3.712   4.960   2.679
 3647TIP3   OH210946   2.600   5.943   0.646
 3647TIP3    H110947   2.586   5.895   0.727
 3647TIP3    H210948   2.531   6.010   0.646
 3648TIP3   OH210949   4.669   2.486   0.868
 3648TIP3    H110950   4.674   2.409   0.812
 3648TIP3    H210951   4.741   2.541   0.838
 3649TIP3   OH210952   0.601   0.092   2.741
 3649TIP3    H110953   0.639   0.122   2.658
 3649TIP3    H210954   0.560   0.170   2.778
 3650TIP3   OH210955   0.251   5.115   5.000
 3650TIP3    H110956   0.314   5.180   5.032
 3650TIP3    H210957   0.184   5.111   5.068
 3651TIP3   OH210958   0.529   3.719   1.538
 3651TIP3    H110959   0.596   3.719   1.606
 3651TIP3    H210960   0.469   3.648   1.564
 3652TIP3   OH210961   0.096   2.785   2.222
 3652TIP3    H110962   0.163   2.821   2.164
 3652TIP3    H210963   0.136   2.785   2.309
 3653TIP3   OH210964   0.094   0.163   0.613
 3653TIP3    H110965   0.024   0.192   0.555
 3653TIP3    H210966   0.050   0.134   0.693
 3654TIP3   OH210967   4.459   0.095   3.097
 3654TIP3    H110968   4.483   0.168   3.155
 3654TIP3    H210969   4.489   0.123   3.011
 3655TIP3   OH210970   3.613   0.772   4.978
 3655TIP3    H110971   3.583   0.704   5.038
 3655TIP3    H210972   3.567   0.753   4.896
 3656TIP3   OH210973   1.427   0.272   1.710
 3656TIP3    H110974   1.401   0.318   1.790
 3656TIP3    H210975   1.353   0.215   1.690
 3657TIP3   OH210976   5.994   5.479   0.431
 3657TIP3    H110977   5.940   5.462   0.508
 3657TIP3    H210978   5.973   5.569   0.406
 3658TIP3   OH210979   6.075   4.773   1.315
 3658TIP3    H110980   6.089   4.695   1.262
 3658TIP3    H210981   6.027   4.741   1.392
 3659TIP3   OH210982   4.770   0.500   1.047
 3659TIP3    H110983   4.820   0.578   1.025
 3659TIP3    H210984   4.834   0.439   1.083
 3660TIP3   OH210985   0.859   0.015   1.803
 3660TIP3    H110986   0.947   0.017   1.841
 3660TIP3    H210987   0.806  -0.028   1.870
 3661TIP3   OH210988   4.894   5.292   2.718
 3661TIP3    H110989   4.817   5.349   2.709
 3661TIP3    H210990   4.914   5.264   2.629
 3662TIP3   OH210991   4.087   1.083   2.241
 3662TIP3    H110992   4.035   1.100   2.319
 3662TIP3    H210993   4.148   1.157   2.236
 3663TIP3   OH210994   1.728   5.927   4.083
 3663TIP3    H110995   1.778   5.858   4.127
 3663TIP3    H210996   1.647   5.934   4.134
 3664TIP3   OH210997   5.555   5.019   2.263
 3664TIP3    H110998   5.480   4.960   2.270
 3664TIP3    H210999   5.587   5.006   2.174
 3665TIP3   OH211000   4.794   1.256   0.377
 3665TIP3    H111001   4.861   1.245   0.309
 3665TIP3    H211002   4.733   1.184   0.362
 3666TIP3   OH211003   3.151   0.241   4.278
 3666TIP3    H111004   3.198   0.325   4.272
 3666TIP3    H211005   3.176   0.194   4.198
 3667TIP3   OH211006   3.153   2.133   3.924
 3667TIP3    H111007   3.105   2.111   4.004
 3667TIP3    H211008   3.165   2.049   3.880
 3668TIP3   OH211009   1.856   0.918   1.743
 3668TIP3    H111010   1.840   1.012   1.735
 3668TIP3    H211011   1.787   0.877   1.691
 3669TIP3   OH211012   3.653   3.776   4.875
 3669TIP3    H111013   3.742   3.763   4.841
 3669TIP3    H211014   3.657   3.860   4.922
 3670TIP3   OH211015   1.587   1.443   4.413
 3670TIP3    H111016   1.614   1.510   4.476
 3670TIP3    H211017   1.524   1.389   4.461
 3671TIP3   OH211018   0.110   1.539   2.117
 3671TIP3    H111019   0.134   1.615   2.062
 3671TIP3    H211020   0.034   1.569   2.166
 3672TIP3   OH211021   0.829   0.494   5.188
 3672TIP3    H111022   0.878   0.577   5.189
 3672TIP3    H211023   0.742   0.519   5.159
 3673TIP3   OH211024   2.334   0.260   2.061
 3673TIP3    H111025   2.287   0.285   2.140
 3673TIP3    H211026   2.268   0.262   1.992
 3674TIP3   OH211027   0.671   1.607   0.602
 3674TIP3    H111028   0.616   1.587   0.526
 3674TIP3    H211029   0.691   1.700   0.593
 3675TIP3   OH211030   3.028   2.776   1.343
 3675TIP3    H111031   2.951   2.834   1.340
 3675TIP3    H211032   3.050   2.771   1.436
 3676TIP3   OH211033   0.428   3.346   3.221
 3676TIP3    H111034   0.362   3.411   3.246
 3676TIP3    H211035   0.502   3.399   3.190
 3677TIP3   OH211036   0.985   4.795   2.994
 3677TIP3    H111037   0.907   4.838   3.030
 3677TIP3    H211038   1.035   4.866   2.955
 3678TIP3   OH211039   6.022   4.515   1.665
 3678TIP3    H111040   6.002   4.593   1.614
 3678TIP3    H211041   5.956   4.451   1.638
 3679TIP3   OH211042   5.426   0.475   4.078
 3679TIP3    H111043   5.386   0.470   4.165
 3679TIP3    H211044   5.396   0.558   4.042
 3680TIP3   OH211045   0.281   3.990   2.105
 3680TIP3    H111046   0.280   4.057   2.036
 3680TIP3    H211047   0.218   3.924   2.075
 3681TIP3   OH211048   2.623   5.443   2.633
 3681TIP3    H111049   2.557   5.498   2.677
 3681TIP3    H211050   2.577   5.405   2.559
 3682TIP3   OH211051   0.981   2.174   1.187
 3682TIP3    H111052   1.049   2.110   1.209
 3682TIP3    H211053   0.910   2.121   1.149
 3683TIP3   OH211054   2.910   4.298   0.648
 3683TIP3    H111055   2.986   4.306   0.705
 3683TIP3    H211056   2.935   4.342   0.567
 3684TIP3   OH211057   4.897   5.960   1.531
 3684TIP3    H111058   4.815   5.945   1.579
 3684TIP3    H211059   4.887   5.909   1.450
 3685TIP3   OH211060   5.550   5.085   0.277
 3685TIP3    H111061   5.612   5.049   0.213
 3685TIP3    H211062   5.466   5.082   0.232
 3686TIP3   OH211063   5.702   0.197   0.254
 3686TIP3    H111064   5.705   0.206   0.159
 3686TIP3    H211065   5.684   0.285   0.286
 3687TIP3   OH211066   5.800   3.299   0.780
 3687TIP3    H111067   5.819   3.255   0.863
 3687TIP3    H211068   5.721   3.351   0.798
 3688TIP3   OH211069   4.572   0.180   0.850
 3688TIP3    H111070   4.583   0.271   0.879
 3688TIP3    H211071   4.499   0.184   0.788
 3689TIP3   OH211072   1.142   1.125   0.519
 3689TIP3    H111073   1.192   1.056   0.563
 3689TIP3    H211074   1.141   1.197   0.581
 3690TIP3   OH211075   1.961   2.788   1.715
 3690TIP3    H111076   1.997   2.730   1.648
 3690TIP3    H211077   2.038   2.832   1.751
 3691TIP3   OH211078   0.013   4.964   3.682
 3691TIP3    H111079   0.048   4.884   3.644
 3691TIP3    H211080  -0.055   4.933   3.743
 3692TIP3   OH211081   1.967   0.202   5.126
 3692TIP3    H111082   1.945   0.235   5.039
 3692TIP3    H211083   2.022   0.270   5.165
 3693TIP3   OH211084   4.358   5.531   0.235
 3693TIP3    H111085   4.430   5.593   0.221
 3693TIP3    H211086   4.383   5.484   0.314
 3694TIP3   OH211087   0.798   3.749   4.182
 3694TIP3    H111088   0.794   3.813   4.254
 3694TIP3    H211089   0.709   3.714   4.177
 3695TIP3   OH211090   0.846   0.850   0.234
 3695TIP3    H111091   0.756   0.817   0.228
 3695TIP3    H211092   0.900   0.771   0.238
 3696TIP3   OH211093   3.774   2.382   1.479
 3696TIP3    H111094   3.865   2.413   1.472
 3696TIP3    H211095   3.735   2.402   1.394
 3697TIP3   OH211096   2.180   3.282   2.061
 3697TIP3    H111097   2.223   3.274   1.976
 3697TIP3    H211098   2.128   3.362   2.055
 3698TIP3   OH211099   0.556   0.007   1.234
 3698TIP3    H111100   0.465   0.005   1.206
 3698TIP3    H211101   0.606   0.021   1.154
 3699TIP3   OH211102   4.021   2.305   2.273
 3699TIP3    H111103   3.983   2.219   2.292
 3699TIP3    H211104   3.946   2.361   2.252
 3700TIP3   OH211105   6.241   4.565   5.150
 3700TIP3    H111106   6.174   4.569   5.218
 3700TIP3    H211107   6.324   4.561   5.198
 3701TIP3   OH211108   4.809   3.441   4.981
 3701TIP3    H111109   4.865   3.490   5.041
 3701TIP3    H211110   4.772   3.508   4.923
 3702TIP3   OH211111   0.046   3.487   3.411
 3702TIP3    H111112   0.048   3.546   3.486
 3702TIP3    H211113  -0.016   3.527   3.350
 3703TIP3   OH211114   2.949   0.267   2.335
 3703TIP3    H111115   2.923   0.179   2.363
 3703TIP3    H211116   2.869   0.319   2.343
 3704TIP3   OH211117   0.193   3.943   1.825
 3704TIP3    H111118   0.231   3.860   1.798
 3704TIP3    H211119   0.144   3.973   1.748
 3705TIP3   OH211120   3.052   4.143   2.600
 3705TIP3    H111121   3.096   4.080   2.543
 3705TIP3    H211122   2.985   4.183   2.544
 3706TIP3   OH211123   0.812   3.724   1.574
 3706TIP3    H111124   0.779   3.711   1.663
 3706TIP3    H211125   0.901   3.689   1.577
 3707TIP3   OH211126   5.199   5.693   2.255
 3707TIP3    H111127   5.292   5.686   2.281
 3707TIP3    H211128   5.175   5.783   2.276
 3708TIP3   OH211129   5.174   4.389   3.831
 3708TIP3    H111130   5.120   4.312   3.815
 3708TIP3    H211131   5.211   4.411   3.745
 3709TIP3   OH211132   1.582   4.323   2.757
 3709TIP3    H111133   1.523   4.389   2.795
 3709TIP3    H211134   1.663   4.371   2.742
 3710TIP3   OH211135   3.101   1.877   1.209
 3710TIP3    H111136   3.038   1.912   1.273
 3710TIP3    H211137   3.185   1.915   1.236
 3711TIP3   OH211138   2.267   2.071   2.688
 3711TIP3    H111139   2.217   2.037   2.762
 3711TIP3    H211140   2.259   2.004   2.620
 3712TIP3   OH211141   2.179   3.083   4.039
 3712TIP3    H111142   2.257   3.033   4.064
 3712TIP3    H211143   2.213   3.167   4.010
 3713TIP3   OH211144   1.187   2.653   3.699
 3713TIP3    H111145   1.145   2.593   3.761
 3713TIP3    H211146   1.228   2.595   3.634
 3714TIP3   OH211147   2.238   1.157   1.642
 3714TIP3    H111148   2.191   1.220   1.588
 3714TIP3    H211149   2.262   1.206   1.721
 3715TIP3   OH211150   0.938   2.261   2.259
 3715TIP3    H111151   1.010   2.321   2.277
 3715TIP3    H211152   0.972   2.202   2.192
 3716TIP3   OH211153   2.073   5.670   1.494
 3716TIP3    H111154   2.067   5.636   1.405
 3716TIP3    H211155   2.148   5.624   1.532
 3717TIP3   OH211156   1.732   5.589   4.943
 3717TIP3    H111157   1.658   5.549   4.988
 3717TIP3    H211158   1.803   5.586   5.008
 3718TIP3   OH211159   2.814   5.338   1.521
 3718TIP3    H111160   2.757   5.400   1.475
 3718TIP3    H211161   2.899   5.346   1.478
 3719TIP3   OH211162   0.280   1.615   1.450
 3719TIP3    H111163   0.264   1.533   1.498
 3719TIP3    H211164   0.198   1.631   1.403
 3720TIP3   OH211165   5.448   3.393   3.688
 3720TIP3    H111166   5.502   3.447   3.745
 3720TIP3    H211167   5.400   3.336   3.748
 3721TIP3   OH211168   1.089   1.316   0.171
 3721TIP3    H111169   1.016   1.254   0.162
 3721TIP3    H211170   1.109   1.316   0.265
 3722TIP3   OH211171   1.033   2.714   2.108
 3722TIP3    H111172   0.966   2.650   2.127
 3722TIP3    H211173   1.115   2.672   2.134
 3723TIP3   OH211174   0.516   3.104   3.342
 3723TIP3    H111175   0.545   3.039   3.278
 3723TIP3    H211176   0.496   3.182   3.291
 3724TIP3   OH211177   1.575   5.261   2.199
 3724TIP3    H111178   1.658   5.309   2.202
 3724TIP3    H211179   1.577   5.217   2.114
 3725TIP3   OH211180   3.040   4.273   1.458
 3725TIP3    H111181   2.995   4.291   1.375
 3725TIP3    H211182   3.030   4.353   1.509
 3726TIP3   OH211183   4.505   4.848   1.157
 3726TIP3    H111184   4.564   4.867   1.083
 3726TIP3    H211185   4.559   4.861   1.235
 3727TIP3   OH211186   4.176   2.590   3.105
 3727TIP3    H111187   4.090   2.557   3.134
 3727TIP3    H211188   4.171   2.685   3.120
 3728TIP3   OH211189   0.061   4.395   0.599
 3728TIP3    H111190  -0.002   4.403   0.528
 3728TIP3    H211191   0.136   4.350   0.560
 3729TIP3   OH211192   6.320   4.453   2.044
 3729TIP3    H111193   6.330   4.525   2.106
 3729TIP3    H211194   6.273   4.491   1.970
 3730TIP3   OH211195   0.881   4.923   0.506
 3730TIP3    H111196   0.865   4.860   0.576
 3730TIP3    H211197   0.972   4.952   0.520
 3731TIP3   OH211198   6.113   4.152   0.586
 3731TIP3    H111199   6.157   4.200   0.516
 3731TIP3    H211200   6.066   4.082   0.541
 3732TIP3   OH211201   2.892   3.885   1.829
 3732TIP3    H111202   2.913   3.937   1.906
 3732TIP3    H211203   2.935   3.801   1.844
 3733TIP3   OH211204   3.938   1.326   1.679
 3733TIP3    H111205   3.988   1.292   1.753
 3733TIP3    H211206   3.982   1.408   1.655
 3734TIP3   OH211207   5.664   0.565   0.729
 3734TIP3    H111208   5.753   0.566   0.763
 3734TIP3    H211209   5.652   0.477   0.693
 3735TIP3   OH211210   5.829   3.218   4.150
 3735TIP3    H111211   5.892   3.207   4.221
 3735TIP3    H211212   5.801   3.309   4.156
 3736TIP3   OH211213   3.154   2.880   0.899
 3736TIP3    H111214   3.198   2.803   0.935
 3736TIP3    H211215   3.079   2.894   0.957
 3737TIP3   OH211216   2.968   0.488   0.548
 3737TIP3    H111217   3.035   0.420   0.557
 3737TIP3    H211218   2.956   0.522   0.637
 3738TIP3   OH211219   0.089   2.241   0.356
 3738TIP3    H111220   0.107   2.253   0.262
 3738TIP3    H211221   0.169   2.203   0.391
 3739TIP3   OH211222   2.480   1.990   5.136
 3739TIP3    H111223   2.416   1.972   5.205
 3739TIP3    H211224   2.450   1.938   5.061
 3740TIP3   OH211225   1.551   5.914   2.015
 3740TIP3    H111226   1.590   5.885   1.932
 3740TIP3    H211227   1.626   5.930   2.073
 3741TIP3   OH211228   0.469   5.855   4.397
 3741TIP3    H111229   0.386   5.879   4.437
 3741TIP3    H211230   0.531   5.922   4.428
 3742TIP3   OH211231   4.120   5.383   2.300
 3742TIP3    H111232   4.131   5.429   2.217
 3742TIP3    H211233   4.060   5.438   2.350
 3743TIP3   OH211234   5.635   1.863   1.911
 3743TIP3    H111235   5.623   1.800   1.983
 3743TIP3    H211236   5.697   1.820   1.852
 3744TIP3   OH211237   5.433   3.465   2.673
 3744TIP3    H111238   5.485   3.512   2.738
 3744TIP3    H211239   5.446   3.372   2.695
 3745TIP3   OH211240   0.304   3.618   3.833
 3745TIP3    H111241   0.219   3.660   3.844
 3745TIP3    H211242   0.286   3.524   3.837
 3746TIP3   OH211243   4.472   0.515   2.336
 3746TIP3    H111244   4.414   0.508   2.260
 3746TIP3    H211245   4.524   0.594   2.320
 3747TIP3   OH211246   3.505   0.029   2.217
 3747TIP3    H111247   3.567  -0.013   2.156
 3747TIP3    H211248   3.557   0.096   2.261
 3748TIP3   OH211249   4.249   5.086   0.415
 3748TIP3    H111250   4.156   5.104   0.409
 3748TIP3    H211251   4.281   5.090   0.325
 3749TIP3   OH211252   1.728   1.763   2.198
 3749TIP3    H111253   1.672   1.695   2.235
 3749TIP3    H211254   1.786   1.788   2.270
 3750TIP3   OH211255   6.300   5.924   2.128
 3750TIP3    H111256   6.374   5.872   2.097
 3750TIP3    H211257   6.322   5.945   2.219
 3751TIP3   OH211258   0.874   3.787   1.981
 3751TIP3    H111259   0.857   3.713   2.040
 3751TIP3    H211260   0.943   3.756   1.923
 3752TIP3   OH211261   4.455   3.020   2.829
 3752TIP3    H111262   4.377   2.968   2.810
 3752TIP3    H211263   4.439   3.104   2.786
 3753TIP3   OH211264   2.124   2.349   2.984
 3753TIP3    H111265   2.156   2.409   2.917
 3753TIP3    H211266   2.038   2.384   3.009
 3754TIP3   OH211267   2.821   0.473   0.046
 3754TIP3    H111268   2.837   0.378   0.048
 3754TIP3    H211269   2.871   0.503  -0.029
 3755TIP3   OH211270   1.030   2.172   2.638
 3755TIP3    H111271   0.973   2.108   2.596
 3755TIP3    H211272   1.002   2.173   2.729
 3756TIP3   OH211273   5.582   4.526   4.615
 3756TIP3    H111274   5.666   4.494   4.646
 3756TIP3    H211275   5.517   4.472   4.661
 3757TIP3   OH211276   2.927   5.620   0.474
 3757TIP3    H111277   2.859   5.680   0.503
 3757TIP3    H211278   2.912   5.609   0.380
 3758TIP3   OH211279   0.133   4.795   2.229
 3758TIP3    H111280   0.149   4.889   2.231
 3758TIP3    H211281   0.208   4.756   2.274
 3759TIP3   OH211282   3.221   4.287   2.981
 3759TIP3    H111283   3.211   4.293   2.885
 3759TIP3    H211284   3.211   4.377   3.011
 3760TIP3   OH211285   2.814   3.258   2.396
 3760TIP3    H111286   2.876   3.213   2.454
 3760TIP3    H211287   2.794   3.195   2.328
 3761TIP3   OH211288   1.644   5.494   1.713
 3761TIP3    H111289   1.672   5.584   1.698
 3761TIP3    H211290   1.569   5.482   1.654
 3762TIP3   OH211291   1.389   0.801   2.677
 3762TIP3    H111292   1.366   0.812   2.585
 3762TIP3    H211293   1.315   0.837   2.725
 3763TIP3   OH211294   4.621   0.327   3.771
 3763TIP3    H111295   4.688   0.377   3.725
 3763TIP3    H211296   4.623   0.360   3.860
 3764TIP3   OH211297   1.961   2.084   2.868
 3764TIP3    H111298   1.968   2.023   2.941
 3764TIP3    H211299   2.034   2.145   2.882
 3765TIP3   OH211300   1.527   2.323   3.988
 3765TIP3    H111301   1.553   2.401   4.037
 3765TIP3    H211302   1.433   2.314   4.005
 3766TIP3   OH211303   6.098   2.922   4.436
 3766TIP3    H111304   6.024   2.950   4.490
 3766TIP3    H211305   6.079   2.830   4.415
 3767TIP3   OH211306   1.524   0.126   4.162
 3767TIP3    H111307   1.605   0.158   4.121
 3767TIP3    H211308   1.455   0.179   4.123
 3768TIP3   OH211309   5.446   2.092   3.981
 3768TIP3    H111310   5.350   2.084   3.981
 3768TIP3    H211311   5.465   2.152   3.909
 3769TIP3   OH211312   1.813   1.401   0.073
 3769TIP3    H111313   1.772   1.443  -0.003
 3769TIP3    H211314   1.892   1.452   0.089
 3770TIP3   OH211315   5.895   3.928   1.173
 3770TIP3    H111316   5.938   3.932   1.088
 3770TIP3    H211317   5.803   3.949   1.155
 3771TIP3   OH211318   4.361   3.973   0.375
 3771TIP3    H111319   4.428   3.904   0.375
 3771TIP3    H211320   4.279   3.928   0.355
 3772TIP3   OH211321   4.781   5.441   1.675
 3772TIP3    H111322   4.691   5.408   1.670
 3772TIP3    H211323   4.771   5.534   1.696
 3773TIP3   OH211324   5.869   2.871   1.600
 3773TIP3    H111325   5.814   2.826   1.536
 3773TIP3    H211326   5.937   2.808   1.623
 3774TIP3   OH211327   5.885   1.037   3.726
 3774TIP3    H111328   5.868   1.058   3.818
 3774TIP3    H211329   5.962   0.980   3.728
 3775TIP3   OH211330   0.453   4.920   5.057
 3775TIP3    H111331   0.542   4.949   5.035
 3775TIP3    H211332   0.396   4.985   5.017
 3776TIP3   OH211333   3.177   5.774   3.995
 3776TIP3    H111334   3.214   5.690   4.022
 3776TIP3    H211335   3.178   5.827   4.075
 3777TIP3   OH211336   5.629   2.855  -0.009
 3777TIP3    H111337   5.553   2.856   0.049
 3777TIP3    H211338   5.668   2.768   0.003
 3778TIP3   OH211339   4.011   2.253   0.015
 3778TIP3    H111340   4.062   2.312   0.070
 3778TIP3    H211341   4.023   2.167   0.055
 3779TIP3   OH211342   0.043   0.291   3.964
 3779TIP3    H111343  -0.008   0.309   4.044
 3779TIP3    H211344   0.067   0.378   3.932
 3780TIP3   OH211345   1.250   2.400   3.925
 3780TIP3    H111346   1.246   2.379   4.018
 3780TIP3    H211347   1.304   2.478   3.920
 3781TIP3   OH211348   4.250   2.570   4.096
 3781TIP3    H111349   4.241   2.634   4.025
 3781TIP3    H211350   4.344   2.570   4.117
 3782TIP3   OH211351   0.618   3.419   1.917
 3782TIP3    H111352   0.596   3.337   1.873
 3782TIP3    H211353   0.583   3.408   2.006
 3783TIP3   OH211354   0.601   1.890   1.291
 3783TIP3    H111355   0.515   1.847   1.284
 3783TIP3    H211356   0.664   1.819   1.276
 3784TIP3   OH211357   5.257   0.429   4.870
 3784TIP3    H111358   5.257   0.396   4.960
 3784TIP3    H211359   5.165   0.449   4.853
 3785TIP3   OH211360   1.923   3.181   4.603
 3785TIP3    H111361   1.996   3.168   4.663
 3785TIP3    H211362   1.858   3.115   4.628
 3786TIP3   OH211363   5.012   2.944   1.659
 3786TIP3    H111364   5.050   2.871   1.610
 3786TIP3    H211365   5.083   2.975   1.715
 3787TIP3   OH211366   4.992   0.730   2.462
 3787TIP3    H111367   5.025   0.787   2.392
 3787TIP3    H211368   5.051   0.744   2.535
 3788TIP3   OH211369   1.338   1.835   0.247
 3788TIP3    H111370   1.356   1.741   0.245
 3788TIP3    H211371   1.278   1.846   0.321
 3789TIP3   OH211372   0.411   1.392   0.643
 3789TIP3    H111373   0.429   1.462   0.705
 3789TIP3    H211374   0.319   1.403   0.619
 3790TIP3   OH211375   3.207   5.514   3.381
 3790TIP3    H111376   3.145   5.548   3.316
 3790TIP3    H211377   3.265   5.457   3.331
 3791TIP3   OH211378   4.708   4.780   4.425
 3791TIP3    H111379   4.670   4.778   4.513
 3791TIP3    H211380   4.635   4.759   4.367
 3792TIP3   OH211381   2.436   0.866   5.018
 3792TIP3    H111382   2.414   0.856   5.110
 3792TIP3    H211383   2.513   0.810   5.005
 3793TIP3   OH211384   5.473   2.048   1.030
 3793TIP3    H111385   5.495   2.028   1.121
 3793TIP3    H211386   5.557   2.047   0.984
 3794TIP3   OH211387   2.104   4.429   3.112
 3794TIP3    H111388   2.059   4.486   3.050
 3794TIP3    H211389   2.033   4.378   3.153
 3795TIP3   OH211390   2.071   4.291   4.792
 3795TIP3    H111391   2.095   4.199   4.782
 3795TIP3    H211392   1.979   4.295   4.766
 3796TIP3   OH211393   0.814   2.352   2.813
 3796TIP3    H111394   0.833   2.377   2.903
 3796TIP3    H211395   0.771   2.267   2.820
 3797TIP3   OH211396   4.950   4.170   4.275
 3797TIP3    H111397   4.907   4.249   4.309
 3797TIP3    H211398   4.905   4.153   4.192
 3798TIP3   OH211399   4.124   0.383   4.703
 3798TIP3    H111400   4.085   0.420   4.624
 3798TIP3    H211401   4.074   0.303   4.719
 3799TIP3   OH211402  -0.018   4.609   3.466
 3799TIP3    H111403   0.021   4.630   3.551
 3799TIP3    H211404   0.020   4.674   3.406
 3800TIP3   OH211405   6.036   4.222   3.523
 3800TIP3    H111406   6.022   4.309   3.559
 3800TIP3    H211407   6.063   4.237   3.432
 3801TIP3   OH211408   5.233   1.902   0.945
 3801TIP3    H111409   5.213   1.855   1.025
 3801TIP3    H211410   5.307   1.958   0.967
 3802TIP3   OH211411   5.320   2.815   2.437
 3802TIP3    H111412   5.373   2.777   2.367
 3802TIP3    H211413   5.299   2.903   2.406
 3803TIP3   OH211414   2.935   0.565   2.716
 3803TIP3    H111415   2.977   0.508   2.651
 3803TIP3    H211416   3.001   0.632   2.735
 3804TIP3   OH211417   0.270   4.301   4.018
 3804TIP3    H111418   0.294   4.393   4.010
 3804TIP3    H211419   0.223   4.281   3.937
 3805TIP3   OH211420   1.329   4.960   0.922
 3805TIP3    H111421   1.294   4.919   0.843
 3805TIP3    H211422   1.418   4.925   0.929
 3806TIP3   OH211423   2.971   5.229   5.154
 3806TIP3    H111424   2.968   5.316   5.114
 3806TIP3    H211425   2.885   5.218   5.195
 3807TIP3   OH211426   3.058   5.398   1.395
 3807TIP3    H111427   3.028   5.416   1.306
 3807TIP3    H211428   3.154   5.398   1.389
 3808TIP3   OH211429   0.338   4.681   5.142
 3808TIP3    H111430   0.356   4.684   5.236
 3808TIP3    H211431   0.360   4.769   5.111
 3809TIP3   OH211432   3.345   3.812   4.116
 3809TIP3    H111433   3.424   3.858   4.087
 3809TIP3    H211434   3.297   3.877   4.167
 3810TIP3   OH211435   4.760   1.938   4.531
 3810TIP3    H111436   4.733   1.991   4.457
 3810TIP3    H211437   4.680   1.892   4.558
 3811TIP3   OH211438   2.322   2.062   1.944
 3811TIP3    H111439   2.273   2.038   2.022
 3811TIP3    H211440   2.405   2.015   1.953
 3812TIP3   OH211441   0.972   5.984   0.615
 3812TIP3    H111442   1.026   5.994   0.693
 3812TIP3    H211443   0.993   5.896   0.583
 3813TIP3   OH211444   4.998   2.415   0.000
 3813TIP3    H111445   5.067   2.481   0.012
 3813TIP3    H211446   4.983   2.381   0.088
 3814TIP3   OH211447   6.184   1.968   3.196
 3814TIP3    H111448   6.156   1.921   3.117
 3814TIP3    H211449   6.266   2.011   3.170
 3815TIP3   OH211450   4.615   1.736   0.218
 3815TIP3    H111451   4.681   1.675   0.251
 3815TIP3    H211452   4.570   1.769   0.296
 3816TIP3   OH211453   1.296   4.978   4.821
 3816TIP3    H111454   1.235   4.911   4.851
 3816TIP3    H211455   1.240   5.048   4.788
 3817TIP3   OH211456   0.253   2.957   2.420
 3817TIP3    H111457   0.239   2.932   2.511
 3817TIP3    H211458   0.239   3.052   2.419
 3818TIP3   OH211459   2.928   1.648  -0.026
 3818TIP3    H111460   2.959   1.610  -0.108
 3818TIP3    H211461   3.008   1.675   0.020
 3819TIP3   OH211462   5.169   4.957   4.397
 3819TIP3    H111463   5.250   4.946   4.346
 3819TIP3    H211464   5.106   4.899   4.354
 3820TIP3   OH211465   2.245   2.210   1.237
 3820TIP3    H111466   2.227   2.194   1.329
 3820TIP3    H211467   2.185   2.281   1.213
 3821TIP3   OH211468   0.452   3.445   1.533
 3821TIP3    H111469   0.432   3.352   1.544
 3821TIP3    H211470   0.416   3.466   1.446
 3822TIP3   OH211471   6.374   3.283   0.173
 3822TIP3    H111472   6.331   3.277   0.258
 3822TIP3    H211473   6.420   3.199   0.164
 3823TIP3   OH211474   4.568   0.840   3.099
 3823TIP3    H111475   4.527   0.872   3.019
 3823TIP3    H211476   4.657   0.818   3.073
 3824TIP3   OH211477   6.247   3.711   0.841
 3824TIP3    H111478   6.313   3.776   0.863
 3824TIP3    H211479   6.288   3.627   0.861
 3825TIP3   OH211480   2.881   3.820   2.722
 3825TIP3    H111481   2.966   3.859   2.703
 3825TIP3    H211482   2.883   3.801   2.816
 3826TIP3   OH211483   1.505   5.188   1.559
 3826TIP3    H111484   1.566   5.185   1.633
 3826TIP3    H211485   1.445   5.115   1.575
 3827TIP3   OH211486   1.977   4.362   3.429
 3827TIP3    H111487   2.069   4.338   3.414
 3827TIP3    H211488   1.936   4.357   3.343
 3828TIP3   OH211489   6.310   3.568   4.802
 3828TIP3    H111490   6.293   3.655   4.764
 3828TIP3    H211491   6.293   3.579   4.895
 3829TIP3   OH211492   3.488   2.668   2.055
 3829TIP3    H111493   3.578   2.683   2.086
 3829TIP3    H211494   3.436   2.737   2.097
 3830TIP3   OH211495   3.793   3.457   4.549
 3830TIP3    H111496   3.844   3.380   4.571
 3830TIP3    H211497   3.819   3.478   4.459
 3831TIP3   OH211498   5.616   1.791   2.941
 3831TIP3    H111499   5.584   1.713   2.987
 3831TIP3    H211500   5.710   1.793   2.961
 3832TIP3   OH211501   6.120   0.843   2.010
 3832TIP3    H111502   6.208   0.877   2.028
 3832TIP3    H211503   6.124   0.812   1.920
 3833TIP3   OH211504   0.937   1.555   1.536
 3833TIP3    H111505   1.010   1.525   1.590
 3833TIP3    H211506   0.893   1.621   1.589
 3834TIP3   OH211507   6.190   0.811   0.458
 3834TIP3    H111508   6.131   0.792   0.386
 3834TIP3    H211509   6.176   0.740   0.521
 3835TIP3   OH211510   2.602   0.066   3.040
 3835TIP3    H111511   2.556   0.102   3.116
 3835TIP3    H211512   2.555   0.101   2.965
 3836TIP3   OH211513   6.284   1.007   1.745
 3836TIP3    H111514   6.250   0.950   1.676
 3836TIP3    H211515   6.378   0.989   1.746
 3837TIP3   OH211516   6.059   0.868   3.016
 3837TIP3    H111517   6.020   0.903   2.936
 3837TIP3    H211518   6.151   0.894   3.011
 3838TIP3   OH211519   4.290   3.410   1.575
 3838TIP3    H111520   4.228   3.337   1.586
 3838TIP3    H211521   4.273   3.467   1.649
 3839TIP3   OH211522   6.201   1.124   0.528
 3839TIP3    H111523   6.175   1.032   0.538
 3839TIP3    H211524   6.152   1.154   0.452
 3840TIP3   OH211525   4.390   1.197   4.941
 3840TIP3    H111526   4.323   1.173   5.005
 3840TIP3    H211527   4.386   1.293   4.938
 3841TIP3   OH211528   5.517   4.073   2.103
 3841TIP3    H111529   5.480   3.994   2.141
 3841TIP3    H211530   5.514   4.138   2.173
 3842TIP3   OH211531   4.896   4.147   4.706
 3842TIP3    H111532   4.865   4.232   4.738
 3842TIP3    H211533   4.972   4.127   4.760
 3843TIP3   OH211534   1.409   5.985   1.394
 3843TIP3    H111535   1.329   6.034   1.414
 3843TIP3    H211536   1.430   5.940   1.476
 3844TIP3   OH211537   3.371   0.219   2.756
 3844TIP3    H111538   3.300   0.161   2.729
 3844TIP3    H211539   3.408   0.252   2.674
 3845TIP3   OH211540   0.370   0.269   1.780
 3845TIP3    H111541   0.345   0.281   1.688
 3845TIP3    H211542   0.286   0.264   1.826
 3846TIP3   OH211543   3.594   0.284   1.197
 3846TIP3    H111544   3.518   0.226   1.192
 3846TIP3    H211545   3.570   0.350   1.262
 3847TIP3   OH211546   4.823   0.575   3.314
 3847TIP3    H111547   4.776   0.537   3.240
 3847TIP3    H211548   4.906   0.606   3.277
 3848TIP3   OH211549   3.401   1.305   0.507
 3848TIP3    H111550   3.384   1.321   0.415
 3848TIP3    H211551   3.322   1.262   0.539
 3849TIP3   OH211552   3.672   1.340   1.631
 3849TIP3    H111553   3.766   1.353   1.641
 3849TIP3    H211554   3.640   1.421   1.592
 3850TIP3   OH211555   3.162   2.991   2.922
 3850TIP3    H111556   3.101   2.988   2.996
 3850TIP3    H211557   3.248   2.987   2.963
 3851TIP3   OH211558   6.090   3.311   0.785
 3851TIP3    H111559   6.104   3.382   0.722
 3851TIP3    H211560   6.000   3.284   0.771
 3852TIP3   OH211561   0.324   4.128   0.612
 3852TIP3    H111562   0.334   4.190   0.540
 3852TIP3    H211563   0.386   4.156   0.678
 3853TIP3   OH211564   0.480   1.500   1.944
 3853TIP3    H111565   0.440   1.578   1.906
 3853TIP3    H211566   0.492   1.441   1.870
 3854TIP3   OH211567   0.931   1.372   3.505
 3854TIP3    H111568   1.016   1.328   3.496
 3854TIP3    H211569   0.882   1.316   3.565
 3855TIP3   OH211570   0.188   4.675   4.918
 3855TIP3    H111571   0.235   4.666   5.000
 3855TIP3    H211572   0.178   4.770   4.906
 3856TIP3   OH211573   3.708   2.632   3.481
 3856TIP3    H111574   3.614   2.628   3.466
 3856TIP3    H211575   3.741   2.551   3.442
 3857TIP3   OH211576   3.276   0.853   5.024
 3857TIP3    H111577   3.249   0.886   4.939
 3857TIP3    H211578   3.350   0.795   5.006
 3858TIP3   OH211579   0.577   3.953   0.082
 3858TIP3    H111580   0.560   4.027   0.023
 3858TIP3    H211581   0.650   3.982   0.136
 3859TIP3   OH211582   1.621   4.107   5.020
 3859TIP3    H111583   1.574   4.163   5.082
 3859TIP3    H211584   1.569   4.026   5.018
 3860TIP3   OH211585   3.183   3.219   1.151
 3860TIP3    H111586   3.094   3.194   1.127
 3860TIP3    H211587   3.181   3.315   1.154
 3861TIP3   OH211588   2.312   4.710   3.833
 3861TIP3    H111589   2.332   4.672   3.748
 3861TIP3    H211590   2.296   4.803   3.816
 3862TIP3   OH211591   0.541   2.843   2.508
 3862TIP3    H111592   0.469   2.896   2.475
 3862TIP3    H211593   0.575   2.892   2.582
 3863TIP3   OH211594   4.686   0.608   2.844
 3863TIP3    H111595   4.611   0.592   2.901
 3863TIP3    H211596   4.662   0.567   2.761
 3864TIP3   OH211597   2.649   1.780   3.528
 3864TIP3    H111598   2.623   1.695   3.494
 3864TIP3    H211599   2.657   1.766   3.623
 3865TIP3   OH211600   1.688   0.999   2.029
 3865TIP3    H111601   1.769   1.024   2.074
 3865TIP3    H211602   1.690   0.903   2.026
 3866TIP3   OH211603   1.027   5.188   0.775
 3866TIP3    H111604   0.960   5.141   0.824
 3866TIP3    H211605   0.994   5.277   0.767
 3867TIP3   OH211606   1.148   4.235   0.504
 3867TIP3    H111607   1.208   4.192   0.565
 3867TIP3    H211608   1.110   4.163   0.452
 3868TIP3   OH211609   2.191   2.016   2.988
 3868TIP3    H111610   2.200   2.087   3.052
 3868TIP3    H211611   2.155   1.943   3.038
 3869TIP3   OH211612   5.179   1.592   0.958
 3869TIP3    H111613   5.184   1.649   1.035
 3869TIP3    H211614   5.087   1.594   0.932
 3870TIP3   OH211615   1.512   3.547   5.111
 3870TIP3    H111616   1.519   3.637   5.079
 3870TIP3    H211617   1.424   3.520   5.088
 3871TIP3   OH211618   2.587   2.218   4.668
 3871TIP3    H111619   2.655   2.264   4.716
 3871TIP3    H211620   2.580   2.133   4.712
 3872TIP3   OH211621   1.453   4.414   1.962
 3872TIP3    H111622   1.456   4.318   1.971
 3872TIP3    H211623   1.472   4.447   2.049
 3873TIP3   OH211624   1.124   2.446   2.326
 3873TIP3    H111625   1.192   2.481   2.269
 3873TIP3    H211626   1.159   2.456   2.414
 3874TIP3   OH211627   1.294   0.716   3.803
 3874TIP3    H111628   1.341   0.635   3.822
 3874TIP3    H211629   1.205   0.700   3.834
 3875TIP3   OH211630   1.715   4.914   1.501
 3875TIP3    H111631   1.704   4.984   1.436
 3875TIP3    H211632   1.805   4.884   1.489
 3876TIP3   OH211633   1.156   4.012   2.682
 3876TIP3    H111634   1.205   4.010   2.599
 3876TIP3    H211635   1.174   3.926   2.721
 3877TIP3   OH211636   3.247   4.742   4.468
 3877TIP3    H111637   3.301   4.664   4.458
 3877TIP3    H211638   3.171   4.712   4.517
 3878TIP3   OH211639   4.811   2.520   1.982
 3878TIP3    H111640   4.877   2.452   1.995
 3878TIP3    H211641   4.858   2.592   1.941
 3879TIP3   OH211642   3.657   4.476   3.495
 3879TIP3    H111643   3.590   4.434   3.441
 3879TIP3    H211644   3.722   4.407   3.509
 3880TIP3   OH211645   3.220   3.162   1.940
 3880TIP3    H111646   3.294   3.216   1.912
 3880TIP3    H211647   3.183   3.128   1.859
 3881TIP3   OH211648   0.501   0.667   1.075
 3881TIP3    H111649   0.548   0.689   1.155
 3881TIP3    H211650   0.565   0.679   1.005
 3882TIP3   OH211651   3.497   3.542   0.878
 3882TIP3    H111652   3.426   3.526   0.816
 3882TIP3    H211653   3.463   3.609   0.937
 3883TIP3   OH211654   6.285   5.921   1.519
 3883TIP3    H111655   6.346   5.895   1.589
 3883TIP3    H211656   6.342   5.944   1.446
 3884TIP3   OH211657   0.387   4.744   2.328
 3884TIP3    H111658   0.433   4.661   2.344
 3884TIP3    H211659   0.455   4.811   2.332
 3885TIP3   OH211660   4.545   1.987   3.782
 3885TIP3    H111661   4.455   1.954   3.786
 3885TIP3    H211662   4.567   1.983   3.689
 3886TIP3   OH211663   1.456   4.080   2.851
 3886TIP3    H111664   1.514   4.152   2.828
 3886TIP3    H211665   1.457   4.077   2.947
 3887TIP3   OH211666   3.042   1.676   4.681
 3887TIP3    H111667   3.114   1.620   4.713
 3887TIP3    H211668   2.973   1.614   4.659
 3888TIP3   OH211669   4.719   1.636   2.127
 3888TIP3    H111670   4.686   1.711   2.177
 3888TIP3    H211671   4.695   1.560   2.180
 3889TIP3   OH211672   5.652   3.164   1.325
 3889TIP3    H111673   5.593   3.214   1.269
 3889TIP3    H211674   5.706   3.114   1.264
 3890TIP3   OH211675   6.230   1.450   0.302
 3890TIP3    H111676   6.214   1.529   0.251
 3890TIP3    H211677   6.326   1.443   0.305
 3891TIP3   OH211678   2.886   0.586   1.925
 3891TIP3    H111679   2.798   0.617   1.949
 3891TIP3    H211680   2.895   0.503   1.972
 3892TIP3   OH211681   5.517   2.683   2.733
 3892TIP3    H111682   5.425   2.705   2.720
 3892TIP3    H211683   5.517   2.619   2.804
 3893TIP3   OH211684   4.914   3.083   3.250
 3893TIP3    H111685   4.948   2.999   3.219
 3893TIP3    H211686   4.845   3.106   3.188
 3894TIP3   OH211687   2.293   2.339   4.276
 3894TIP3    H111688   2.363   2.283   4.242
 3894TIP3    H211689   2.248   2.284   4.340
 3895TIP3   OH211690   0.395   2.690   2.901
 3895TIP3    H111691   0.332   2.694   2.973
 3895TIP3    H211692   0.442   2.773   2.905
 3896TIP3   OH211693   3.761   3.051   2.302
 3896TIP3    H111694   3.770   2.990   2.375
 3896TIP3    H211695   3.667   3.059   2.289
 3897TIP3   OH211696   3.902   3.984   4.486
 3897TIP3    H111697   3.863   3.899   4.508
 3897TIP3    H211698   3.944   3.970   4.401
 3898TIP3   OH211699   0.519   6.006   3.442
 3898TIP3    H111700   0.479   6.046   3.518
 3898TIP3    H211701   0.495   5.913   3.448
 3899TIP3   OH211702   5.332   1.935   0.276
 3899TIP3    H111703   5.275   1.977   0.210
 3899TIP3    H211704   5.331   1.842   0.251
 3900TIP3   OH211705   6.064   3.429   1.401
 3900TIP3    H111706   6.045   3.415   1.309
 3900TIP3    H211707   6.000   3.375   1.447
 3901TIP3   OH211708   4.111   3.266   0.274
 3901TIP3    H111709   4.090   3.343   0.221
 3901TIP3    H211710   4.044   3.202   0.250
 3902TIP3   OH211711   5.998   4.356   2.601
 3902TIP3    H111712   6.029   4.435   2.556
 3902TIP3    H211713   6.047   4.285   2.561
 3903TIP3   OH211714   5.762   2.724   1.049
 3903TIP3    H111715   5.707   2.654   1.012
 3903TIP3    H211716   5.841   2.723   0.995
 3904TIP3   OH211717   4.592   3.588   4.770
 3904TIP3    H111718   4.510   3.621   4.733
 3904TIP3    H211719   4.659   3.613   4.706
 3905TIP3   OH211720   5.964   0.777   5.042
 3905TIP3    H111721   5.911   0.716   4.992
 3905TIP3    H211722   6.041   0.726   5.069
 3906TIP3   OH211723   5.568   1.190   2.257
 3906TIP3    H111724   5.632   1.256   2.282
 3906TIP3    H211725   5.580   1.119   2.321
 3907TIP3   OH211726   6.108   2.461   2.186
 3907TIP3    H111727   6.161   2.412   2.248
 3907TIP3    H211728   6.147   2.548   2.185
 3908TIP3   OH211729   5.573   5.250   3.253
 3908TIP3    H111730   5.542   5.245   3.162
 3908TIP3    H211731   5.545   5.167   3.292
 3909TIP3   OH211732   4.274   1.677   0.524
 3909TIP3    H111733   4.277   1.677   0.428
 3909TIP3    H211734   4.240   1.764   0.547
 3910TIP3   OH211735   2.955   0.954   4.330
 3910TIP3    H111736   2.951   0.994   4.417
 3910TIP3    H211737   2.970   1.027   4.271
 3911TIP3   OH211738   1.733   0.352   1.830
 3911TIP3    H111739   1.654   0.318   1.788
 3911TIP3    H211740   1.798   0.356   1.760
 3912TIP3   OH211741   0.476   2.244   0.822
 3912TIP3    H111742   0.565   2.276   0.807
 3912TIP3    H211743   0.487   2.159   0.866
 3913TIP3   OH211744   4.013   1.512   1.323
 3913TIP3    H111745   4.099   1.493   1.286
 3913TIP3    H211746   3.991   1.436   1.376
 3914TIP3   OH211747   5.630   0.257   2.596
 3914TIP3    H111748   5.553   0.219   2.638
 3914TIP3    H211749   5.611   0.253   2.502
 3915TIP3   OH211750   0.919   5.757   3.019
 3915TIP3    H111751   0.922   5.851   3.037
 3915TIP3    H211752   0.967   5.747   2.937
 3916TIP3   OH211753   5.056   3.249   1.979
 3916TIP3    H111754   4.993   3.178   1.989
 3916TIP3    H211755   5.007   3.320   1.940
 3917TIP3   OH211756   0.250   2.988   2.092
 3917TIP3    H111757   0.329   2.946   2.056
 3917TIP3    H211758   0.284   3.048   2.158
 3918TIP3   OH211759   6.107   5.826   0.550
 3918TIP3    H111760   6.171   5.807   0.619
 3918TIP3    H211761   6.157   5.870   0.482
 3919TIP3   OH211762   2.582   4.815   3.104
 3919TIP3    H111763   2.650   4.747   3.108
 3919TIP3    H211764   2.595   4.866   3.184
 3920TIP3   OH211765   1.583   5.818   2.381
 3920TIP3    H111766   1.488   5.809   2.387
 3920TIP3    H211767   1.598   5.913   2.378
 3921TIP3   OH211768   3.486   1.695   0.950
 3921TIP3    H111769   3.459   1.609   0.981
 3921TIP3    H211770   3.422   1.756   0.989
 3922TIP3   OH211771   3.684   1.008   2.476
 3922TIP3    H111772   3.728   0.924   2.475
 3922TIP3    H211773   3.597   0.990   2.441
 3923TIP3   OH211774   3.175   0.324   1.376
 3923TIP3    H111775   3.095   0.338   1.426
 3923TIP3    H211776   3.221   0.255   1.424
 3924TIP3   OH211777   4.580   5.873   2.406
 3924TIP3    H111778   4.488   5.864   2.384
 3924TIP3    H211779   4.581   5.938   2.477
 3925TIP3   OH211780   2.781   1.697   3.248
 3925TIP3    H111781   2.753   1.605   3.244
 3925TIP3    H211782   2.794   1.713   3.342
 3926TIP3   OH211783   3.022   0.054   5.108
 3926TIP3    H111784   2.981   0.093   5.184
 3926TIP3    H211785   3.098   0.111   5.090
 3927TIP3   OH211786   0.155   3.529   1.545
 3927TIP3    H111787   0.100   3.452   1.529
 3927TIP3    H211788   0.180   3.559   1.458
 3928TIP3   OH211789   5.662   3.184   0.020
 3928TIP3    H111790   5.667   3.089   0.031
 3928TIP3    H211791   5.640   3.217   0.107
 3929TIP3   OH211792   0.357   1.153   0.808
 3929TIP3    H111793   0.417   1.107   0.866
 3929TIP3    H211794   0.412   1.215   0.760
 3930TIP3   OH211795   1.206   0.839   5.075
 3930TIP3    H111796   1.121   0.882   5.081
 3930TIP3    H211797   1.231   0.847   4.982
 3931TIP3   OH211798   3.826   0.975   1.542
 3931TIP3    H111799   3.901   0.951   1.596
 3931TIP3    H211800   3.755   0.988   1.606
 3932TIP3   OH211801  -0.020   0.163   3.381
 3932TIP3    H111802   0.040   0.165   3.455
 3932TIP3    H211803   0.025   0.110   3.315
 3933TIP3   OH211804   2.036   3.284   0.620
 3933TIP3    H111805   2.034   3.294   0.715
 3933TIP3    H211806   1.950   3.248   0.597
 3934TIP3   OH211807   0.727   3.927   2.639
 3934TIP3    H111808   0.801   3.912   2.580
 3934TIP3    H211809   0.766   3.932   2.726
 3935TIP3   OH211810   3.478   4.659   5.142
 3935TIP3    H111811   3.496   4.753   5.141
 3935TIP3    H211812   3.393   4.652   5.187
 3936TIP3   OH211813   0.131   0.634   2.477
 3936TIP3    H111814   0.037   0.615   2.473
 3936TIP3    H211815   0.138   0.704   2.543
 3937TIP3   OH211816   5.274   1.595   3.105
 3937TIP3    H111817   5.236   1.679   3.129
 3937TIP3    H211818   5.369   1.609   3.110
 3938TIP3   OH211819   4.264   3.389   3.942
 3938TIP3    H111820   4.229   3.350   4.023
 3938TIP3    H211821   4.297   3.474   3.969
 3939TIP3   OH211822   0.528   1.214   3.508
 3939TIP3    H111823   0.455   1.248   3.560
 3939TIP3    H211824   0.593   1.186   3.572
 3940TIP3   OH211825   6.184   4.406   0.123
 3940TIP3    H111826   6.204   4.485   0.074
 3940TIP3    H211827   6.091   4.413   0.145
 3941TIP3   OH211828   5.498   2.400   0.424
 3941TIP3    H111829   5.530   2.418   0.335
 3941TIP3    H211830   5.420   2.454   0.433
 3942TIP3   OH211831   2.589   4.394   1.473
 3942TIP3    H111832   2.632   4.359   1.396
 3942TIP3    H211833   2.534   4.465   1.440
 3943TIP3   OH211834   4.628   2.474   2.181
 3943TIP3    H111835   4.686   2.513   2.116
 3943TIP3    H211836   4.544   2.518   2.168
 3944TIP3   OH211837   0.218   5.854   3.586
 3944TIP3    H111838   0.270   5.774   3.592
 3944TIP3    H211839   0.275   5.922   3.623
 3945TIP3   OH211840   0.125   0.541   4.785
 3945TIP3    H111841   0.080   0.618   4.748
 3945TIP3    H211842   0.192   0.578   4.842
 3946TIP3   OH211843   5.047   0.871   3.759
 3946TIP3    H111844   4.983   0.840   3.695
 3946TIP3    H211845   5.055   0.799   3.821
 3947TIP3   OH211846   4.165   4.752   0.664
 3947TIP3    H111847   4.118   4.835   0.666
 3947TIP3    H211848   4.205   4.745   0.750
 3948TIP3   OH211849   1.950   3.172   3.440
 3948TIP3    H111850   1.892   3.166   3.515
 3948TIP3    H211851   2.007   3.095   3.447
 3949TIP3   OH211852   6.316   4.954   0.024
 3949TIP3    H111853   6.231   4.937   0.063
 3949TIP3    H211854   6.332   5.047   0.039
 3950TIP3   OH211855   6.003   4.300   5.071
 3950TIP3    H111856   6.086   4.314   5.024
 3950TIP3    H211857   6.017   4.218   5.119
 3951TIP3   OH211858   2.669   4.172   4.448
 3951TIP3    H111859   2.692   4.264   4.444
 3951TIP3    H211860   2.695   4.136   4.363
 3952TIP3   OH211861   0.732   3.189   3.497
 3952TIP3    H111862   0.751   3.155   3.585
 3952TIP3    H211863   0.639   3.170   3.484
 3953TIP3   OH211864   4.933   5.144   0.221
 3953TIP3    H111865   4.867   5.076   0.217
 3953TIP3    H211866   4.991   5.117   0.293
 3954TIP3   OH211867   0.653   0.124   4.216
 3954TIP3    H111868   0.688   0.059   4.276
 3954TIP3    H211869   0.565   0.144   4.250
 3955TIP3   OH211870   2.872   5.685   2.836
 3955TIP3    H111871   2.915   5.614   2.789
 3955TIP3    H211872   2.829   5.736   2.768
 3956TIP3   OH211873   5.923   3.749   4.963
 3956TIP3    H111874   5.836   3.782   4.988
 3956TIP3    H211875   5.909   3.655   4.948
 3957TIP3   OH211876   2.634   4.875   3.387
 3957TIP3    H111877   2.718   4.866   3.431
 3957TIP3    H211878   2.584   4.798   3.414
 3958TIP3   OH211879   2.152   1.872   1.398
 3958TIP3    H111880   2.059   1.860   1.418
 3958TIP3    H211881   2.153   1.903   1.307
 3959TIP3   OH211882   3.342   1.426   2.545
 3959TIP3    H111883   3.285   1.407   2.470
 3959TIP3    H211884   3.289   1.481   2.603
 3960TIP3   OH211885   3.080   0.948  -0.010
 3960TIP3    H111886   3.090   0.912   0.079
 3960TIP3    H211887   3.169   0.973  -0.035
 3961TIP3   OH211888   2.413   4.844   1.126
 3961TIP3    H111889   2.480   4.780   1.105
 3961TIP3    H211890   2.347   4.795   1.174
 3962TIP3   OH211891   3.326   2.970   0.303
 3962TIP3    H111892   3.294   2.883   0.279
 3962TIP3    H211893   3.281   3.029   0.243
 3963TIP3   OH211894   0.637   0.934   4.535
 3963TIP3    H111895   0.732   0.937   4.548
 3963TIP3    H211896   0.601   0.967   4.618
 3964TIP3   OH211897   4.223   4.284   1.472
 3964TIP3    H111898   4.296   4.340   1.446
 3964TIP3    H211899   4.217   4.295   1.567
 3965TIP3   OH211900   0.007   2.060   0.641
 3965TIP3    H111901   0.075   2.115   0.679
 3965TIP3    H211902  -0.001   2.090   0.551
 3966TIP3   OH211903   5.825   2.937   3.130
 3966TIP3    H111904   5.730   2.952   3.127
 3966TIP3    H211905   5.853   2.973   3.214
 3967TIP3   OH211906   3.775   3.172   4.033
 3967TIP3    H111907   3.812   3.139   4.115
 3967TIP3    H211908   3.822   3.254   4.018
 3968TIP3   OH211909   6.252   4.382   4.929
 3968TIP3    H111910   6.297   4.419   4.854
 3968TIP3    H211911   6.302   4.413   5.005
 3969TIP3   OH211912   4.540   3.769   4.449
 3969TIP3    H111913   4.524   3.839   4.512
 3969TIP3    H211914   4.593   3.705   4.496
 3970TIP3   OH211915   1.800   4.535   3.773
 3970TIP3    H111916   1.879   4.527   3.719
 3970TIP3    H211917   1.801   4.457   3.828
 3971TIP3   OH211918   2.161   3.106   4.743
 3971TIP3    H111919   2.175   3.015   4.768
 3971TIP3    H211920   2.113   3.144   4.817
 3972TIP3   OH211921   4.465   0.085   4.192
 3972TIP3    H111922   4.403   0.036   4.246
 3972TIP3    H211923   4.415   0.111   4.115
 3973TIP3   OH211924   2.726   5.863   3.528
 3973TIP3    H111925   2.685   5.781   3.503
 3973TIP3    H211926   2.807   5.837   3.572
 3974TIP3   OH211927   5.045   0.209   4.532
 3974TIP3    H111928   4.986   0.176   4.464
 3974TIP3    H211929   5.131   0.178   4.505
 3975TIP3   OH211930   2.533   4.800   4.346
 3975TIP3    H111931   2.629   4.805   4.347
 3975TIP3    H211932   2.505   4.865   4.410
 3976TIP3   OH211933   1.863   2.661   2.642
 3976TIP3    H111934   1.768   2.664   2.653
 3976TIP3    H211935   1.898   2.690   2.727
 3977TIP3   OH211936   3.721   5.516   4.747
 3977TIP3    H111937   3.648   5.574   4.729
 3977TIP3    H211938   3.765   5.555   4.822
 3978TIP3   OH211939   6.251   4.812   0.399
 3978TIP3    H111940   6.311   4.781   0.331
 3978TIP3    H211941   6.185   4.862   0.351
 3979TIP3   OH211942   3.795   1.961   1.986
 3979TIP3    H111943   3.855   1.895   1.951
 3979TIP3    H211944   3.821   2.043   1.943
 3980TIP3   OH211945   3.822   3.853   3.171
 3980TIP3    H111946   3.744   3.872   3.224
 3980TIP3    H211947   3.815   3.914   3.097
 3981TIP3   OH211948   2.301   3.313   4.611
 3981TIP3    H111949   2.273   3.242   4.669
 3981TIP3    H211950   2.250   3.388   4.639
 3982TIP3   OH211951   3.784   3.755   4.550
 3982TIP3    H111952   3.740   3.802   4.621
 3982TIP3    H211953   3.797   3.667   4.585
 3983TIP3   OH211954   4.926   0.331   2.807
 3983TIP3    H111955   5.008   0.366   2.770
 3983TIP3    H211956   4.943   0.237   2.816
 3984TIP3   OH211957   0.521   3.660   4.993
 3984TIP3    H111958   0.574   3.636   4.917
 3984TIP3    H211959   0.456   3.721   4.958
 3985TIP3   OH211960   6.118   0.738   2.545
 3985TIP3    H111961   6.141   0.728   2.637
 3985TIP3    H211962   6.039   0.685   2.534
 3986TIP3   OH211963   3.143   0.082   4.043
 3986TIP3    H111964   3.100   0.086   3.957
 3986TIP3    H211965   3.236   0.079   4.022
 3987TIP3   OH211966   2.035   4.536   3.617
 3987TIP3    H111967   1.997   4.616   3.581
 3987TIP3    H211968   2.012   4.467   3.555
 3988TIP3   OH211969   4.063   1.172   0.989
 3988TIP3    H111970   4.046   1.266   0.986
 3988TIP3    H211971   3.992   1.133   0.937
 3989TIP3   OH211972   3.159   5.943   1.007
 3989TIP3    H111973   3.065   5.957   0.996
 3989TIP3    H211974   3.180   5.871   0.948
 3990TIP3   OH211975   5.256   2.629   1.148
 3990TIP3    H111976   5.210   2.545   1.157
 3990TIP3    H211977   5.218   2.668   1.069
 3991TIP3   OH211978   5.113   2.423   0.988
 3991TIP3    H111979   5.164   2.350   1.025
 3991TIP3    H211980   5.022   2.402   1.009
 3992TIP3   OH211981   1.034   5.246   3.418
 3992TIP3    H111982   0.959   5.189   3.435
 3992TIP3    H211983   1.060   5.226   3.328
 3993TIP3   OH211984   0.757   5.048   3.534
 3993TIP3    H111985   0.698   5.123   3.535
 3993TIP3    H211986   0.712   4.982   3.587
 3994TIP3   OH211987   4.819   5.705   0.737
 3994TIP3    H111988   4.739   5.758   0.740
 3994TIP3    H211989   4.835   5.692   0.644
 3995TIP3   OH211990   2.024   1.797   0.054
 3995TIP3    H111991   2.094   1.862   0.060
 3995TIP3    H211992   1.944   1.848   0.069
 3996TIP3   OH211993   3.336   2.202   4.205
 3996TIP3    H111994   3.328   2.288   4.164
 3996TIP3    H211995   3.266   2.201   4.270
 3997TIP3   OH211996   6.131   4.381   2.843
 3997TIP3    H111997   6.058   4.391   2.781
 3997TIP3    H211998   6.209   4.386   2.789
 3998TIP3   OH211999   1.448   0.724   0.449
 3998TIP3    H112000   1.495   0.790   0.398
 3998TIP3    H212001   1.514   0.657   0.468
 3999TIP3   OH212002   3.938   1.230   4.435
 3999TIP3    H112003   4.028   1.216   4.406
 3999TIP3    H212004   3.942   1.310   4.487
 4000TIP3   OH212005   4.411   4.685   1.674
 4000TIP3    H112006   4.447   4.697   1.762
 4000TIP3    H212007   4.418   4.771   1.633
 4001TIP3   OH212008   0.533   1.265   5.113
 4001TIP3    H112009   0.580   1.242   5.033
 4001TIP3    H212010   0.494   1.350   5.094
 4002TIP3   OH212011   2.933   1.892   3.532
 4002TIP3    H112012   2.854   1.839   3.534
 4002TIP3    H212013   2.969   1.879   3.445
 4003TIP3   OH212014   3.235   1.098   3.189
 4003TIP3    H112015   3.310   1.142   3.148
 4003TIP3    H212016   3.167   1.101   3.122
 4004TIP3   OH212017   0.897   5.706   1.163
 4004TIP3    H112018   0.938   5.708   1.250
 4004TIP3    H212019   0.851   5.622   1.161
 4005TIP3   OH212020   4.207   5.835   0.430
 4005TIP3    H112021   4.180   5.878   0.511
 4005TIP3    H212022   4.165   5.749   0.432
 4006TIP3   OH212023   1.290   0.962   4.481
 4006TIP3    H112024   1.348   0.886   4.486
 4006TIP3    H212025   1.297   0.992   4.391
 4007TIP3   OH212026   6.290   3.751   0.387
 4007TIP3    H112027   6.339   3.672   0.409
 4007TIP3    H212028   6.338   3.822   0.427
 4008TIP3   OH212029   0.522   2.309   2.343
 4008TIP3    H112030   0.596   2.303   2.403
 4008TIP3    H212031   0.562   2.324   2.257
 4009TIP3   OH212032   3.933   1.837   0.688
 4009TIP3    H112033   3.839   1.829   0.670
 4009TIP3    H212034   3.939   1.907   0.752
 4010TIP3   OH212035   1.175   3.129   0.902
 4010TIP3    H112036   1.214   3.072   0.836
 4010TIP3    H212037   1.248   3.181   0.935
 4011TIP3   OH212038   4.602   4.189   4.570
 4011TIP3    H112039   4.685   4.195   4.619
 4011TIP3    H212040   4.628   4.196   4.478
 4012TIP3   OH212041   5.931   1.957   1.200
 4012TIP3    H112042   5.956   2.046   1.175
 4012TIP3    H212043   5.890   1.968   1.286
 4013TIP3   OH212044   0.027   3.012   0.997
 4013TIP3    H112045   0.082   2.955   0.944
 4013TIP3    H212046   0.021   2.967   1.082
 4014TIP3   OH212047   0.846   0.505   1.532
 4014TIP3    H112048   0.762   0.550   1.542
 4014TIP3    H212049   0.880   0.497   1.621
 4015TIP3   OH212050   5.057   5.350   2.004
 4015TIP3    H112051   5.002   5.425   1.980
 4015TIP3    H212052   5.110   5.382   2.077
 4016TIP3   OH212053   2.616   2.551   1.592
 4016TIP3    H112054   2.636   2.514   1.677
 4016TIP3    H212055   2.521   2.542   1.584
 4017TIP3   OH212056   2.148   3.741   3.757
 4017TIP3    H112057   2.071   3.710   3.805
 4017TIP3    H212058   2.120   3.826   3.721
 4018TIP3   OH212059   4.243   1.308   4.106
 4018TIP3    H112060   4.203   1.247   4.168
 4018TIP3    H212061   4.318   1.344   4.153
 4019TIP3   OH212062   4.227   2.825   1.745
 4019TIP3    H112063   4.231   2.745   1.692
 4019TIP3    H212064   4.186   2.797   1.826
 4020TIP3   OH212065   6.251   1.170   4.427
 4020TIP3    H112066   6.215   1.124   4.352
 4020TIP3    H212067   6.277   1.255   4.393
 4021TIP3   OH212068   3.625   2.477   3.099
 4021TIP3    H112069   3.712   2.448   3.072
 4021TIP3    H212070   3.575   2.484   3.018
 4022TIP3   OH212071   0.755   4.388   3.287
 4022TIP3    H112072   0.665   4.420   3.302
 4022TIP3    H212073   0.810   4.464   3.305
 4023TIP3   OH212074   5.506   5.319   4.661
 4023TIP3    H112075   5.422   5.337   4.618
 4023TIP3    H212076   5.505   5.224   4.675
 4024TIP3   OH212077   0.491   1.267   4.420
 4024TIP3    H112078   0.576   1.290   4.456
 4024TIP3    H212079   0.451   1.211   4.486
 4025TIP3   OH212080   5.474   4.234   2.335
 4025TIP3    H112081   5.513   4.304   2.386
 4025TIP3    H212082   5.397   4.274   2.293
 4026TIP3   OH212083   6.299   4.986   2.492
 4026TIP3    H112084   6.222   4.929   2.486
 4026TIP3    H212085   6.289   5.048   2.420
 4027TIP3   OH212086   1.306   1.377   1.827
 4027TIP3    H112087   1.274   1.374   1.917
 4027TIP3    H212088   1.398   1.354   1.833
 4028TIP3   OH212089   4.060   5.116   5.147
 4028TIP3    H112090   4.080   5.164   5.227
 4028TIP3    H212091   4.083   5.177   5.076
 4029TIP3   OH212092   5.035   2.357   2.073
 4029TIP3    H112093   5.031   2.442   2.117
 4029TIP3    H212094   5.072   2.298   2.139
 4030TIP3   OH212095   3.804   3.131   1.317
 4030TIP3    H112096   3.748   3.132   1.395
 4030TIP3    H212097   3.850   3.215   1.320
 4031TIP3   OH212098   1.249   0.215   2.959
 4031TIP3    H112099   1.207   0.259   3.032
 4031TIP3    H212100   1.232   0.271   2.883
 4032TIP3   OH212101   4.478   1.389   4.211
 4032TIP3    H112102   4.571   1.385   4.191
 4032TIP3    H212103   4.475   1.408   4.305
 4033TIP3   OH212104   2.924   0.921   5.156
 4033TIP3    H112105   2.831   0.905   5.139
 4033TIP3    H212106   2.967   0.837   5.136
 4034TIP3   OH212107   3.092   2.285   0.815
 4034TIP3    H112108   3.138   2.294   0.898
 4034TIP3    H212109   3.065   2.374   0.793
 4035TIP3   OH212110   1.264   3.459   5.124
 4035TIP3    H112111   1.197   3.392   5.136
 4035TIP3    H212112   1.233   3.533   5.176
 4036TIP3   OH212113   3.339   4.165   2.380
 4036TIP3    H112114   3.282   4.096   2.412
 4036TIP3    H212115   3.362   4.215   2.459
 4037TIP3   OH212116   1.050   4.604   3.833
 4037TIP3    H112117   1.067   4.665   3.761
 4037TIP3    H212118   1.091   4.645   3.910
 4038TIP3   OH212119   5.374   2.246   0.070
 4038TIP3    H112120   5.427   2.312   0.116
 4038TIP3    H212121   5.307   2.221   0.134
 4039TIP3   OH212122   5.348   2.775   1.360
 4039TIP3    H112123   5.331   2.703   1.299
 4039TIP3    H212124   5.339   2.854   1.307
 4040TIP3   OH212125   5.762   0.537   2.828
 4040TIP3    H112126   5.682   0.521   2.879
 4040TIP3    H212127   5.831   0.544   2.893
 4041TIP3   OH212128   1.716   4.075   0.781
 4041TIP3    H112129   1.745   4.156   0.823
 4041TIP3    H212130   1.720   4.093   0.687
 4042TIP3   OH212131   1.158   1.357   0.689
 4042TIP3    H112132   1.157   1.443   0.731
 4042TIP3    H212133   1.180   1.297   0.760
 4043TIP3   OH212134   2.319   1.664   3.778
 4043TIP3    H112135   2.310   1.605   3.703
 4043TIP3    H212136   2.380   1.619   3.837
 4044TIP3   OH212137   3.546   2.515   4.141
 4044TIP3    H112138   3.451   2.511   4.142
 4044TIP3    H212139   3.569   2.522   4.048
 4045TIP3   OH212140   5.847   4.639   1.875
 4045TIP3    H112141   5.801   4.677   1.801
 4045TIP3    H212142   5.880   4.555   1.841
 4046TIP3   OH212143   1.376   5.683   1.922
 4046TIP3    H112144   1.365   5.770   1.886
 4046TIP3    H212145   1.471   5.672   1.930
 4047TIP3   OH212146   2.264   0.490   0.936
 4047TIP3    H112147   2.340   0.477   0.880
 4047TIP3    H212148   2.195   0.436   0.896
 4048TIP3   OH212149   5.295   1.242   0.006
 4048TIP3    H112150   5.227   1.279   0.063
 4048TIP3    H212151   5.358   1.314  -0.005
 4049TIP3   OH212152   2.813   4.780   1.929
 4049TIP3    H112153   2.845   4.774   1.839
 4049TIP3    H212154   2.891   4.802   1.980
 4050TIP3   OH212155   5.276   5.553   1.132
 4050TIP3    H112156   5.229   5.615   1.076
 4050TIP3    H212157   5.226   5.472   1.125
 4051TIP3   OH212158   1.425   2.291   0.446
 4051TIP3    H112159   1.476   2.341   0.510
 4051TIP3    H212160   1.418   2.349   0.370
 4052TIP3   OH212161   2.136   0.626   5.171
 4052TIP3    H112162   2.154   0.715   5.201
 4052TIP3    H212163   2.175   0.622   5.084
 4053TIP3   OH212164   5.318   3.388   1.228
 4053TIP3    H112165   5.253   3.439   1.179
 4053TIP3    H212166   5.402   3.412   1.189
 4054TIP3   OH212167   3.708   5.321   0.675
 4054TIP3    H112168   3.723   5.415   0.686
 4054TIP3    H212169   3.755   5.281   0.748
 4055TIP3   OH212170   2.706   5.756   2.193
 4055TIP3    H112171   2.759   5.724   2.266
 4055TIP3    H212172   2.712   5.687   2.128
 4056TIP3   OH212173   0.238   5.745   0.302
 4056TIP3    H112174   0.149   5.769   0.325
 4056TIP3    H212175   0.238   5.740   0.207
 4057TIP3   OH212176   0.254   3.700   4.696
 4057TIP3    H112177   0.204   3.717   4.776
 4057TIP3    H212178   0.275   3.606   4.701
 4058TIP3   OH212179   4.821   0.124   3.454
 4058TIP3    H112180   4.836   0.038   3.492
 4058TIP3    H212181   4.907   0.166   3.457
 4059TIP3   OH212182   5.239   4.504   3.556
 4059TIP3    H112183   5.233   4.430   3.495
 4059TIP3    H212184   5.329   4.536   3.545
 4060TIP3   OH212185   4.042   3.688   2.092
 4060TIP3    H112186   4.097   3.738   2.153
 4060TIP3    H212187   4.050   3.737   2.009
 4061TIP3   OH212188   6.029   3.379   1.144
 4061TIP3    H112189   6.056   3.432   1.068
 4061TIP3    H212190   6.034   3.289   1.113
 4062TIP3   OH212191   4.143   0.744   1.948
 4062TIP3    H112192   4.165   0.695   1.869
 4062TIP3    H212193   4.111   0.679   2.010
 4063TIP3   OH212194   4.590   5.541   3.815
 4063TIP3    H112195   4.535   5.589   3.876
 4063TIP3    H212196   4.548   5.455   3.808
 4064TIP3   OH212197   4.660   0.516   1.846
 4064TIP3    H112198   4.688   0.448   1.908
 4064TIP3    H212199   4.613   0.580   1.900
 4065TIP3   OH212200   5.469   0.491   2.657
 4065TIP3    H112201   5.554   0.458   2.628
 4065TIP3    H212202   5.453   0.444   2.739
 4066TIP3   OH212203   4.410   3.134   1.687
 4066TIP3    H112204   4.390   3.174   1.603
 4066TIP3    H212205   4.433   3.043   1.666
 4067TIP3   OH212206   3.118   3.673   3.476
 4067TIP3    H112207   3.203   3.715   3.483
 4067TIP3    H212208   3.130   3.588   3.518
 4068TIP3   OH212209   1.461   2.066   0.887
 4068TIP3    H112210   1.418   2.146   0.856
 4068TIP3    H212211   1.445   2.064   0.981
 4069TIP3   OH212212   2.842   2.645   1.809
 4069TIP3    H112213   2.897   2.652   1.888
 4069TIP3    H212214   2.780   2.717   1.817
 4070TIP3   OH212215   5.544   5.031   1.116
 4070TIP3    H112216   5.549   4.945   1.074
 4070TIP3    H212217   5.495   5.085   1.055
 4071TIP3   OH212218   3.348   1.679   0.446
 4071TIP3    H112219   3.316   1.588   0.452
 4071TIP3    H212220   3.307   1.722   0.521
 4072TIP3   OH212221   2.049   4.414   2.793
 4072TIP3    H112222   2.120   4.362   2.831
 4072TIP3    H212223   2.080   4.438   2.706
 4073TIP3   OH212224   2.580   2.731   4.189
 4073TIP3    H112225   2.633   2.680   4.127
 4073TIP3    H212226   2.551   2.667   4.254
 4074TIP3   OH212227   1.313   2.664   1.692
 4074TIP3    H112228   1.307   2.685   1.599
 4074TIP3    H212229   1.385   2.717   1.724
 4075TIP3   OH212230   0.727   5.454   0.483
 4075TIP3    H112231   0.815   5.424   0.509
 4075TIP3    H212232   0.709   5.406   0.402
 4076TIP3   OH212233   5.972   1.993   3.429
 4076TIP3    H112234   6.052   2.041   3.451
 4076TIP3    H212235   5.910   2.017   3.498
 4077TIP3   OH212236   2.405   4.614   1.422
 4077TIP3    H112237   2.347   4.579   1.491
 4077TIP3    H212238   2.346   4.635   1.350
 4078TIP3   OH212239   1.567   1.685   1.593
 4078TIP3    H112240   1.636   1.750   1.580
 4078TIP3    H212241   1.563   1.672   1.688
 4079TIP3   OH212242   5.504   1.577   4.966
 4079TIP3    H112243   5.412   1.599   4.949
 4079TIP3    H212244   5.553   1.648   4.924
 4080TIP3   OH212245   2.166   1.601   1.448
 4080TIP3    H112246   2.143   1.687   1.484
 4080TIP3    H212247   2.188   1.619   1.356
 4081TIP3   OH212248   3.861   0.170   2.852
 4081TIP3    H112249   3.890   0.187   2.941
 4081TIP3    H212250   3.780   0.121   2.862
 4082TIP3   OH212251   3.638   3.027   4.483
 4082TIP3    H112252   3.667   2.959   4.544
 4082TIP3    H212253   3.589   3.089   4.536
 4083TIP3   OH212254  -0.003   3.078   2.085
 4083TIP3    H112255   0.024   3.166   2.060
 4083TIP3    H212256   0.078   3.031   2.103
 4084TIP3   OH212257   5.561   2.814   0.361
 4084TIP3    H112258   5.485   2.770   0.322
 4084TIP3    H212259   5.579   2.765   0.441
 4085TIP3   OH212260   0.958   2.963   0.908
 4085TIP3    H112261   0.885   3.006   0.863
 4085TIP3    H212262   1.016   3.035   0.933
 4086TIP3   OH212263   2.122   2.338   4.022
 4086TIP3    H112264   2.168   2.310   4.101
 4086TIP3    H212265   2.076   2.418   4.048
 4087TIP3   OH212266   4.948   1.503   4.704
 4087TIP3    H112267   4.976   1.567   4.770
 4087TIP3    H212268   4.973   1.418   4.741
 4088TIP3   OH212269   2.380   0.582   0.491
 4088TIP3    H112270   2.335   0.563   0.408
 4088TIP3    H212271   2.434   0.659   0.471
 4089TIP3   OH212272   4.803   0.093   0.380
 4089TIP3    H112273   4.752   0.061   0.454
 4089TIP3    H212274   4.794   0.189   0.384
 4090TIP3   OH212275   5.655   2.430   4.262
 4090TIP3    H112276   5.564   2.444   4.237
 4090TIP3    H212277   5.695   2.517   4.254
 4091TIP3   OH212278   4.123  -0.023   0.478
 4091TIP3    H112279   4.125  -0.012   0.383
 4091TIP3    H212280   4.078   0.055   0.510
 4092TIP3   OH212281   3.095   0.095   0.869
 4092TIP3    H112282   3.029   0.053   0.924
 4092TIP3    H212283   3.159   0.130   0.930
 4093TIP3   OH212284   3.280   5.631   1.533
 4093TIP3    H112285   3.220   5.566   1.570
 4093TIP3    H212286   3.357   5.628   1.589
 4094TIP3   OH212287   2.728   0.197   1.677
 4094TIP3    H112288   2.744   0.103   1.672
 4094TIP3    H212289   2.677   0.208   1.758
 4095TIP3   OH212290   4.917   0.847   4.744
 4095TIP3    H112291   4.842   0.789   4.751
 4095TIP3    H212292   4.977   0.801   4.684
 4096TIP3   OH212293   3.027   3.125   1.431
 4096TIP3    H112294   2.932   3.115   1.438
 4096TIP3    H212295   3.059   3.112   1.521
 4097TIP3   OH212296   5.676   1.165   0.747
 4097TIP3    H112297   5.684   1.185   0.841
 4097TIP3    H212298   5.725   1.084   0.736
 4098TIP3   OH212299   2.726   3.836   3.754
 4098TIP3    H112300   2.809   3.817   3.798
 4098TIP3    H212301   2.725   3.778   3.678
 4099TIP3   OH212302   2.290   0.988   3.292
 4099TIP3    H112303   2.320   0.901   3.320
 4099TIP3    H212304   2.369   1.042   3.294
 4100TIP3   OH212305   3.992   3.660   3.308
 4100TIP3    H112306   4.072   3.710   3.292
 4100TIP3    H212307   3.921   3.718   3.283
 4101TIP3   OH212308   5.756   1.448   2.078
 4101TIP3    H112309   5.691   1.452   2.007
 4101TIP3    H212310   5.717   1.498   2.149
 4102TIP3   OH212311   5.159   1.847   1.553
 4102TIP3    H112312   5.180   1.759   1.522
 4102TIP3    H212313   5.221   1.864   1.623
 4103TIP3   OH212314   1.582   5.379   5.064
 4103TIP3    H112315   1.643   5.306   5.054
 4103TIP3    H212316   1.501   5.347   5.025
 4104TIP3   OH212317   3.100   3.930   2.416
 4104TIP3    H112318   3.007   3.910   2.415
 4104TIP3    H212319   3.136   3.886   2.339
 4105TIP3   OH212320   1.988   4.119   0.300
 4105TIP3    H112321   2.077   4.089   0.316
 4105TIP3    H212322   1.994   4.168   0.218
 4106TIP3   OH212323   1.399   4.107   1.688
 4106TIP3    H112324   1.306   4.129   1.691
 4106TIP3    H212325   1.418   4.073   1.775
 4107TIP3   OH212326   2.135   0.766   1.734
 4107TIP3    H112327   2.172   0.749   1.647
 4107TIP3    H212328   2.045   0.794   1.716
 4108TIP3   OH212329   6.241   1.260   1.671
 4108TIP3    H112330   6.255   1.326   1.739
 4108TIP3    H212331   6.239   1.177   1.718
 4109TIP3   OH212332   1.751   2.264   2.180
 4109TIP3    H112333   1.708   2.179   2.191
 4109TIP3    H212334   1.727   2.293   2.093
 4110TIP3   OH212335   5.611   2.781   3.437
 4110TIP3    H112336   5.574   2.695   3.457
 4110TIP3    H212337   5.556   2.814   3.365
 4111TIP3   OH212338   1.019   3.530   2.876
 4111TIP3    H112339   1.052   3.463   2.936
 4111TIP3    H212340   0.991   3.482   2.798
 4112TIP3   OH212341   2.083   0.765   3.223
 4112TIP3    H112342   2.113   0.699   3.161
 4112TIP3    H212343   2.057   0.840   3.169
 4113TIP3   OH212344   1.936   1.785   4.452
 4113TIP3    H112345   1.972   1.697   4.451
 4113TIP3    H212346   2.010   1.842   4.433
 4114TIP3   OH212347   0.912   2.494   4.228
 4114TIP3    H112348   0.982   2.547   4.189
 4114TIP3    H212349   0.852   2.559   4.266
 4115TIP3   OH212350   3.230   2.408   2.736
 4115TIP3    H112351   3.261   2.322   2.711
 4115TIP3    H212352   3.174   2.393   2.812
 4116TIP3   OH212353   2.100   4.438   1.406
 4116TIP3    H112354   2.015   4.393   1.403
 4116TIP3    H212355   2.103   4.479   1.492
 4117TIP3   OH212356   0.088   5.188   1.413
 4117TIP3    H112357   0.092   5.235   1.329
 4117TIP3    H212358   0.120   5.101   1.392
 4118TIP3   OH212359   0.678   3.463   3.192
 4118TIP3    H112360   0.733   3.541   3.190
 4118TIP3    H212361   0.725   3.401   3.248
 4119TIP3   OH212362   2.323   5.757   0.307
 4119TIP3    H112363   2.334   5.765   0.401
 4119TIP3    H212364   2.412   5.760   0.271
 4120TIP3   OH212365   1.285   4.536   1.229
 4120TIP3    H112366   1.273   4.528   1.134
 4120TIP3    H212367   1.329   4.621   1.241
 4121TIP3   OH212368   3.683   2.774   3.876
 4121TIP3    H112369   3.639   2.842   3.927
 4121TIP3    H212370   3.679   2.806   3.785
 4122TIP3   OH212371   3.258   2.375   3.376
 4122TIP3    H112372   3.237   2.343   3.464
 4122TIP3    H212373   3.274   2.468   3.387
 4123TIP3   OH212374   1.186   1.705   3.997
 4123TIP3    H112375   1.161   1.767   4.066
 4123TIP3    H212376   1.261   1.745   3.954
 4124TIP3   OH212377   5.110   4.390   2.191
 4124TIP3    H112378   5.173   4.367   2.122
 4124TIP3    H212379   5.061   4.463   2.156
 4125TIP3   OH212380   5.345   3.480   0.821
 4125TIP3    H112381   5.433   3.515   0.810
 4125TIP3    H212382   5.340   3.407   0.759
 4126TIP3   OH212383   3.937   1.245   2.743
 4126TIP3    H112384   3.935   1.318   2.805
 4126TIP3    H212385   3.969   1.171   2.794
 4127TIP3   OH212386   5.095   5.723   0.978
 4127TIP3    H112387   5.058   5.808   0.954
 4127TIP3    H212388   5.064   5.663   0.910
 4128TIP3   OH212389   4.033   3.100   2.608
 4128TIP3    H112390   3.991   3.051   2.678
 4128TIP3    H212391   4.058   3.184   2.648
 4129TIP3   OH212392   4.019   4.757   2.594
 4129TIP3    H112393   4.031   4.850   2.572
 4129TIP3    H212394   4.083   4.741   2.663
 4130TIP3   OH212395   4.466   3.866   3.057
 4130TIP3    H112396   4.482   3.934   3.122
 4130TIP3    H212397   4.437   3.913   2.979
 4131TIP3   OH212398   3.978   1.254   1.415
 4131TIP3    H112399   4.023   1.173   1.391
 4131TIP3    H212400   3.938   1.234   1.500
 4132TIP3   OH212401   4.931   3.019   2.721
 4132TIP3    H112402   4.889   2.933   2.716
 4132TIP3    H212403   4.865   3.075   2.763
 4133TIP3   OH212404   3.306   4.649   1.603
 4133TIP3    H112405   3.401   4.637   1.604
 4133TIP3    H212406   3.289   4.695   1.521
 4134TIP3   OH212407   2.739   2.630   0.710
 4134TIP3    H112408   2.737   2.680   0.792
 4134TIP3    H212409   2.698   2.688   0.646
 4135TIP3   OH212410   5.695   1.662   4.754
 4135TIP3    H112411   5.772   1.606   4.751
 4135TIP3    H212412   5.712   1.724   4.825
 4136TIP3   OH212413   0.745   1.950   4.783
 4136TIP3    H112414   0.724   1.943   4.876
 4136TIP3    H212415   0.837   1.977   4.781
 4137TIP3   OH212416   1.755   0.591   3.814
 4137TIP3    H112417   1.738   0.521   3.751
 4137TIP3    H212418   1.780   0.666   3.760
 4138TIP3   OH212419   3.706   4.079   0.627
 4138TIP3    H112420   3.694   4.151   0.565
 4138TIP3    H212421   3.636   4.090   0.691
 4139TIP3   OH212422   4.505   3.106   3.699
 4139TIP3    H112423   4.503   3.198   3.726
 4139TIP3    H212424   4.481   3.107   3.606
 4140TIP3   OH212425   5.499   1.727   0.939
 4140TIP3    H112426   5.577   1.781   0.953
 4140TIP3    H212427   5.430   1.790   0.919
 4141TIP3   OH212428   2.680   5.512   2.989
 4141TIP3    H112429   2.764   5.552   2.967
 4141TIP3    H212430   2.615   5.567   2.945
 4142TIP3   OH212431   2.166   0.106   0.186
 4142TIP3    H112432   2.088   0.050   0.185
 4142TIP3    H212433   2.176   0.133   0.277
 4143TIP3   OH212434   4.645   2.686   4.055
 4143TIP3    H112435   4.682   2.761   4.101
 4143TIP3    H212436   4.581   2.724   3.995
 4144TIP3   OH212437   3.588   2.715   0.225
 4144TIP3    H112438   3.575   2.809   0.208
 4144TIP3    H212439   3.539   2.698   0.305
 4145TIP3   OH212440   2.247   3.605   4.192
 4145TIP3    H112441   2.189   3.529   4.200
 4145TIP3    H212442   2.197   3.677   4.232
 4146TIP3   OH212443   4.517   4.554   4.413
 4146TIP3    H112444   4.539   4.529   4.323
 4146TIP3    H212445   4.445   4.495   4.437
 4147TIP3   OH212446   2.023   4.088   3.937
 4147TIP3    H112447   2.070   4.150   3.992
 4147TIP3    H212448   2.060   4.003   3.959
 4148TIP3   OH212449   4.206   5.371   3.314
 4148TIP3    H112450   4.267   5.416   3.255
 4148TIP3    H212451   4.149   5.322   3.255
 4149TIP3   OH212452   4.639   1.653   4.836
 4149TIP3    H112453   4.707   1.668   4.902
 4149TIP3    H212454   4.585   1.583   4.873
 4150TIP3   OH212455   2.257   5.253   2.365
 4150TIP3    H112456   2.297   5.225   2.448
 4150TIP3    H212457   2.331   5.262   2.305
 4151TIP3   OH212458   4.323   0.820   0.496
 4151TIP3    H112459   4.320   0.843   0.589
 4151TIP3    H212460   4.266   0.883   0.454
 4152TIP3   OH212461   4.133   3.727   2.972
 4152TIP3    H112462   4.049   3.683   2.962
 4152TIP3    H212463   4.169   3.732   2.883
 4153TIP3   OH212464   0.442   5.553   1.055
 4153TIP3    H112465   0.461   5.468   1.095
 4153TIP3    H212466   0.471   5.618   1.119
 4154TIP3   OH212467   2.439   1.751   3.121
 4154TIP3    H112468   2.415   1.728   3.031
 4154TIP3    H212469   2.461   1.668   3.162
 4155TIP3   OH212470   0.634   5.088   3.937
 4155TIP3    H112471   0.725   5.065   3.956
 4155TIP3    H212472   0.618   5.167   3.988
 4156TIP3   OH212473   0.560   2.021   1.749
 4156TIP3    H112474   0.569   2.117   1.750
 4156TIP3    H212475   0.633   1.989   1.801
 4157TIP3   OH212476   0.958   0.090   3.048
 4157TIP3    H112477   1.026   0.023   3.061
 4157TIP3    H212478   0.983   0.160   3.108
 4158TIP3   OH212479   1.545   3.491   4.813
 4158TIP3    H112480   1.591   3.564   4.854
 4158TIP3    H212481   1.534   3.428   4.883
 4159TIP3   OH212482   3.452   0.258   1.708
 4159TIP3    H112483   3.526   0.248   1.768
 4159TIP3    H212484   3.462   0.347   1.673
 4160TIP3   OH212485   0.714   4.256   2.790
 4160TIP3    H112486   0.629   4.264   2.832
 4160TIP3    H212487   0.777   4.262   2.862
 4161TIP3   OH212488   6.203   5.349   1.243
 4161TIP3    H112489   6.146   5.298   1.300
 4161TIP3    H212490   6.145   5.411   1.200
 4162TIP3   OH212491   2.360   4.789   5.088
 4162TIP3    H112492   2.292   4.779   5.021
 4162TIP3    H212493   2.412   4.710   5.082
 4163TIP3   OH212494   0.958   3.584   2.203
 4163TIP3    H112495   0.907   3.566   2.283
 4163TIP3    H212496   0.993   3.499   2.178
 4164TIP3   OH212497   2.351   2.392   0.087
 4164TIP3    H112498   2.259   2.411   0.072
 4164TIP3    H212499   2.361   2.394   0.182
 4165TIP3   OH212500   5.476   4.359   1.248
 4165TIP3    H112501   5.390   4.397   1.269
 4165TIP3    H212502   5.496   4.394   1.161
 4166TIP3   OH212503   0.353   4.296   0.396
 4166TIP3    H112504   0.304   4.377   0.410
 4166TIP3    H212505   0.397   4.308   0.313
 4167TIP3   OH212506   2.188   0.013   4.274
 4167TIP3    H112507   2.229   0.079   4.330
 4167TIP3    H212508   2.193  -0.068   4.326
 4168TIP3   OH212509   1.875   3.332   4.386
 4168TIP3    H112510   1.893   3.287   4.468
 4168TIP3    H212511   1.792   3.377   4.400
 4169TIP3   OH212512   0.491   3.727   4.238
 4169TIP3    H112513   0.500   3.737   4.143
 4169TIP3    H212514   0.401   3.697   4.251
 4170TIP3   OH212515   6.033   1.734   4.304
 4170TIP3    H112516   6.036   1.816   4.254
 4170TIP3    H212517   5.989   1.757   4.386
 4171TIP3   OH212518   2.215   1.307   4.293
 4171TIP3    H112519   2.307   1.306   4.320
 4171TIP3    H212520   2.217   1.291   4.199
 4172TIP3   OH212521   1.054   1.014   4.040
 4172TIP3    H112522   1.056   1.052   3.952
 4172TIP3    H212523   0.962   1.018   4.066
 4173TIP3   OH212524   4.199   2.448   1.369
 4173TIP3    H112525   4.293   2.432   1.361
 4173TIP3    H212526   4.176   2.497   1.290
 4174TIP3   OH212527   2.285   3.487   2.396
 4174TIP3    H112528   2.377   3.488   2.371
 4174TIP3    H212529   2.250   3.570   2.363
 4175TIP3   OH212530   3.421   4.427   0.047
 4175TIP3    H112531   3.454   4.507   0.006
 4175TIP3    H212532   3.372   4.457   0.123
 4176TIP3   OH212533   4.105   4.137   0.365
 4176TIP3    H112534   4.059   4.221   0.364
 4176TIP3    H212535   4.156   4.136   0.285
 4177TIP3   OH212536   2.695   3.742   1.622
 4177TIP3    H112537   2.747   3.661   1.627
 4177TIP3    H212538   2.744   3.805   1.674
 4178TIP3   OH212539   1.621   0.563   0.183
 4178TIP3    H112540   1.647   0.543   0.093
 4178TIP3    H212541   1.526   0.548   0.185
 4179TIP3   OH212542   6.321   0.752   0.784
 4179TIP3    H112543   6.341   0.679   0.725
 4179TIP3    H212544   6.406   0.791   0.805
 4180TIP3   OH212545   3.098   0.660   4.847
 4180TIP3    H112546   3.186   0.626   4.835
 4180TIP3    H212547   3.101   0.748   4.809
 4181TIP3   OH212548   0.889   5.192   2.363
 4181TIP3    H112549   0.908   5.105   2.328
 4181TIP3    H212550   0.954   5.250   2.323
 4182TIP3   OH212551   1.829   4.595   4.057
 4182TIP3    H112552   1.798   4.604   3.967
 4182TIP3    H212553   1.924   4.606   4.051
 4183TIP3   OH212554   4.623   3.436   3.116
 4183TIP3    H112555   4.699   3.488   3.090
 4183TIP3    H212556   4.655   3.346   3.115
 4184TIP3   OH212557   2.538   3.519   1.857
 4184TIP3    H112558   2.446   3.543   1.866
 4184TIP3    H212559   2.585   3.592   1.898
 4185TIP3   OH212560   4.941   3.917   1.108
 4185TIP3    H112561   4.889   3.939   1.031
 4185TIP3    H212562   5.030   3.945   1.085
 4186TIP3   OH212563   1.352   1.615   0.671
 4186TIP3    H112564   1.379   1.706   0.683
 4186TIP3    H212565   1.434   1.566   0.668
 4187TIP3   OH212566   1.628   2.753   3.117
 4187TIP3    H112567   1.558   2.709   3.166
 4187TIP3    H212568   1.708   2.722   3.158
 4188TIP3   OH212569   3.679   1.409   0.546
 4188TIP3    H112570   3.642   1.363   0.471
 4188TIP3    H212571   3.672   1.502   0.523
 4189TIP3   OH212572   3.740   1.135   4.289
 4189TIP3    H112573   3.817   1.122   4.344
 4189TIP3    H212574   3.692   1.206   4.332
 4190TIP3   OH212575   0.693   0.528   2.131
 4190TIP3    H112576   0.650   0.486   2.056
 4190TIP3    H212577   0.752   0.592   2.091
 4191TIP3   OH212578   2.006   5.164   4.945
 4191TIP3    H112579   2.005   5.114   4.864
 4191TIP3    H212580   2.068   5.117   5.001
 4192TIP3   OH212581   2.620   4.451   4.423
 4192TIP3    H112582   2.625   4.543   4.397
 4192TIP3    H212583   2.585   4.454   4.513
 4193TIP3   OH212584   0.576   3.674   2.492
 4193TIP3    H112585   0.607   3.668   2.401
 4193TIP3    H212586   0.611   3.758   2.523
 4194TIP3   OH212587   5.122   3.345   1.481
 4194TIP3    H112588   5.161   3.335   1.567
 4194TIP3    H212589   5.111   3.439   1.469
 4195TIP3   OH212590   2.415   0.246   1.237
 4195TIP3    H112591   2.460   0.178   1.187
 4195TIP3    H212592   2.452   0.328   1.204
 4196TIP3   OH212593   2.936   0.372   3.893
 4196TIP3    H112594   2.968   0.451   3.851
 4196TIP3    H212595   2.917   0.398   3.983
 4197TIP3   OH212596   5.953   3.663   2.401
 4197TIP3    H112597   5.889   3.644   2.332
 4197TIP3    H212598   5.947   3.588   2.460
 4198TIP3   OH212599   4.088   0.851   4.321
 4198TIP3    H112600   4.050   0.801   4.392
 4198TIP3    H212601   4.054   0.810   4.241
 4199TIP3   OH212602   3.846   5.045   4.086
 4199TIP3    H112603   3.839   5.122   4.142
 4199TIP3    H212604   3.864   5.080   3.999
 4200TIP3   OH212605   0.094   0.519   0.685
 4200TIP3    H112606   0.183   0.522   0.722
 4200TIP3    H212607   0.105   0.478   0.600
 4201TIP3   OH212608   2.326   5.572   3.638
 4201TIP3    H112609   2.254   5.550   3.697
 4201TIP3    H212610   2.312   5.664   3.617
 4202TIP3   OH212611   3.799   4.654   3.065
 4202TIP3    H112612   3.841   4.702   3.136
 4202TIP3    H212613   3.801   4.714   2.990
 4203TIP3   OH212614   6.198   3.211   4.530
 4203TIP3    H112615   6.222   3.300   4.555
 4203TIP3    H212616   6.160   3.220   4.442
 4204TIP3   OH212617   4.582   0.508   0.739
 4204TIP3    H112618   4.607   0.567   0.809
 4204TIP3    H212619   4.662   0.459   0.718
 4205TIP3   OH212620   2.596   1.387   5.003
 4205TIP3    H112621   2.578   1.361   5.094
 4205TIP3    H212622   2.512   1.421   4.972
 4206TIP3   OH212623   4.529   0.962   4.889
 4206TIP3    H112624   4.589   0.999   4.824
 4206TIP3    H212625   4.465   1.031   4.905
 4207TIP3   OH212626   1.008   2.247   4.160
 4207TIP3    H112627   0.980   2.338   4.167
 4207TIP3    H212628   0.983   2.208   4.244
 4208TIP3   OH212629   1.181   4.359   4.715
 4208TIP3    H112630   1.183   4.399   4.801
 4208TIP3    H212631   1.265   4.313   4.708
 4209TIP3   OH212632   0.204   4.448   2.411
 4209TIP3    H112633   0.187   4.356   2.388
 4209TIP3    H212634   0.290   4.447   2.451
 4210TIP3   OH212635   2.912   5.464   4.966
 4210TIP3    H112636   2.934   5.394   4.903
 4210TIP3    H212637   2.862   5.527   4.915
 4211TIP3   OH212638   2.147   4.406   1.954
 4211TIP3    H112639   2.106   4.427   1.870
 4211TIP3    H212640   2.237   4.435   1.945
 4212TIP3   OH212641   1.045   0.739   2.880
 4212TIP3    H112642   1.041   0.700   2.793
 4212TIP3    H212643   1.084   0.825   2.866
 4213TIP3   OH212644   0.163   0.425   5.124
 4213TIP3    H112645   0.182   0.515   5.152
 4213TIP3    H212646   0.133   0.434   5.034
 4214TIP3   OH212647   6.269   1.593   2.807
 4214TIP3    H112648   6.185   1.632   2.784
 4214TIP3    H212649   6.281   1.613   2.900
 4215TIP3   OH212650   3.646   3.668   3.727
 4215TIP3    H112651   3.711   3.612   3.770
 4215TIP3    H212652   3.684   3.688   3.642
 4216TIP3   OH212653   3.624   3.267   2.021
 4216TIP3    H112654   3.552   3.283   1.960
 4216TIP3    H212655   3.638   3.173   2.018
 4217TIP3   OH212656   5.277   1.289   0.447
 4217TIP3    H112657   5.368   1.285   0.476
 4217TIP3    H212658   5.226   1.295   0.528
 4218TIP3   OH212659   1.013   2.658   3.046
 4218TIP3    H112660   1.091   2.646   2.992
 4218TIP3    H212661   0.973   2.738   3.012
 4219TIP3   OH212662   4.562   2.217   3.207
 4219TIP3    H112663   4.565   2.122   3.199
 4219TIP3    H212664   4.473   2.236   3.236
 4220TIP3   OH212665   5.947   0.379   5.046
 4220TIP3    H112666   5.961   0.439   4.973
 4220TIP3    H212667   5.881   0.317   5.013
 4221TIP3   OH212668   2.494   2.758   2.139
 4221TIP3    H112669   2.499   2.745   2.234
 4221TIP3    H212670   2.573   2.716   2.105
 4222TIP3   OH212671   6.081   1.236   3.630
 4222TIP3    H112672   6.102   1.160   3.683
 4222TIP3    H212673   6.155   1.295   3.642
 4223TIP3   OH212674   2.809   2.208   1.987
 4223TIP3    H112675   2.892   2.170   1.959
 4223TIP3    H212676   2.828   2.246   2.073
 4224TIP3   OH212677   5.729   5.806   1.059
 4224TIP3    H112678   5.741   5.731   1.117
 4224TIP3    H212679   5.655   5.854   1.097
 4225TIP3   OH212680   1.645   2.926   5.139
 4225TIP3    H112681   1.631   2.833   5.156
 4225TIP3    H212682   1.558   2.965   5.148
 4226TIP3   OH212683   1.584   2.911   1.180
 4226TIP3    H112684   1.635   2.899   1.259
 4226TIP3    H212685   1.646   2.897   1.108
 4227TIP3   OH212686   3.447   1.168   4.390
 4227TIP3    H112687   3.413   1.258   4.384
 4227TIP3    H212688   3.485   1.163   4.478
 4228TIP3   OH212689   1.220   5.214   0.961
 4228TIP3    H112690   1.276   5.145   0.926
 4228TIP3    H212691   1.168   5.243   0.886
 4229TIP3   OH212692   2.674   2.443   0.488
 4229TIP3    H112693   2.715   2.529   0.493
 4229TIP3    H212694   2.747   2.381   0.494
 4230TIP3   OH212695   6.357   5.252   1.655
 4230TIP3    H112696   6.391   5.179   1.706
 4230TIP3    H212697   6.380   5.231   1.565
 4231TIP3   OH212698   0.871   5.946   2.580
 4231TIP3    H112699   0.894   5.921   2.490
 4231TIP3    H212700   0.795   5.891   2.601
 4232TIP3   OH212701   5.406   2.976   3.312
 4232TIP3    H112702   5.494   3.013   3.303
 4232TIP3    H212703   5.347   3.046   3.283
 4233TIP3   OH212704   4.557   0.411   4.926
 4233TIP3    H112705   4.511   0.394   5.008
 4233TIP3    H212706   4.488   0.414   4.860
 4234TIP3   OH212707   1.834   2.160   1.598
 4234TIP3    H112708   1.801   2.228   1.539
 4234TIP3    H212709   1.920   2.137   1.563
 4235TIP3   OH212710   1.546   1.295   3.311
 4235TIP3    H112711   1.546   1.217   3.255
 4235TIP3    H212712   1.618   1.281   3.372
 4236TIP3   OH212713   1.408   1.287   4.549
 4236TIP3    H112714   1.469   1.254   4.615
 4236TIP3    H212715   1.327   1.238   4.565
 4237TIP3   OH212716   5.340   1.716   3.825
 4237TIP3    H112717   5.386   1.638   3.854
 4237TIP3    H212718   5.250   1.687   3.810
 4238TIP3   OH212719   2.602   2.482   3.423
 4238TIP3    H112720   2.621   2.394   3.389
 4238TIP3    H212721   2.548   2.466   3.500
 4239TIP3   OH212722   5.979   2.150   3.057
 4239TIP3    H112723   5.997   2.194   2.974
 4239TIP3    H212724   6.061   2.103   3.077
 4240TIP3   OH212725   1.807   0.356   1.330
 4240TIP3    H112726   1.792   0.441   1.370
 4240TIP3    H212727   1.724   0.333   1.290
 4241TIP3   OH212728   0.778   3.436   2.334
 4241TIP3    H112729   0.727   3.502   2.288
 4241TIP3    H212730   0.721   3.358   2.334
 4242TIP3   OH212731   5.940   0.997   1.110
 4242TIP3    H112732   5.860   0.969   1.065
 4242TIP3    H212733   5.909   1.048   1.185
 4243TIP3   OH212734   4.821   0.266   1.705
 4243TIP3    H112735   4.810   0.172   1.689
 4243TIP3    H212736   4.754   0.308   1.651
 4244TIP3   OH212737   3.590   5.449   2.781
 4244TIP3    H112738   3.620   5.412   2.864
 4244TIP3    H212739   3.594   5.543   2.794
 4245TIP3   OH212740   3.908   1.731   2.579
 4245TIP3    H112741   3.847   1.718   2.507
 4245TIP3    H212742   3.865   1.793   2.637
 4246TIP3   OH212743   0.795   4.222   4.878
 4246TIP3    H112744   0.758   4.140   4.908
 4246TIP3    H212745   0.732   4.289   4.906
 4247TIP3   OH212746   1.247   5.758   2.838
 4247TIP3    H112747   1.337   5.778   2.814
 4247TIP3    H212748   1.255   5.708   2.919
 4248TIP3   OH212749   6.293   5.755   0.745
 4248TIP3    H112750   6.249   5.703   0.812
 4248TIP3    H212751   6.350   5.814   0.794
 4249TIP3   OH212752   0.491   0.337   2.786
 4249TIP3    H112753   0.409   0.368   2.746
 4249TIP3    H212754   0.560   0.370   2.729
 4250TIP3   OH212755   6.125   5.999   1.730
 4250TIP3    H112756   6.171   6.005   1.647
 4250TIP3    H212757   6.033   6.015   1.708
 4251TIP3   OH212758   5.167   3.715   2.298
 4251TIP3    H112759   5.135   3.673   2.378
 4251TIP3    H212760   5.159   3.648   2.230
 4252TIP3   OH212761   4.376   2.060   1.428
 4252TIP3    H112762   4.420   1.976   1.418
 4252TIP3    H212763   4.436   2.112   1.482
 4253TIP3   OH212764   5.451   3.314   4.160
 4253TIP3    H112765   5.415   3.270   4.236
 4253TIP3    H212766   5.514   3.251   4.124
 4254TIP3   OH212767   1.725   4.151   4.626
 4254TIP3    H112768   1.773   4.174   4.706
 4254TIP3    H212769   1.739   4.057   4.616
 4255TIP3   OH212770   2.850   5.868   4.483
 4255TIP3    H112771   2.924   5.847   4.541
 4255TIP3    H212772   2.889   5.919   4.412
 4256TIP3   OH212773   0.061   0.439   0.424
 4256TIP3    H112774   0.103   0.378   0.364
 4256TIP3    H212775  -0.021   0.463   0.379
 4257TIP3   OH212776   2.958   2.216   4.592
 4257TIP3    H112777   2.874   2.209   4.547
 4257TIP3    H212778   2.978   2.127   4.620
 4258TIP3   OH212779   2.798   3.572   0.894
 4258TIP3    H112780   2.786   3.625   0.815
 4258TIP3    H212781   2.709   3.553   0.923
 4259TIP3   OH212782   2.551   1.136   3.211
 4259TIP3    H112783   2.603   1.169   3.284
 4259TIP3    H212784   2.615   1.098   3.151
 4260TIP3   OH212785   2.545   2.234   4.215
 4260TIP3    H112786   2.636   2.261   4.212
 4260TIP3    H212787   2.547   2.147   4.256
 4261TIP3   OH212788   0.938   4.278   4.176
 4261TIP3    H112789   0.974   4.341   4.113
 4261TIP3    H212790   0.987   4.295   4.257
 4262TIP3   OH212791   1.452   1.108   0.826
 4262TIP3    H112792   1.523   1.071   0.878
 4262TIP3    H212793   1.464   1.070   0.739
 4263TIP3   OH212794   3.256   4.004   4.290
 4263TIP3    H112795   3.184   4.016   4.352
 4263TIP3    H212796   3.255   4.084   4.237
 4264TIP3   OH212797   5.057   5.339   0.589
 4264TIP3    H112798   5.122   5.384   0.643
 4264TIP3    H212799   5.105   5.310   0.512
 4265TIP3   OH212800   4.811   5.187   3.862
 4265TIP3    H112801   4.888   5.192   3.805
 4265TIP3    H212802   4.815   5.267   3.914
 4266TIP3   OH212803   1.586   3.967   1.270
 4266TIP3    H112804   1.537   3.895   1.231
 4266TIP3    H212805   1.531   4.044   1.258
 4267TIP3   OH212806   4.054   4.591   1.538
 4267TIP3    H112807   3.990   4.583   1.468
 4267TIP3    H212808   4.138   4.600   1.493
 4268TIP3   OH212809   4.785   5.423   3.428
 4268TIP3    H112810   4.697   5.447   3.456
 4268TIP3    H212811   4.801   5.339   3.470
 4269TIP3   OH212812   3.065   1.099   4.847
 4269TIP3    H112813   3.079   1.009   4.820
 4269TIP3    H212814   3.102   1.151   4.776
 4270TIP3   OH212815  -0.001   2.327   2.905
 4270TIP3    H112816   0.044   2.292   2.829
 4270TIP3    H212817   0.070   2.354   2.964
 4271TIP3   OH212818   1.007   2.012   3.598
 4271TIP3    H112819   1.004   1.920   3.572
 4271TIP3    H212820   0.962   2.014   3.683
 4272TIP3   OH212821   3.869   4.426   0.662
 4272TIP3    H112822   3.919   4.452   0.739
 4272TIP3    H212823   3.829   4.507   0.631
 4273TIP3   OH212824   6.358   4.024   4.099
 4273TIP3    H112825   6.350   4.028   4.004
 4273TIP3    H212826   6.302   3.951   4.125
 4274TIP3   OH212827   6.184   4.057   1.699
 4274TIP3    H112828   6.267   4.060   1.652
 4274TIP3    H212829   6.125   4.113   1.647
 4275TIP3   OH212830   5.055   5.407   3.330
 4275TIP3    H112831   4.975   5.388   3.379
 4275TIP3    H212832   5.053   5.502   3.317
 4276TIP3   OH212833   1.140   5.196   4.732
 4276TIP3    H112834   1.150   5.274   4.787
 4276TIP3    H212835   1.046   5.180   4.731
 4277TIP3   OH212836   4.469   2.817   1.958
 4277TIP3    H112837   4.422   2.741   1.923
 4277TIP3    H212838   4.417   2.892   1.930
 4278TIP3   OH212839   0.632   5.457   1.938
 4278TIP3    H112840   0.652   5.388   2.001
 4278TIP3    H212841   0.558   5.424   1.888
 4279TIP3   OH212842   1.638   5.005   0.828
 4279TIP3    H112843   1.614   4.962   0.746
 4279TIP3    H212844   1.611   5.096   0.817
 4280TIP3   OH212845   5.833   0.948   0.721
 4280TIP3    H112846   5.911   0.914   0.765
 4280TIP3    H212847   5.835   0.908   0.635
 4281TIP3   OH212848   1.564   0.445   2.431
 4281TIP3    H112849   1.603   0.359   2.444
 4281TIP3    H212850   1.637   0.506   2.434
 4282TIP3   OH212851   1.993   3.976   2.171
 4282TIP3    H112852   2.055   4.019   2.111
 4282TIP3    H212853   2.015   4.011   2.257
 4283TIP3   OH212854   5.271   3.324   4.613
 4283TIP3    H112855   5.263   3.242   4.662
 4283TIP3    H212856   5.184   3.363   4.619
 4284TIP3   OH212857   0.503   5.108   2.320
 4284TIP3    H112858   0.561   5.035   2.296
 4284TIP3    H212859   0.475   5.087   2.409
 4285TIP3   OH212860   3.379   2.013   5.089
 4285TIP3    H112861   3.368   2.102   5.120
 4285TIP3    H212862   3.444   2.020   5.018
 4286TIP3   OH212863   6.018   0.007   1.925
 4286TIP3    H112864   6.033   0.100   1.942
 4286TIP3    H212865   5.949   0.006   1.858
 4287TIP3   OH212866   5.806   5.030   1.184
 4287TIP3    H112867   5.783   4.946   1.144
 4287TIP3    H212868   5.742   5.091   1.148
 4288TIP3   OH212869   1.788   2.645   4.374
 4288TIP3    H112870   1.794   2.738   4.355
 4288TIP3    H212871   1.864   2.607   4.330
 4289TIP3   OH212872   4.545   0.358   1.123
 4289TIP3    H112873   4.540   0.359   1.218
 4289TIP3    H212874   4.615   0.419   1.101
 4290TIP3   OH212875   3.612   1.271   2.469
 4290TIP3    H112876   3.659   1.187   2.466
 4290TIP3    H212877   3.535   1.257   2.415
 4291TIP3   OH212878   3.098   1.864   3.289
 4291TIP3    H112879   3.112   1.951   3.251
 4291TIP3    H212880   3.080   1.807   3.213
 4292TIP3   OH212881   5.670   1.484   1.808
 4292TIP3    H112882   5.703   1.574   1.815
 4292TIP3    H212883   5.699   1.454   1.722
 4293TIP3   OH212884   0.561   2.661   0.553
 4293TIP3    H112885   0.609   2.631   0.630
 4293TIP3    H212886   0.515   2.584   0.522
 4294TIP3   OH212887   2.504   3.430   3.687
 4294TIP3    H112888   2.414   3.450   3.661
 4294TIP3    H212889   2.535   3.510   3.728
 4295TIP3   OH212890   0.762   0.430   0.172
 4295TIP3    H112891   0.774   0.346   0.216
 4295TIP3    H212892   0.849   0.469   0.170
 4296TIP3   OH212893   3.245   5.318   0.444
 4296TIP3    H112894   3.266   5.410   0.429
 4296TIP3    H212895   3.325   5.281   0.481
 4297TIP3   OH212896   4.082   3.489   0.674
 4297TIP3    H112897   4.032   3.410   0.650
 4297TIP3    H212898   4.098   3.532   0.590
 4298TIP3   OH212899   4.742   1.784   4.174
 4298TIP3    H112900   4.762   1.853   4.111
 4298TIP3    H212901   4.647   1.789   4.185
 4299TIP3   OH212902  -0.003   4.340   2.701
 4299TIP3    H112903   0.036   4.421   2.670
 4299TIP3    H212904   0.050   4.271   2.661
 4300TIP3   OH212905   4.691   4.851   1.809
 4300TIP3    H112906   4.669   4.901   1.730
 4300TIP3    H212907   4.738   4.912   1.865
 4301TIP3   OH212908   5.625   3.445   2.291
 4301TIP3    H112909   5.656   3.516   2.234
 4301TIP3    H212910   5.534   3.468   2.311
 4302TIP3   OH212911   2.539   3.580   5.174
 4302TIP3    H112912   2.451   3.572   5.210
 4302TIP3    H212913   2.529   3.636   5.097
 4303TIP3   OH212914   5.035   0.488   2.184
 4303TIP3    H112915   5.054   0.395   2.176
 4303TIP3    H212916   4.985   0.495   2.266
 4304TIP3   OH212917   6.117   1.652   4.572
 4304TIP3    H112918   6.195   1.607   4.604
 4304TIP3    H212919   6.061   1.661   4.648
 4305TIP3   OH212920   4.996   3.958   2.647
 4305TIP3    H112921   5.066   3.960   2.581
 4305TIP3    H212922   5.041   3.930   2.727
 4306TIP3   OH212923   5.513   5.922   0.576
 4306TIP3    H112924   5.426   5.895   0.603
 4306TIP3    H212925   5.527   5.878   0.492
 4307TIP3   OH212926   3.473   5.736   2.220
 4307TIP3    H112927   3.519   5.792   2.158
 4307TIP3    H212928   3.434   5.797   2.283
 4308TIP3   OH212929   3.588   4.133   3.095
 4308TIP3    H112930   3.630   4.190   3.031
 4308TIP3    H212931   3.557   4.193   3.163
 4309TIP3   OH212932   3.395   5.329   0.082
 4309TIP3    H112933   3.404   5.234   0.077
 4309TIP3    H212934   3.369   5.355  -0.006
 4310TIP3   OH212935   3.294   1.004   1.168
 4310TIP3    H112936   3.354   1.078   1.164
 4310TIP3    H212937   3.236   1.024   1.242
 4311TIP3   OH212938   5.458   5.263   0.002
 4311TIP3    H112939   5.529   5.317   0.037
 4311TIP3    H212940   5.390   5.265   0.070
 4312TIP3   OH212941   3.843   2.116   4.999
 4312TIP3    H112942   3.775   2.182   5.008
 4312TIP3    H212943   3.920   2.155   5.041
 4313TIP3   OH212944   3.919   4.383   2.306
 4313TIP3    H112945   3.963   4.396   2.222
 4313TIP3    H212946   3.826   4.377   2.283
 4314TIP3   OH212947   2.942   5.426   4.633
 4314TIP3    H112948   2.960   5.350   4.578
 4314TIP3    H212949   2.851   5.415   4.661
 4315TIP3   OH212950   1.859   0.937   5.161
 4315TIP3    H112951   1.769   0.968   5.149
 4315TIP3    H212952   1.873   0.876   5.089
 4316TIP3   OH212953   0.165   5.064   1.113
 4316TIP3    H112954   0.172   5.021   1.198
 4316TIP3    H212955   0.091   5.021   1.070
 4317TIP3   OH212956   3.372   0.710   0.691
 4317TIP3    H112957   3.277   0.711   0.690
 4317TIP3    H212958   3.397   0.683   0.602
 4318TIP3   OH212959   3.181   0.997   5.229
 4318TIP3    H112960   3.087   0.982   5.217
 4318TIP3    H212961   3.223   0.941   5.164
 4319TIP3   OH212962   2.524   5.340   3.132
 4319TIP3    H112963   2.454   5.394   3.167
 4319TIP3    H212964   2.577   5.400   3.080
 4320TIP3   OH212965   3.510   1.414   3.772
 4320TIP3    H112966   3.470   1.491   3.813
 4320TIP3    H212967   3.576   1.450   3.713
 4321TIP3   OH212968   4.358   5.479   5.021
 4321TIP3    H112969   4.337   5.568   5.050
 4321TIP3    H212970   4.371   5.487   4.927
 4322TIP3   OH212971   0.443   5.261   1.944
 4322TIP3    H112972   0.403   5.311   1.873
 4322TIP3    H212973   0.385   5.275   2.019
 4323TIP3   OH212974   3.675   3.311   0.048
 4323TIP3    H112975   3.680   3.292  -0.045
 4323TIP3    H212976   3.601   3.258   0.079
 4324TIP3   OH212977   1.639   4.906   5.204
 4324TIP3    H112978   1.691   4.845   5.152
 4324TIP3    H212979   1.581   4.849   5.255
 4325TIP3   OH212980   0.035   0.161   1.268
 4325TIP3    H112981  -0.004   0.242   1.236
 4325TIP3    H212982  -0.013   0.092   1.222
 4326TIP3   OH212983   6.225   4.600   1.141
 4326TIP3    H112984   6.184   4.516   1.120
 4326TIP3    H212985   6.288   4.580   1.210
 4327TIP3   OH212986   3.969   3.266   0.540
 4327TIP3    H112987   4.020   3.259   0.459
 4327TIP3    H212988   3.880   3.285   0.511
 4328TIP3   OH212989   6.379   0.701   1.069
 4328TIP3    H112990   6.390   0.643   0.994
 4328TIP3    H212991   6.293   0.740   1.057
 4329TIP3   OH212992   2.640   5.586   0.992
 4329TIP3    H112993   2.715   5.555   1.042
 4329TIP3    H212994   2.589   5.507   0.973
 4330TIP3   OH212995   3.385   0.697   1.859
 4330TIP3    H112996   3.291   0.711   1.844
 4330TIP3    H212997   3.405   0.747   1.938
 4331TIP3   OH212998   0.915   0.398   0.841
 4331TIP3    H112999   0.990   0.431   0.891
 4331TIP3    H213000   0.857   0.360   0.907
 4332TIP3   OH213001   6.138   5.460   2.874
 4332TIP3    H113002   6.091   5.425   2.799
 4332TIP3    H213003   6.101   5.415   2.949
 4333TIP3   OH213004   1.160   5.660   0.742
 4333TIP3    H113005   1.201   5.587   0.787
 4333TIP3    H213006   1.142   5.724   0.811
 4334TIP3   OH213007   3.201   2.755   0.146
 4334TIP3    H113008   3.242   2.810   0.079
 4334TIP3    H213009   3.108   2.778   0.142
 4335TIP3   OH213010   1.306   0.458   1.894
 4335TIP3    H113011   1.315   0.426   1.984
 4335TIP3    H213012   1.353   0.541   1.894
 4336TIP3   OH213013   6.247   2.015   0.110
 4336TIP3    H113014   6.297   2.040   0.032
 4336TIP3    H213015   6.313   2.001   0.178
 4337TIP3   OH213016   5.984   3.379   2.540
 4337TIP3    H113017   6.068   3.346   2.572
 4337TIP3    H213018   5.934   3.398   2.619
 4338TIP3   OH213019   0.812   0.298   2.913
 4338TIP3    H113020   0.780   0.347   2.988
 4338TIP3    H213021   0.858   0.222   2.951
 4339TIP3   OH213022   2.336   0.130   2.909
 4339TIP3    H113023   2.340   0.044   2.952
 4339TIP3    H213024   2.353   0.112   2.817
 4340TIP3   OH213025   4.418   4.558   4.787
 4340TIP3    H113026   4.338   4.593   4.748
 4340TIP3    H213027   4.394   4.472   4.821
 4341TIP3   OH213028   5.818   5.710   1.651
 4341TIP3    H113029   5.764   5.777   1.691
 4341TIP3    H213030   5.818   5.731   1.558
 4342TIP3   OH213031   1.353   2.092   1.863
 4342TIP3    H113032   1.419   2.081   1.931
 4342TIP3    H213033   1.271   2.101   1.910
 4343TIP3   OH213034   5.810   4.024   4.737
 4343TIP3    H113035   5.744   4.002   4.671
 4343TIP3    H213036   5.759   4.038   4.817
 4344TIP3   OH213037   2.166   0.326   2.277
 4344TIP3    H113038   2.086   0.274   2.287
 4344TIP3    H213039   2.135   0.416   2.269
 4345TIP3   OH213040   5.273   2.689   3.372
 4345TIP3    H113041   5.273   2.784   3.383
 4345TIP3    H213042   5.296   2.676   3.279
 4346TIP3   OH213043   0.087   5.265   4.733
 4346TIP3    H113044   0.023   5.203   4.698
 4346TIP3    H213045   0.064   5.273   4.826
 4347TIP3   OH213046   4.085   0.283   5.023
 4347TIP3    H113047   4.135   0.329   5.091
 4347TIP3    H213048   4.153   0.247   4.965
 4348TIP3   OH213049   5.884   1.435   3.785
 4348TIP3    H113050   5.793   1.418   3.808
 4348TIP3    H213051   5.926   1.349   3.782
 4349TIP3   OH213052   4.474   2.277   4.340
 4349TIP3    H113053   4.490   2.203   4.282
 4349TIP3    H213054   4.454   2.350   4.282
 4350TIP3   OH213055   2.810   1.443   2.580
 4350TIP3    H113056   2.829   1.410   2.668
 4350TIP3    H213057   2.715   1.448   2.577
 4351TIP3   OH213058   0.182   3.861   0.587
 4351TIP3    H113059   0.259   3.809   0.564
 4351TIP3    H213060   0.207   3.951   0.565
 4352TIP3   OH213061   1.099   2.076   1.696
 4352TIP3    H113062   1.190   2.093   1.672
 4352TIP3    H213063   1.092   2.107   1.786
 4353TIP3   OH213064   4.314   2.265   2.662
 4353TIP3    H113065   4.280   2.188   2.616
 4353TIP3    H213066   4.390   2.232   2.710
 4354TIP3   OH213067   1.174   0.626   0.694
 4354TIP3    H113068   1.110   0.664   0.754
 4354TIP3    H213069   1.245   0.597   0.750
 4355TIP3   OH213070   5.918   2.392   4.010
 4355TIP3    H113071   5.904   2.300   4.033
 4355TIP3    H213072   5.832   2.433   4.020
 4356TIP3   OH213073   3.887   3.547   2.442
 4356TIP3    H113074   3.828   3.531   2.517
 4356TIP3    H213075   3.940   3.468   2.437
 4357TIP3   OH213076   5.794   5.268   2.139
 4357TIP3    H113077   5.722   5.295   2.196
 4357TIP3    H213078   5.769   5.181   2.109
 4358TIP3   OH213079   0.706   5.615   2.817
 4358TIP3    H113080   0.706   5.679   2.747
 4358TIP3    H213081   0.680   5.664   2.895
 4359TIP3   OH213082   3.492   2.581   5.165
 4359TIP3    H113083   3.508   2.510   5.227
 4359TIP3    H213084   3.430   2.544   5.102
 4360TIP3   OH213085   0.591   3.966   4.304
 4360TIP3    H113086   0.548   3.883   4.283
 4360TIP3    H213087   0.557   4.028   4.240
 4361TIP3   OH213088   0.768   4.012   1.566
 4361TIP3    H113089   0.796   3.931   1.522
 4361TIP3    H213090   0.808   4.006   1.653
 4362TIP3   OH213091   1.491   2.587   2.490
 4362TIP3    H113092   1.547   2.629   2.425
 4362TIP3    H213093   1.541   2.511   2.520
 4363TIP3   OH213094   3.604   0.993   0.494
 4363TIP3    H113095   3.527   1.030   0.452
 4363TIP3    H213096   3.579   0.904   0.519
 4364TIP3   OH213097   1.846   5.774   2.333
 4364TIP3    H113098   1.752   5.780   2.352
 4364TIP3    H213099   1.875   5.695   2.379
 4365TIP3   OH213100   0.491   3.101   4.472
 4365TIP3    H113101   0.541   3.025   4.501
 4365TIP3    H213102   0.458   3.076   4.385
 4366TIP3   OH213103   2.714   0.950   0.862
 4366TIP3    H113104   2.708   1.022   0.925
 4366TIP3    H213105   2.641   0.966   0.801
 4367TIP3   OH213106   4.247   3.452   2.538
 4367TIP3    H113107   4.312   3.517   2.567
 4367TIP3    H213108   4.202   3.427   2.618
 4368TIP3   OH213109   0.652   1.390   0.875
 4368TIP3    H113110   0.686   1.300   0.876
 4368TIP3    H213111   0.562   1.382   0.907
 4369TIP3   OH213112   2.695   0.634   0.551
 4369TIP3    H113113   2.696   0.600   0.461
 4369TIP3    H213114   2.714   0.727   0.541
 4370TIP3   OH213115   1.977   5.519   0.333
 4370TIP3    H113116   2.050   5.541   0.390
 4370TIP3    H213117   1.903   5.506   0.392
 4371TIP3   OH213118   4.540   4.907   0.225
 4371TIP3    H113119   4.569   4.822   0.258
 4371TIP3    H213120   4.446   4.909   0.242
 4372TIP3   OH213121   1.998   4.791   0.236
 4372TIP3    H113122   1.950   4.801   0.153
 4372TIP3    H213123   2.022   4.698   0.238
 4373TIP3   OH213124   0.757   0.694   4.278
 4373TIP3    H113125   0.745   0.692   4.373
 4373TIP3    H213126   0.689   0.636   4.244
 4374TIP3   OH213127   2.387   5.347   0.385
 4374TIP3    H113128   2.447   5.348   0.310
 4374TIP3    H213129   2.342   5.431   0.380
 4375TIP3   OH213130   5.108   4.683   3.745
 4375TIP3    H113131   5.143   4.612   3.691
 4375TIP3    H213132   5.018   4.694   3.715
 4376TIP3   OH213133   4.078   1.833   4.993
 4376TIP3    H113134   4.042   1.881   4.918
 4376TIP3    H213135   4.137   1.895   5.036
 4377TIP3   OH213136   1.084   3.596   3.502
 4377TIP3    H113137   1.034   3.616   3.423
 4377TIP3    H213138   1.093   3.500   3.501
 4378TIP3   OH213139   1.415   5.057   0.615
 4378TIP3    H113140   1.470   5.019   0.546
 4378TIP3    H213141   1.452   5.144   0.630
 4379TIP3   OH213142   4.550   4.138   1.871
 4379TIP3    H113143   4.603   4.207   1.910
 4379TIP3    H213144   4.607   4.061   1.870
 4380TIP3   OH213145   1.892   3.734   5.073
 4380TIP3    H113146   1.984   3.756   5.062
 4380TIP3    H213147   1.851   3.816   5.103
 4381TIP3   OH213148   0.479   1.519   3.417
 4381TIP3    H113149   0.435   1.575   3.353
 4381TIP3    H213150   0.524   1.580   3.476
 4382TIP3   OH213151   5.435   5.307   2.264
 4382TIP3    H113152   5.498   5.236   2.255
 4382TIP3    H213153   5.483   5.377   2.308
 4383TIP3   OH213154   5.640   5.403   0.192
 4383TIP3    H113155   5.730   5.409   0.224
 4383TIP3    H213156   5.605   5.326   0.235
 4384TIP3   OH213157   0.953   4.200   1.417
 4384TIP3    H113158   0.911   4.117   1.439
 4384TIP3    H213159   0.901   4.234   1.344
 4385TIP3   OH213160   3.808   1.290   0.256
 4385TIP3    H113161   3.757   1.361   0.217
 4385TIP3    H213162   3.884   1.280   0.200
 4386TIP3   OH213163   2.864   2.677   4.500
 4386TIP3    H113164   2.825   2.750   4.453
 4386TIP3    H213165   2.791   2.641   4.552
 4387TIP3   OH213166   6.068   5.059   1.729
 4387TIP3    H113167   6.088   5.152   1.736
 4387TIP3    H213168   6.038   5.035   1.817
 4388TIP3   OH213169   0.292   3.693   2.509
 4388TIP3    H113170   0.368   3.644   2.477
 4388TIP3    H213171   0.328   3.749   2.579
 4389TIP3   OH213172   3.024   0.421   1.011
 4389TIP3    H113173   2.948   0.408   1.068
 4389TIP3    H213174   3.020   0.347   0.949
 4390TIP3   OH213175   2.551   2.526   2.713
 4390TIP3    H113176   2.521   2.436   2.727
 4390TIP3    H213177   2.526   2.546   2.623
 4391TIP3   OH213178   3.305   5.035   4.858
 4391TIP3    H113179   3.254   4.955   4.875
 4391TIP3    H213180   3.277   5.096   4.926
 4392TIP3   OH213181   2.792   0.499   3.556
 4392TIP3    H113182   2.878   0.522   3.522
 4392TIP3    H213183   2.733   0.509   3.481
 4393TIP3   OH213184   5.811   5.075   4.627
 4393TIP3    H113185   5.810   4.980   4.628
 4393TIP3    H213186   5.855   5.098   4.545
 4394TIP3   OH213187   2.885   0.136   1.370
 4394TIP3    H113188   2.798   0.098   1.377
 4394TIP3    H213189   2.881   0.190   1.291
 4395TIP3   OH213190   2.712   3.645   1.245
 4395TIP3    H113191   2.673   3.558   1.257
 4395TIP3    H213192   2.643   3.706   1.273
 4396TIP3   OH213193   6.180   3.663   2.067
 4396TIP3    H113194   6.170   3.725   1.996
 4396TIP3    H213195   6.162   3.578   2.027
 4397TIP3   OH213196   4.524   1.495   2.246
 4397TIP3    H113197   4.560   1.409   2.224
 4397TIP3    H213198   4.430   1.486   2.233
 4398TIP3   OH213199   3.351   1.843   3.619
 4398TIP3    H113200   3.421   1.862   3.681
 4398TIP3    H213201   3.271   1.855   3.670
 4399TIP3   OH213202   2.951   3.001   1.071
 4399TIP3    H113203   2.915   2.962   1.150
 4399TIP3    H213204   2.874   3.018   1.016
 4400TIP3   OH213205   2.542   3.016   3.644
 4400TIP3    H113206   2.568   3.068   3.567
 4400TIP3    H213207   2.464   3.060   3.677
 4401TIP3   OH213208   5.813   1.528   3.207
 4401TIP3    H113209   5.859   1.444   3.207
 4401TIP3    H213210   5.849   1.575   3.282
 4402TIP3   OH213211   2.469   1.279   0.391
 4402TIP3    H113212   2.392   1.226   0.411
 4402TIP3    H213213   2.437   1.347   0.331
 4403TIP3   OH213214   3.178   3.774   0.713
 4403TIP3    H113215   3.214   3.857   0.681
 4403TIP3    H213216   3.100   3.759   0.659
 4404TIP3   OH213217   3.146   2.278   2.421
 4404TIP3    H113218   3.078   2.267   2.488
 4404TIP3    H213219   3.131   2.366   2.386
 4405TIP3   OH213220   2.967   2.978   3.104
 4405TIP3    H113221   2.933   2.897   3.067
 4405TIP3    H213222   2.913   2.995   3.181
 4406TIP3   OH213223   1.373   3.317   3.785
 4406TIP3    H113224   1.451   3.356   3.824
 4406TIP3    H213225   1.304   3.382   3.797
 4407TIP3   OH213226   3.379   5.964   1.800
 4407TIP3    H113227   3.350   5.963   1.709
 4407TIP3    H213228   3.299   5.981   1.850
 4408TIP3   OH213229   0.335   3.586   2.035
 4408TIP3    H113230   0.271   3.646   2.075
 4408TIP3    H213231   0.411   3.641   2.018
 4409TIP3   OH213232   3.073   0.398   1.739
 4409TIP3    H113233   3.082   0.487   1.772
 4409TIP3    H213234   3.030   0.407   1.654
 4410TIP3   OH213235   2.278   3.512   3.035
 4410TIP3    H113236   2.204   3.457   3.011
 4410TIP3    H213237   2.353   3.452   3.039
 4411TIP3   OH213238   0.983   4.806   1.455
 4411TIP3    H113239   1.062   4.775   1.499
 4411TIP3    H213240   0.953   4.730   1.404
 4412TIP3   OH213241   3.150   1.845   2.851
 4412TIP3    H113242   3.094   1.813   2.923
 4412TIP3    H213243   3.231   1.873   2.894
 4413TIP3   OH213244   1.073   2.854   3.493
 4413TIP3    H113245   1.133   2.826   3.562
 4413TIP3    H213246   1.059   2.947   3.509
 4414TIP3   OH213247   5.290   0.948   1.562
 4414TIP3    H113248   5.324   0.862   1.538
 4414TIP3    H213249   5.350   1.010   1.519
 4415TIP3   OH213250   2.024   2.627   3.790
 4415TIP3    H113251   1.971   2.573   3.733
 4415TIP3    H213252   1.988   2.614   3.877
 4416TIP3   OH213253   1.995   2.625   0.331
 4416TIP3    H113254   1.905   2.618   0.301
 4416TIP3    H213255   2.026   2.709   0.298
 4417TIP3   OH213256   4.588   2.594   2.927
 4417TIP3    H113257   4.632   2.643   2.858
 4417TIP3    H213258   4.496   2.595   2.903
 4418TIP3   OH213259   0.929   1.390   3.936
 4418TIP3    H113260   0.901   1.302   3.962
 4418TIP3    H213261   0.998   1.412   3.998
 4419TIP3   OH213262   3.753   3.179   1.026
 4419TIP3    H113263   3.805   3.260   1.026
 4419TIP3    H213264   3.756   3.149   1.117
 4420TIP3   OH213265   0.274   0.863   2.911
 4420TIP3    H113266   0.280   0.904   2.997
 4420TIP3    H213267   0.348   0.803   2.907
 4421TIP3   OH213268   0.905   5.596   0.184
 4421TIP3    H113269   0.997   5.572   0.198
 4421TIP3    H213270   0.889   5.668   0.244
 4422TIP3   OH213271   2.050   1.599   2.270
 4422TIP3    H113272   2.082   1.512   2.292
 4422TIP3    H213273   2.005   1.588   2.187
 4423TIP3   OH213274   0.219   2.715   3.115
 4423TIP3    H113275   0.129   2.734   3.143
 4423TIP3    H213276   0.264   2.800   3.120
 4424TIP3   OH213277   3.313   1.927   4.550
 4424TIP3    H113278   3.376   1.996   4.528
 4424TIP3    H213279   3.365   1.862   4.597
 4425TIP3   OH213280   4.283   4.234   2.335
 4425TIP3    H113281   4.196   4.240   2.375
 4425TIP3    H213282   4.266   4.234   2.240
 4426TIP3   OH213283   0.385   5.603   4.490
 4426TIP3    H113284   0.430   5.668   4.437
 4426TIP3    H213285   0.404   5.520   4.447
 4427TIP3   OH213286   1.855   4.319   3.191
 4427TIP3    H113287   1.770   4.360   3.204
 4427TIP3    H213288   1.846   4.271   3.108
 4428TIP3   OH213289   4.421   1.275   0.618
 4428TIP3    H113290   4.418   1.295   0.711
 4428TIP3    H213291   4.497   1.217   0.608
 4429TIP3   OH213292   4.457   4.910   0.793
 4429TIP3    H113293   4.483   4.954   0.712
 4429TIP3    H213294   4.502   4.959   0.862
 4430TIP3   OH213295   3.614   2.090   1.688
 4430TIP3    H113296   3.577   2.166   1.734
 4430TIP3    H213297   3.686   2.127   1.637
 4431TIP3   OH213298   3.370   2.617   0.432
 4431TIP3    H113299   3.311   2.584   0.364
 4431TIP3    H213300   3.312   2.649   0.501
 4432TIP3   OH213301   5.902   2.259   2.247
 4432TIP3    H113302   5.959   2.332   2.223
 4432TIP3    H213303   5.869   2.282   2.334
 4433TIP3   OH213304   2.826   3.380   4.409
 4433TIP3    H113305   2.810   3.440   4.482
 4433TIP3    H213306   2.862   3.436   4.340
 4434TIP3   OH213307   1.756   1.537   3.115
 4434TIP3    H113308   1.739   1.443   3.113
 4434TIP3    H213309   1.748   1.565   3.023
 4435TIP3   OH213310   2.653   0.947   1.354
 4435TIP3    H113311   2.721   0.971   1.292
 4435TIP3    H213312   2.700   0.922   1.434
 4436TIP3   OH213313   5.856   3.543   2.757
 4436TIP3    H113314   5.803   3.613   2.720
 4436TIP3    H213315   5.808   3.516   2.836
 4437TIP3   OH213316   1.635   3.407   3.552
 4437TIP3    H113317   1.654   3.425   3.644
 4437TIP3    H213318   1.571   3.474   3.528
 4438TIP3   OH213319   2.370   2.414   1.557
 4438TIP3    H113320   2.300   2.477   1.537
 4438TIP3    H213321   2.353   2.387   1.647
 4439TIP3   OH213322   3.148   0.189   4.554
 4439TIP3    H113323   3.171   0.281   4.569
 4439TIP3    H213324   3.133   0.183   4.460
 4440TIP3   OH213325   2.432   1.873   1.426
 4440TIP3    H113326   2.449   1.945   1.487
 4440TIP3    H213327   2.338   1.876   1.411
 4441TIP3   OH213328   4.298   4.245   3.905
 4441TIP3    H113329   4.331   4.335   3.902
 4441TIP3    H213330   4.260   4.237   3.992
 4442TIP3   OH213331   3.875   1.447   3.806
 4442TIP3    H113332   3.926   1.508   3.754
 4442TIP3    H213333   3.798   1.428   3.753
 4443TIP3   OH213334   3.650   3.999   2.565
 4443TIP3    H113335   3.694   4.074   2.605
 4443TIP3    H213336   3.697   3.984   2.484
 4444TIP3   OH213337   5.397   4.600   0.092
 4444TIP3    H113338   5.342   4.677   0.090
 4444TIP3    H213339   5.486   4.633   0.080
 4445TIP3   OH213340   5.646   3.944   3.453
 4445TIP3    H113341   5.593   3.985   3.521
 4445TIP3    H213342   5.592   3.947   3.374
 4446TIP3   OH213343   5.635   5.440   2.680
 4446TIP3    H113344   5.618   5.388   2.758
 4446TIP3    H213345   5.730   5.451   2.679
 4447TIP3   OH213346   4.771   2.369   1.631
 4447TIP3    H113347   4.770   2.273   1.623
 4447TIP3    H213348   4.684   2.391   1.664
 4448TIP3   OH213349   3.861   0.496   3.527
 4448TIP3    H113350   3.917   0.458   3.459
 4448TIP3    H213351   3.799   0.550   3.479
 4449TIP3   OH213352   4.197   0.229   2.837
 4449TIP3    H113353   4.144   0.308   2.841
 4449TIP3    H213354   4.140   0.164   2.795
 4450TIP3   OH213355   1.776   1.051   3.375
 4450TIP3    H113356   1.726   0.988   3.427
 4450TIP3    H213357   1.770   1.133   3.423
 4451TIP3   OH213358   0.448   3.854   4.787
 4451TIP3    H113359   0.393   3.930   4.771
 4451TIP3    H213360   0.405   3.783   4.740
 4452TIP3   OH213361   1.963   2.468   3.579
 4452TIP3    H113362   2.051   2.439   3.601
 4452TIP3    H213363   1.917   2.388   3.553
 4453TIP3   OH213364   6.188   0.440   0.284
 4453TIP3    H113365   6.122   0.413   0.221
 4453TIP3    H213366   6.227   0.519   0.247
 4454TIP3   OH213367   4.884   2.824   3.905
 4454TIP3    H113368   4.976   2.796   3.906
 4454TIP3    H213369   4.888   2.920   3.910
 4455TIP3   OH213370   5.056   5.234   2.454
 4455TIP3    H113371   4.966   5.228   2.421
 4455TIP3    H213372   5.102   5.287   2.390
 4456TIP3   OH213373   3.227   3.904   3.043
 4456TIP3    H113374   3.187   3.963   3.107
 4456TIP3    H213375   3.252   3.961   2.970
 4457TIP3   OH213376   6.032   3.356   4.803
 4457TIP3    H113377   6.101   3.298   4.836
 4457TIP3    H213378   5.988   3.305   4.736
 4458TIP3   OH213379   0.966   5.876   1.548
 4458TIP3    H113380   0.926   5.939   1.608
 4458TIP3    H213381   1.046   5.849   1.591
 4459TIP3   OH213382   4.626   0.996   2.405
 4459TIP3    H113383   4.543   1.026   2.442
 4459TIP3    H213384   4.650   0.921   2.460
 4460TIP3   OH213385   4.594   5.702   3.059
 4460TIP3    H113386   4.542   5.740   2.988
 4460TIP3    H213387   4.638   5.777   3.099
 4461TIP3   OH213388   4.610   3.704   1.739
 4461TIP3    H113389   4.560   3.770   1.691
 4461TIP3    H213390   4.563   3.622   1.724
 4462TIP3   OH213391   2.277   2.165   3.563
 4462TIP3    H113392   2.351   2.105   3.560
 4462TIP3    H213393   2.255   2.171   3.656
 4463TIP3   OH213394   6.029   5.885   2.385
 4463TIP3    H113395   6.075   5.969   2.388
 4463TIP3    H213396   6.061   5.842   2.305
 4464TIP3   OH213397   1.034   5.378   2.257
 4464TIP3    H113398   1.054   5.466   2.225
 4464TIP3    H213399   1.078   5.372   2.341
 4465TIP3   OH213400   0.532   4.087   2.544
 4465TIP3    H113401   0.504   4.036   2.468
 4465TIP3    H213402   0.616   4.047   2.570
 4466TIP3   OH213403   4.746   2.411   3.215
 4466TIP3    H113404   4.676   2.346   3.217
 4466TIP3    H213405   4.787   2.399   3.130
 4467TIP3   OH213406   1.473   2.509   4.864
 4467TIP3    H113407   1.556   2.492   4.818
 4467TIP3    H213408   1.496   2.508   4.957
 4468TIP3   OH213409   0.710   3.726   0.472
 4468TIP3    H113410   0.773   3.654   0.463
 4468TIP3    H213411   0.763   3.805   0.465
 4469TIP3   OH213412   3.484   4.766   0.724
 4469TIP3    H113413   3.554   4.737   0.782
 4469TIP3    H213414   3.529   4.785   0.641
 4470TIP3   OH213415   2.178   0.848   0.371
 4470TIP3    H113416   2.180   0.893   0.287
 4470TIP3    H213417   2.161   0.756   0.350
 4471TIP3   OH213418   2.233   4.201   3.349
 4471TIP3    H113419   2.227   4.133   3.281
 4471TIP3    H213420   2.305   4.173   3.405
 4472TIP3   OH213421   2.195   5.024   2.725
 4472TIP3    H113422   2.109   5.012   2.766
 4472TIP3    H213423   2.254   4.971   2.778
 4473TIP3   OH213424   2.405   4.022   2.677
 4473TIP3    H113425   2.366   4.054   2.596
 4473TIP3    H213426   2.473   3.961   2.649
 4474TIP3   OH213427   6.317   5.644   5.027
 4474TIP3    H113428   6.231   5.610   5.051
 4474TIP3    H213429   6.315   5.736   5.053
 4475TIP3   OH213430   0.665   3.357   0.861
 4475TIP3    H113431   0.669   3.302   0.782
 4475TIP3    H213432   0.588   3.412   0.847
 4476TIP3   OH213433   3.127   5.199   4.429
 4476TIP3    H113434   3.033   5.183   4.432
 4476TIP3    H213435   3.166   5.127   4.478
 4477TIP3   OH213436   5.806   1.239   2.464
 4477TIP3    H113437   5.832   1.330   2.474
 4477TIP3    H213438   5.880   1.189   2.500
 4478TIP3   OH213439   2.773   1.404   4.416
 4478TIP3    H113440   2.768   1.453   4.334
 4478TIP3    H213441   2.829   1.458   4.472
 4479TIP3   OH213442   3.103   0.086   0.317
 4479TIP3    H113443   3.079   0.120   0.403
 4479TIP3    H213444   3.020   0.064   0.275
 4480TIP3   OH213445   5.399   2.033   0.529
 4480TIP3    H113446   5.372   2.014   0.439
 4480TIP3    H213447   5.352   1.968   0.582
 4481TIP3   OH213448   1.636   3.766   4.910
 4481TIP3    H113449   1.593   3.793   4.992
 4481TIP3    H213450   1.727   3.752   4.935
 4482TIP3   OH213451   0.316   4.830   3.723
 4482TIP3    H113452   0.277   4.745   3.703
 4482TIP3    H213453   0.312   4.878   3.640
 4483TIP3   OH213454   4.723   5.114   4.853
 4483TIP3    H113455   4.732   5.105   4.948
 4483TIP3    H213456   4.647   5.171   4.841
 4484TIP3   OH213457   6.201   5.596   3.752
 4484TIP3    H113458   6.116   5.637   3.733
 4484TIP3    H213459   6.180   5.504   3.766
 4485TIP3   OH213460   3.837   2.055   2.266
 4485TIP3    H113461   3.819   2.063   2.172
 4485TIP3    H213462   3.751   2.050   2.307
 4486TIP3   OH213463   4.414   0.705   0.177
 4486TIP3    H113464   4.430   0.610   0.181
 4486TIP3    H213465   4.319   0.714   0.187
 4487TIP3   OH213466   5.465   0.126   3.350
 4487TIP3    H113467   5.375   0.160   3.351
 4487TIP3    H213468   5.457   0.038   3.313
 4488TIP3   OH213469   0.711   5.111   0.358
 4488TIP3    H113470   0.778   5.173   0.328
 4488TIP3    H213471   0.760   5.039   0.397
 4489TIP3   OH213472   2.288   1.122   2.338
 4489TIP3    H113473   2.293   1.043   2.392
 4489TIP3    H213474   2.300   1.091   2.248
 4490TIP3   OH213475   4.204   3.270   3.520
 4490TIP3    H113476   4.126   3.255   3.466
 4490TIP3    H213477   4.224   3.363   3.509
 4491TIP3   OH213478   5.153   3.857   4.914
 4491TIP3    H113479   5.222   3.899   4.863
 4491TIP3    H213480   5.159   3.897   5.001
 4492TIP3   OH213481   0.117   3.963   0.108
 4492TIP3    H113482   0.187   3.900   0.095
 4492TIP3    H213483   0.040   3.921   0.069
 4493TIP3   OH213484   2.277   5.732   1.159
 4493TIP3    H113485   2.322   5.808   1.122
 4493TIP3    H213486   2.347   5.674   1.187
 4494TIP3   OH213487   2.365  -0.022   0.762
 4494TIP3    H113488   2.377   0.067   0.728
 4494TIP3    H213489   2.436  -0.072   0.723
 4495TIP3   OH213490   5.904   3.889   3.112
 4495TIP3    H113491   5.826   3.907   3.058
 4495TIP3    H213492   5.895   3.950   3.186
 4496TIP3   OH213493   2.228   5.533   0.948
 4496TIP3    H113494   2.223   5.615   0.997
 4496TIP3    H213495   2.242   5.465   1.014
 4497TIP3   OH213496   1.476   5.706   1.317
 4497TIP3    H113497   1.410   5.656   1.270
 4497TIP3    H213498   1.451   5.798   1.303
 4498TIP3   OH213499   0.126   4.249   1.691
 4498TIP3    H113500   0.089   4.235   1.778
 4498TIP3    H213501   0.053   4.285   1.640
 4499TIP3   OH213502   3.450   3.730   3.479
 4499TIP3    H113503   3.478   3.768   3.562
 4499TIP3    H213504   3.506   3.771   3.413
 4500TIP3   OH213505   5.379   3.529   1.482
 4500TIP3    H113506   5.349   3.484   1.403
 4500TIP3    H213507   5.471   3.550   1.465
 4501TIP3   OH213508   3.245   4.186   4.104
 4501TIP3    H113509   3.239   4.261   4.045
 4501TIP3    H213510   3.226   4.110   4.048
 4502TIP3   OH213511   3.493   3.057   4.761
 4502TIP3    H113512   3.519   3.068   4.852
 4502TIP3    H213513   3.427   2.987   4.763
 4503TIP3   OH213514   2.825   4.800   4.881
 4503TIP3    H113515   2.801   4.814   4.789
 4503TIP3    H213516   2.812   4.706   4.895
 4504TIP3   OH213517   4.132   0.892   4.858
 4504TIP3    H113518   4.059   0.834   4.839
 4504TIP3    H213519   4.126   0.909   4.952
 4505TIP3   OH213520   1.037   3.731   1.756
 4505TIP3    H113521   1.049   3.636   1.751
 4505TIP3    H213522   1.124   3.767   1.746
 4506TIP3   OH213523   1.906   4.881   3.867
 4506TIP3    H113524   1.915   4.956   3.809
 4506TIP3    H213525   1.858   4.914   3.943
 4507TIP3   OH213526   5.512   2.195   2.623
 4507TIP3    H113527   5.561   2.125   2.667
 4507TIP3    H213528   5.464   2.239   2.693
 4508TIP3   OH213529   4.465   2.256   3.590
 4508TIP3    H113530   4.531   2.325   3.583
 4508TIP3    H213531   4.382   2.300   3.573
 4509TIP3   OH213532   4.469   3.864   1.110
 4509TIP3    H113533   4.400   3.883   1.047
 4509TIP3    H213534   4.483   3.769   1.103
 4510TIP3   OH213535   2.106   3.547   0.250
 4510TIP3    H113536   2.113   3.626   0.196
 4510TIP3    H213537   2.075   3.579   0.335
 4511TIP3   OH213538   3.315   0.597   2.537
 4511TIP3    H113539   3.312   0.689   2.564
 4511TIP3    H213540   3.223   0.569   2.538
 4512TIP3   OH213541   1.520   5.292   3.810
 4512TIP3    H113542   1.447   5.353   3.817
 4512TIP3    H213543   1.510   5.253   3.723
 4513TIP3   OH213544   1.925   3.459   4.864
 4513TIP3    H113545   2.019   3.452   4.848
 4513TIP3    H213546   1.893   3.521   4.799
 4514TIP3   OH213547   3.023   1.377   4.228
 4514TIP3    H113548   3.004   1.294   4.183
 4514TIP3    H213549   2.966   1.441   4.185
 4515TIP3   OH213550   3.398   5.134   3.943
 4515TIP3    H113551   3.346   5.161   3.868
 4515TIP3    H213552   3.476   5.094   3.906
 4516TIP3   OH213553   5.349   5.650   4.099
 4516TIP3    H113554   5.401   5.657   4.179
 4516TIP3    H213555   5.268   5.697   4.118
 4517TIP3   OH213556   2.331   1.439   0.638
 4517TIP3    H113557   2.340   1.446   0.543
 4517TIP3    H213558   2.341   1.529   0.670
 4518TIP3   OH213559   2.476   0.222   3.241
 4518TIP3    H113560   2.476   0.254   3.331
 4518TIP3    H213561   2.467   0.302   3.188
 4519TIP3   OH213562   2.955   5.872   1.990
 4519TIP3    H113563   2.904   5.866   2.071
 4519TIP3    H213564   3.010   5.949   2.003
 4520TIP3   OH213565   1.132   2.109   4.882
 4520TIP3    H113566   1.107   2.069   4.799
 4520TIP3    H213567   1.056   2.096   4.939
 4521TIP3   OH213568   2.608   3.930   4.507
 4521TIP3    H113569   2.637   4.020   4.495
 4521TIP3    H213570   2.674   3.877   4.463
 4522TIP3   OH213571   4.843   0.370   0.413
 4522TIP3    H113572   4.856   0.401   0.502
 4522TIP3    H213573   4.931   0.371   0.374
 4523TIP3   OH213574   4.613   3.383   2.593
 4523TIP3    H113575   4.602   3.472   2.626
 4523TIP3    H213576   4.669   3.393   2.516
 4524TIP3   OH213577  -0.016   1.211   2.561
 4524TIP3    H113578   0.057   1.165   2.519
 4524TIP3    H213579   0.018   1.235   2.647
 4525TIP3   OH213580   2.319   1.508   2.160
 4525TIP3    H113581   2.251   1.459   2.205
 4525TIP3    H213582   2.278   1.536   2.077
 4526TIP3   OH213583   0.557   2.887   3.827
 4526TIP3    H113584   0.614   2.963   3.841
 4526TIP3    H213585   0.588   2.848   3.745
 4527TIP3   OH213586   3.378   2.112   3.587
 4527TIP3    H113587   3.374   2.033   3.533
 4527TIP3    H213588   3.411   2.081   3.672
 4528TIP3   OH213589   5.469   4.300   5.157
 4528TIP3    H113590   5.466   4.249   5.076
 4528TIP3    H213591   5.550   4.272   5.199
 4529TIP3   OH213592   1.512   1.811   0.516
 4529TIP3    H113593   1.499   1.886   0.459
 4529TIP3    H213594   1.488   1.735   0.463
 4530TIP3   OH213595   0.166   5.086   0.530
 4530TIP3    H113596   0.163   5.085   0.625
 4530TIP3    H213597   0.218   5.164   0.508
 4531TIP3   OH213598   2.931   0.858   3.278
 4531TIP3    H113599   3.004   0.920   3.283
 4531TIP3    H213600   2.952   0.803   3.202
 4532TIP3   OH213601   3.154   4.096   1.099
 4532TIP3    H113602   3.177   4.113   1.008
 4532TIP3    H213603   3.060   4.076   1.097
 4533TIP3   OH213604   6.046   3.598   0.061
 4533TIP3    H113605   6.126   3.550   0.041
 4533TIP3    H213606   5.975   3.544   0.026
 4534TIP3   OH213607   3.378   2.853   4.427
 4534TIP3    H113608   3.395   2.828   4.518
 4534TIP3    H213609   3.462   2.840   4.383
 4535TIP3   OH213610   2.195   3.103   0.106
 4535TIP3    H113611   2.280   3.142   0.126
 4535TIP3    H213612   2.212   3.045   0.031
 4536TIP3   OH213613   2.909   4.058   3.978
 4536TIP3    H113614   2.863   4.100   3.905
 4536TIP3    H213615   3.002   4.062   3.953
 4537TIP3   OH213616   2.781   1.816   4.524
 4537TIP3    H113617   2.807   1.769   4.445
 4537TIP3    H213618   2.863   1.850   4.560
 4538TIP3   OH213619   1.711   3.514   1.709
 4538TIP3    H113620   1.770   3.460   1.657
 4538TIP3    H213621   1.625   3.502   1.668
 4539TIP3   OH213622   2.679   2.242   3.695
 4539TIP3    H113623   2.736   2.194   3.754
 4539TIP3    H213624   2.630   2.175   3.649
 4540TIP3   OH213625   2.522   3.797   0.047
 4540TIP3    H113626   2.520   3.892   0.049
 4540TIP3    H213627   2.441   3.770   0.090
 4541TIP3   OH213628   1.944   5.766   0.637
 4541TIP3    H113629   1.989   5.690   0.601
 4541TIP3    H213630   1.970   5.838   0.580
 4542TIP3   OH213631   1.163   1.229   5.092
 4542TIP3    H113632   1.202   1.275   5.166
 4542TIP3    H213633   1.071   1.256   5.093
 4543TIP3   OH213634   5.174   3.984   0.521
 4543TIP3    H113635   5.231   3.959   0.449
 4543TIP3    H213636   5.101   4.030   0.478
 4544TIP3   OH213637   0.829   1.085   4.379
 4544TIP3    H113638   0.801   1.176   4.390
 4544TIP3    H213639   0.749   1.036   4.364
 4545TIP3   OH213640   6.193   2.741   2.158
 4545TIP3    H113641   6.175   2.788   2.077
 4545TIP3    H213642   6.288   2.747   2.168
 4546TIP3   OH213643   0.895   4.593   0.172
 4546TIP3    H113644   0.953   4.580   0.246
 4546TIP3    H213645   0.815   4.630   0.209
 4547TIP3   OH213646   1.233   1.319   2.095
 4547TIP3    H113647   1.275   1.241   2.131
 4547TIP3    H213648   1.236   1.383   2.166
 4548TIP3   OH213649   1.983   2.184   4.880
 4548TIP3    H113650   2.071   2.174   4.844
 4548TIP3    H213651   1.932   2.220   4.808
 4549TIP3   OH213652   3.012   3.791   4.203
 4549TIP3    H113653   3.065   3.871   4.207
 4549TIP3    H213654   3.016   3.756   4.292
 4550TIP3   OH213655   2.963   2.144   2.588
 4550TIP3    H113656   2.946   2.161   2.681
 4550TIP3    H213657   2.876   2.137   2.549
 4551TIP3   OH213658   2.527   3.839   1.277
 4551TIP3    H113659   2.451   3.863   1.329
 4551TIP3    H213660   2.599   3.892   1.312
 4552TIP3   OH213661   5.613   2.385   5.175
 4552TIP3    H113662   5.621   2.450   5.106
 4552TIP3    H213663   5.688   2.400   5.232
 4553TIP3   OH213664   5.940   0.447   2.611
 4553TIP3    H113665   5.905   0.495   2.686
 4553TIP3    H213666   5.898   0.487   2.535
 4554TIP3   OH213667   4.566   3.769   0.720
 4554TIP3    H113668   4.555   3.762   0.625
 4554TIP3    H213669   4.589   3.681   0.749
 4555TIP3   OH213670   4.758   4.661   1.621
 4555TIP3    H113671   4.720   4.716   1.690
 4555TIP3    H213672   4.833   4.620   1.664
 4556TIP3   OH213673   1.493   4.181   0.359
 4556TIP3    H113674   1.449   4.116   0.305
 4556TIP3    H213675   1.483   4.263   0.310
 4557TIP3   OH213676   4.769   3.621   4.557
 4557TIP3    H113677   4.824   3.671   4.497
 4557TIP3    H213678   4.771   3.532   4.522
 4558TIP3   OH213679   2.512   5.404   0.128
 4558TIP3    H113680   2.512   5.361   0.043
 4558TIP3    H213681   2.462   5.484   0.115
 4559TIP3   OH213682   3.629   4.845   1.450
 4559TIP3    H113683   3.725   4.848   1.448
 4559TIP3    H213684   3.608   4.756   1.422
 4560TIP3   OH213685   4.995   3.352   4.003
 4560TIP3    H113686   5.089   3.343   4.011
 4560TIP3    H213687   4.974   3.434   4.049
 4561TIP3   OH213688   6.104   4.557   2.438
 4561TIP3    H113689   6.166   4.549   2.365
 4561TIP3    H213690   6.121   4.644   2.474
 4562TIP3   OH213691   2.625   2.797   1.865
 4562TIP3    H113692   2.576   2.715   1.860
 4562TIP3    H213693   2.561   2.865   1.847
 4563TIP3   OH213694   0.138   0.520   1.900
 4563TIP3    H113695   0.214   0.578   1.887
 4563TIP3    H213696   0.084   0.534   1.823
 4564TIP3   OH213697   1.164   1.950   0.073
 4564TIP3    H113698   1.078   1.923   0.108
 4564TIP3    H213699   1.227   1.900   0.125
 4565TIP3   OH213700   0.743   4.669   0.391
 4565TIP3    H113701   0.801   4.743   0.405
 4565TIP3    H213702   0.668   4.685   0.449
 4566TIP3   OH213703   5.742   5.503   1.806
 4566TIP3    H113704   5.766   5.411   1.815
 4566TIP3    H213705   5.766   5.525   1.716
 4567TIP3   OH213706   4.539   4.629   2.737
 4567TIP3    H113707   4.581   4.566   2.795
 4567TIP3    H213708   4.474   4.672   2.791
 4568TIP3   OH213709   4.058   4.210   2.506
 4568TIP3    H113710   4.025   4.120   2.509
 4568TIP3    H213711   4.003   4.253   2.440
 4569TIP3   OH213712   4.401   3.246   0.656
 4569TIP3    H113713   4.365   3.159   0.638
 4569TIP3    H213714   4.402   3.289   0.571
 4570TIP3   OH213715   2.486   4.321   4.924
 4570TIP3    H113716   2.492   4.341   5.017
 4570TIP3    H213717   2.432   4.242   4.920
 4571TIP3   OH213718   3.313   1.436   3.204
 4571TIP3    H113719   3.381   1.371   3.220
 4571TIP3    H213720   3.327   1.503   3.271
 4572TIP3   OH213721   5.103   1.138   2.641
 4572TIP3    H113722   5.056   1.152   2.559
 4572TIP3    H213723   5.161   1.214   2.649
 4573TIP3   OH213724   2.805   2.377   1.478
 4573TIP3    H113725   2.867   2.369   1.551
 4573TIP3    H213726   2.747   2.448   1.504
 4574TIP3   OH213727   4.073   1.797   1.225
 4574TIP3    H113728   4.168   1.796   1.238
 4574TIP3    H213729   4.043   1.712   1.259
 4575TIP3   OH213730   2.954   5.987   3.238
 4575TIP3    H113731   2.985   5.925   3.172
 4575TIP3    H213732   2.969   5.942   3.321
 4576TIP3   OH213733   5.013   4.039   2.995
 4576TIP3    H113734   5.070   3.968   2.963
 4576TIP3    H213735   4.928   4.020   2.956
 4577TIP3   OH213736   0.605   1.293   0.441
 4577TIP3    H113737   0.580   1.326   0.528
 4577TIP3    H213738   0.659   1.216   0.460
 4578TIP3   OH213739   3.809   0.601   3.922
 4578TIP3    H113740   3.754   0.658   3.868
 4578TIP3    H213741   3.875   0.568   3.861
 4579TIP3   OH213742   0.288   0.310   4.697
 4579TIP3    H113743   0.292   0.241   4.763
 4579TIP3    H213744   0.216   0.367   4.727
 4580TIP3   OH213745   4.288   3.750   4.340
 4580TIP3    H113746   4.376   3.748   4.377
 4580TIP3    H213747   4.299   3.718   4.250
 4581TIP3   OH213748   6.231   5.893   5.085
 4581TIP3    H113749   6.227   5.989   5.083
 4581TIP3    H213750   6.236   5.870   5.177
 4582TIP3   OH213751   2.833   2.790   3.498
 4582TIP3    H113752   2.819   2.696   3.504
 4582TIP3    H213753   2.749   2.826   3.471
 4583TIP3   OH213754   5.016   4.601   1.150
 4583TIP3    H113755   5.040   4.510   1.135
 4583TIP3    H213756   4.982   4.603   1.239
 4584TIP3   OH213757   4.324   3.050   0.076
 4584TIP3    H113758   4.334   3.145   0.081
 4584TIP3    H213759   4.243   3.032   0.124
 4585TIP3   OH213760   6.297   0.142   0.866
 4585TIP3    H113761   6.245   0.152   0.946
 4585TIP3    H213762   6.383   0.177   0.889
 4586TIP3   OH213763   3.660   2.146   3.476
 4586TIP3    H113764   3.577   2.170   3.436
 4586TIP3    H213765   3.702   2.229   3.499
 4587TIP3   OH213766   1.698   4.623   1.749
 4587TIP3    H113767   1.671   4.650   1.837
 4587TIP3    H213768   1.731   4.534   1.760
 4588TIP3   OH213769   1.271   3.749   1.470
 4588TIP3    H113770   1.249   3.837   1.438
 4588TIP3    H213771   1.291   3.762   1.563
 4589TIP3   OH213772   3.485   1.173   2.948
 4589TIP3    H113773   3.561   1.134   2.906
 4589TIP3    H213774   3.520   1.251   2.992
 4590TIP3   OH213775   4.297   4.520   2.075
 4590TIP3    H113776   4.391   4.515   2.056
 4590TIP3    H213777   4.286   4.605   2.117
 4591TIP3   OH213778   0.159   1.300   0.918
 4591TIP3    H113779   0.124   1.235   0.979
 4591TIP3    H213780   0.224   1.253   0.867
 4592TIP3   OH213781   2.837   4.237   2.445
 4592TIP3    H113782   2.766   4.180   2.473
 4592TIP3    H213783   2.812   4.324   2.476
 4593TIP3   OH213784   2.777   0.584   0.313
 4593TIP3    H113785   2.822   0.549   0.236
 4593TIP3    H213786   2.829   0.553   0.387
 4594TIP3   OH213787   4.328   5.620   4.506
 4594TIP3    H113788   4.379   5.569   4.443
 4594TIP3    H213789   4.249   5.645   4.459
 4595TIP3   OH213790   0.446   5.720   1.550
 4595TIP3    H113791   0.444   5.628   1.578
 4595TIP3    H213792   0.538   5.736   1.528
 4596TIP3   OH213793   5.157   2.931   2.059
 4596TIP3    H113794   5.221   2.862   2.044
 4596TIP3    H213795   5.149   2.975   1.974
 4597TIP3   OH213796   2.283   4.404   0.460
 4597TIP3    H113797   2.233   4.399   0.542
 4597TIP3    H213798   2.355   4.464   0.480
 4598TIP3   OH213799   2.098   3.957   0.860
 4598TIP3    H113800   2.028   3.892   0.870
 4598TIP3    H213801   2.163   3.913   0.806
 4599TIP3   OH213802   5.519   0.132   4.610
 4599TIP3    H113803   5.558   0.140   4.698
 4599TIP3    H213804   5.456   0.203   4.606
 4600TIP3   OH213805   3.501   2.202   2.177
 4600TIP3    H113806   3.445   2.125   2.168
 4600TIP3    H213807   3.506   2.217   2.271
 4601TIP3   OH213808   1.045   4.471   3.342
 4601TIP3    H113809   1.038   4.565   3.323
 4601TIP3    H213810   1.086   4.466   3.428
 4602TIP3   OH213811   5.815   3.511   4.174
 4602TIP3    H113812   5.903   3.521   4.138
 4602TIP3    H213813   5.820   3.554   4.260
 4603TIP3   OH213814   5.011   0.726   0.705
 4603TIP3    H113815   5.028   0.669   0.631
 4603TIP3    H213816   4.934   0.777   0.680
 4604TIP3   OH213817   4.862   1.064   0.019
 4604TIP3    H113818   4.850   0.975   0.053
 4604TIP3    H213819   4.870   1.053  -0.075
 4605TIP3   OH213820   4.365   1.850   2.386
 4605TIP3    H113821   4.458   1.861   2.404
 4605TIP3    H213822   4.336   1.782   2.447
 4606TIP3   OH213823   2.416   2.786   2.790
 4606TIP3    H113824   2.491   2.728   2.780
 4606TIP3    H213825   2.390   2.806   2.700
 4607TIP3   OH213826   2.430   4.397   3.948
 4607TIP3    H113827   2.381   4.439   3.878
 4607TIP3    H213828   2.451   4.468   4.009
 4608TIP3   OH213829   5.959   5.948   4.984
 4608TIP3    H113830   6.043   5.928   4.943
 4608TIP3    H213831   5.955   5.891   5.060
 4609TIP3   OH213832   2.011   2.955   4.228
 4609TIP3    H113833   2.014   2.867   4.190
 4609TIP3    H213834   2.048   3.012   4.161
 4610TIP3   OH213835   1.525   0.181   3.697
 4610TIP3    H113836   1.468   0.247   3.736
 4610TIP3    H213837   1.470   0.103   3.691
 4611TIP3   OH213838   3.238   3.564   0.231
 4611TIP3    H113839   3.295   3.517   0.291
 4611TIP3    H213840   3.268   3.538   0.144
 4612TIP3   OH213841   0.035   0.851   3.489
 4612TIP3    H113842   0.035   0.773   3.544
 4612TIP3    H213843   0.027   0.924   3.551
 4613TIP3   OH213844   4.958   4.540   4.111
 4613TIP3    H113845   4.890   4.572   4.052
 4613TIP3    H213846   5.040   4.550   4.062
 4614TIP3   OH213847   4.411   5.928   1.527
 4614TIP3    H113848   4.387   5.843   1.565
 4614TIP3    H213849   4.432   5.909   1.436
 4615TIP3   OH213850   2.329   4.855   2.951
 4615TIP3    H113851   2.368   4.783   3.001
 4615TIP3    H213852   2.362   4.934   2.994
 4616TIP3   OH213853   1.301   1.793   1.590
 4616TIP3    H113854   1.394   1.787   1.568
 4616TIP3    H213855   1.286   1.886   1.608
 4617TIP3   OH213856   4.429   5.470   1.870
 4617TIP3    H113857   4.457   5.465   1.779
 4617TIP3    H213858   4.500   5.515   1.915
 4618TIP3   OH213859   1.861   3.385   3.916
 4618TIP3    H113860   1.920   3.313   3.891
 4618TIP3    H213861   1.831   3.363   4.004
 4619TIP3   OH213862   3.438   2.985   3.029
 4619TIP3    H113863   3.381   3.017   3.100
 4619TIP3    H213864   3.488   3.062   3.003
 4620TIP3   OH213865   1.907   5.435   1.572
 4620TIP3    H113866   1.834   5.407   1.627
 4620TIP3    H213867   1.936   5.518   1.611
 4621TIP3   OH213868   4.453   2.294   4.936
 4621TIP3    H113869   4.470   2.250   4.853
 4621TIP3    H213870   4.533   2.344   4.953
 4622TIP3   OH213871   0.118   2.626   4.957
 4622TIP3    H113872   0.210   2.646   4.974
 4622TIP3    H213873   0.120   2.572   4.878
 4623TIP3   OH213874   2.855   3.405   1.667
 4623TIP3    H113875   2.861   3.359   1.750
 4623TIP3    H213876   2.945   3.407   1.634
 4624TIP3   OH213877   1.431   0.022   1.961
 4624TIP3    H113878   1.369   0.092   1.945
 4624TIP3    H213879   1.381  -0.046   2.007
 4625TIP3   OH213880   5.499   5.642   1.631
 4625TIP3    H113881   5.567   5.583   1.598
 4625TIP3    H213882   5.502   5.717   1.572
 4626TIP3   OH213883   1.934   4.751   3.488
 4626TIP3    H113884   1.919   4.840   3.519
 4626TIP3    H213885   1.954   4.760   3.394
 4627TIP3   OH213886   4.803   5.516   2.974
 4627TIP3    H113887   4.738   5.501   2.906
 4627TIP3    H213888   4.780   5.601   3.011
 4628TIP3   OH213889   1.835   5.622   0.130
 4628TIP3    H113890   1.906   5.636   0.067
 4628TIP3    H213891   1.879   5.602   0.212
 4629TIP3   OH213892   2.431   4.645   0.475
 4629TIP3    H113893   2.457   4.672   0.387
 4629TIP3    H213894   2.513   4.626   0.520
 4630TIP3   OH213895   1.552   2.630   5.127
 4630TIP3    H113896   1.496   2.660   5.199
 4630TIP3    H213897   1.595   2.552   5.161
 4631TIP3   OH213898   3.774   1.430   5.139
 4631TIP3    H113899   3.679   1.434   5.129
 4631TIP3    H213900   3.788   1.377   5.217
 4632TIP3   OH213901   4.168   3.513   0.948
 4632TIP3    H113902   4.179   3.510   0.853
 4632TIP3    H213903   4.076   3.489   0.962
 4633TIP3   OH213904   6.281   4.888   1.926
 4633TIP3    H113905   6.344   4.865   1.995
 4633TIP3    H213906   6.239   4.805   1.903
 4634TIP3   OH213907   4.632   0.949   4.579
 4634TIP3    H113908   4.577   1.019   4.543
 4634TIP3    H213909   4.685   0.992   4.646
 4635TIP3   OH213910   2.501   2.544   4.365
 4635TIP3    H113911   2.482   2.451   4.372
 4635TIP3    H213912   2.538   2.567   4.450
 4636TIP3   OH213913   5.104   3.405   0.075
 4636TIP3    H113914   5.037   3.337   0.083
 4636TIP3    H213915   5.185   3.357   0.057
 4637TIP3   OH213916   6.291   0.809   4.327
 4637TIP3    H113917   6.329   0.824   4.240
 4637TIP3    H213918   6.222   0.876   4.334
 4638TIP3   OH213919   1.178   5.447   3.576
 4638TIP3    H113920   1.165   5.538   3.549
 4638TIP3    H213921   1.143   5.395   3.504
 4639TIP3   OH213922   2.863   2.617   0.284
 4639TIP3    H113923   2.847   2.673   0.360
 4639TIP3    H213924   2.776   2.595   0.251
 4640TIP3   OH213925   1.711   4.374   1.832
 4640TIP3    H113926   1.699   4.313   1.759
 4640TIP3    H213927   1.624   4.382   1.871
 4641TIP3   OH213928   5.494   5.658   2.667
 4641TIP3    H113929   5.497   5.681   2.760
 4641TIP3    H213930   5.546   5.578   2.660
 4642TIP3   OH213931   6.282   5.067   3.419
 4642TIP3    H113932   6.187   5.061   3.421
 4642TIP3    H213933   6.312   4.999   3.481
 4643TIP3   OH213934   1.023   1.741   3.270
 4643TIP3    H113935   0.958   1.716   3.335
 4643TIP3    H213936   1.095   1.777   3.321
 4644TIP3   OH213937   2.702   3.525   4.014
 4644TIP3    H113938   2.729   3.451   3.960
 4644TIP3    H213939   2.607   3.531   4.000
 4645TIP3   OH213940   3.570   4.989   3.065
 4645TIP3    H113941   3.518   5.037   3.129
 4645TIP3    H213942   3.517   4.913   3.043
 4646TIP3   OH213943   3.888   4.722   4.483
 4646TIP3    H113944   3.832   4.731   4.560
 4646TIP3    H213945   3.971   4.762   4.509
 4647TIP3   OH213946   5.275   5.052   0.185
 4647TIP3    H113947   5.229   5.040   0.101
 4647TIP3    H213948   5.259   4.971   0.233
 4648TIP3   OH213949   0.889   5.093   4.314
 4648TIP3    H113950   0.930   5.087   4.228
 4648TIP3    H213951   0.795   5.092   4.297
 4649TIP3   OH213952   0.708   0.801   1.234
 4649TIP3    H113953   0.788   0.783   1.185
 4649TIP3    H213954   0.725   0.765   1.321
 4650TIP3   OH213955   4.354   3.485   3.030
 4650TIP3    H113956   4.433   3.465   3.079
 4650TIP3    H213957   4.282   3.449   3.083
 4651TIP3   OH213958   2.998   5.693   4.665
 4651TIP3    H113959   2.998   5.598   4.665
 4651TIP3    H213960   2.941   5.717   4.738
 4652TIP3   OH213961   5.906   0.781   2.164
 4652TIP3    H113962   5.831   0.838   2.143
 4652TIP3    H213963   5.974   0.808   2.102
 4653TIP3   OH213964   6.328   4.954   5.079
 4653TIP3    H113965   6.240   4.919   5.067
 4653TIP3    H213966   6.363   4.963   4.990
 4654TIP3   OH213967   4.614   4.226   2.905
 4654TIP3    H113968   4.631   4.315   2.938
 4654TIP3    H213969   4.547   4.238   2.839
 4655TIP3   OH213970   3.861   5.349   2.595
 4655TIP3    H113971   3.807   5.309   2.528
 4655TIP3    H213972   3.899   5.426   2.553
 4656TIP3   OH213973   2.574   1.702   2.118
 4656TIP3    H113974   2.577   1.664   2.030
 4656TIP3    H213975   2.612   1.636   2.175
 4657TIP3   OH213976   5.062   3.697   1.466
 4657TIP3    H113977   5.132   3.746   1.510
 4657TIP3    H213978   5.066   3.727   1.375
 4658TIP3   OH213979   5.369   2.237   4.696
 4658TIP3    H113980   5.409   2.277   4.773
 4658TIP3    H213981   5.418   2.273   4.622
 4659TIP3   OH213982   2.455   2.948   1.182
 4659TIP3    H113983   2.374   2.999   1.189
 4659TIP3    H213984   2.426   2.857   1.176
 4660TIP3   OH213985   4.330   0.864   0.758
 4660TIP3    H113986   4.329   0.952   0.795
 4660TIP3    H213987   4.261   0.817   0.806
 4661TIP3   OH213988   0.318   2.399   1.750
 4661TIP3    H113989   0.350   2.311   1.770
 4661TIP3    H213990   0.386   2.437   1.695
 4662TIP3   OH213991   0.832   2.391   1.610
 4662TIP3    H113992   0.791   2.430   1.533
 4662TIP3    H213993   0.918   2.364   1.581
 4663TIP3   OH213994   5.692   3.789   5.137
 4663TIP3    H113995   5.716   3.719   5.198
 4663TIP3    H213996   5.631   3.747   5.075
 4664TIP3   OH213997   1.797   0.200   3.646
 4664TIP3    H113998   1.703   0.196   3.630
 4664TIP3    H213999   1.808   0.164   3.734
 4665TIP3   OH214000   4.339   1.265   1.140
 4665TIP3    H114001   4.330   1.270   1.235
 4665TIP3    H214002   4.328   1.172   1.120
 4666TIP3   OH214003   4.819   5.692   4.078
 4666TIP3    H114004   4.877   5.635   4.028
 4666TIP3    H214005   4.737   5.644   4.085
 4667TIP3   OH214006   4.701   5.766   3.415
 4667TIP3    H114007   4.717   5.734   3.504
 4667TIP3    H214008   4.688   5.687   3.363
 4668TIP3   OH214009   4.997   4.972   0.691
 4668TIP3    H114010   4.913   5.000   0.728
 4668TIP3    H214011   5.006   4.880   0.717
 4669TIP3   OH214012   3.624   1.797   3.968
 4669TIP3    H114013   3.686   1.857   3.925
 4669TIP3    H214014   3.604   1.839   4.052
 4670TIP3   OH214015   1.239   0.507   3.497
 4670TIP3    H114016   1.162   0.557   3.524
 4670TIP3    H214017   1.261   0.541   3.411
 4671TIP3   OH214018   5.447   4.626   0.714
 4671TIP3    H114019   5.463   4.532   0.710
 4671TIP3    H214020   5.366   4.639   0.664
 4672TIP3   OH214021   0.896   2.560   0.939
 4672TIP3    H114022   0.868   2.542   1.029
 4672TIP3    H214023   0.951   2.485   0.916
 4673TIP3   OH214024   1.538   1.174   3.594
 4673TIP3    H114025   1.531   1.081   3.617
 4673TIP3    H214026   1.573   1.215   3.673
 4674TIP3   OH214027   4.328   0.295   1.497
 4674TIP3    H114028   4.346   0.207   1.464
 4674TIP3    H214029   4.233   0.297   1.511
 4675TIP3   OH214030   3.966   2.877   2.748
 4675TIP3    H114031   3.923   2.824   2.815
 4675TIP3    H214032   3.929   2.845   2.665
 4676TIP3   OH214033   2.782   3.326   2.919
 4676TIP3    H114034   2.750   3.238   2.937
 4676TIP3    H214035   2.867   3.330   2.962
 4677TIP3   OH214036   2.448   5.544   4.620
 4677TIP3    H114037   2.392   5.616   4.592
 4677TIP3    H214038   2.535   5.582   4.629
 4678TIP3   OH214039   1.696   2.973   3.318
 4678TIP3    H114040   1.776   2.921   3.323
 4678TIP3    H214041   1.646   2.933   3.247
 4679TIP3   OH214042   2.397   3.905   4.215
 4679TIP3    H114043   2.449   3.834   4.177
 4679TIP3    H214044   2.439   3.985   4.183
 4680TIP3   OH214045   1.755   1.821   0.621
 4680TIP3    H114046   1.669   1.798   0.584
 4680TIP3    H214047   1.797   1.736   0.636
 4681TIP3   OH214048   5.051   5.587   4.512
 4681TIP3    H114049   5.091   5.570   4.597
 4681TIP3    H214050   5.034   5.681   4.511
 4682TIP3   OH214051   1.919   1.886   1.934
 4682TIP3    H114052   1.939   1.797   1.963
 4682TIP3    H214053   1.989   1.907   1.872
 4683TIP3   OH214054   4.965   5.514   4.932
 4683TIP3    H114055   5.033   5.554   4.879
 4683TIP3    H214056   4.991   5.422   4.940
 4684TIP3   OH214057   4.578   0.084   3.636
 4684TIP3    H114058   4.569   0.179   3.641
 4684TIP3    H214059   4.617   0.068   3.550
 4685TIP3   OH214060   2.494   3.685   0.625
 4685TIP3    H114061   2.496   3.695   0.530
 4685TIP3    H214062   2.555   3.752   0.657
 4686TIP3   OH214063   6.214   2.960   4.190
 4686TIP3    H114064   6.306   2.940   4.175
 4686TIP3    H214065   6.205   2.961   4.286
 4687TIP3   OH214066   6.177   3.855   4.427
 4687TIP3    H114067   6.137   3.793   4.488
 4687TIP3    H214068   6.270   3.853   4.449
 4688TIP3   OH214069   0.971   4.390   0.751
 4688TIP3    H114070   1.066   4.395   0.763
 4688TIP3    H214071   0.960   4.344   0.667
 4689TIP3   OH214072   2.003   0.662   1.479
 4689TIP3    H114073   1.966   0.621   1.400
 4689TIP3    H214074   2.007   0.755   1.457
 4690TIP3   OH214075   3.636   0.314   0.096
 4690TIP3    H114076   3.568   0.249   0.077
 4690TIP3    H214077   3.636   0.321   0.192
 4691TIP3   OH214078   5.612   0.562   4.664
 4691TIP3    H114079   5.517   0.556   4.660
 4691TIP3    H214080   5.643   0.485   4.616
 4692TIP3   OH214081   0.438   1.771   1.821
 4692TIP3    H114082   0.452   1.865   1.831
 4692TIP3    H214083   0.454   1.754   1.728
 4693TIP3   OH214084   1.373   1.066   2.977
 4693TIP3    H114085   1.299   1.059   2.916
 4693TIP3    H214086   1.405   1.155   2.965
 4694TIP3   OH214087   5.260   4.113   1.947
 4694TIP3    H114088   5.261   4.029   1.900
 4694TIP3    H214089   5.328   4.104   2.013
 4695TIP3   OH214090   1.153   2.194   3.169
 4695TIP3    H114091   1.165   2.113   3.218
 4695TIP3    H214092   1.224   2.194   3.105
 4696TIP3   OH214093   5.183   1.910   2.129
 4696TIP3    H114094   5.256   1.910   2.067
 4696TIP3    H214095   5.106   1.929   2.076
 4697TIP3   OH214096   4.334   3.396   0.398
 4697TIP3    H114097   4.270   3.461   0.426
 4697TIP3    H214098   4.286   3.338   0.338
 4698TIP3   OH214099   1.809   4.402   0.411
 4698TIP3    H114100   1.741   4.402   0.344
 4698TIP3    H214101   1.870   4.334   0.384
 4699TIP3   OH214102   1.471   5.112   2.927
 4699TIP3    H114103   1.540   5.152   2.875
 4699TIP3    H214104   1.468   5.164   3.007
 4700TIP3   OH214105   4.592   5.648   4.715
 4700TIP3    H114106   4.593   5.687   4.628
 4700TIP3    H214107   4.652   5.574   4.709
 4701TIP3   OH214108   5.854   0.766   1.336
 4701TIP3    H114109   5.938   0.791   1.374
 4701TIP3    H214110   5.846   0.818   1.256
 4702TIP3   OH214111   2.112   1.219   2.675
 4702TIP3    H114112   2.127   1.180   2.589
 4702TIP3    H214113   2.017   1.211   2.688
 4703TIP3   OH214114   5.847   1.143   1.305
 4703TIP3    H114115   5.783   1.150   1.376
 4703TIP3    H214116   5.932   1.139   1.349
 4704TIP3   OH214117   5.984   1.154   5.176
 4704TIP3    H114118   5.922   1.086   5.202
 4704TIP3    H214119   5.943   1.197   5.101
 4705TIP3   OH214120   5.598   0.717   2.547
 4705TIP3    H114121   5.552   0.668   2.615
 4705TIP3    H214122   5.611   0.653   2.476
 4706TIP3   OH214123   0.137   4.913   4.209
 4706TIP3    H114124   0.197   4.957   4.149
 4706TIP3    H214125   0.093   4.848   4.155
 4707TIP3   OH214126   4.588   5.703   0.208
 4707TIP3    H114127   4.642   5.701   0.129
 4707TIP3    H214128   4.652   5.695   0.280
 4708TIP3   OH214129   4.789   2.194   3.409
 4708TIP3    H114130   4.825   2.145   3.335
 4708TIP3    H214131   4.768   2.280   3.374
 4709TIP3   OH214132   5.517   6.040   1.641
 4709TIP3    H114133   5.496   5.994   1.560
 4709TIP3    H214134   5.477   5.987   1.710
 4710TIP3   OH214135   2.646   1.981   4.292
 4710TIP3    H114136   2.640   1.955   4.200
 4710TIP3    H214137   2.666   1.900   4.338
 4711TIP3   OH214138   5.209   2.368   1.279
 4711TIP3    H114139   5.218   2.282   1.238
 4711TIP3    H214140   5.229   2.353   1.371
 4712TIP3   OH214141   4.647   4.282   4.304
 4712TIP3    H114142   4.578   4.336   4.265
 4712TIP3    H214143   4.706   4.345   4.345
 4713TIP3   OH214144   2.348   3.431   0.274
 4713TIP3    H114145   2.268   3.478   0.252
 4713TIP3    H214146   2.320   3.361   0.333
 4714TIP3   OH214147   0.156   2.232   2.713
 4714TIP3    H114148   0.212   2.281   2.653
 4714TIP3    H214149   0.190   2.143   2.709
 4715TIP3   OH214150   5.970   4.695   4.695
 4715TIP3    H114151   5.907   4.725   4.760
 4715TIP3    H214152   6.055   4.720   4.731
 4716TIP3   OH214153   5.890   5.193   2.544
 4716TIP3    H114154   5.825   5.133   2.506
 4716TIP3    H214155   5.968   5.181   2.490
 4717TIP3   OH214156   0.758   2.259   3.565
 4717TIP3    H114157   0.839   2.247   3.516
 4717TIP3    H214158   0.693   2.207   3.517
 4718TIP3   OH214159   0.737   1.374   3.338
 4718TIP3    H114160   0.773   1.413   3.259
 4718TIP3    H214161   0.809   1.378   3.402
 4719TIP3   OH214162   4.540   0.871  -0.016
 4719TIP3    H114163   4.628   0.903   0.005
 4719TIP3    H214164   4.513   0.821   0.061
 4720TIP3   OH214165   3.479   5.229   4.443
 4720TIP3    H114166   3.449   5.142   4.469
 4720TIP3    H214167   3.476   5.280   4.524
 4721TIP3   OH214168   5.671   0.460   3.081
 4721TIP3    H114169   5.670   0.526   3.150
 4721TIP3    H214170   5.673   0.377   3.128
 4722TIP3   OH214171   3.735   5.894   4.900
 4722TIP3    H114172   3.642   5.898   4.878
 4722TIP3    H214173   3.779   5.933   4.825
 4723TIP3   OH214174   0.051   4.110   1.317
 4723TIP3    H114175   0.098   4.189   1.342
 4723TIP3    H214176   0.016   4.128   1.230
 4724TIP3   OH214177   5.094   5.856   4.486
 4724TIP3    H114178   5.027   5.923   4.472
 4724TIP3    H214179   5.128   5.838   4.399
 4725TIP3   OH214180   2.385   1.228   1.133
 4725TIP3    H114181   2.393   1.318   1.102
 4725TIP3    H214182   2.291   1.208   1.125
 4726TIP3   OH214183   5.763   5.310   4.738
 4726TIP3    H114184   5.676   5.336   4.708
 4726TIP3    H214185   5.777   5.224   4.699
 4727TIP3   OH214186   6.132   1.694   4.874
 4727TIP3    H114187   6.169   1.688   4.962
 4727TIP3    H214188   6.178   1.626   4.824
 4728TIP3   OH214189   3.965   1.811   3.742
 4728TIP3    H114190   4.001   1.860   3.816
 4728TIP3    H214191   3.879   1.849   3.727
 4729TIP3   OH214192   3.531   0.747   3.483
 4729TIP3    H114193   3.468   0.694   3.433
 4729TIP3    H214194   3.567   0.808   3.419
 4730TIP3   OH214195   4.120   1.023   1.976
 4730TIP3    H114196   4.121   1.026   2.072
 4730TIP3    H214197   4.116   0.930   1.955
 4731TIP3   OH214198   2.934   2.674   0.984
 4731TIP3    H114199   2.961   2.601   1.039
 4731TIP3    H214200   2.972   2.656   0.898
 4732TIP3   OH214201   4.091   1.009   1.393
 4732TIP3    H114202   4.011   0.957   1.380
 4732TIP3    H214203   4.134   1.007   1.307
 4733TIP3   OH214204   4.492   2.453   4.102
 4733TIP3    H114205   4.547   2.525   4.070
 4733TIP3    H214206   4.512   2.380   4.044
 4734TIP3   OH214207   5.118   0.341   0.312
 4734TIP3    H114208   5.161   0.259   0.290
 4734TIP3    H214209   5.148   0.403   0.245
 4735TIP3   OH214210   0.085   3.857   4.468
 4735TIP3    H114211   0.137   3.926   4.426
 4735TIP3    H214212   0.141   3.780   4.466
 4736TIP3   OH214213   5.477   4.151   1.056
 4736TIP3    H114214   5.508   4.228   1.009
 4736TIP3    H214215   5.473   4.178   1.147
 4737TIP3   OH214216   2.331   0.623   3.982
 4737TIP3    H114217   2.252   0.570   3.972
 4737TIP3    H214218   2.384   0.602   3.905
 4738TIP3   OH214219   6.081   3.733   3.554
 4738TIP3    H114220   6.146   3.790   3.513
 4738TIP3    H214221   6.002   3.787   3.560
 4739TIP3   OH214222   2.336   2.827   2.519
 4739TIP3    H114223   2.342   2.922   2.522
 4739TIP3    H214224   2.243   2.809   2.503
 4740TIP3   OH214225   3.482   3.647   2.598
 4740TIP3    H114226   3.572   3.623   2.621
 4740TIP3    H214227   3.435   3.564   2.596
 4741TIP3   OH214228   1.902   0.135   2.304
 4741TIP3    H114229   1.993   0.105   2.309
 4741TIP3    H214230   1.892   0.166   2.214
 4742TIP3   OH214231   0.957   5.552   4.661
 4742TIP3    H114232   0.986   5.562   4.570
 4742TIP3    H214233   0.883   5.612   4.669
 4743TIP3   OH214234   1.753   4.911   0.549
 4743TIP3    H114235   1.834   4.953   0.521
 4743TIP3    H214236   1.762   4.821   0.518
 4744TIP3   OH214237   0.419   1.004   0.200
 4744TIP3    H114238   0.359   0.955   0.145
 4744TIP3    H214239   0.494   0.946   0.211
 4745TIP3   OH214240   5.620   5.933   3.717
 4745TIP3    H114241   5.573   5.902   3.794
 4745TIP3    H214242   5.562   5.911   3.643
 4746TIP3   OH214243   6.197   1.637   3.543
 4746TIP3    H114244   6.228   1.728   3.535
 4746TIP3    H214245   6.163   1.631   3.632
 4747TIP3   OH214246   0.582   2.258   2.966
 4747TIP3    H114247   0.633   2.188   2.926
 4747TIP3    H214248   0.605   2.255   3.059
 4748TIP3   OH214249   5.170   3.862   2.878
 4748TIP3    H114250   5.238   3.826   2.821
 4748TIP3    H214251   5.193   3.830   2.965
 4749TIP3   OH214252   2.986   2.416   1.254
 4749TIP3    H114253   2.972   2.400   1.347
 4749TIP3    H214254   2.897   2.424   1.218
 4750TIP3   OH214255   3.558   0.831   3.989
 4750TIP3    H114256   3.511   0.861   4.067
 4750TIP3    H214257   3.650   0.848   4.007
 4751TIP3   OH214258   2.556   0.503   3.327
 4751TIP3    H114259   2.568   0.594   3.355
 4751TIP3    H214260   2.611   0.495   3.249
 4752TIP3   OH214261   4.530   3.469   0.812
 4752TIP3    H114262   4.601   3.418   0.852
 4752TIP3    H214263   4.486   3.408   0.754
 4753TIP3   OH214264   1.564   5.806   0.640
 4753TIP3    H114265   1.650   5.842   0.663
 4753TIP3    H214266   1.549   5.739   0.707
 4754TIP3   OH214267   0.098   5.429   0.956
 4754TIP3    H114268   0.026   5.492   0.965
 4754TIP3    H214269   0.121   5.405   1.045
 4755TIP3   OH214270   4.672   2.860   2.134
 4755TIP3    H114271   4.756   2.817   2.118
 4755TIP3    H214272   4.609   2.808   2.084
 4756TIP3   OH214273   4.580   3.386   1.724
 4756TIP3    H114274   4.568   3.366   1.631
 4756TIP3    H214275   4.523   3.325   1.770
 4757TIP3   OH214276   5.356   1.745   2.300
 4757TIP3    H114277   5.372   1.762   2.393
 4757TIP3    H214278   5.270   1.784   2.283
 4758TIP3   OH214279   5.362   5.113   0.936
 4758TIP3    H114280   5.292   5.070   0.887
 4758TIP3    H214281   5.394   5.181   0.877
 4759TIP3   OH214282   5.035   4.170   0.795
 4759TIP3    H114283   5.122   4.165   0.756
 4759TIP3    H214284   5.018   4.082   0.828
 4760TIP3   OH214285   6.311   1.646   4.260
 4760TIP3    H114286   6.224   1.684   4.274
 4760TIP3    H214287   6.316   1.632   4.166
 4761TIP3   OH214288   5.367   1.715   2.598
 4761TIP3    H114289   5.310   1.642   2.625
 4761TIP3    H214290   5.359   1.779   2.668
 4762TIP3   OH214291   2.105   1.250   1.176
 4762TIP3    H114292   2.112   1.155   1.170
 4762TIP3    H214293   2.054   1.266   1.256
 4763TIP3   OH214294   2.050   1.094   3.209
 4763TIP3    H114295   2.116   1.046   3.259
 4763TIP3    H214296   1.970   1.088   3.262
 4764TIP3   OH214297   2.617   4.752   0.849
 4764TIP3    H114298   2.607   4.847   0.843
 4764TIP3    H214299   2.607   4.721   0.759
 4765TIP3   OH214300   2.253   3.292   3.853
 4765TIP3    H114301   2.346   3.315   3.863
 4765TIP3    H214302   2.217   3.360   3.797
 4766TIP3   OH214303   1.305   0.371   4.023
 4766TIP3    H114304   1.321   0.430   4.097
 4766TIP3    H214305   1.364   0.402   3.954
 4767TIP3   OH214306   5.819   4.483   1.292
 4767TIP3    H114307   5.734   4.525   1.286
 4767TIP3    H214308   5.817   4.436   1.376
 4768TIP3   OH214309   2.640   2.194   1.328
 4768TIP3    H114310   2.702   2.251   1.374
 4768TIP3    H214311   2.581   2.164   1.397
 4769TIP3   OH214312   4.557   5.063   2.064
 4769TIP3    H114313   4.647   5.041   2.041
 4769TIP3    H214314   4.512   5.074   1.980
 4770TIP3   OH214315   4.605   3.599   3.850
 4770TIP3    H114316   4.644   3.566   3.931
 4770TIP3    H214317   4.591   3.692   3.866
 4771TIP3   OH214318   2.424   4.469   2.014
 4771TIP3    H114319   2.435   4.471   2.109
 4771TIP3    H214320   2.474   4.545   1.983
 4772TIP3   OH214321   1.293   5.375   0.547
 4772TIP3    H114322   1.331   5.464   0.551
 4772TIP3    H214323   1.369   5.318   0.537
 4773TIP3   OH214324   5.788   5.896   2.654
 4773TIP3    H114325   5.789   5.832   2.725
 4773TIP3    H214326   5.874   5.889   2.613
 4774TIP3   OH214327   0.131   5.630   4.145
 4774TIP3    H114328   0.081   5.636   4.226
 4774TIP3    H214329   0.212   5.677   4.163
 4775TIP3   OH214330   4.266   4.178   4.175
 4775TIP3    H114331   4.267   4.236   4.250
 4775TIP3    H214332   4.356   4.146   4.167
 4776TIP3   OH214333   0.541   2.693   5.154
 4776TIP3    H114334   0.625   2.735   5.136
 4776TIP3    H214335   0.537   2.620   5.092
 4777TIP3   OH214336   3.288   4.877   0.878
 4777TIP3    H114337   3.378   4.854   0.857
 4777TIP3    H214338   3.295   4.939   0.950
 4778TIP3   OH214339   6.131   2.539   3.845
 4778TIP3    H114340   6.093   2.614   3.891
 4778TIP3    H214341   6.071   2.467   3.863
 4779TIP3   OH214342   1.612   3.469   3.850
 4779TIP3    H114343   1.699   3.433   3.862
 4779TIP3    H214344   1.611   3.548   3.904
 4780TIP3   OH214345   2.547   3.306   2.448
 4780TIP3    H114346   2.509   3.304   2.361
 4780TIP3    H214347   2.639   3.282   2.436
 4781TIP3   OH214348   5.093   5.738   4.229
 4781TIP3    H114349   5.005   5.754   4.196
 4781TIP3    H214350   5.088   5.653   4.271
 4782TIP3   OH214351   2.858   0.618   1.204
 4782TIP3    H114352   2.830   0.653   1.120
 4782TIP3    H214353   2.947   0.653   1.216
 4783TIP3   OH214354   5.834   0.766   2.692
 4783TIP3    H114355   5.817   0.681   2.734
 4783TIP3    H214356   5.779   0.766   2.614
 4784TIP3   OH214357   1.173   5.423   1.459
 4784TIP3    H114358   1.128   5.507   1.446
 4784TIP3    H214359   1.163   5.378   1.375
 4785TIP3   OH214360   4.116   4.038   1.587
 4785TIP3    H114361   4.152   4.120   1.554
 4785TIP3    H214362   4.160   3.969   1.537
 4786TIP3   OH214363   5.676   2.914   2.823
 4786TIP3    H114364   5.662   2.950   2.911
 4786TIP3    H214365   5.641   2.825   2.828
 4787TIP3   OH214366   2.982   4.586   1.293
 4787TIP3    H114367   2.891   4.586   1.324
 4787TIP3    H214368   2.992   4.502   1.249
 4788TIP3   OH214369   6.002   1.698   0.693
 4788TIP3    H114370   6.038   1.610   0.684
 4788TIP3    H214371   6.017   1.738   0.607
 4789TIP3   OH214372   3.577   0.379   0.371
 4789TIP3    H114373   3.485   0.370   0.395
 4789TIP3    H214374   3.622   0.311   0.421
 4790TIP3   OH214375   5.421   1.191   3.188
 4790TIP3    H114376   5.427   1.239   3.271
 4790TIP3    H214377   5.490   1.126   3.193
 4791TIP3   OH214378   2.186   3.673   1.265
 4791TIP3    H114379   2.100   3.660   1.304
 4791TIP3    H214380   2.203   3.766   1.276
 4792TIP3   OH214381   3.116   1.251   3.620
 4792TIP3    H114382   3.209   1.273   3.611
 4792TIP3    H214383   3.101   1.247   3.714
 4793TIP3   OH214384   3.879   1.922   4.371
 4793TIP3    H114385   3.964   1.885   4.348
 4793TIP3    H214386   3.893   2.016   4.370
 4794TIP3   OH214387   4.258   5.927  -0.024
 4794TIP3    H114388   4.321   5.903   0.044
 4794TIP3    H214389   4.304   5.992  -0.077
 4795TIP3   OH214390   1.571   0.943   5.104
 4795TIP3    H114391   1.527   1.010   5.051
 4795TIP3    H214392   1.525   0.944   5.187
 4796TIP3   OH214393   1.458   2.813   2.653
 4796TIP3    H114394   1.463   2.734   2.599
 4796TIP3    H214395   1.371   2.810   2.692
 4797TIP3   OH214396   0.069   4.694   4.027
 4797TIP3    H114397   0.161   4.677   4.006
 4797TIP3    H214398   0.043   4.621   4.082
 4798TIP3   OH214399   0.389   1.284   0.280
 4798TIP3    H114400   0.380   1.191   0.259
 4798TIP3    H214401   0.469   1.289   0.332
 4799TIP3   OH214402   0.860   5.432   0.790
 4799TIP3    H114403   0.899   5.443   0.703
 4799TIP3    H214404   0.833   5.520   0.815
 4800TIP3   OH214405   4.647   0.307   2.025
 4800TIP3    H114406   4.618   0.219   2.005
 4800TIP3    H214407   4.683   0.302   2.114
 4801TIP3   OH214408   5.901   5.256   3.622
 4801TIP3    H114409   5.819   5.283   3.665
 4801TIP3    H214410   5.882   5.264   3.529
 4802TIP3   OH214411   1.077   2.996   3.198
 4802TIP3    H114412   1.161   2.950   3.190
 4802TIP3    H214413   1.087   3.052   3.275
 4803TIP3   OH214414   6.195   2.649   0.242
 4803TIP3    H114415   6.255   2.686   0.307
 4803TIP3    H214416   6.158   2.572   0.285
 4804TIP3   OH214417   3.206   5.138   2.420
 4804TIP3    H114418   3.113   5.156   2.402
 4804TIP3    H214419   3.250   5.222   2.405
 4805TIP3   OH214420   3.228   1.618   1.508
 4805TIP3    H114421   3.256   1.582   1.592
 4805TIP3    H214422   3.173   1.693   1.530
 4806TIP3   OH214423   5.443   4.134   4.931
 4806TIP3    H114424   5.511   4.166   4.872
 4806TIP3    H214425   5.361   4.148   4.884
 4807TIP3   OH214426   2.112   1.528   0.033
 4807TIP3    H114427   2.085   1.617   0.010
 4807TIP3    H214428   2.207   1.534   0.044
 4808TIP3   OH214429   1.727   2.385   1.945
 4808TIP3    H114430   1.730   2.431   1.861
 4808TIP3    H214431   1.800   2.323   1.940
 4809TIP3   OH214432   1.561   5.073   4.775
 4809TIP3    H114433   1.578   5.087   4.868
 4809TIP3    H214434   1.468   5.051   4.771
 4810TIP3   OH214435   5.219   5.599   3.519
 4810TIP3    H114436   5.174   5.651   3.453
 4810TIP3    H214437   5.257   5.526   3.469
 4811TIP3   OH214438   4.701   2.999   1.061
 4811TIP3    H114439   4.770   2.944   1.097
 4811TIP3    H214440   4.628   2.991   1.122
 4812TIP3   OH214441   3.315   1.480   1.738
 4812TIP3    H114442   3.374   1.405   1.731
 4812TIP3    H214443   3.227   1.442   1.736
 4813TIP3   OH214444   3.535   3.096   2.555
 4813TIP3    H114445   3.461   3.127   2.608
 4813TIP3    H214446   3.556   3.010   2.591
 4814TIP3   OH214447   3.656   3.553   2.001
 4814TIP3    H114448   3.633   3.461   2.012
 4814TIP3    H214449   3.706   3.575   2.080
 4815TIP3   OH214450   4.065   1.437   0.950
 4815TIP3    H114451   3.987   1.493   0.958
 4815TIP3    H214452   4.123   1.485   0.891
 4816TIP3   OH214453   3.926   3.295   4.828
 4816TIP3    H114454   3.983   3.371   4.843
 4816TIP3    H214455   3.978   3.236   4.774
 4817TIP3   OH214456   2.509   5.298   2.167
 4817TIP3    H114457   2.533   5.351   2.091
 4817TIP3    H214458   2.593   5.271   2.205
 4818TIP3   OH214459   0.892   2.088   1.514
 4818TIP3    H114460   0.963   2.084   1.578
 4818TIP3    H214461   0.842   2.008   1.529
 4819TIP3   OH214462   4.384   0.152   1.182
 4819TIP3    H114463   4.295   0.187   1.191
 4819TIP3    H214464   4.436   0.226   1.151
 4820TIP3   OH214465   3.264   4.528   3.608
 4820TIP3    H114466   3.190   4.561   3.661
 4820TIP3    H214467   3.337   4.585   3.632
 4821TIP3   OH214468   3.652   4.333   2.246
 4821TIP3    H114469   3.625   4.296   2.162
 4821TIP3    H214470   3.603   4.415   2.253
 4822TIP3   OH214471   3.234   3.642   2.907
 4822TIP3    H114472   3.214   3.675   2.819
 4822TIP3    H214473   3.225   3.719   2.964
 4823TIP3   OH214474   5.148   5.984   3.673
 4823TIP3    H114475   5.213   5.927   3.631
 4823TIP3    H214476   5.151   6.065   3.621
 4824TIP3   OH214477   2.043   0.877   2.293
 4824TIP3    H114478   2.011   0.916   2.212
 4824TIP3    H214479   2.050   0.950   2.354
 4825TIP3   OH214480   0.005   3.490   0.490
 4825TIP3    H114481  -0.049   3.411   0.485
 4825TIP3    H214482   0.087   3.466   0.449
 4826TIP3   OH214483   4.036   5.944   2.413
 4826TIP3    H114484   4.026   6.036   2.387
 4826TIP3    H214485   3.994   5.894   2.342
 4827TIP3   OH214486   2.210   0.642   2.568
 4827TIP3    H114487   2.172   0.618   2.483
 4827TIP3    H214488   2.165   0.586   2.631
 4828TIP3   OH214489   3.498   5.853   0.747
 4828TIP3    H114490   3.476   5.932   0.796
 4828TIP3    H214491   3.547   5.884   0.671
 4829TIP3   OH214492   0.215   2.209   0.759
 4829TIP3    H114493   0.187   2.300   0.770
 4829TIP3    H214494   0.293   2.201   0.814
 4830TIP3   OH214495   5.283   3.566   3.283
 4830TIP3    H114496   5.359   3.528   3.328
 4830TIP3    H214497   5.207   3.532   3.331
 4831TIP3   OH214498   1.142   0.288   0.285
 4831TIP3    H114499   1.076   0.318   0.347
 4831TIP3    H214500   1.106   0.309   0.199
 4832TIP3   OH214501   3.533   3.733   1.203
 4832TIP3    H114502   3.540   3.787   1.124
 4832TIP3    H214503   3.533   3.796   1.275
 4833TIP3   OH214504   4.492   5.438   4.372
 4833TIP3    H114505   4.579   5.407   4.397
 4833TIP3    H214506   4.432   5.374   4.410
 4834TIP3   OH214507   2.359   1.082   2.046
 4834TIP3    H114508   2.439   1.117   2.006
 4834TIP3    H214509   2.312   1.041   1.974
 4835TIP3   OH214510   4.212   0.606   1.174
 4835TIP3    H114511   4.139   0.628   1.232
 4835TIP3    H214512   4.214   0.511   1.173
 4836TIP3   OH214513   4.060   0.826   3.108
 4836TIP3    H114514   4.143   0.809   3.063
 4836TIP3    H214515   4.085   0.855   3.195
 4837TIP3   OH214516   3.408   1.517   0.132
 4837TIP3    H114517   3.335   1.506   0.194
 4837TIP3    H214518   3.370   1.496   0.047
 4838TIP3   OH214519   1.333   1.885   0.718
 4838TIP3    H114520   1.368   1.941   0.788
 4838TIP3    H214521   1.400   1.887   0.650
 4839TIP3   OH214522   5.866   2.285   0.355
 4839TIP3    H114523   5.898   2.240   0.276
 4839TIP3    H214524   5.827   2.216   0.408
 4840TIP3   OH214525   4.994   1.970   5.077
 4840TIP3    H114526   5.085   1.990   5.055
 4840TIP3    H214527   4.943   2.011   5.007
 4841TIP3   OH214528   1.432   2.170   4.743
 4841TIP3    H114529   1.526   2.157   4.753
 4841TIP3    H214530   1.424   2.248   4.689
 4842TIP3   OH214531   3.932   4.833   4.782
 4842TIP3    H114532   3.847   4.840   4.738
 4842TIP3    H214533   3.928   4.749   4.827
 4843TIP3   OH214534   4.795   4.019   3.367
 4843TIP3    H114535   4.737   3.942   3.363
 4843TIP3    H214536   4.754   4.083   3.310
 4844TIP3   OH214537   1.988   4.469   1.752
 4844TIP3    H114538   1.938   4.543   1.786
 4844TIP3    H214539   1.942   4.444   1.672
 4845TIP3   OH214540   1.638   5.646   0.421
 4845TIP3    H114541   1.701   5.598   0.475
 4845TIP3    H214542   1.584   5.693   0.485
 4846TIP3   OH214543   4.886   5.782   3.044
 4846TIP3    H114544   4.842   5.851   3.094
 4846TIP3    H214545   4.924   5.827   2.969
 4847TIP3   OH214546   4.381   4.844   2.441
 4847TIP3    H114547   4.411   4.753   2.438
 4847TIP3    H214548   4.393   4.871   2.532
 4848TIP3   OH214549   5.702   1.348   4.432
 4848TIP3    H114550   5.757   1.275   4.460
 4848TIP3    H214551   5.759   1.424   4.438
 4849TIP3   OH214552   0.370   5.260   1.522
 4849TIP3    H114553   0.375   5.176   1.476
 4849TIP3    H214554   0.280   5.288   1.511
 4850TIP3   OH214555   2.999   1.685   3.031
 4850TIP3    H114556   3.057   1.609   3.027
 4850TIP3    H214557   2.931   1.660   3.094
 4851TIP3   OH214558   0.683   0.098   4.979
 4851TIP3    H114559   0.618   0.035   5.010
 4851TIP3    H214560   0.672   0.174   5.036
 4852TIP3   OH214561   2.522   3.558   2.301
 4852TIP3    H114562   2.568   3.551   2.218
 4852TIP3    H214563   2.583   3.524   2.366
 4853TIP3   OH214564   2.281   1.263   4.719
 4853TIP3    H114565   2.370   1.270   4.684
 4853TIP3    H214566   2.292   1.219   4.803
 4854TIP3   OH214567   2.750   5.607   2.409
 4854TIP3    H114568   2.790   5.564   2.485
 4854TIP3    H214569   2.665   5.565   2.400
 4855TIP3   OH214570   3.447   5.219   0.589
 4855TIP3    H114571   3.466   5.134   0.548
 4855TIP3    H214572   3.531   5.246   0.627
 4856TIP3   OH214573   4.769   1.186   2.572
 4856TIP3    H114574   4.738   1.117   2.513
 4856TIP3    H214575   4.803   1.138   2.648
 4857TIP3   OH214576   0.014   2.079   1.509
 4857TIP3    H114577   0.098   2.056   1.468
 4857TIP3    H214578  -0.051   2.028   1.461
 4858TIP3   OH214579   4.609   3.642   2.396
 4858TIP3    H114580   4.629   3.710   2.460
 4858TIP3    H214581   4.691   3.628   2.349
 4859TIP3   OH214582   5.763   3.627   0.302
 4859TIP3    H114583   5.769   3.614   0.397
 4859TIP3    H214584   5.850   3.653   0.275
 4860TIP3   OH214585   0.635   4.908   2.655
 4860TIP3    H114586   0.562   4.954   2.613
 4860TIP3    H214587   0.679   4.975   2.707
 4861TIP3   OH214588   4.967   4.886   2.737
 4861TIP3    H114589   4.967   4.963   2.793
 4861TIP3    H214590   4.900   4.904   2.672
 4862TIP3   OH214591   2.056   2.748   2.489
 4862TIP3    H114592   2.053   2.843   2.503
 4862TIP3    H214593   1.982   2.714   2.538
 4863TIP3   OH214594   4.367   0.024   5.104
 4863TIP3    H114595   4.456   0.013   5.071
 4863TIP3    H214596   4.316   0.052   5.028
 4864TIP3   OH214597   1.796   5.784   4.699
 4864TIP3    H114598   1.732   5.751   4.637
 4864TIP3    H214599   1.750   5.783   4.783
 4865TIP3   OH214600   0.432   5.811   0.468
 4865TIP3    H114601   0.365   5.819   0.401
 4865TIP3    H214602   0.476   5.728   0.449
 4866TIP3   OH214603   5.501   4.616   3.044
 4866TIP3    H114604   5.505   4.521   3.060
 4866TIP3    H214605   5.456   4.625   2.960
 4867TIP3   OH214606   3.951   1.126   5.005
 4867TIP3    H114607   4.045   1.131   5.024
 4867TIP3    H214608   3.910   1.106   5.090
 4868TIP3   OH214609   3.208   5.696   0.840
 4868TIP3    H114610   3.292   5.654   0.821
 4868TIP3    H214611   3.146   5.656   0.778
 4869TIP3   OH214612   3.818   5.321   4.241
 4869TIP3    H114613   3.774   5.364   4.313
 4869TIP3    H214614   3.911   5.341   4.254
 4870TIP3   OH214615   4.468   4.342   1.307
 4870TIP3    H114616   4.505   4.271   1.254
 4870TIP3    H214617   4.528   4.350   1.381
 4871TIP3   OH214618   5.954   4.474   3.661
 4871TIP3    H114619   5.878   4.468   3.603
 4871TIP3    H214620   5.951   4.563   3.696
 4872TIP3   OH214621   1.351   4.426   1.697
 4872TIP3    H114622   1.297   4.365   1.646
 4872TIP3    H214623   1.344   4.396   1.787
 4873TIP3   OH214624   2.412   2.982   3.231
 4873TIP3    H114625   2.425   2.948   3.320
 4873TIP3    H214626   2.368   3.066   3.245
 4874TIP3   OH214627   0.145   5.756   2.475
 4874TIP3    H114628   0.109   5.701   2.546
 4874TIP3    H214629   0.070   5.808   2.446
 4875TIP3   OH214630   3.533   5.478   1.644
 4875TIP3    H114631   3.478   5.519   1.710
 4875TIP3    H214632   3.612   5.452   1.691
 4876TIP3   OH214633   0.965   1.196   3.018
 4876TIP3    H114634   0.967   1.281   3.063
 4876TIP3    H214635   1.049   1.156   3.039
 4877TIP3   OH214636   1.169   1.668   1.364
 4877TIP3    H114637   1.082   1.634   1.385
 4877TIP3    H214638   1.205   1.697   1.448
 4878TIP3   OH214639   0.609   4.145   2.211
 4878TIP3    H114640   0.687   4.191   2.245
 4878TIP3    H214641   0.639   4.105   2.130
 4879TIP3   OH214642   2.418   5.580   2.805
 4879TIP3    H114643   2.335   5.538   2.781
 4879TIP3    H214644   2.444   5.628   2.726
 4880TIP3   OH214645   6.216   3.662   2.374
 4880TIP3    H114646   6.123   3.666   2.395
 4880TIP3    H214647   6.219   3.642   2.280
 4881TIP3   OH214648   0.142   4.323   3.754
 4881TIP3    H114649   0.194   4.287   3.682
 4881TIP3    H214650   0.057   4.281   3.746
 4882TIP3   OH214651   1.438   4.721   2.559
 4882TIP3    H114652   1.426   4.752   2.649
 4882TIP3    H214653   1.378   4.647   2.551
 4883TIP3   OH214654   6.043   0.784   0.227
 4883TIP3    H114655   6.011   0.846   0.161
 4883TIP3    H214656   5.978   0.714   0.228
 4884TIP3   OH214657   1.977   0.932   2.694
 4884TIP3    H114658   1.934   0.847   2.689
 4884TIP3    H214659   2.043   0.922   2.763
 4885TIP3   OH214660   6.299   1.449   1.864
 4885TIP3    H114661   6.343   1.407   1.938
 4885TIP3    H214662   6.229   1.501   1.904
 4886TIP3   OH214663   2.107   2.929   3.420
 4886TIP3    H114664   2.087   2.838   3.442
 4886TIP3    H214665   2.185   2.949   3.472
 4887TIP3   OH214666   3.292   2.698   3.212
 4887TIP3    H114667   3.244   2.753   3.274
 4887TIP3    H214668   3.225   2.646   3.168
 4888TIP3   OH214669   4.076   2.247   1.993
 4888TIP3    H114670   4.070   2.235   2.087
 4888TIP3    H214671   3.989   2.225   1.960
 4889TIP3   OH214672   2.681   2.657   3.233
 4889TIP3    H114673   2.651   2.609   3.157
 4889TIP3    H214674   2.663   2.600   3.307
 4890TIP3   OH214675   0.984   4.774   2.118
 4890TIP3    H114676   1.001   4.855   2.166
 4890TIP3    H214677   0.960   4.802   2.030
 4891TIP3   OH214678   3.217   5.055   0.677
 4891TIP3    H114679   3.241   4.973   0.722
 4891TIP3    H214680   3.261   5.123   0.728
 4892TIP3   OH214681   1.378   4.500   0.386
 4892TIP3    H114682   1.380   4.550   0.304
 4892TIP3    H214683   1.285   4.483   0.401
 4893TIP3   OH214684   5.068   2.756   1.382
 4893TIP3    H114685   5.049   2.667   1.352
 4893TIP3    H214686   5.164   2.761   1.385
 4894TIP3   OH214687   4.942   0.428   3.958
 4894TIP3    H114688   4.857   0.472   3.955
 4894TIP3    H214689   4.936   0.360   3.891
 4895TIP3   OH214690   2.280   4.135   0.411
 4895TIP3    H114691   2.290   4.229   0.426
 4895TIP3    H214692   2.298   4.123   0.318
 4896TIP3   OH214693   1.482   4.260   4.537
 4896TIP3    H114694   1.480   4.280   4.631
 4896TIP3    H214695   1.559   4.204   4.527
 4897TIP3   OH214696   1.607   0.090   0.138
 4897TIP3    H114697   1.588   0.023   0.072
 4897TIP3    H214698   1.522   0.131   0.156
 4898TIP3   OH214699   2.952   0.652   5.082
 4898TIP3    H114700   2.988   0.594   5.149
 4898TIP3    H214701   3.011   0.642   5.008
 4899TIP3   OH214702   3.798   1.174   3.403
 4899TIP3    H114703   3.819   1.186   3.495
 4899TIP3    H214704   3.845   1.244   3.358
 4900TIP3   OH214705   1.942   0.281   1.106
 4900TIP3    H114706   1.853   0.278   1.141
 4900TIP3    H214707   1.997   0.250   1.177
 4901TIP3   OH214708   3.246   1.043   2.535
 4901TIP3    H114709   3.270   1.127   2.574
 4901TIP3    H214710   3.151   1.047   2.527
 4902TIP3   OH214711   5.482   4.102   1.659
 4902TIP3    H114712   5.510   4.098   1.750
 4902TIP3    H214713   5.503   4.016   1.623
 4903TIP3   OH214714   1.166   1.194   3.482
 4903TIP3    H114715   1.235   1.128   3.488
 4903TIP3    H214716   1.189   1.259   3.547
 4904TIP3   OH214717   0.140   3.154   3.937
 4904TIP3    H114718   0.186   3.070   3.939
 4904TIP3    H214719   0.071   3.142   3.871
 4905TIP3   OH214720   4.205   0.997   1.139
 4905TIP3    H114721   4.150   1.053   1.084
 4905TIP3    H214722   4.179   0.908   1.116
 4906TIP3   OH214723   2.030   0.460   4.675
 4906TIP3    H114724   2.053   0.423   4.761
 4906TIP3    H214725   1.998   0.548   4.695
 4907TIP3   OH214726   5.591   0.994   2.469
 4907TIP3    H114727   5.594   0.902   2.492
 4907TIP3    H214728   5.674   1.030   2.501
 4908TIP3   OH214729   4.065   4.035   4.033
 4908TIP3    H114730   4.035   3.965   4.091
 4908TIP3    H214731   4.143   4.070   4.077
 4909TIP3   OH214732   0.574   0.336   1.950
 4909TIP3    H114733   0.501   0.315   1.891
 4909TIP3    H214734   0.542   0.312   2.037
 4910TIP3   OH214735   5.278   2.893   4.517
 4910TIP3    H114736   5.248   2.907   4.606
 4910TIP3    H214737   5.227   2.954   4.464
 4911TIP3   OH214738   5.006   5.001   1.717
 4911TIP3    H114739   5.044   5.000   1.629
 4911TIP3    H214740   5.075   5.035   1.774
 4912TIP3   OH214741   1.389   4.934   1.958
 4912TIP3    H114742   1.408   4.906   1.868
 4912TIP3    H214743   1.365   4.854   2.003
 4913TIP3   OH214744   6.023   4.589   0.858
 4913TIP3    H114745   6.081   4.553   0.926
 4913TIP3    H214746   5.940   4.604   0.902
 4914TIP3   OH214747   0.622   5.541   2.315
 4914TIP3    H114748   0.666   5.500   2.389
 4914TIP3    H214749   0.606   5.469   2.254
 4915TIP3   OH214750   3.634   5.041   5.192
 4915TIP3    H114751   3.652   5.131   5.221
 4915TIP3    H214752   3.540   5.030   5.205
 4916TIP3   OH214753   5.858   0.619   2.401
 4916TIP3    H114754   5.779   0.578   2.367
 4916TIP3    H214755   5.898   0.662   2.325
 4917TIP3   OH214756   4.534   1.818   4.641
 4917TIP3    H114757   4.438   1.808   4.644
 4917TIP3    H214758   4.565   1.762   4.712
 4918TIP3   OH214759   1.017   5.412   0.547
 4918TIP3    H114760   1.002   5.371   0.462
 4918TIP3    H214761   1.111   5.401   0.563
 4919TIP3   OH214762   1.396   5.527   3.839
 4919TIP3    H114763   1.375   5.584   3.912
 4919TIP3    H214764   1.346   5.562   3.765
 4920TIP3   OH214765   6.078   2.632   3.275
 4920TIP3    H114766   6.018   2.678   3.334
 4920TIP3    H214767   6.040   2.647   3.188
 4921TIP3   OH214768   4.247   0.696   4.507
 4921TIP3    H114769   4.216   0.769   4.453
 4921TIP3    H214770   4.288   0.738   4.582
 4922TIP3   OH214771   3.789   4.832   1.981
 4922TIP3    H114772   3.842   4.884   1.921
 4922TIP3    H214773   3.737   4.775   1.924
 4923TIP3   OH214774   6.237   2.392   0.425
 4923TIP3    H114775   6.194   2.378   0.340
 4923TIP3    H214776   6.320   2.345   0.418
 4924TIP3   OH214777   1.669   2.410   2.547
 4924TIP3    H114778   1.718   2.458   2.480
 4924TIP3    H214779   1.730   2.344   2.579
 4925TIP3   OH214780   5.054   0.576   1.269
 4925TIP3    H114781   4.968   0.610   1.296
 4925TIP3    H214782   5.036   0.526   1.190
 4926TIP3   OH214783   2.830   5.403   0.787
 4926TIP3    H114784   2.907   5.453   0.759
 4926TIP3    H214785   2.837   5.400   0.882
 4927TIP3   OH214786   0.053   3.050   1.336
 4927TIP3    H114787   0.134   3.037   1.385
 4927TIP3    H214788   0.010   2.964   1.338
 4928TIP3   OH214789   5.885   2.224   4.530
 4928TIP3    H114790   5.840   2.269   4.602
 4928TIP3    H214791   5.815   2.202   4.468
 4929TIP3   OH214792   2.174   1.526   1.913
 4929TIP3    H114793   2.200   1.618   1.920
 4929TIP3    H214794   2.084   1.524   1.946
 4930TIP3   OH214795   2.694   0.668   0.841
 4930TIP3    H114796   2.680   0.645   0.749
 4930TIP3    H214797   2.718   0.760   0.840
 4931TIP3   OH214798   0.164   1.767   2.801
 4931TIP3    H114799   0.188   1.726   2.884
 4931TIP3    H214800   0.082   1.724   2.776
 4932TIP3   OH214801   3.145   4.122   3.187
 4932TIP3    H114802   3.173   4.130   3.278
 4932TIP3    H214803   3.212   4.170   3.137
 4933TIP3   OH214804   3.921   4.178   4.977
 4933TIP3    H114805   3.986   4.119   5.016
 4933TIP3    H214806   3.968   4.259   4.961
 4934TIP3   OH214807   4.988   3.469   3.712
 4934TIP3    H114808   4.987   3.428   3.798
 4934TIP3    H214809   4.896   3.475   3.687
 4935TIP3   OH214810   5.275   1.785   5.089
 4935TIP3    H114811   5.261   1.870   5.047
 4935TIP3    H214812   5.323   1.806   5.169
 4936TIP3   OH214813   5.694   0.123   4.163
 4936TIP3    H114814   5.785   0.148   4.152
 4936TIP3    H214815   5.697   0.041   4.213
 4937TIP3   OH214816   2.025   5.289   2.773
 4937TIP3    H114817   1.937   5.250   2.778
 4937TIP3    H214818   2.068   5.262   2.854
 4938TIP3   OH214819   2.474   1.919   2.260
 4938TIP3    H114820   2.397   1.872   2.290
 4938TIP3    H214821   2.526   1.854   2.214
 4939TIP3   OH214822   5.523   5.288   1.918
 4939TIP3    H114823   5.585   5.357   1.943
 4939TIP3    H214824   5.445   5.335   1.890
 4940TIP3   OH214825   4.209   4.416   2.584
 4940TIP3    H114826   4.144   4.476   2.621
 4940TIP3    H214827   4.167   4.330   2.588
 4941TIP3   OH214828   4.742   2.888   3.689
 4941TIP3    H114829   4.647   2.894   3.686
 4941TIP3    H214830   4.763   2.883   3.782
 4942TIP3   OH214831   0.391   4.310   2.189
 4942TIP3    H114832   0.436   4.380   2.235
 4942TIP3    H214833   0.449   4.234   2.196
 4943TIP3   OH214834   4.146   2.960   1.388
 4943TIP3    H114835   4.217   2.910   1.426
 4943TIP3    H214836   4.186   3.043   1.362
 4944TIP3   OH214837   1.473   4.548   2.221
 4944TIP3    H114838   1.400   4.546   2.282
 4944TIP3    H214839   1.509   4.636   2.230
 4945TIP3   OH214840   0.904   4.002   3.304
 4945TIP3    H114841   0.884   4.062   3.232
 4945TIP3    H214842   0.922   4.060   3.378
 4946TIP3   OH214843   5.502   0.436   3.786
 4946TIP3    H114844   5.454   0.377   3.845
 4946TIP3    H214845   5.449   0.516   3.785
 4947TIP3   OH214846   2.705   1.967   3.163
 4947TIP3    H114847   2.707   1.877   3.194
 4947TIP3    H214848   2.716   1.960   3.068
 4948TIP3   OH214849   3.139   3.731   4.771
 4948TIP3    H114850   3.219   3.680   4.783
 4948TIP3    H214851   3.105   3.702   4.686
 4949TIP3   OH214852   3.238   2.942   1.259
 4949TIP3    H114853   3.202   3.012   1.205
 4949TIP3    H214854   3.161   2.895   1.291
 4950TIP3   OH214855   3.309   0.288   0.875
 4950TIP3    H114856   3.340   0.210   0.828
 4950TIP3    H214857   3.336   0.273   0.965
 4951TIP3   OH214858   2.888   3.793   1.068
 4951TIP3    H114859   2.873   3.740   0.990
 4951TIP3    H214860   2.830   3.755   1.135
 4952TIP3   OH214861   3.222   2.189   1.964
 4952TIP3    H114862   3.285   2.260   1.952
 4952TIP3    H214863   3.262   2.114   1.919
 4953TIP3   OH214864   4.690   1.557   3.756
 4953TIP3    H114865   4.764   1.504   3.727
 4953TIP3    H214866   4.622   1.541   3.690
 4954TIP3   OH214867   3.992   5.167   2.187
 4954TIP3    H114868   3.987   5.101   2.256
 4954TIP3    H214869   4.047   5.236   2.225
 4955TIP3   OH214870   3.965   1.564   0.228
 4955TIP3    H114871   3.966   1.634   0.293
 4955TIP3    H214872   3.884   1.516   0.246
 4956TIP3   OH214873   3.138   1.607   2.049
 4956TIP3    H114874   3.164   1.519   2.023
 4956TIP3    H214875   3.221   1.653   2.063
 4957TIP3   OH214876   4.967   4.724   4.328
 4957TIP3    H114877   4.955   4.675   4.247
 4957TIP3    H214878   4.878   4.743   4.359
 4958TIP3   OH214879   1.683   5.107   3.223
 4958TIP3    H114880   1.704   5.046   3.152
 4958TIP3    H214881   1.588   5.103   3.231
 4959TIP3   OH214882   4.715   3.170   3.058
 4959TIP3    H114883   4.737   3.077   3.053
 4959TIP3    H214884   4.778   3.213   3.000
 4960TIP3   OH214885   2.903   2.981   3.687
 4960TIP3    H114886   2.867   2.948   3.604
 4960TIP3    H214887   2.837   2.959   3.752
 4961TIP3   OH214888   0.849   2.860   5.096
 4961TIP3    H114889   0.904   2.824   5.026
 4961TIP3    H214890   0.898   2.843   5.176
 4962TIP3   OH214891   1.318   4.945   3.980
 4962TIP3    H114892   1.230   4.937   4.018
 4962TIP3    H214893   1.354   4.856   3.983
 4963TIP3   OH214894   1.612   3.102   2.227
 4963TIP3    H114895   1.692   3.052   2.213
 4963TIP3    H214896   1.628   3.185   2.183
 4964TIP3   OH214897   0.737   4.168   3.110
 4964TIP3    H114898   0.643   4.174   3.094
 4964TIP3    H214899   0.758   4.246   3.162
 4965TIP3   OH214900   3.300   2.465   4.983
 4965TIP3    H114901   3.218   2.483   5.029
 4965TIP3    H214902   3.314   2.371   4.995
 4966TIP3   OH214903   5.472   0.833   3.032
 4966TIP3    H114904   5.393   0.883   3.010
 4966TIP3    H214905   5.538   0.865   2.970
 4967TIP3   OH214906   4.159   2.178   3.055
 4967TIP3    H114907   4.092   2.237   3.021
 4967TIP3    H214908   4.237   2.198   3.003
 4968TIP3   OH214909   3.719   3.540   1.145
 4968TIP3    H114910   3.651   3.607   1.143
 4968TIP3    H214911   3.680   3.466   1.192
 4969TIP3   OH214912   1.077   1.890   0.906
 4969TIP3    H114913   1.118   1.805   0.895
 4969TIP3    H214914   1.132   1.950   0.856
 4970TIP3   OH214915   1.529   3.786   0.968
 4970TIP3    H114916   1.555   3.793   0.876
 4970TIP3    H214917   1.443   3.744   0.965
 4971TIP3   OH214918   3.867   1.388   4.123
 4971TIP3    H114919   3.785   1.360   4.082
 4971TIP3    H214920   3.874   1.336   4.203
 4972TIP3   OH214921   2.213   4.662   1.236
 4972TIP3    H114922   2.120   4.667   1.259
 4972TIP3    H214923   2.215   4.603   1.160
 4973TIP3   OH214924   1.659   1.370   4.741
 4973TIP3    H114925   1.612   1.391   4.822
 4973TIP3    H214926   1.663   1.453   4.694
 4974TIP3   OH214927   5.728   1.737   0.432
 4974TIP3    H114928   5.720   1.690   0.514
 4974TIP3    H214929   5.651   1.794   0.428
 4975TIP3   OH214930   5.057   3.730   3.749
 4975TIP3    H114931   4.982   3.764   3.700
 4975TIP3    H214932   5.063   3.638   3.722
 4976TIP3   OH214933   4.544   3.292   4.244
 4976TIP3    H114934   4.457   3.265   4.276
 4976TIP3    H214935   4.549   3.254   4.156
 4977TIP3   OH214936   1.205   4.017   3.333
 4977TIP3    H114937   1.113   4.002   3.311
 4977TIP3    H214938   1.209   4.006   3.428
 4978TIP3   OH214939   4.627   2.346   1.152
 4978TIP3    H114940   4.550   2.354   1.095
 4978TIP3    H214941   4.610   2.269   1.206
 4979TIP3   OH214942   0.316   1.501   2.976
 4979TIP3    H114943   0.365   1.420   2.983
 4979TIP3    H214944   0.267   1.507   3.058
 4980TIP3   OH214945   0.012   3.008   4.479
 4980TIP3    H114946  -0.004   2.923   4.439
 4980TIP3    H214947  -0.075   3.040   4.504
 4981TIP3   OH214948   1.384   5.170   4.143
 4981TIP3    H114949   1.362   5.093   4.090
 4981TIP3    H214950   1.415   5.133   4.226
 4982TIP3   OH214951   0.410   2.910   4.850
 4982TIP3    H114952   0.403   2.818   4.873
 4982TIP3    H214953   0.337   2.926   4.791
 4983TIP3   OH214954   1.236   3.369   2.646
 4983TIP3    H114955   1.255   3.295   2.705
 4983TIP3    H214956   1.141   3.379   2.650
 4984TIP3   OH214957   0.473   3.186   3.783
 4984TIP3    H114958   0.425   3.201   3.701
 4984TIP3    H214959   0.439   3.252   3.843
 4985TIP3   OH214960   2.656   1.676   0.053
 4985TIP3    H114961   2.751   1.661   0.054
 4985TIP3    H214962   2.634   1.693   0.144
 4986TIP3   OH214963   5.573   3.307   1.991
 4986TIP3    H114964   5.655   3.342   2.023
 4986TIP3    H214965   5.554   3.358   1.912
 4987TIP3   OH214966   4.554   4.318   4.974
 4987TIP3    H114967   4.609   4.393   4.951
 4987TIP3    H214968   4.528   4.335   5.065
 4988TIP3   OH214969   3.096   1.167   2.964
 4988TIP3    H114970   3.037   1.111   2.913
 4988TIP3    H214971   3.164   1.193   2.902
 4989TIP3   OH214972   4.416   5.124   1.855
 4989TIP3    H114973   4.345   5.156   1.910
 4989TIP3    H214974   4.383   5.134   1.766
 4990TIP3   OH214975   4.593   0.792   0.421
 4990TIP3    H114976   4.499   0.793   0.436
 4990TIP3    H214977   4.608   0.712   0.370
 4991TIP3   OH214978   4.055   2.005   4.011
 4991TIP3    H114979   4.060   2.086   4.062
 4991TIP3    H214980   4.072   1.935   4.075
 4992TIP3   OH214981   0.250   2.576   0.124
 4992TIP3    H114982   0.260   2.655   0.178
 4992TIP3    H214983   0.312   2.589   0.052
 4993TIP3   OH214984   5.037   1.767   0.201
 4993TIP3    H114985   5.013   1.747   0.292
 4993TIP3    H214986   4.974   1.834   0.175
 4994TIP3   OH214987   1.472   4.901   0.354
 4994TIP3    H114988   1.546   4.846   0.379
 4994TIP3    H214989   1.490   4.927   0.264
 4995TIP3   OH214990   3.543   3.863   0.944
 4995TIP3    H114991   3.524   3.951   0.912
 4995TIP3    H214992   3.458   3.821   0.951
 4996TIP3   OH214993   0.176   5.407   2.808
 4996TIP3    H114994   0.218   5.323   2.790
 4996TIP3    H214995   0.099   5.385   2.860
 4997TIP3   OH214996   5.130   2.054   0.130
 4997TIP3    H114997   5.046   2.008   0.124
 4997TIP3    H214998   5.110   2.135   0.178
 4998TIP3   OH214999   2.976   1.774   1.849
 4998TIP3    H115000   2.901   1.736   1.802
 4998TIP3    H215001   3.015   1.700   1.897
 4999TIP3   OH215002   3.409   1.486   4.169
 4999TIP3    H115003   3.459   1.514   4.246
 4999TIP3    H215004   3.321   1.470   4.201
 5000TIP3   OH215005   3.340   3.137   0.515
 5000TIP3    H115006   3.330   3.096   0.430
 5000TIP3    H215007   3.271   3.098   0.569
 5001TIP3   OH215008   0.908   1.372   5.119
 5001TIP3    H115009   0.833   1.318   5.141
 5001TIP3    H215010   0.889   1.457   5.159
 5002TIP3   OH215011   3.759   0.388   3.744
 5002TIP3    H115012   3.669   0.370   3.719
 5002TIP3    H215013   3.801   0.419   3.664
 5003TIP3   OH215014   4.915   2.749   4.219
 5003TIP3    H115015   4.878   2.795   4.294
 5003TIP3    H215016   4.863   2.780   4.144
 5004TIP3   OH215017   0.374   1.684   3.227
 5004TIP3    H115018   0.322   1.603   3.220
 5004TIP3    H215019   0.310   1.752   3.248
 5005TIP3   OH215020   0.630   5.202   1.727
 5005TIP3    H115021   0.725   5.192   1.728
 5005TIP3    H215022   0.610   5.231   1.638
 5006TIP3   OH215023   1.211   3.178   1.709
 5006TIP3    H115024   1.243   3.143   1.625
 5006TIP3    H215025   1.135   3.124   1.730
 5007TIP3   OH215026   0.930   3.340   2.030
 5007TIP3    H115027   0.877   3.401   1.979
 5007TIP3    H215028   0.867   3.282   2.073
 5008TIP3   OH215029   2.931   2.180   3.439
 5008TIP3    H115030   2.994   2.206   3.506
 5008TIP3    H215031   2.911   2.088   3.459
 5009TIP3   OH215032   4.320   3.514   1.831
 5009TIP3    H115033   4.382   3.499   1.903
 5009TIP3    H215034   4.297   3.607   1.839
 5010TIP3   OH215035   4.150   2.630   1.569
 5010TIP3    H115036   4.100   2.676   1.502
 5010TIP3    H215037   4.168   2.544   1.531
 5011TIP3   OH215038   1.332   5.020   4.389
 5011TIP3    H115039   1.298   4.955   4.450
 5011TIP3    H215040   1.337   5.101   4.440
 5012TIP3   OH215041   5.084   0.310   3.685
 5012TIP3    H115042   5.147   0.284   3.753
 5012TIP3    H215043   5.121   0.388   3.646
 5013TIP3   OH215044   2.754   4.113   5.045
 5013TIP3    H115045   2.780   4.097   4.955
 5013TIP3    H215046   2.801   4.047   5.096
 5014TIP3   OH215047   3.875   2.532   5.021
 5014TIP3    H115048   3.930   2.503   4.949
 5014TIP3    H215049   3.872   2.456   5.080
 5015TIP3   OH215050   5.743   1.343   3.476
 5015TIP3    H115051   5.776   1.326   3.388
 5015TIP3    H215052   5.822   1.354   3.529
 5016TIP3   OH215053   5.873   0.138   0.864
 5016TIP3    H115054   5.931   0.174   0.930
 5016TIP3    H215055   5.908   0.171   0.781
 5017TIP3   OH215056   4.216   1.553   0.760
 5017TIP3    H115057   4.218   1.609   0.683
 5017TIP3    H215058   4.308   1.539   0.783
 5018TIP3   OH215059   1.627   2.660   3.484
 5018TIP3    H115060   1.704   2.707   3.453
 5018TIP3    H215061   1.640   2.570   3.454
 5019TIP3   OH215062   4.515  -0.033   1.028
 5019TIP3    H115063   4.520   0.041   0.967
 5019TIP3    H215064   4.469   0.002   1.105
 5020TIP3   OH215065   2.245   5.422   2.675
 5020TIP3    H115066   2.301   5.346   2.658
 5020TIP3    H215067   2.170   5.387   2.722
 5021TIP3   OH215068   2.154   4.432   0.699
 5021TIP3    H115069   2.092   4.502   0.680
 5021TIP3    H215070   2.100   4.357   0.723
 5022TIP3   OH215071   3.805   3.625   4.097
 5022TIP3    H115072   3.795   3.691   4.166
 5022TIP3    H215073   3.717   3.589   4.086
 5023TIP3   OH215074   2.903   5.338   3.104
 5023TIP3    H115075   2.861   5.279   3.040
 5023TIP3    H215076   2.979   5.289   3.134
 5024TIP3   OH215077   5.887   3.552   1.952
 5024TIP3    H115078   5.801   3.532   1.915
 5024TIP3    H215079   5.918   3.469   1.988
 5025TIP3   OH215080   4.471   4.434   1.758
 5025TIP3    H115081   4.491   4.448   1.850
 5025TIP3    H215082   4.446   4.521   1.725
 5026TIP3   OH215083   2.199   4.196   5.124
 5026TIP3    H115084   2.289   4.214   5.150
 5026TIP3    H215085   2.166   4.279   5.092
 5027TIP3   OH215086   3.985   3.731   1.692
 5027TIP3    H115087   3.970   3.773   1.607
 5027TIP3    H215088   3.903   3.745   1.740
 5028TIP3   OH215089   5.648   1.834   0.146
 5028TIP3    H115090   5.616   1.815   0.234
 5028TIP3    H215091   5.627   1.926   0.132
 5029TIP3   OH215092   4.835   1.343   2.349
 5029TIP3    H115093   4.799   1.302   2.427
 5029TIP3    H215094   4.901   1.282   2.317
 5030TIP3   OH215095   0.801   2.045   1.861
 5030TIP3    H115096   0.838   2.021   1.946
 5030TIP3    H215097   0.821   2.138   1.852
 5031TIP3   OH215098   6.097   0.438   4.477
 5031TIP3    H115099   6.182   0.471   4.447
 5031TIP3    H215100   6.035   0.467   4.409
 5032TIP3   OH215101   3.983   5.049   2.584
 5032TIP3    H115102   3.977   5.141   2.609
 5032TIP3    H215103   3.990   5.051   2.488
 5033TIP3   OH215104   1.315   4.091   0.125
 5033TIP3    H115105   1.404   4.061   0.106
 5033TIP3    H215106   1.276   4.106   0.039
 5034TIP3   OH215107   0.583   0.602   3.234
 5034TIP3    H115108   0.593   0.674   3.296
 5034TIP3    H215109   0.492   0.575   3.242
 5035TIP3   OH215110   2.586   0.246   2.498
 5035TIP3    H115111   2.598   0.341   2.499
 5035TIP3    H215112   2.583   0.223   2.405
 5036TIP3   OH215113   5.226   2.052   4.982
 5036TIP3    H115114   5.260   2.127   5.031
 5036TIP3    H215115   5.217   2.083   4.892
 5037TIP3   OH215116   4.476   1.616   0.966
 5037TIP3    H115117   4.553   1.660   1.003
 5037TIP3    H215118   4.405   1.679   0.977
 5038TIP3   OH215119   5.754   2.770   4.731
 5038TIP3    H115120   5.822   2.835   4.752
 5038TIP3    H215121   5.672   2.810   4.760
 5039TIP3   OH215122   3.018   3.652   4.450
 5039TIP3    H115123   3.113   3.639   4.443
 5039TIP3    H215124   2.986   3.571   4.489
 5040TIP3   OH215125   2.509   3.365   1.635
 5040TIP3    H115126   2.552   3.405   1.560
 5040TIP3    H215127   2.512   3.433   1.703
 5041TIP3   OH215128   1.323   3.003   0.416
 5041TIP3    H115129   1.269   3.050   0.480
 5041TIP3    H215130   1.294   3.037   0.331
 5042TIP3   OH215131   0.403   2.154   0.219
 5042TIP3    H115132   0.397   2.140   0.314
 5042TIP3    H215133   0.378   2.069   0.181
 5043TIP3   OH215134   3.601   4.217   3.816
 5043TIP3    H115135   3.629   4.133   3.778
 5043TIP3    H215136   3.673   4.277   3.797
 5044TIP3   OH215137   1.976   3.225   2.720
 5044TIP3    H115138   1.943   3.159   2.781
 5044TIP3    H215139   1.979   3.306   2.772
 5045TIP3   OH215140   5.524   5.453   3.435
 5045TIP3    H115141   5.473   5.386   3.482
 5045TIP3    H215142   5.556   5.407   3.357
 5046TIP3   OH215143   5.306   3.613   4.491
 5046TIP3    H115144   5.252   3.593   4.567
 5046TIP3    H215145   5.396   3.593   4.519
 5047TIP3   OH215146   4.958   5.852   2.771
 5047TIP3    H115147   4.918   5.938   2.779
 5047TIP3    H215148   5.049   5.869   2.746
 5048TIP3   OH215149   1.291   0.897   4.153
 5048TIP3    H115150   1.332   0.976   4.187
 5048TIP3    H215151   1.215   0.930   4.103
 5049TIP3   OH215152   1.254   4.115   0.932
 5049TIP3    H115153   1.349   4.125   0.942
 5049TIP3    H215154   1.217   4.178   0.993
 5050TIP3   OH215155   0.790   2.692   1.631
 5050TIP3    H115156   0.723   2.641   1.679
 5050TIP3    H215157   0.870   2.677   1.681
 5051TIP3   OH215158   0.496   0.345   1.514
 5051TIP3    H115159   0.428   0.332   1.447
 5051TIP3    H215160   0.490   0.438   1.536
 5052TIP3   OH215161   1.311   5.271   4.516
 5052TIP3    H115162   1.321   5.275   4.611
 5052TIP3    H215163   1.357   5.349   4.484
 5053TIP3   OH215164   4.988   4.175   0.415
 5053TIP3    H115165   4.901   4.188   0.454
 5053TIP3    H215166   4.970   4.164   0.322
 5054TIP3   OH215167   4.878   0.915   0.441
 5054TIP3    H115168   4.825   0.921   0.521
 5054TIP3    H215169   4.938   0.989   0.448
 5055TIP3   OH215170   0.463   4.582   3.799
 5055TIP3    H115171   0.453   4.609   3.707
 5055TIP3    H215172   0.476   4.487   3.794
 5056TIP3   OH215173   4.999   0.014   1.425
 5056TIP3    H115174   5.045  -0.055   1.474
 5056TIP3    H215175   4.910   0.012   1.458
 5057TIP3   OH215176   0.624   2.289   0.100
 5057TIP3    H115177   0.582   2.227   0.160
 5057TIP3    H215178   0.586   2.374   0.123
 5058TIP3   OH215179   4.087   4.854   3.427
 5058TIP3    H115180   4.160   4.805   3.464
 5058TIP3    H215181   4.103   4.945   3.453
 5059TIP3   OH215182   4.429   2.623   3.381
 5059TIP3    H115183   4.425   2.586   3.293
 5059TIP3    H215184   4.432   2.718   3.368
 5060TIP3   OH215185   4.873   3.495   1.541
 5060TIP3    H115186   4.835   3.495   1.453
 5060TIP3    H215187   4.909   3.583   1.551
 5061TIP3   OH215188   2.704   2.965   0.340
 5061TIP3    H115189   2.745   3.051   0.349
 5061TIP3    H215190   2.682   2.959   0.247
 5062TIP3   OH215191   6.170   1.701   0.191
 5062TIP3    H115192   6.193   1.794   0.193
 5062TIP3    H215193   6.092   1.697   0.135
 5063TIP3   OH215194   0.301   2.933   3.926
 5063TIP3    H115195   0.393   2.941   3.901
 5063TIP3    H215196   0.254   2.937   3.843
 5064TIP3   OH215197   0.698   2.218   3.232
 5064TIP3    H115198   0.776   2.173   3.202
 5064TIP3    H215199   0.725   2.309   3.241
 5065TIP3   OH215200   2.982   1.934   4.115
 5065TIP3    H115201   3.059   1.890   4.151
 5065TIP3    H215202   2.913   1.919   4.179
 5066TIP3   OH215203   0.710   4.913   4.739
 5066TIP3    H115204   0.774   4.978   4.709
 5066TIP3    H215205   0.657   4.895   4.661
 5067TIP3   OH215206   0.356   3.816   0.151
 5067TIP3    H115207   0.365   3.804   0.245
 5067TIP3    H215208   0.436   3.862   0.125
 5068TIP3   OH215209   0.885   1.531   1.278
 5068TIP3    H115210   0.897   1.550   1.371
 5068TIP3    H215211   0.835   1.606   1.245
 5069TIP3   OH215212   3.492   2.000   3.265
 5069TIP3    H115213   3.560   2.066   3.276
 5069TIP3    H215214   3.430   2.038   3.204
 5070TIP3   OH215215   2.508   4.039   3.393
 5070TIP3    H115216   2.520   4.089   3.313
 5070TIP3    H215217   2.596   4.025   3.427
 5071TIP3   OH215218   1.967   5.452   0.804
 5071TIP3    H115219   2.046   5.454   0.858
 5071TIP3    H215220   1.895   5.463   0.866
 5072TIP3   OH215221   2.473   3.561   0.950
 5072TIP3    H115222   2.493   3.654   0.945
 5072TIP3    H215223   2.379   3.555   0.931
 5073TIP3   OH215224   3.227   4.432   0.250
 5073TIP3    H115225   3.190   4.365   0.307
 5073TIP3    H215226   3.154   4.460   0.195
 5074TIP3   OH215227   0.136   0.786   0.344
 5074TIP3    H115228   0.174   0.736   0.415
 5074TIP3    H215229   0.048   0.809   0.374
 5075TIP3   OH215230   1.842   4.644   1.192
 5075TIP3    H115231   1.826   4.556   1.159
 5075TIP3    H215232   1.789   4.650   1.272
 5076TIP3   OH215233   3.033   0.621   3.809
 5076TIP3    H115234   3.115   0.661   3.839
 5076TIP3    H215235   3.045   0.612   3.715
 5077TIP3   OH215236   3.526   0.612   2.817
 5077TIP3    H115237   3.450   0.641   2.766
 5077TIP3    H215238   3.568   0.693   2.844
 5078TIP3   OH215239   1.322   0.019   2.530
 5078TIP3    H115240   1.409  -0.012   2.554
 5078TIP3    H215241   1.273   0.018   2.612
 5079TIP3   OH215242   5.036   3.500   3.436
 5079TIP3    H115243   5.025   3.507   3.531
 5079TIP3    H215244   4.972   3.434   3.409
 5080TIP3   OH215245   3.567   5.283   3.048
 5080TIP3    H115246   3.587   5.200   3.005
 5080TIP3    H215247   3.651   5.311   3.085
 5081TIP3   OH215248   4.153   3.437   2.110
 5081TIP3    H115249   4.148   3.430   2.015
 5081TIP3    H215250   4.129   3.527   2.130
 5082TIP3   OH215251   4.965   5.406   0.259
 5082TIP3    H115252   4.938   5.438   0.173
 5082TIP3    H215253   4.947   5.312   0.257
 5083TIP3   OH215254   4.079   1.517   4.058
 5083TIP3    H115255   4.139   1.446   4.080
 5083TIP3    H215256   3.993   1.476   4.054
 5084TIP3   OH215257   5.382   1.428   4.635
 5084TIP3    H115258   5.341   1.471   4.710
 5084TIP3    H215259   5.415   1.499   4.581
 5085TIP3   OH215260   3.478   0.935   4.220
 5085TIP3    H115261   3.466   0.865   4.284
 5085TIP3    H215262   3.519   1.006   4.269
 5086TIP3   OH215263   4.251   1.524   1.153
 5086TIP3    H115264   4.207   1.502   1.071
 5086TIP3    H215265   4.311   1.451   1.169
 5087TIP3   OH215266   4.479   3.357   3.774
 5087TIP3    H115267   4.392   3.360   3.814
 5087TIP3    H215268   4.514   3.445   3.786
 5088TIP3   OH215269   5.204   1.773   1.188
 5088TIP3    H115270   5.128   1.742   1.237
 5088TIP3    H215271   5.271   1.787   1.255
 5089TIP3   OH215272   0.540   4.757   0.604
 5089TIP3    H115273   0.480   4.828   0.580
 5089TIP3    H215274   0.591   4.793   0.677
 5090TIP3   OH215275   1.826   3.615   2.894
 5090TIP3    H115276   1.831   3.711   2.894
 5090TIP3    H215277   1.889   3.588   2.961
 5091TIP3   OH215278   3.640   2.651   4.901
 5091TIP3    H115279   3.603   2.672   4.987
 5091TIP3    H215280   3.728   2.617   4.920
 5092TIP3   OH215281   3.492   4.723   4.233
 5092TIP3    H115282   3.494   4.784   4.308
 5092TIP3    H215283   3.410   4.744   4.188
 5093TIP3   OH215284   3.232   4.923   1.809
 5093TIP3    H115285   3.280   4.949   1.730
 5093TIP3    H215286   3.271   4.840   1.835
 5094TIP3   OH215287   0.450   3.803   0.500
 5094TIP3    H115288   0.540   3.773   0.490
 5094TIP3    H215289   0.457   3.887   0.546
 5095TIP3   OH215290   2.328   2.875   4.156
 5095TIP3    H115291   2.256   2.837   4.206
 5095TIP3    H215292   2.380   2.801   4.127
 5096TIP3   OH215293   3.395   0.531   2.292
 5096TIP3    H115294   3.363   0.556   2.378
 5096TIP3    H215295   3.327   0.471   2.258
 5097TIP3   OH215296   2.424   3.877   1.943
 5097TIP3    H115297   2.439   3.828   1.862
 5097TIP3    H215298   2.464   3.962   1.927
 5098TIP3   OH215299   0.095   1.161   1.469
 5098TIP3    H115300   0.107   1.238   1.415
 5098TIP3    H215301   0.048   1.192   1.546
 5099TIP3   OH215302   5.482   4.022   2.735
 5099TIP3    H115303   5.571   4.005   2.765
 5099TIP3    H215304   5.491   4.037   2.641
 5100TIP3   OH215305   4.364   5.266   2.342
 5100TIP3    H115306   4.412   5.301   2.267
 5100TIP3    H215307   4.279   5.310   2.337
 5101TIP3   OH215308   0.647   4.775   2.047
 5101TIP3    H115309   0.705   4.704   2.074
 5101TIP3    H215310   0.618   4.751   1.959
 5102TIP3   OH215311   1.986   4.252   1.135
 5102TIP3    H115312   2.050   4.323   1.122
 5102TIP3    H215313   2.037   4.181   1.173
 5103TIP3   OH215314   1.298   2.601   0.956
 5103TIP3    H115315   1.290   2.509   0.983
 5103TIP3    H215316   1.350   2.642   1.025
 5104TIP3   OH215317   0.502   0.357   0.165
 5104TIP3    H115318   0.598   0.362   0.162
 5104TIP3    H215319   0.473   0.445   0.141
 5105TIP3   OH215320   1.691   4.369   0.157
 5105TIP3    H115321   1.612   4.373   0.103
 5105TIP3    H215322   1.739   4.293   0.124
 5106TIP3   OH215323   2.881   0.989   1.691
 5106TIP3    H115324   2.852   0.949   1.609
 5106TIP3    H215325   2.813   0.967   1.754
 5107TIP3   OH215326   2.020   4.017   1.239
 5107TIP3    H115327   2.028   4.022   1.334
 5107TIP3    H215328   1.950   3.952   1.225
 5108TIP3   OH215329   4.351   0.312   2.161
 5108TIP3    H115330   4.291   0.356   2.101
 5108TIP3    H215331   4.412   0.266   2.104
 5109TIP3   OH215332   5.960   0.918   4.675
 5109TIP3    H115333   6.006   0.887   4.597
 5109TIP3    H215334   6.011   0.992   4.705
 5110TIP3   OH215335   5.665   3.056   2.603
 5110TIP3    H115336   5.592   3.112   2.630
 5110TIP3    H215337   5.672   2.990   2.672
 5111TIP3   OH215338   4.139   2.001   0.145
 5111TIP3    H115339   4.195   2.009   0.068
 5111TIP3    H215340   4.081   1.928   0.126
 5112TIP3   OH215341   5.009   1.132   3.808
 5112TIP3    H115342   5.009   1.038   3.792
 5112TIP3    H215343   4.918   1.159   3.793
 5113TIP3   OH215344   4.210   3.265   1.177
 5113TIP3    H115345   4.115   3.254   1.188
 5113TIP3    H215346   4.224   3.259   1.083
 5114TIP3   OH215347   4.129   5.903   4.960
 5114TIP3    H115348   4.105   5.887   4.869
 5114TIP3    H215349   4.148   5.997   4.963
 5115TIP3   OH215350   3.618   4.330   0.508
 5115TIP3    H115351   3.695   4.379   0.538
 5115TIP3    H215352   3.549   4.396   0.502
 5116TIP3   OH215353   3.483   4.080   2.115
 5116TIP3    H115354   3.443   4.076   2.202
 5116TIP3    H215355   3.414   4.053   2.055
 5117TIP3   OH215356   5.954   3.862   1.524
 5117TIP3    H115357   5.988   3.827   1.606
 5117TIP3    H215358   6.032   3.888   1.475
 5118TIP3   OH215359   3.341   3.340   4.806
 5118TIP3    H115360   3.327   3.411   4.869
 5118TIP3    H215361   3.435   3.338   4.792
 5119TIP3   OH215362   5.039   1.415   2.034
 5119TIP3    H115363   4.982   1.401   1.959
 5119TIP3    H215364   5.004   1.357   2.102
 5120TIP3   OH215365   2.539   2.393   2.242
 5120TIP3    H115366   2.462   2.413   2.296
 5120TIP3    H215367   2.505   2.333   2.175
 5121TIP3   OH215368   5.247   4.453   2.737
 5121TIP3    H115369   5.184   4.388   2.767
 5121TIP3    H215370   5.206   4.492   2.659
 5122TIP3   OH215371   5.862   2.666   3.731
 5122TIP3    H115372   5.842   2.760   3.732
 5122TIP3    H215373   5.886   2.648   3.640
 5123TIP3   OH215374   1.797   4.276   4.873
 5123TIP3    H115375   1.772   4.364   4.846
 5123TIP3    H215376   1.718   4.241   4.914
 5124TIP3   OH215377   1.842   2.459   2.345
 5124TIP3    H115378   1.820   2.535   2.291
 5124TIP3    H215379   1.815   2.384   2.293
 5125TIP3   OH215380   5.752   4.315   4.963
 5125TIP3    H115381   5.740   4.243   5.026
 5125TIP3    H215382   5.846   4.332   4.963
 5126TIP3   OH215383   2.861   3.204   1.864
 5126TIP3    H115384   2.795   3.140   1.840
 5126TIP3    H215385   2.903   3.167   1.942
 5127TIP3   OH215386   4.829   3.838   0.248
 5127TIP3    H115387   4.893   3.806   0.311
 5127TIP3    H215388   4.875   3.903   0.196
 5128TIP3   OH215389   5.115   4.882   4.869
 5128TIP3    H115390   5.181   4.891   4.801
 5128TIP3    H215391   5.154   4.821   4.932
 5129TIP3   OH215392   4.639   4.587   4.642
 5129TIP3    H115393   4.554   4.579   4.686
 5129TIP3    H215394   4.617   4.585   4.548
 5130TIP3   OH215395   5.374   4.017   4.204
 5130TIP3    H115396   5.305   4.050   4.146
 5130TIP3    H215397   5.363   3.922   4.203
 5131TIP3   OH215398   1.184   2.154   0.422
 5131TIP3    H115399   1.115   2.183   0.482
 5131TIP3    H215400   1.257   2.213   0.439
 5132TIP3   OH215401   3.283   0.692   3.367
 5132TIP3    H115402   3.267   0.774   3.320
 5132TIP3    H215403   3.339   0.642   3.308
 5133TIP3   OH215404   2.753   1.255   3.384
 5133TIP3    H115405   2.714   1.312   3.450
 5133TIP3    H215406   2.845   1.281   3.381
 5134TIP3   OH215407   5.680   4.661   0.104
 5134TIP3    H115408   5.756   4.717   0.117
 5134TIP3    H215409   5.660   4.626   0.191
 5135TIP3   OH215410   5.341   0.971   2.392
 5135TIP3    H115411   5.313   1.034   2.459
 5135TIP3    H215412   5.434   0.958   2.410
 5136TIP3   OH215413   0.838   1.976   0.996
 5136TIP3    H115414   0.926   1.953   0.967
 5136TIP3    H215415   0.807   1.900   1.045
 5137TIP3   OH215416   1.676   4.630   3.279
 5137TIP3    H115417   1.662   4.718   3.314
 5137TIP3    H215418   1.638   4.571   3.343
 5138TIP3   OH215419   5.984   2.086   0.199
 5138TIP3    H115420   5.925   2.052   0.132
 5138TIP3    H215421   6.071   2.052   0.174
 5139TIP3   OH215422   5.028   1.765   3.250
 5139TIP3    H115423   5.089   1.810   3.308
 5139TIP3    H215424   5.008   1.683   3.295
 5140TIP3   OH215425   5.247   3.034   0.504
 5140TIP3    H115426   5.268   3.030   0.598
 5140TIP3    H215427   5.156   3.063   0.501
 5141TIP3   OH215428   3.823   1.155   0.802
 5141TIP3    H115429   3.750   1.098   0.825
 5141TIP3    H215430   3.864   1.114   0.726
 5142TIP3   OH215431   2.286   3.190   1.834
 5142TIP3    H115432   2.377   3.199   1.806
 5142TIP3    H215433   2.238   3.253   1.781
 5143TIP3   OH215434   0.234   0.056   3.078
 5143TIP3    H115435   0.288   0.051   3.000
 5143TIP3    H215436   0.155   0.104   3.050
 5144TIP3   OH215437   5.377   0.896   0.531
 5144TIP3    H115438   5.325   0.855   0.463
 5144TIP3    H215439   5.314   0.917   0.600
 5145TIP3   OH215440   4.928   2.464   3.866
 5145TIP3    H115441   4.862   2.434   3.804
 5145TIP3    H215442   4.880   2.522   3.925
 5146TIP3   OH215443   1.335   2.615   2.788
 5146TIP3    H115444   1.315   2.548   2.853
 5146TIP3    H215445   1.430   2.617   2.784
 5147TIP3   OH215446   2.535   1.407   2.590
 5147TIP3    H115447   2.479   1.365   2.524
 5147TIP3    H215448   2.490   1.488   2.612
 5148TIP3   OH215449   0.125   5.421   2.064
 5148TIP3    H115450   0.049   5.366   2.085
 5148TIP3    H215451   0.147   5.398   1.974
 5149TIP3   OH215452   1.089   3.910   1.062
 5149TIP3    H115453   1.127   3.984   1.015
 5149TIP3    H215454   1.165   3.865   1.101
 5150TIP3   OH215455   5.647   3.690   0.041
 5150TIP3    H115456   5.666   3.773   0.086
 5150TIP3    H215457   5.663   3.623   0.107
 5151TIP3   OH215458   3.740   5.947   3.956
 5151TIP3    H115459   3.745   6.025   3.901
 5151TIP3    H215460   3.757   5.979   4.045
 5152TIP3   OH215461   4.766   2.456   4.167
 5152TIP3    H115462   4.764   2.550   4.146
 5152TIP3    H215463   4.675   2.433   4.182
 5153TIP3   OH215464   2.183   0.976   3.904
 5153TIP3    H115465   2.109   0.917   3.920
 5153TIP3    H215466   2.239   0.929   3.843
 5154TIP3   OH215467   4.962   1.051   2.016
 5154TIP3    H115468   5.015   1.011   1.947
 5154TIP3    H215469   4.920   1.126   1.974
 5155TIP3   OH215470   2.645   4.961   2.149
 5155TIP3    H115471   2.606   5.049   2.156
 5155TIP3    H215472   2.679   4.957   2.060
 5156TIP3   OH215473   3.749   5.617   1.741
 5156TIP3    H115474   3.672   5.656   1.699
 5156TIP3    H215475   3.816   5.619   1.673
 5157TIP3   OH215476   6.212   2.091   2.828
 5157TIP3    H115477   6.242   2.178   2.854
 5157TIP3    H215478   6.265   2.030   2.880
 5158TIP3   OH215479   4.761   0.070   1.140
 5158TIP3    H115480   4.715   0.141   1.184
 5158TIP3    H215481   4.692   0.012   1.108
 5159TIP3   OH215482   2.816   0.805   2.251
 5159TIP3    H115483   2.753   0.735   2.238
 5159TIP3    H215484   2.765   0.886   2.242
 5160TIP3   OH215485   5.766   5.885   3.493
 5160TIP3    H115486   5.813   5.811   3.531
 5160TIP3    H215487   5.709   5.916   3.563
 5161TIP3   OH215488   4.629   2.957   2.541
 5161TIP3    H115489   4.700   2.960   2.476
 5161TIP3    H215490   4.568   3.024   2.511
 5162TIP3   OH215491   3.404   1.626   3.929
 5162TIP3    H115492   3.389   1.603   4.021
 5162TIP3    H215493   3.468   1.698   3.933
 5163TIP3   OH215494   0.221   4.703   1.437
 5163TIP3    H115495   0.240   4.662   1.353
 5163TIP3    H215496   0.219   4.630   1.500
 5164TIP3   OH215497   2.932   1.029   2.084
 5164TIP3    H115498   2.913   0.946   2.129
 5164TIP3    H215499   2.863   1.089   2.113
 5165TIP3   OH215500   0.558   5.233   3.476
 5165TIP3    H115501   0.601   5.223   3.391
 5165TIP3    H215502   0.467   5.207   3.459
 5166TIP3   OH215503   4.585   0.899   0.850
 5166TIP3    H115504   4.498   0.868   0.824
 5166TIP3    H215505   4.572   0.936   0.937
 5167TIP3   OH215506   4.019   4.077   0.719
 5167TIP3    H115507   3.991   3.995   0.759
 5167TIP3    H215508   3.937   4.124   0.703
 5168TIP3   OH215509   1.982   4.636   2.980
 5168TIP3    H115510   1.887   4.629   2.970
 5168TIP3    H215511   2.018   4.589   2.904
 5169TIP3   OH215512   3.301   5.537   0.236
 5169TIP3    H115513   3.338   5.450   0.222
 5169TIP3    H215514   3.224   5.541   0.179
 5170TIP3   OH215515   6.300   0.427   3.328
 5170TIP3    H115516   6.323   0.449   3.419
 5170TIP3    H215517   6.315   0.333   3.322
 5171TIP3   OH215518   3.865   5.711   3.822
 5171TIP3    H115519   3.931   5.778   3.801
 5171TIP3    H215520   3.805   5.755   3.882
 5172TIP3   OH215521   2.806   6.049   2.787
 5172TIP3    H115522   2.783   6.031   2.878
 5172TIP3    H215523   2.769   5.976   2.737
 5173TIP3   OH215524   0.082   5.942   0.975
 5173TIP3    H115525   0.118   5.969   0.891
 5173TIP3    H215526   0.128   5.861   0.996
 5174TIP3   OH215527   3.908   0.483   4.901
 5174TIP3    H115528   3.869   0.463   4.986
 5174TIP3    H215529   3.994   0.442   4.903
 5175TIP3   OH215530   6.333   1.354   3.679
 5175TIP3    H115531   6.305   1.366   3.770
 5175TIP3    H215532   6.374   1.437   3.656
 5176TIP3   OH215533   2.396   4.296   0.795
 5176TIP3    H115534   2.412   4.203   0.780
 5176TIP3    H215535   2.307   4.310   0.761
 5177TIP3   OH215536   5.417   2.116   1.564
 5177TIP3    H115537   5.487   2.093   1.624
 5177TIP3    H215538   5.457   2.174   1.500
 5178TIP3   OH215539   4.586   1.588   4.020
 5178TIP3    H115540   4.665   1.609   4.071
 5178TIP3    H215541   4.619   1.564   3.934
 5179TIP3   OH215542   4.538   1.604   0.578
 5179TIP3    H115543   4.461   1.659   0.564
 5179TIP3    H215544   4.509   1.516   0.557
 5180TIP3   OH215545   3.241   4.556   2.499
 5180TIP3    H115546   3.211   4.647   2.498
 5180TIP3    H215547   3.233   4.527   2.409
 5181TIP3   OH215548   5.170   2.619  -0.004
 5181TIP3    H115549   5.186   2.677  -0.078
 5181TIP3    H215550   5.256   2.586   0.021
 5182TIP3   OH215551   2.042   3.080   1.606
 5182TIP3    H115552   2.064   3.170   1.629
 5182TIP3    H215553   2.097   3.026   1.663
 5183TIP3   OH215554   1.947   3.840   0.349
 5183TIP3    H115555   1.859   3.811   0.326
 5183TIP3    H215556   1.947   3.934   0.334
 5184TIP3   OH215557   5.942   5.582   0.800
 5184TIP3    H115558   5.881   5.592   0.727
 5184TIP3    H215559   5.930   5.662   0.852
 5185TIP3   OH215560   0.942   3.098   1.767
 5185TIP3    H115561   0.931   3.189   1.742
 5185TIP3    H215562   0.876   3.083   1.835
 5186TIP3   OH215563   4.234   1.712   0.246
 5186TIP3    H115564   4.156   1.666   0.276
 5186TIP3    H215565   4.232   1.703   0.151
 5187TIP3   OH215566   3.886   2.018   1.279
 5187TIP3    H115567   3.958   1.958   1.300
 5187TIP3    H215568   3.919   2.069   1.205
 5188TIP3   OH215569   3.065   0.341   3.436
 5188TIP3    H115570   3.006   0.405   3.398
 5188TIP3    H215571   3.012   0.262   3.445
 5189TIP3   OH215572   5.438   3.827   3.857
 5189TIP3    H115573   5.414   3.880   3.781
 5189TIP3    H215574   5.507   3.877   3.901
 5190TIP3   OH215575   4.108   4.567   3.158
 5190TIP3    H115576   4.071   4.651   3.186
 5190TIP3    H215577   4.167   4.542   3.229
 5191TIP3   OH215578   2.734   0.229   3.698
 5191TIP3    H115579   2.813   0.217   3.749
 5191TIP3    H215580   2.753   0.304   3.641
 5192TIP3   OH215581   3.344   1.567   4.733
 5192TIP3    H115582   3.368   1.624   4.807
 5192TIP3    H215583   3.425   1.558   4.683
 5193TIP3   OH215584   0.188   1.153   4.421
 5193TIP3    H115585   0.106   1.137   4.467
 5193TIP3    H215586   0.197   1.248   4.418
 5194TIP3   OH215587   4.478   5.672   4.031
 5194TIP3    H115588   4.437   5.727   4.097
 5194TIP3    H215589   4.406   5.632   3.983
 5195TIP3   OH215590   3.109   0.800   2.866
 5195TIP3    H115591   3.127   0.816   2.773
 5195TIP3    H215592   3.195   0.798   2.907
 5196TIP3   OH215593   4.638   3.851   2.574
 5196TIP3    H115594   4.676   3.907   2.641
 5196TIP3    H215595   4.610   3.910   2.505
 5197TIP3   OH215596   5.108   4.773   3.299
 5197TIP3    H115597   5.195   4.735   3.314
 5197TIP3    H215598   5.092   4.759   3.206
 5198TIP3   OH215599   2.115   0.614   0.044
 5198TIP3    H115600   2.103   0.623  -0.050
 5198TIP3    H215601   2.078   0.528   0.064
 5199TIP3   OH215602   1.834   5.357   2.236
 5199TIP3    H115603   1.882   5.369   2.318
 5199TIP3    H215604   1.896   5.381   2.168
 5200TIP3   OH215605   0.883   2.540   0.634
 5200TIP3    H115606   0.894   2.635   0.631
 5200TIP3    H215607   0.811   2.526   0.696
 5201TIP3   OH215608   3.745   5.409   3.219
 5201TIP3    H115609   3.734   5.421   3.313
 5201TIP3    H215610   3.767   5.496   3.186
 5202TIP3   OH215611   2.087   0.591   2.285
 5202TIP3    H115612   2.112   0.610   2.194
 5202TIP3    H215613   2.072   0.677   2.324
 5203TIP3   OH215614   3.557   5.570   3.975
 5203TIP3    H115615   3.492   5.626   3.932
 5203TIP3    H215616   3.626   5.559   3.910
 5204TIP3   OH215617   4.646   5.654   4.434
 5204TIP3    H115618   4.570   5.599   4.413
 5204TIP3    H215619   4.721   5.606   4.400
 5205TIP3   OH215620   5.485   3.727   4.958
 5205TIP3    H115621   5.432   3.784   4.902
 5205TIP3    H215622   5.434   3.647   4.965
 5206TIP3   OH215623   5.338   5.430   1.739
 5206TIP3    H115624   5.243   5.437   1.730
 5206TIP3    H215625   5.373   5.499   1.682
 5207TIP3   OH215626   2.780   1.452   1.696
 5207TIP3    H115627   2.763   1.364   1.730
 5207TIP3    H215628   2.796   1.439   1.603
 5208TIP3   OH215629   1.736   2.474   0.400
 5208TIP3    H115630   1.714   2.454   0.309
 5208TIP3    H215631   1.756   2.390   0.439
 5209TIP3   OH215632   1.697   5.988   0.282
 5209TIP3    H115633   1.723   5.909   0.331
 5209TIP3    H215634   1.725   5.970   0.192
 5210TIP3   OH215635   3.429   0.581   3.890
 5210TIP3    H115636   3.360   0.544   3.946
 5210TIP3    H215637   3.438   0.671   3.919
 5211TIP3   OH215638   6.132   5.444   4.676
 5211TIP3    H115639   6.068   5.473   4.610
 5211TIP3    H215640   6.167   5.363   4.641
 5212TIP3   OH215641   0.543   4.602   0.173
 5212TIP3    H115642   0.492   4.522   0.161
 5212TIP3    H215643   0.585   4.591   0.258
 5213TIP3   OH215644   5.534   4.680   2.200
 5213TIP3    H115645   5.624   4.688   2.168
 5213TIP3    H215646   5.482   4.725   2.133
 5214TIP3   OH215647   0.288   2.629   4.173
 5214TIP3    H115648   0.258   2.586   4.093
 5214TIP3    H215649   0.366   2.678   4.147
 5215TIP3   OH215650   2.616   0.040   1.365
 5215TIP3    H115651   2.573   0.050   1.281
 5215TIP3    H215652   2.556   0.080   1.428
 5216TIP3   OH215653   4.783   2.618   0.104
 5216TIP3    H115654   4.870   2.623   0.144
 5216TIP3    H215655   4.762   2.525   0.103
 5217TIP3   OH215656   0.829   5.906   4.898
 5217TIP3    H115657   0.904   5.887   4.841
 5217TIP3    H215658   0.868   5.935   4.980
 5218TIP3   OH215659   1.963   5.067   0.929
 5218TIP3    H115660   1.980   5.147   0.979
 5218TIP3    H215661   2.048   5.044   0.892
 5219TIP3   OH215662   0.758   4.957   3.089
 5219TIP3    H115663   0.748   5.015   3.013
 5219TIP3    H215664   0.679   4.972   3.141
 5220TIP3   OH215665   3.051   0.096   2.022
 5220TIP3    H115666   3.033   0.186   2.050
 5220TIP3    H215667   3.030   0.095   1.929
 5221TIP3   OH215668   5.584   0.266   2.315
 5221TIP3    H115669   5.594   0.317   2.234
 5221TIP3    H215670   5.490   0.247   2.319
 5222TIP3   OH215671   2.143   5.000   1.623
 5222TIP3    H115672   2.133   5.095   1.611
 5222TIP3    H215673   2.226   4.980   1.580
 5223TIP3   OH215674   2.572   0.360   3.896
 5223TIP3    H115675   2.628   0.309   3.838
 5223TIP3    H215676   2.557   0.442   3.848
 5224TIP3   OH215677   5.250   2.726   3.977
 5224TIP3    H115678   5.337   2.695   3.950
 5224TIP3    H215679   5.226   2.667   4.049
 5225TIP3   OH215680   0.482   1.984   0.917
 5225TIP3    H115681   0.512   1.952   1.002
 5225TIP3    H215682   0.497   1.912   0.857
 5226TIP3   OH215683   3.108   0.425   2.523
 5226TIP3    H115684   3.035   0.403   2.466
 5226TIP3    H215685   3.161   0.345   2.525
 5227TIP3   OH215686   0.449   0.945   3.879
 5227TIP3    H115687   0.446   0.935   3.974
 5227TIP3    H215688   0.357   0.937   3.852
 5228TIP3   OH215689   1.272   0.872   0.608
 5228TIP3    H115690   1.243   0.811   0.676
 5228TIP3    H215691   1.345   0.827   0.565
 5229TIP3   OH215692   3.085   0.719   2.299
 5229TIP3    H115693   2.996   0.744   2.273
 5229TIP3    H215694   3.102   0.638   2.252
 5230TIP3   OH215695   4.695   0.703   1.629
 5230TIP3    H115696   4.692   0.664   1.716
 5230TIP3    H215697   4.603   0.715   1.605
 5231TIP3   OH215698   5.892   5.170   0.896
 5231TIP3    H115699   5.928   5.084   0.871
 5231TIP3    H215700   5.969   5.225   0.909
 5232TIP3   OH215701   5.523   4.753   1.036
 5232TIP3    H115702   5.524   4.779   0.944
 5232TIP3    H215703   5.431   4.739   1.057
 5233TIP3   OH215704   6.234   0.436   2.431
 5233TIP3    H115705   6.161   0.497   2.443
 5233TIP3    H215706   6.222   0.401   2.343
 5234TIP3   OH215707   0.982   2.093   4.383
 5234TIP3    H115708   1.052   2.136   4.433
 5234TIP3    H215709   0.901   2.122   4.423
 5235TIP3   OH215710   2.402   3.041   0.842
 5235TIP3    H115711   2.309   3.054   0.860
 5235TIP3    H215712   2.410   2.948   0.821
 5236TIP3   OH215713   3.551   2.929   1.721
 5236TIP3    H115714   3.617   2.907   1.656
 5236TIP3    H215715   3.471   2.945   1.670
 5237TIP3   OH215716   3.977   5.245   1.447
 5237TIP3    H115717   4.070   5.230   1.465
 5237TIP3    H215718   3.974   5.333   1.409
 5238TIP3   OH215719   0.260   5.274   3.380
 5238TIP3    H115720   0.230   5.335   3.447
 5238TIP3    H215721   0.247   5.320   3.297
 5239TIP3   OH215722   2.276   3.194   4.351
 5239TIP3    H115723   2.312   3.105   4.353
 5239TIP3    H215724   2.292   3.228   4.440
 5240TIP3   OH215725   4.907   1.055   0.805
 5240TIP3    H115726   4.841   1.096   0.861
 5240TIP3    H215727   4.899   0.961   0.822
 5241TIP3   OH215728   5.765   0.082   1.801
 5241TIP3    H115729   5.751   0.149   1.734
 5241TIP3    H215730   5.687   0.089   1.857
 5242TIP3   OH215731   0.280   4.461   4.588
 5242TIP3    H115732   0.225   4.535   4.612
 5242TIP3    H215733   0.247   4.432   4.503
 5243TIP3   OH215734   3.662   1.446   0.880
 5243TIP3    H115735   3.717   1.469   0.955
 5243TIP3    H215736   3.572   1.457   0.911
 5244TIP3   OH215737   1.581   3.354   4.390
 5244TIP3    H115738   1.508   3.408   4.358
 5244TIP3    H215739   1.538   3.277   4.428
 5245TIP3   OH215740   1.671   5.184   4.530
 5245TIP3    H115741   1.652   5.278   4.540
 5245TIP3    H215742   1.632   5.143   4.607
 5246TIP3   OH215743   2.226   3.471   3.634
 5246TIP3    H115744   2.213   3.477   3.539
 5246TIP3    H215745   2.168   3.538   3.671
 5247TIP3   OH215746   5.082   2.213   4.730
 5247TIP3    H115747   5.176   2.197   4.731
 5247TIP3    H215748   5.057   2.204   4.638
 5248TIP3   OH215749   1.285   1.784   4.342
 5248TIP3    H115750   1.343   1.795   4.417
 5248TIP3    H215751   1.315   1.848   4.278
 5249TIP3   OH215752   5.474   3.090   0.337
 5249TIP3    H115753   5.396   3.068   0.389
 5249TIP3    H215754   5.521   3.007   0.328
 5250TIP3   OH215755   4.328   5.685   1.099
 5250TIP3    H115756   4.276   5.613   1.135
 5250TIP3    H215757   4.271   5.762   1.106
 5251TIP3   OH215758   3.818   1.725   5.061
 5251TIP3    H115759   3.824   1.635   5.093
 5251TIP3    H215760   3.909   1.753   5.050
 5252TIP3   OH215761   5.357   3.198   4.385
 5252TIP3    H115762   5.276   3.159   4.355
 5252TIP3    H215763   5.331   3.254   4.458
 5253TIP3   OH215764   5.039   5.700   3.297
 5253TIP3    H115765   5.040   5.783   3.345
 5253TIP3    H215766   4.972   5.713   3.229
 5254TIP3   OH215767   2.937   3.722   4.991
 5254TIP3    H115768   2.862   3.682   4.949
 5254TIP3    H215769   2.997   3.744   4.920
 5255TIP3   OH215770   3.197   4.749   1.364
 5255TIP3    H115771   3.174   4.842   1.365
 5255TIP3    H215772   3.114   4.703   1.352
 5256TIP3   OH215773   0.962   3.997   1.731
 5256TIP3    H115774   0.982   4.038   1.815
 5256TIP3    H215775   1.003   3.911   1.735
 5257TIP3   OH215776   4.332   4.496   0.648
 5257TIP3    H115777   4.247   4.540   0.641
 5257TIP3    H215778   4.311   4.408   0.681
 5258TIP3   OH215779   3.632   1.817   1.618
 5258TIP3    H115780   3.621   1.896   1.671
 5258TIP3    H215781   3.726   1.804   1.611
 5259TIP3   OH215782   2.085   5.369   3.399
 5259TIP3    H115783   2.080   5.461   3.425
 5259TIP3    H215784   1.999   5.350   3.362
 5260TIP3   OH215785   2.883   4.825   0.552
 5260TIP3    H115786   2.877   4.919   0.566
 5260TIP3    H215787   2.977   4.806   0.556
 5261TIP3   OH215788   4.624   5.894   0.745
 5261TIP3    H115789   4.556   5.848   0.696
 5261TIP3    H215790   4.594   5.985   0.747
 5262TIP3   OH215791   1.206   1.637   0.897
 5262TIP3    H115792   1.274   1.617   0.833
 5262TIP3    H215793   1.228   1.584   0.974
 5263TIP3   OH215794   3.468   0.726   4.404
 5263TIP3    H115795   3.387   0.716   4.453
 5263TIP3    H215796   3.484   0.640   4.367
 5264TIP3   OH215797   1.958   3.428   5.149
 5264TIP3    H115798   1.923   3.473   5.072
 5264TIP3    H215799   1.880   3.399   5.197
 5265TIP3   OH215800   5.117   5.807   3.910
 5265TIP3    H115801   5.159   5.891   3.897
 5265TIP3    H215802   5.050   5.824   3.976
 5266TIP3   OH215803   4.731   3.953   0.959
 5266TIP3    H115804   4.741   4.012   0.885
 5266TIP3    H215805   4.637   3.937   0.966
 5267TIP3   OH215806   2.768   0.863   4.115
 5267TIP3    H115807   2.836   0.898   4.058
 5267TIP3    H215808   2.809   0.857   4.201
 5268TIP3   OH215809   2.077   0.205   2.857
 5268TIP3    H115810   2.009   0.221   2.923
 5268TIP3    H215811   2.153   0.176   2.907
 5269TIP3   OH215812   5.173   4.787   1.332
 5269TIP3    H115813   5.181   4.866   1.385
 5269TIP3    H215814   5.079   4.770   1.328
 5270TIP3   OH215815   4.390   5.629   2.392
 5270TIP3    H115816   4.300   5.648   2.367
 5270TIP3    H215817   4.397   5.661   2.482
 5271TIP3   OH215818   3.859   1.231   1.984
 5271TIP3    H115819   3.904   1.312   2.005
 5271TIP3    H215820   3.929   1.169   1.964
 5272TIP3   OH215821   2.452   0.002   4.131
 5272TIP3    H115822   2.369  -0.014   4.087
 5272TIP3    H215823   2.442   0.089   4.169
 5273TIP3   OH215824   0.561   3.987   3.870
 5273TIP3    H115825   0.624   4.024   3.932
 5273TIP3    H215826   0.615   3.956   3.797
 5274TIP3   OH215827   5.961   1.684   3.382
 5274TIP3    H115828   6.010   1.762   3.357
 5274TIP3    H215829   6.005   1.650   3.459
 5275TIP3   OH215830   4.945   0.992   1.247
 5275TIP3    H115831   4.901   0.925   1.299
 5275TIP3    H215832   5.020   0.948   1.208
 5276TIP3   OH215833   1.928   4.598   0.571
 5276TIP3    H115834   1.869   4.571   0.501
 5276TIP3    H215835   1.990   4.657   0.529
 5277TIP3   OH215836   5.372   1.874   2.841
 5277TIP3    H115837   5.336   1.952   2.884
 5277TIP3    H215838   5.453   1.857   2.888
 5278TIP3   OH215839   1.279   4.777   0.742
 5278TIP3    H115840   1.368   4.742   0.749
 5278TIP3    H215841   1.251   4.752   0.654
 5279TIP3   OH215842   6.085   1.146   1.453
 5279TIP3    H115843   6.107   1.052   1.452
 5279TIP3    H215844   6.137   1.181   1.525
 5280TIP3   OH215845   0.736   4.930   0.749
 5280TIP3    H115846   0.671   4.970   0.692
 5280TIP3    H215847   0.768   5.002   0.804
 5281TIP3   OH215848   0.201   5.861   1.564
 5281TIP3    H115849   0.275   5.806   1.589
 5281TIP3    H215850   0.159   5.814   1.493
 5282TIP3   OH215851   1.090   2.652   4.440
 5282TIP3    H115852   1.059   2.598   4.513
 5282TIP3    H215853   1.155   2.597   4.395
 5283TIP3   OH215854   5.948   0.453   3.682
 5283TIP3    H115855   6.003   0.531   3.681
 5283TIP3    H215856   5.941   0.429   3.774
 5284TIP3   OH215857   0.575   0.299   1.223
 5284TIP3    H115858   0.567   0.204   1.224
 5284TIP3    H215859   0.574   0.324   1.315
 5285TIP3   OH215860   5.512   2.908   1.076
 5285TIP3    H115861   5.418   2.924   1.066
 5285TIP3    H215862   5.551   2.944   0.996
 5286TIP3   OH215863   4.973   4.491   1.692
 5286TIP3    H115864   5.060   4.502   1.653
 5286TIP3    H215865   4.958   4.396   1.692
 5287TIP3   OH215866   3.091   0.974   1.894
 5287TIP3    H115867   3.029   0.996   1.964
 5287TIP3    H215868   3.044   0.912   1.839
 5288TIP3   OH215869   2.686   3.561   0.058
 5288TIP3    H115870   2.633   3.638   0.081
 5288TIP3    H215871   2.678   3.503   0.134
 5289TIP3   OH215872   5.632   4.388   0.529
 5289TIP3    H115873   5.701   4.369   0.592
 5289TIP3    H215874   5.551   4.379   0.579
 5290TIP3   OH215875   5.835   3.541   3.114
 5290TIP3    H115876   5.858   3.499   3.197
 5290TIP3    H215877   5.919   3.568   3.076
 5291TIP3   OH215878   3.967   1.133   2.474
 5291TIP3    H115879   3.982   1.181   2.556
 5291TIP3    H215880   3.876   1.103   2.480
 5292TIP3   OH215881   0.303   0.610   2.256
 5292TIP3    H115882   0.253   0.610   2.338
 5292TIP3    H215883   0.387   0.649   2.279
 5293TIP3   OH215884   4.186   5.890   2.793
 5293TIP3    H115885   4.137   5.867   2.714
 5293TIP3    H215886   4.190   5.986   2.791
 5294TIP3   OH215887   5.485   5.320   1.187
 5294TIP3    H115888   5.411   5.352   1.136
 5294TIP3    H215889   5.547   5.287   1.121
 5295TIP3   OH215890   2.027   5.209   4.057
 5295TIP3    H115891   2.016   5.152   4.133
 5295TIP3    H215892   1.940   5.244   4.039
 5296TIP3   OH215893   5.506   4.607   3.579
 5296TIP3    H115894   5.480   4.624   3.669
 5296TIP3    H215895   5.591   4.563   3.586
 5297TIP3   OH215896   2.739   5.570   1.352
 5297TIP3    H115897   2.656   5.561   1.306
 5297TIP3    H215898   2.805   5.543   1.287
 5298TIP3   OH215899   2.651   2.951   2.475
 5298TIP3    H115900   2.570   2.999   2.495
 5298TIP3    H215901   2.673   2.979   2.386
 5299TIP3   OH215902   2.217   0.585   3.056
 5299TIP3    H115903   2.226   0.491   3.075
 5299TIP3    H215904   2.301   0.623   3.081
 5300TIP3   OH215905   1.659   3.105   3.569
 5300TIP3    H115906   1.661   3.054   3.488
 5300TIP3    H215907   1.619   3.189   3.544
 5301TIP3   OH215908   5.279   4.607   2.391
 5301TIP3    H115909   5.220   4.628   2.463
 5301TIP3    H215910   5.234   4.638   2.313
 5302TIP3   OH215911   3.234   0.211   5.013
 5302TIP3    H115912   3.276   0.199   4.928
 5302TIP3    H215913   3.211   0.305   5.015
 5303TIP3   OH215914   2.373   0.266   4.168
 5303TIP3    H115915   2.383   0.345   4.114
 5303TIP3    H215916   2.332   0.297   4.249
 5304TIP3   OH215917   5.876   1.300   4.160
 5304TIP3    H115918   5.895   1.386   4.122
 5304TIP3    H215919   5.805   1.316   4.222
 5305TIP3   OH215920   2.926   2.510   3.303
 5305TIP3    H115921   2.848   2.538   3.256
 5305TIP3    H215922   2.999   2.543   3.250
 5306TIP3   OH215923   2.937   4.470   0.433
 5306TIP3    H115924   3.000   4.509   0.373
 5306TIP3    H215925   2.856   4.462   0.382
 5307TIP3   OH215926   5.487   0.063   4.000
 5307TIP3    H115927   5.563   0.090   4.052
 5307TIP3    H215928   5.439   0.002   4.056
 5308TIP3   OH215929   1.556   2.640   4.205
 5308TIP3    H115930   1.597   2.663   4.288
 5308TIP3    H215931   1.625   2.598   4.154
 5309TIP3   OH215932   0.602   2.795   0.321
 5309TIP3    H115933   0.569   2.748   0.397
 5309TIP3    H215934   0.695   2.809   0.340
 5310TIP3   OH215935   1.753   4.904   1.106
 5310TIP3    H115936   1.768   4.810   1.115
 5310TIP3    H215937   1.717   4.930   1.191
 5311TIP3   OH215938   6.021   1.222   0.745
 5311TIP3    H115939   6.074   1.269   0.680
 5311TIP3    H215940   6.035   1.130   0.724
 5312TIP3   OH215941   0.985   0.507   3.291
 5312TIP3    H115942   1.026   0.574   3.237
 5312TIP3    H215943   0.980   0.545   3.379
 5313TIP3   OH215944   1.816   0.718   3.374
 5313TIP3    H115945   1.765   0.798   3.389
 5313TIP3    H215946   1.761   0.648   3.409
 5314TIP3   OH215947   0.177   0.281   0.948
 5314TIP3    H115948   0.233   0.276   0.870
 5314TIP3    H215949   0.230   0.330   1.011
 5315TIP3   OH215950   1.183   4.994   2.972
 5315TIP3    H115951   1.245   4.944   3.025
 5315TIP3    H215952   1.231   5.017   2.893
 5316TIP3   OH215953   2.687   4.711   1.255
 5316TIP3    H115954   2.642   4.750   1.330
 5316TIP3    H215955   2.623   4.651   1.217
 5317TIP3   OH215956   0.789   0.819   2.487
 5317TIP3    H115957   0.748   0.904   2.478
 5317TIP3    H215958   0.870   0.825   2.437
 5318TIP3   OH215959   4.417   0.375   3.547
 5318TIP3    H115960   4.445   0.356   3.636
 5318TIP3    H215961   4.337   0.426   3.557
 5319TIP3   OH215962   1.242   2.418   3.314
 5319TIP3    H115963   1.164   2.473   3.309
 5319TIP3    H215964   1.213   2.333   3.282
 5320TIP3   OH215965   5.840   1.562   0.230
 5320TIP3    H115966   5.835   1.532   0.320
 5320TIP3    H215967   5.788   1.643   0.229
 5321TIP3   OH215968   1.951   0.968  -0.045
 5321TIP3    H115969   2.031   0.960   0.005
 5321TIP3    H215970   1.900   1.036   0.000
 5322TIP3   OH215971   3.914   3.060   2.998
 5322TIP3    H115972   3.916   3.039   2.905
 5322TIP3    H215973   3.953   2.984   3.041
 5323TIP3   OH215974   1.924   1.271   1.825
 5323TIP3    H115975   1.862   1.242   1.759
 5323TIP3    H215976   2.005   1.289   1.777
 5324TIP3   OH215977   2.682   5.814   2.676
 5324TIP3    H115978   2.596   5.851   2.692
 5324TIP3    H215979   2.667   5.744   2.613
 5325TIP3   OH215980   1.851   4.354   1.515
 5325TIP3    H115981   1.768   4.308   1.526
 5325TIP3    H215982   1.828   4.439   1.479
 5326TIP3   OH215983   1.461   4.462   1.435
 5326TIP3    H115984   1.419   4.458   1.521
 5326TIP3    H215985   1.391   4.488   1.375
 5327TIP3   OH215986   5.899   5.029   3.796
 5327TIP3    H115987   5.968   5.055   3.856
 5327TIP3    H215988   5.898   5.097   3.729
 5328TIP3   OH215989   2.059   0.563   3.452
 5328TIP3    H115990   2.025   0.504   3.385
 5328TIP3    H215991   2.113   0.507   3.508
 5329TIP3   OH215992   5.080   1.597  -0.046
 5329TIP3    H115993   5.095   1.659   0.026
 5329TIP3    H215994   4.986   1.579  -0.042
 5330TIP3   OH215995   2.242   3.770   0.706
 5330TIP3    H115996   2.245   3.719   0.787
 5330TIP3    H215997   2.313   3.733   0.652
 5331TIP3   OH215998   2.938   2.540   3.802
 5331TIP3    H115999   2.902   2.518   3.716
 5331TIP3    H216000   2.930   2.460   3.853
 5332TIP3   OH216001   1.635   1.854   1.923
 5332TIP3    H116002   1.729   1.872   1.929
 5332TIP3    H216003   1.617   1.795   1.996
 5333TIP3   OH216004   3.517   4.037   4.094
 5333TIP3    H116005   3.557   4.048   4.007
 5333TIP3    H216006   3.471   4.120   4.110
 5334TIP3   OH216007   3.710   1.988   4.594
 5334TIP3    H116008   3.723   2.083   4.589
 5334TIP3    H216009   3.758   1.953   4.520
 5335TIP3   OH216010   1.331   3.782   1.762
 5335TIP3    H116011   1.348   3.738   1.846
 5335TIP3    H216012   1.418   3.795   1.724
 5336TIP3   OH216013   3.896   4.347   3.461
 5336TIP3    H116014   3.929   4.423   3.510
 5336TIP3    H216015   3.887   4.379   3.371
 5337TIP3   OH216016   3.109   3.033   0.674
 5337TIP3    H116017   3.152   2.987   0.746
 5337TIP3    H216018   3.016   3.030   0.696
 5338TIP3   OH216019   4.309   4.612   1.415
 5338TIP3    H116020   4.389   4.577   1.377
 5338TIP3    H216021   4.329   4.623   1.508
 5339TIP3   OH216022   0.579   4.923   3.706
 5339TIP3    H116023   0.619   4.951   3.789
 5339TIP3    H216024   0.489   4.898   3.730
 5340TIP3   OH216025   5.769   5.819   3.075
 5340TIP3    H116026   5.777   5.729   3.041
 5340TIP3    H216027   5.684   5.821   3.119
 5341TIP3   OH216028   2.977   5.770   3.055
 5341TIP3    H116029   2.967   5.725   2.972
 5341TIP3    H216030   2.933   5.714   3.119
 5342TIP3   OH216031   6.194   0.269   0.507
 5342TIP3    H116032   6.179   0.305   0.420
 5342TIP3    H216033   6.253   0.332   0.549
 5343TIP3   OH216034   3.999   5.613   4.827
 5343TIP3    H116035   4.031   5.701   4.809
 5343TIP3    H216036   3.994   5.608   4.922
 5344TIP3   OH216037   3.233   0.070   3.704
 5344TIP3    H116038   3.152   0.117   3.721
 5344TIP3    H216039   3.289   0.089   3.779
 5345TIP3   OH216040   2.843   3.904   0.001
 5345TIP3    H116041   2.757   3.873   0.029
 5345TIP3    H216042   2.905   3.855   0.054
 5346TIP3   OH216043   2.850   1.626   2.098
 5346TIP3    H116044   2.929   1.572   2.108
 5346TIP3    H216045   2.872   1.709   2.139
 5347TIP3   OH216046   0.807   1.150   4.029
 5347TIP3    H116047   0.762   1.088   4.087
 5347TIP3    H216048   0.775   1.130   3.942
 5348TIP3   OH216049   1.445   4.376   0.046
 5348TIP3    H116050   1.407   4.315  -0.017
 5348TIP3    H216051   1.370   4.422   0.083
 5349TIP3   OH216052   6.178   2.622   4.702
 5349TIP3    H116053   6.162   2.615   4.608
 5349TIP3    H216054   6.131   2.548   4.741
 5350TIP3   OH216055   1.498   2.262   3.229
 5350TIP3    H116056   1.473   2.228   3.143
 5350TIP3    H216057   1.449   2.209   3.291
 5351TIP3   OH216058   4.992   0.649   3.568
 5351TIP3    H116059   4.970   0.617   3.480
 5351TIP3    H216060   5.088   0.643   3.571
 5352TIP3   OH216061   1.215   3.983   0.689
 5352TIP3    H116062   1.256   4.035   0.757
 5352TIP3    H216063   1.121   3.990   0.707
 5353TIP3   OH216064   5.739   3.851   3.702
 5353TIP3    H116065   5.735   3.876   3.610
 5353TIP3    H216066   5.741   3.935   3.749
 5354TIP3   OH216067   0.603   4.134   4.518
 5354TIP3    H116068   0.517   4.147   4.557
 5354TIP3    H216069   0.588   4.078   4.442
 5355TIP3   OH216070   5.572   4.390   0.939
 5355TIP3    H116071   5.522   4.471   0.954
 5355TIP3    H216072   5.542   4.358   0.854
 5356TIP3   OH216073   2.753   1.264   2.036
 5356TIP3    H116074   2.698   1.330   2.079
 5356TIP3    H216075   2.692   1.213   1.983
 5357TIP3   OH216076   3.584   5.038   4.166
 5357TIP3    H116077   3.572   4.961   4.223
 5357TIP3    H216078   3.674   5.030   4.133
 5358TIP3   OH216079   0.811   0.161   0.214
 5358TIP3    H116080   0.824   0.068   0.196
 5358TIP3    H216081   0.829   0.170   0.308
 5359TIP3   OH216082   4.671   3.603   2.098
 5359TIP3    H116083   4.722   3.583   2.019
 5359TIP3    H216084   4.736   3.602   2.168
 5360TIP3   OH216085   3.879   1.931   0.941
 5360TIP3    H116086   3.919   2.014   0.966
 5360TIP3    H216087   3.805   1.921   1.001
 5361TIP3   OH216088   2.859   2.444   3.566
 5361TIP3    H116089   2.781   2.389   3.575
 5361TIP3    H216090   2.868   2.458   3.472
 5362TIP3   OH216091   4.648   0.779   5.063
 5362TIP3    H116092   4.620   0.846   5.001
 5362TIP3    H216093   4.645   0.821   5.148
 5363TIP3   OH216094   3.849   5.710   0.177
 5363TIP3    H116095   3.920   5.754   0.225
 5363TIP3    H216096   3.892   5.640   0.129
 5364TIP3   OH216097   1.519   3.424   1.525
 5364TIP3    H116098   1.511   3.329   1.525
 5364TIP3    H216099   1.437   3.455   1.487
 5365TIP3   OH216100   4.565   0.853   1.321
 5365TIP3    H116101   4.500   0.805   1.373
 5365TIP3    H216102   4.640   0.793   1.316
 5366TIP3   OH216103   3.675   2.325   4.546
 5366TIP3    H116104   3.603   2.343   4.607
 5366TIP3    H216105   3.732   2.401   4.554
 5367TIP3   OH216106   3.157   0.561   1.222
 5367TIP3    H116107   3.184   0.476   1.258
 5367TIP3    H216108   3.138   0.544   1.130
 5368TIP3   OH216109   2.870   5.593   4.355
 5368TIP3    H116110   2.954   5.632   4.379
 5368TIP3    H216111   2.893   5.506   4.321
 5369TIP3   OH216112   1.756   2.896   4.298
 5369TIP3    H116113   1.716   2.894   4.211
 5369TIP3    H216114   1.841   2.938   4.285
 5370TIP3   OH216115   2.168   4.983   1.248
 5370TIP3    H116116   2.181   5.077   1.254
 5370TIP3    H216117   2.205   4.959   1.163
 5371TIP3   OH216118   1.390   2.080   1.584
 5371TIP3    H116119   1.384   2.101   1.678
 5371TIP3    H216120   1.400   2.165   1.542
 5372TIP3   OH216121   2.638   5.960   4.721
 5372TIP3    H116122   2.640   5.953   4.626
 5372TIP3    H216123   2.623   6.053   4.739
 5373TIP3   OH216124   3.417   1.819   2.590
 5373TIP3    H116125   3.363   1.897   2.606
 5373TIP3    H216126   3.355   1.746   2.588
 5374TIP3   OH216127   0.842   5.303   3.064
 5374TIP3    H116128   0.926   5.284   3.105
 5374TIP3    H216129   0.843   5.253   2.982
 5375TIP3   OH216130   6.173   3.047   0.834
 5375TIP3    H116131   6.233   3.042   0.909
 5375TIP3    H216132   6.167   3.141   0.815
 5376TIP3   OH216133   6.091   3.087   1.156
 5376TIP3    H116134   6.155   3.028   1.116
 5376TIP3    H216135   6.082   3.056   1.246
 5377TIP3   OH216136   2.442   0.736   3.122
 5377TIP3    H116137   2.534   0.708   3.129
 5377TIP3    H216138   2.415   0.750   3.213
 5378TIP3   OH216139   4.009   4.856   4.003
 5378TIP3    H116140   3.939   4.910   4.039
 5378TIP3    H216141   4.072   4.918   3.967
 5379TIP3   OH216142   3.265   5.173   4.203
 5379TIP3    H116143   3.177   5.166   4.164
 5379TIP3    H216144   3.249   5.192   4.295
 5380TIP3   OH216145   3.343   3.516   3.359
 5380TIP3    H116146   3.365   3.592   3.414
 5380TIP3    H216147   3.402   3.447   3.390
 5381TIP3   OH216148   4.469   3.403   2.053
 5381TIP3    H116149   4.414   3.391   2.130
 5381TIP3    H216150   4.534   3.468   2.081
 5382TIP3   OH216151   2.795   0.786   2.535
 5382TIP3    H116152   2.836   0.827   2.459
 5382TIP3    H216153   2.857   0.718   2.561
 5383TIP3   OH216154   1.004   3.339   4.870
 5383TIP3    H116155   1.030   3.424   4.835
 5383TIP3    H216156   0.959   3.295   4.798
 5384TIP3   OH216157   5.447   2.918   3.652
 5384TIP3    H116158   5.377   2.980   3.672
 5384TIP3    H216159   5.498   2.960   3.582
 5385TIP3   OH216160   2.138   4.488   2.548
 5385TIP3    H116161   2.203   4.539   2.499
 5385TIP3    H216162   2.068   4.472   2.485
 5386TIP3   OH216163   0.920  -0.018   2.284
 5386TIP3    H116164   0.946  -0.038   2.374
 5386TIP3    H216165   0.971   0.061   2.262
 5387TIP3   OH216166   4.272   0.511   3.041
 5387TIP3    H116167   4.202   0.465   2.995
 5387TIP3    H216168   4.250   0.604   3.034
 5388TIP3   OH216169   5.036   4.565   0.281
 5388TIP3    H116170   4.987   4.546   0.201
 5388TIP3    H216171   4.977   4.621   0.332
 5389TIP3   OH216172   2.826   5.324   0.524
 5389TIP3    H116173   2.835   5.339   0.618
 5389TIP3    H216174   2.854   5.406   0.483
 5390TIP3   OH216175   1.300   0.894   4.775
 5390TIP3    H116176   1.283   0.918   4.684
 5390TIP3    H216177   1.333   0.804   4.770
 5391TIP3   OH216178   5.490   5.625   0.923
 5391TIP3    H116179   5.404   5.600   0.956
 5391TIP3    H216180   5.497   5.718   0.943
 5392TIP3   OH216181   3.575   3.938   3.275
 5392TIP3    H116182   3.575   4.009   3.210
 5392TIP3    H216183   3.578   3.984   3.359
 5393TIP3   OH216184   0.647   2.760   2.110
 5393TIP3    H116185   0.656   2.673   2.148
 5393TIP3    H216186   0.674   2.820   2.180
 5394TIP3   OH216187   1.767   1.179   5.065
 5394TIP3    H116188   1.848   1.221   5.035
 5394TIP3    H216189   1.756   1.104   5.006
 5395TIP3   OH216190   0.489   4.193   2.966
 5395TIP3    H116191   0.468   4.211   2.874
 5395TIP3    H216192   0.412   4.147   2.999
 5396TIP3   OH216193   4.669   0.559   0.298
 5396TIP3    H116194   4.739   0.514   0.344
 5396TIP3    H216195   4.694   0.556   0.206
 5397TIP3   OH216196   4.360   3.167   1.394
 5397TIP3    H116197   4.424   3.237   1.410
 5397TIP3    H216198   4.298   3.205   1.331
 5398TIP3   OH216199   0.419   2.035   3.192
 5398TIP3    H116200   0.396   2.091   3.118
 5398TIP3    H216201   0.480   1.971   3.155
 5399TIP3   OH216202   2.146   1.904   1.772
 5399TIP3    H116203   2.189   1.872   1.692
 5399TIP3    H216204   2.216   1.950   1.819
 5400TIP3   OH216205   2.957   3.772   3.889
 5400TIP3    H116206   2.957   3.805   3.979
 5400TIP3    H216207   3.040   3.726   3.880
 5401TIP3   OH216208   5.959   4.523   3.006
 5401TIP3    H116209   6.022   4.594   2.991
 5401TIP3    H216210   5.992   4.450   2.954
 5402TIP3   OH216211   5.676   5.066   2.002
 5402TIP3    H116212   5.630   5.139   1.961
 5402TIP3    H216213   5.658   4.991   1.944
 5403TIP3   OH216214   4.876   4.848   3.362
 5403TIP3    H116215   4.826   4.828   3.283
 5403TIP3    H216216   4.967   4.833   3.337
 5404TIP3   OH216217   4.488   5.585   0.885
 5404TIP3    H116218   4.471   5.637   0.807
 5404TIP3    H216219   4.412   5.601   0.941
 5405TIP3   OH216220   1.586   4.371   3.140
 5405TIP3    H116221   1.533   4.448   3.163
 5405TIP3    H216222   1.522   4.303   3.118
 5406TIP3   OH216223   5.695   0.588   1.521
 5406TIP3    H116224   5.687   0.516   1.458
 5406TIP3    H216225   5.768   0.641   1.488
 5407TIP3   OH216226   4.975   2.636   2.708
 5407TIP3    H116227   4.927   2.568   2.662
 5407TIP3    H216228   4.955   2.621   2.800
 5408TIP3   OH216229   2.721   1.849   2.484
 5408TIP3    H116230   2.675   1.887   2.559
 5408TIP3    H216231   2.717   1.917   2.417
 5409TIP3   OH216232   5.753   5.628   1.271
 5409TIP3    H116233   5.695   5.576   1.327
 5409TIP3    H216234   5.766   5.710   1.319
 5410TIP3   OH216235   0.293   1.988   2.699
 5410TIP3    H116236   0.345   1.952   2.626
 5410TIP3    H216237   0.239   1.915   2.728
 5411TIP3   OH216238   1.179   0.808   1.306
 5411TIP3    H116239   1.265   0.849   1.313
 5411TIP3    H216240   1.194   0.716   1.324
 5412TIP3   OH216241   4.734   1.197   3.756
 5412TIP3    H116242   4.683   1.191   3.676
 5412TIP3    H216243   4.683   1.254   3.813
 5413TIP3   OH216244   3.928   3.490   5.127
 5413TIP3    H116245   3.931   3.525   5.039
 5413TIP3    H216246   3.929   3.395   5.115
 5414TIP3   OH216247   1.219   3.748   2.800
 5414TIP3    H116248   1.145   3.688   2.810
 5414TIP3    H216249   1.293   3.703   2.841
 5415TIP3   OH216250   6.254   4.382   0.876
 5415TIP3    H116251   6.306   4.378   0.796
 5415TIP3    H216252   6.200   4.304   0.873
 5416TIP3   OH216253   5.675   2.055   5.094
 5416TIP3    H116254   5.766   2.081   5.105
 5416TIP3    H216255   5.624   2.130   5.126
 5417TIP3   OH216256   5.827   4.357   1.540
 5417TIP3    H116257   5.733   4.365   1.554
 5417TIP3    H216258   5.849   4.270   1.572
 5418TIP3   OH216259   4.687   5.081   0.753
 5418TIP3    H116260   4.654   5.113   0.669
 5418TIP3    H216261   4.648   5.140   0.818
 5419TIP3   OH216262   4.879   4.427   4.331
 5419TIP3    H116263   4.891   4.456   4.241
 5419TIP3    H216264   4.921   4.495   4.384
 5420TIP3   OH216265   5.725   4.691   1.603
 5420TIP3    H116266   5.658   4.756   1.622
 5420TIP3    H216267   5.691   4.643   1.527
 5421TIP3   OH216268   1.963   5.279   4.641
 5421TIP3    H116269   1.937   5.199   4.687
 5421TIP3    H216270   1.923   5.271   4.555
 5422TIP3   OH216271   2.449   4.106   2.929
 5422TIP3    H116272   2.490   4.023   2.953
 5422TIP3    H216273   2.428   4.097   2.836
 5423TIP3   OH216274   5.059   0.065   4.254
 5423TIP3    H116275   5.025   0.042   4.167
 5423TIP3    H216276   5.063   0.160   4.254
 5424TIP3   OH216277   6.012   0.379   3.943
 5424TIP3    H116278   5.932   0.397   3.993
 5424TIP3    H216279   6.079   0.434   3.983
 5425TIP3   OH216280   4.422   1.356   0.891
 5425TIP3    H116281   4.404   1.326   0.980
 5425TIP3    H216282   4.453   1.446   0.902
 5426TIP3   OH216283   1.505   1.027   1.623
 5426TIP3    H116284   1.432   0.965   1.634
 5426TIP3    H216285   1.463   1.113   1.622
 5427TIP3   OH216286   1.347   2.786   4.113
 5427TIP3    H116287   1.301   2.723   4.058
 5427TIP3    H216288   1.426   2.741   4.142
 5428TIP3   OH216289   1.532   3.675   3.144
 5428TIP3    H116290   1.616   3.633   3.161
 5428TIP3    H216291   1.555   3.763   3.113
 5429TIP3   OH216292   1.091   1.419   4.651
 5429TIP3    H116293   1.112   1.466   4.570
 5429TIP3    H216294   1.132   1.333   4.640
 5430TIP3   OH216295   2.327  -0.013   3.296
 5430TIP3    H116296   2.366  -0.048   3.376
 5430TIP3    H216297   2.384   0.060   3.271
 5431TIP3   OH216298   2.352   2.202   4.969
 5431TIP3    H116299   2.343   2.159   4.884
 5431TIP3    H216300   2.379   2.132   5.028
 5432TIP3   OH216301   4.680   0.352   0.035
 5432TIP3    H116302   4.680   0.302  -0.047
 5432TIP3    H216303   4.630   0.299   0.096
 5433TIP3   OH216304   3.041   2.462   5.110
 5433TIP3    H116305   3.018   2.384   5.060
 5433TIP3    H216306   2.957   2.498   5.138
 5434TIP3   OH216307   0.622   3.264   1.305
 5434TIP3    H116308   0.614   3.356   1.278
 5434TIP3    H216309   0.680   3.267   1.381
 5435TIP3   OH216310   0.502   2.129   4.247
 5435TIP3    H116311   0.561   2.093   4.180
 5435TIP3    H216312   0.522   2.223   4.249
 5436TIP3   OH216313   3.100   1.755   0.239
 5436TIP3    H116314   3.194   1.764   0.225
 5436TIP3    H216315   3.092   1.735   0.332
 5437TIP3   OH216316   0.661   4.415   2.562
 5437TIP3    H116317   0.678   4.344   2.625
 5437TIP3    H216318   0.651   4.493   2.616
 5438TIP3   OH216319   0.712   5.324   4.645
 5438TIP3    H116320   0.616   5.322   4.637
 5438TIP3    H216321   0.728   5.358   4.732
 5439TIP3   OH216322   4.687   2.119   1.449
 5439TIP3    H116323   4.684   2.075   1.364
 5439TIP3    H216324   4.779   2.137   1.464
 5440TIP3   OH216325   6.013   0.067   0.131
 5440TIP3    H116326   6.082   0.016   0.174
 5440TIP3    H216327   5.981   0.009   0.061
 5441TIP3   OH216328   5.837   3.652   1.360
 5441TIP3    H116329   5.862   3.743   1.342
 5441TIP3    H216330   5.914   3.601   1.338
 5442TIP3   OH216331   5.637   3.351   0.241
 5442TIP3    H116332   5.661   3.278   0.298
 5442TIP3    H216333   5.693   3.423   0.270
 5443TIP3   OH216334   1.174   2.971   3.920
 5443TIP3    H116335   1.190   2.918   3.841
 5443TIP3    H216336   1.260   2.978   3.962
 5444TIP3   OH216337   2.053   1.859   0.406
 5444TIP3    H116338   2.041   1.803   0.329
 5444TIP3    H216339   1.967   1.900   0.419
 5445TIP3   OH216340   3.648   2.778   4.297
 5445TIP3    H116341   3.669   2.857   4.347
 5445TIP3    H216342   3.635   2.809   4.207
 5446TIP3   OH216343   5.517   3.428   4.632
 5446TIP3    H116344   5.590   3.382   4.673
 5446TIP3    H216345   5.449   3.361   4.621
 5447TIP3   OH216346   2.733   5.181   4.192
 5447TIP3    H116347   2.658   5.240   4.203
 5447TIP3    H216348   2.708   5.124   4.119
 5448TIP3   OH216349   4.744   5.886   5.026
 5448TIP3    H116350   4.779   5.797   5.026
 5448TIP3    H216351   4.667   5.883   4.969
 5449TIP3   OH216352   3.793   0.084   2.258
 5449TIP3    H116353   3.785   0.173   2.224
 5449TIP3    H216354   3.884   0.078   2.287
 5450TIP3   OH216355   3.556   3.357   1.288
 5450TIP3    H116356   3.470   3.398   1.277
 5450TIP3    H216357   3.556   3.325   1.379
 5451TIP3   OH216358   5.106   4.654   2.595
 5451TIP3    H116359   5.014   4.674   2.606
 5451TIP3    H216360   5.152   4.735   2.619
 5452TIP3   OH216361   3.479   5.354   4.679
 5452TIP3    H116362   3.492   5.338   4.773
 5452TIP3    H216363   3.423   5.431   4.675
 5453TIP3   OH216364   3.395   4.517   2.857
 5453TIP3    H116365   3.348   4.552   2.932
 5453TIP3    H216366   3.345   4.547   2.781
 5454TIP3   OH216367   3.058   4.832   3.103
 5454TIP3    H116368   3.054   4.872   3.190
 5454TIP3    H216369   3.037   4.904   3.043
 5455TIP3   OH216370   1.577   5.316   0.800
 5455TIP3    H116371   1.621   5.325   0.715
 5455TIP3    H216372   1.628   5.372   0.859
 5456TIP3   OH216373   0.646   1.683   3.576
 5456TIP3    H116374   0.644   1.641   3.662
 5456TIP3    H216375   0.646   1.777   3.595
 5457TIP3   OH216376   2.087   4.697   4.001
 5457TIP3    H116377   2.173   4.669   3.969
 5457TIP3    H216378   2.060   4.766   3.940
 5458TIP3   OH216379   5.204   2.410   3.822
 5458TIP3    H116380   5.109   2.415   3.833
 5458TIP3    H216381   5.222   2.470   3.749
 5459TIP3   OH216382   4.235   3.817   0.956
 5459TIP3    H116383   4.237   3.739   1.013
 5459TIP3    H216384   4.166   3.799   0.893
 5460TIP3   OH216385   3.852   3.000   0.840
 5460TIP3    H116386   3.816   3.069   0.896
 5460TIP3    H216387   3.787   2.929   0.845
 5461TIP3   OH216388   3.871   0.088   5.013
 5461TIP3    H116389   3.922   0.169   5.011
 5461TIP3    H216390   3.919   0.030   5.072
 5462TIP3   OH216391   4.802   4.254   1.068
 5462TIP3    H116392   4.800   4.277   1.161
 5462TIP3    H216393   4.769   4.332   1.023
 5463TIP3   OH216394   0.217   0.983   1.764
 5463TIP3    H116395   0.227   1.064   1.814
 5463TIP3    H216396   0.291   0.983   1.703
 5464TIP3   OH216397   1.109   3.104   4.991
 5464TIP3    H116398   1.096   3.140   5.079
 5464TIP3    H216399   1.065   3.166   4.933
 5465TIP3   OH216400   2.038   4.333   4.099
 5465TIP3    H116401   1.975   4.393   4.138
 5465TIP3    H216402   2.085   4.296   4.174
 5466TIP3   OH216403   2.834   2.085   3.890
 5466TIP3    H116404   2.930   2.080   3.884
 5466TIP3    H216405   2.810   2.015   3.950
 5467TIP3   OH216406   6.206   4.839   3.903
 5467TIP3    H116407   6.277   4.804   3.956
 5467TIP3    H216408   6.151   4.763   3.884
 5468TIP3   OH216409   1.848   5.325   1.319
 5468TIP3    H116410   1.881   5.332   1.408
 5468TIP3    H216411   1.792   5.402   1.308
 5469TIP3   OH216412   5.734   0.356   4.534
 5469TIP3    H116413   5.688   0.411   4.471
 5469TIP3    H216414   5.671   0.286   4.556
 5470TIP3   OH216415   0.965   5.463   2.677
 5470TIP3    H116416   0.950   5.543   2.727
 5470TIP3    H216417   1.027   5.488   2.610
 5471TIP3   OH216418   5.649   3.250   1.598
 5471TIP3    H116419   5.564   3.207   1.606
 5471TIP3    H216420   5.674   3.237   1.507
 5472TIP3   OH216421   5.420   1.223   1.781
 5472TIP3    H116422   5.327   1.207   1.796
 5472TIP3    H216423   5.443   1.293   1.842
 5473TIP3   OH216424   4.869   5.284   3.094
 5473TIP3    H116425   4.841   5.366   3.052
 5473TIP3    H216426   4.959   5.272   3.065
 5474TIP3   OH216427   0.751   1.811   4.215
 5474TIP3    H116428   0.738   1.895   4.171
 5474TIP3    H216429   0.846   1.799   4.216
 5475TIP3   OH216430   0.292   0.084   2.565
 5475TIP3    H116431   0.213   0.083   2.510
 5475TIP3    H216432   0.277   0.156   2.626
 5476TIP3   OH216433   4.041   1.324   3.453
 5476TIP3    H116434   4.131   1.356   3.462
 5476TIP3    H216435   4.022   1.283   3.537
 5477TIP3   OH216436   2.032   3.307  -0.010
 5477TIP3    H116437   2.070   3.234   0.039
 5477TIP3    H216438   2.106   3.362  -0.032
 5478TIP3   OH216439   2.681   4.417   0.246
 5478TIP3    H116440   2.627   4.495   0.233
 5478TIP3    H216441   2.667   4.365   0.167
 5479TIP3   OH216442   4.333   0.730   3.405
 5479TIP3    H116443   4.424   0.734   3.434
 5479TIP3    H216444   4.302   0.644   3.435
 5480TIP3   OH216445   2.139   3.537   4.695
 5480TIP3    H116446   2.095   3.558   4.612
 5480TIP3    H216447   2.162   3.622   4.732
 5481TIP3   OH216448   0.120   5.535   1.626
 5481TIP3    H116449   0.096   5.512   1.536
 5481TIP3    H216450   0.047   5.588   1.658
 5482TIP3   OH216451   2.058   0.868   3.544
 5482TIP3    H116452   2.146   0.878   3.579
 5482TIP3    H216453   2.005   0.929   3.595
 5483TIP3   OH216454   0.282   4.976   3.952
 5483TIP3    H116455   0.280   4.927   3.869
 5483TIP3    H216456   0.373   4.968   3.981
 5484TIP3   OH216457   0.434  -0.040   1.675
 5484TIP3    H116458   0.428   0.026   1.745
 5484TIP3    H216459   0.345  -0.050   1.644
 5485TIP3   OH216460   2.094   5.176   3.016
 5485TIP3    H116461   2.185   5.150   3.027
 5485TIP3    H216462   2.055   5.164   3.102
 5486TIP3   OH216463   3.398   3.411   2.484
 5486TIP3    H116464   3.472   3.361   2.452
 5486TIP3    H216465   3.370   3.464   2.410
 5487TIP3   OH216466   0.577   2.287   1.674
 5487TIP3    H116467   0.579   2.225   1.601
 5487TIP3    H216468   0.668   2.313   1.685
 5488TIP3   OH216469   0.604   3.223   0.360
 5488TIP3    H116470   0.682   3.218   0.305
 5488TIP3    H216471   0.533   3.194   0.303
 5489TIP3   OH216472   2.088   3.336   1.707
 5489TIP3    H116473   2.026   3.291   1.765
 5489TIP3    H216474   2.060   3.427   1.708
 5490TIP3   OH216475   4.041   1.396   0.452
 5490TIP3    H116476   4.127   1.354   0.458
 5490TIP3    H216477   4.042   1.441   0.367
 5491TIP3   OH216478   0.188   3.663   3.071
 5491TIP3    H116479   0.129   3.734   3.096
 5491TIP3    H216480   0.132   3.600   3.026
 5492TIP3   OH216481   4.743   4.666   3.948
 5492TIP3    H116482   4.787   4.714   3.877
 5492TIP3    H216483   4.668   4.722   3.971
 5493TIP3   OH216484   3.877   3.944   1.512
 5493TIP3    H116485   3.956   3.985   1.547
 5493TIP3    H216486   3.885   3.956   1.417
 5494TIP3   OH216487   0.117   5.456   4.518
 5494TIP3    H116488   0.199   5.500   4.539
 5494TIP3    H216489   0.110   5.386   4.583
 5495TIP3   OH216490   5.659   1.649   3.879
 5495TIP3    H116491   5.645   1.678   3.968
 5495TIP3    H216492   5.586   1.589   3.862
 5496TIP3   OH216493   1.130   5.641   3.200
 5496TIP3    H116494   1.075   5.680   3.132
 5496TIP3    H216495   1.217   5.634   3.159
 5497TIP3   OH216496   2.613   1.614   4.603
 5497TIP3    H116497   2.629   1.708   4.592
 5497TIP3    H216498   2.690   1.583   4.650
 5498TIP3   OH216499   0.535   1.671   4.289
 5498TIP3    H116500   0.601   1.727   4.248
 5498TIP3    H216501   0.550   1.682   4.383
 5499TIP3   OH216502   3.695   0.809   3.746
 5499TIP3    H116503   3.633   0.773   3.683
 5499TIP3    H216504   3.644   0.868   3.801
 5500TIP3   OH216505   5.941   0.558   0.830
 5500TIP3    H116506   6.014   0.497   0.818
 5500TIP3    H216507   5.957   0.597   0.916
 5501TIP3   OH216508   5.200   3.759   3.133
 5501TIP3    H116509   5.238   3.680   3.172
 5501TIP3    H216510   5.131   3.785   3.194
 5502TIP3   OH216511   4.898   0.291   1.169
 5502TIP3    H116512   4.870   0.200   1.159
 5502TIP3    H216513   4.916   0.301   1.262
 5503TIP3   OH216514   6.275   4.547   4.689
 5503TIP3    H116515   6.203   4.509   4.637
 5503TIP3    H216516   6.335   4.583   4.624
 5504TIP3   OH216517   6.181   2.661   5.035
 5504TIP3    H116518   6.276   2.651   5.040
 5504TIP3    H216519   6.150   2.584   4.988
 5505TIP3   OH216520   1.820   4.274   3.848
 5505TIP3    H116521   1.756   4.212   3.813
 5505TIP3    H216522   1.897   4.220   3.867
 5506TIP3   OH216523   1.327   4.633   0.144
 5506TIP3    H116524   1.254   4.577   0.117
 5506TIP3    H216525   1.302   4.721   0.116
 5507TIP3   OH216526   3.376   2.184   2.675
 5507TIP3    H116527   3.421   2.126   2.736
 5507TIP3    H216528   3.309   2.129   2.635
 5508TIP3   OH216529   5.836   3.562   0.540
 5508TIP3    H116530   5.929   3.565   0.522
 5508TIP3    H216531   5.824   3.618   0.617
 5509TIP3   OH216532   4.587   5.139   4.261
 5509TIP3    H116533   4.644   5.182   4.324
 5509TIP3    H216534   4.524   5.090   4.314
 5510TIP3   OH216535   3.123   5.696   2.273
 5510TIP3    H116536   3.122   5.637   2.348
 5510TIP3    H216537   3.210   5.737   2.276
 5511TIP3   OH216538   2.431   1.455   1.540
 5511TIP3    H116539   2.347   1.488   1.509
 5511TIP3    H216540   2.483   1.533   1.556
 5512TIP3   OH216541   0.774   5.407   4.369
 5512TIP3    H116542   0.743   5.382   4.456
 5512TIP3    H216543   0.867   5.386   4.370
 5513TIP3   OH216544   2.200   2.709   3.597
 5513TIP3    H116545   2.136   2.726   3.666
 5513TIP3    H216546   2.210   2.614   3.596
 5514TIP3   OH216547   4.259   2.591   1.135
 5514TIP3    H116548   4.335   2.549   1.094
 5514TIP3    H216549   4.291   2.678   1.159
 5515TIP3   OH216550   5.044   1.149   1.464
 5515TIP3    H116551   5.025   1.090   1.537
 5515TIP3    H216552   4.996   1.112   1.390
 5516TIP3   OH216553   6.329   2.034   1.103
 5516TIP3    H116554   6.419   2.039   1.071
 5516TIP3    H216555   6.276   2.017   1.025
 5517TIP3   OH216556   2.834   3.009   0.732
 5517TIP3    H116557   2.798   2.952   0.800
 5517TIP3    H216558   2.760   3.063   0.704
 5518TIP3   OH216559   5.527   5.217   4.038
 5518TIP3    H116560   5.608   5.252   4.075
 5518TIP3    H216561   5.473   5.295   4.021
 5519TIP3   OH216562   0.782   3.535   0.037
 5519TIP3    H116563   0.760   3.626   0.013
 5519TIP3    H216564   0.699   3.498   0.067
 5520TIP3   OH216565   2.425   0.013   2.378
 5520TIP3    H116566   2.447  -0.080   2.386
 5520TIP3    H216567   2.467   0.041   2.297
 5521TIP3   OH216568   1.256   1.445   3.005
 5521TIP3    H116569   1.240   1.539   3.001
 5521TIP3    H216570   1.246   1.422   3.097
 5522TIP3   OH216571   3.583   0.048   2.591
 5522TIP3    H116572   3.577   0.123   2.651
 5522TIP3    H216573   3.567   0.086   2.504
 5523TIP3   OH216574   3.554   0.289   3.264
 5523TIP3    H116575   3.473   0.240   3.246
 5523TIP3    H216576   3.573   0.271   3.356
 5524TIP3   OH216577   3.691   4.494   5.067
 5524TIP3    H116578   3.617   4.550   5.091
 5524TIP3    H216579   3.651   4.421   5.019
 5525TIP3   OH216580   6.288   5.166   2.284
 5525TIP3    H116581   6.244   5.185   2.200
 5525TIP3    H216582   6.373   5.208   2.276
 5526TIP3   OH216583   3.928   5.826   3.434
 5526TIP3    H116584   3.901   5.843   3.525
 5526TIP3    H216585   3.879   5.890   3.383
 5527TIP3   OH216586   0.624   5.530   3.388
 5527TIP3    H116587   0.617   5.435   3.394
 5527TIP3    H216588   0.671   5.546   3.306
 5528TIP3   OH216589   2.565   0.502   4.882
 5528TIP3    H116590   2.639   0.489   4.823
 5528TIP3    H216591   2.587   0.582   4.930
 5529TIP3   OH216592   2.775   3.132   4.981
 5529TIP3    H116593   2.824   3.201   4.937
 5529TIP3    H216594   2.697   3.176   5.015
 5530TIP3   OH216595   0.987   5.744   2.748
 5530TIP3    H116596   1.072   5.783   2.769
 5530TIP3    H216597   0.953   5.797   2.677
 5531TIP3   OH216598   1.892   0.387   2.520
 5531TIP3    H116599   1.888   0.423   2.609
 5531TIP3    H216600   1.872   0.460   2.463
 5532TIP3   OH216601   4.851   0.462   3.688
 5532TIP3    H116602   4.904   0.531   3.646
 5532TIP3    H216603   4.903   0.382   3.678
 5533TIP3   OH216604   0.317   2.149   2.974
 5533TIP3    H116605   0.312   2.088   2.900
 5533TIP3    H216606   0.383   2.213   2.948
 5534TIP3   OH216607   1.447   4.126   1.984
 5534TIP3    H116608   1.391   4.084   2.049
 5534TIP3    H216609   1.525   4.070   1.980
 5535TIP3   OH216610   2.579   5.281   0.757
 5535TIP3    H116611   2.661   5.328   0.744
 5535TIP3    H216612   2.523   5.309   0.684
 5536TIP3   OH216613   4.931   3.258   1.133
 5536TIP3    H116614   4.892   3.171   1.127
 5536TIP3    H216615   4.994   3.251   1.204
 5537TIP3   OH216616   3.064   4.919   0.215
 5537TIP3    H116617   2.990   4.863   0.236
 5537TIP3    H216618   3.096   4.949   0.301
 5538TIP3   OH216619   0.024   1.340   2.807
 5538TIP3    H116620  -0.009   1.430   2.809
 5538TIP3    H216621   0.079   1.333   2.885
 5539TIP3   OH216622   5.485   5.049   4.697
 5539TIP3    H116623   5.410   5.021   4.750
 5539TIP3    H216624   5.560   5.039   4.755
 5540TIP3   OH216625   5.973   4.063   3.743
 5540TIP3    H116626   5.888   4.099   3.769
 5540TIP3    H216627   5.997   4.113   3.665
 5541TIP3   OH216628   0.935   0.197   2.047
 5541TIP3    H116629   0.847   0.184   2.014
 5541TIP3    H216630   0.955   0.289   2.028
 5542TIP3   OH216631   6.116   1.438   0.592
 5542TIP3    H116632   6.162   1.412   0.512
 5542TIP3    H216633   6.186   1.459   0.654
 5543TIP3   OH216634   5.229   3.369   0.387
 5543TIP3    H116635   5.152   3.320   0.416
 5543TIP3    H216636   5.217   3.379   0.293
 5544TIP3   OH216637   4.473   0.136   0.564
 5544TIP3    H116638   4.410   0.203   0.590
 5544TIP3    H216639   4.456   0.122   0.471
 5545TIP3   OH216640   2.468   1.262   4.357
 5545TIP3    H116641   2.542   1.273   4.416
 5545TIP3    H216642   2.507   1.246   4.271
 5546TIP3   OH216643   1.358   1.501   3.767
 5546TIP3    H116644   1.431   1.485   3.707
 5546TIP3    H216645   1.382   1.457   3.848
 5547TIP3   OH216646   5.557   1.890   4.888
 5547TIP3    H116647   5.589   1.939   4.964
 5547TIP3    H216648   5.587   1.940   4.812
 5548TIP3   OH216649   6.266   3.836   1.872
 5548TIP3    H116650   6.229   3.914   1.830
 5548TIP3    H216651   6.360   3.845   1.860
 5549TIP3   OH216652   3.924   1.417   0.700
 5549TIP3    H116653   3.960   1.413   0.611
 5549TIP3    H216654   3.996   1.450   0.754
 5550TIP3   OH216655   1.625   2.571   1.748
 5550TIP3    H116656   1.569   2.497   1.726
 5550TIP3    H216657   1.676   2.587   1.668
 5551TIP3   OH216658   2.119   3.337   3.294
 5551TIP3    H116659   2.127   3.295   3.208
 5551TIP3    H216660   2.060   3.279   3.343
 5552TIP3   OH216661   5.067   1.716   4.478
 5552TIP3    H116662   5.156   1.749   4.463
 5552TIP3    H216663   5.025   1.782   4.532
 5553TIP3   OH216664   4.097   5.933   0.670
 5553TIP3    H116665   4.116   5.880   0.748
 5553TIP3    H216666   4.142   6.016   0.685
 5554TIP3   OH216667   1.263   0.888   3.397
 5554TIP3    H116668   1.306   0.909   3.480
 5554TIP3    H216669   1.194   0.826   3.419
 5555TIP3   OH216670   3.184   5.076   1.585
 5555TIP3    H116671   3.170   5.065   1.491
 5555TIP3    H216672   3.212   5.167   1.594
 5556TIP3   OH216673   6.084   3.561   4.145
 5556TIP3    H116674   6.129   3.636   4.182
 5556TIP3    H216675   6.141   3.531   4.074
 5557TIP3   OH216676   2.708   2.591   2.081
 5557TIP3    H116677   2.803   2.590   2.092
 5557TIP3    H216678   2.675   2.534   2.150
 5558TIP3   OH216679   4.466   4.754   1.925
 5558TIP3    H116680   4.477   4.741   2.019
 5558TIP3    H216681   4.555   4.772   1.893
 5559TIP3   OH216682   2.117   0.874   4.901
 5559TIP3    H116683   2.095   0.916   4.984
 5559TIP3    H216684   2.173   0.800   4.925
 5560TIP3   OH216685   4.260   0.123   4.857
 5560TIP3    H116686   4.176   0.093   4.822
 5560TIP3    H216687   4.318   0.047   4.846
 5561TIP3   OH216688   2.902   1.489   1.440
 5561TIP3    H116689   2.823   1.543   1.440
 5561TIP3    H216690   2.949   1.515   1.361
 5562TIP3   OH216691   1.673   5.031   4.108
 5562TIP3    H116692   1.579   5.045   4.097
 5562TIP3    H216693   1.713   5.111   4.076
 5563TIP3   OH216694   0.375   0.609   0.786
 5563TIP3    H116695   0.333   0.683   0.829
 5563TIP3    H216696   0.389   0.545   0.856
 5564TIP3   OH216697   2.565   2.476   1.863
 5564TIP3    H116698   2.480   2.481   1.906
 5564TIP3    H216699   2.627   2.504   1.930
 5565TIP3   OH216700   3.234   4.513   4.223
 5565TIP3    H116701   3.314   4.476   4.259
 5565TIP3    H216702   3.253   4.527   4.130
 5566TIP3   OH216703   2.573   5.894   3.857
 5566TIP3    H116704   2.504   5.931   3.802
 5566TIP3    H216705   2.526   5.860   3.933
 5567TIP3   OH216706   0.514   5.385   3.708
 5567TIP3    H116707   0.589   5.326   3.701
 5567TIP3    H216708   0.494   5.388   3.801
 5568TIP3   OH216709   0.594   1.351   3.992
 5568TIP3    H116710   0.524   1.295   4.026
 5568TIP3    H216711   0.674   1.312   4.027
 5569TIP3   OH216712   0.772   5.403   4.908
 5569TIP3    H116713   0.767   5.392   5.003
 5569TIP3    H216714   0.762   5.497   4.894
 5570TIP3   OH216715   3.184   4.493   2.233
 5570TIP3    H116716   3.199   4.552   2.160
 5570TIP3    H216717   3.099   4.453   2.215
 5571TIP3   OH216718   0.954   2.807   4.235
 5571TIP3    H116719   1.024   2.785   4.296
 5571TIP3    H216720   0.882   2.837   4.290
 5572TIP3   OH216721   0.662   4.874   0.131
 5572TIP3    H116722   0.703   4.895   0.047
 5572TIP3    H216723   0.629   4.785   0.120
 5573TIP3   OH216724   5.406   1.479   0.813
 5573TIP3    H116725   5.310   1.481   0.808
 5573TIP3    H216726   5.429   1.552   0.869
 5574TIP3   OH216727   2.239   4.642   2.348
 5574TIP3    H116728   2.295   4.703   2.299
 5574TIP3    H216729   2.212   4.577   2.284
 5575TIP3   OH216730   3.456   4.533   0.407
 5575TIP3    H116731   3.395   4.498   0.342
 5575TIP3    H216732   3.487   4.615   0.368
 5576TIP3   OH216733   2.308   4.458   0.170
 5576TIP3    H116734   2.401   4.479   0.175
 5576TIP3    H216735   2.285   4.431   0.259
 5577TIP3   OH216736   0.454   2.080   4.527
 5577TIP3    H116737   0.468   2.087   4.432
 5577TIP3    H216738   0.359   2.084   4.537
 5578TIP3   OH216739   2.025   2.459   1.845
 5578TIP3    H116740   2.002   2.366   1.836
 5578TIP3    H216741   2.056   2.484   1.759
 5579TIP3   OH216742   1.356   2.804   4.702
 5579TIP3    H116743   1.328   2.831   4.614
 5579TIP3    H216744   1.451   2.792   4.694
 5580TIP3   OH216745   1.189   2.429   2.589
 5580TIP3    H116746   1.273   2.428   2.636
 5580TIP3    H216747   1.147   2.347   2.617
 5581TIP3   OH216748   0.413   3.248   2.742
 5581TIP3    H116749   0.482   3.183   2.729
 5581TIP3    H216750   0.456   3.332   2.728
 5582TIP3   OH216751   2.289   2.740   0.986
 5582TIP3    H116752   2.221   2.673   0.975
 5582TIP3    H216753   2.311   2.766   0.897
 5583TIP3   OH216754   3.729   0.291   4.446
 5583TIP3    H116755   3.645   0.335   4.437
 5583TIP3    H216756   3.793   0.353   4.411
 5584TIP3   OH216757   0.447   3.199   4.748
 5584TIP3    H116758   0.455   3.187   4.654
 5584TIP3    H216759   0.410   3.116   4.780
 5585TIP3   OH216760   2.266   3.533   2.655
 5585TIP3    H116761   2.271   3.442   2.681
 5585TIP3    H216762   2.257   3.530   2.559
 5586TIP3   OH216763   2.559   0.062   0.580
 5586TIP3    H116764   2.557  -0.007   0.513
 5586TIP3    H216765   2.585   0.141   0.533
 5587TIP3   OH216766   3.572   3.961   1.378
 5587TIP3    H116767   3.489   3.999   1.350
 5587TIP3    H216768   3.638   4.013   1.331
 5588TIP3   OH216769   5.705   2.535   3.904
 5588TIP3    H116770   5.646   2.611   3.908
 5588TIP3    H216771   5.783   2.569   3.860
 5589TIP3   OH216772   2.445   3.682   3.451
 5589TIP3    H116773   2.352   3.662   3.437
 5589TIP3    H216774   2.451   3.703   3.544
 5590TIP3   OH216775   2.589   3.105   0.642
 5590TIP3    H116776   2.529   3.094   0.716
 5590TIP3    H216777   2.576   3.196   0.614
 5591TIP3   OH216778   0.480   3.750   3.961
 5591TIP3    H116779   0.412   3.708   3.908
 5591TIP3    H216780   0.487   3.839   3.927
 5592TIP3   OH216781   2.000   5.319   2.473
 5592TIP3    H116782   2.073   5.296   2.416
 5592TIP3    H216783   2.022   5.281   2.558
 5593TIP3   OH216784   5.465   1.307   4.286
 5593TIP3    H116785   5.441   1.390   4.244
 5593TIP3    H216786   5.545   1.327   4.334
 5594TIP3   OH216787   0.628   2.143   1.417
 5594TIP3    H116788   0.719   2.143   1.446
 5594TIP3    H216789   0.622   2.068   1.358
 5595TIP3   OH216790   0.221   4.822   1.695
 5595TIP3    H116791   0.216   4.806   1.601
 5595TIP3    H216792   0.243   4.738   1.733
 5596TIP3   OH216793   4.939   1.954   2.391
 5596TIP3    H116794   4.942   1.866   2.430
 5596TIP3    H216795   5.016   1.998   2.427
 5597TIP3   OH216796   2.835   3.177   0.416
 5597TIP3    H116797   2.919   3.222   0.401
 5597TIP3    H216798   2.794   3.226   0.487
 5598TIP3   OH216799   3.534   3.030   3.599
 5598TIP3    H116800   3.541   3.022   3.504
 5598TIP3    H216801   3.597   3.099   3.622
 5599TIP3   OH216802   3.867   1.999   3.266
 5599TIP3    H116803   3.927   2.043   3.328
 5599TIP3    H216804   3.790   1.978   3.319
 5600TIP3   OH216805   1.413   3.696   2.317
 5600TIP3    H116806   1.420   3.659   2.405
 5600TIP3    H216807   1.494   3.671   2.273
 5601TIP3   OH216808   4.656   3.128   0.662
 5601TIP3    H116809   4.568   3.165   0.668
 5601TIP3    H216810   4.654   3.051   0.720
 5602TIP3   OH216811   3.618   2.295   5.005
 5602TIP3    H116812   3.604   2.212   4.958
 5602TIP3    H216813   3.571   2.360   4.954
 5603TIP3   OH216814   2.355   5.108   3.046
 5603TIP3    H116815   2.419   5.173   3.017
 5603TIP3    H216816   2.382   5.086   3.136
 5604TIP3   OH216817   3.868   0.644   2.751
 5604TIP3    H116818   3.816   0.699   2.810
 5604TIP3    H216819   3.806   0.617   2.683
 5605TIP3   OH216820   3.409   5.969   2.403
 5605TIP3    H116821   3.436   6.038   2.343
 5605TIP3    H216822   3.359   6.013   2.471
 5606TIP3   OH216823   4.308   5.468   4.752
 5606TIP3    H116824   4.335   5.545   4.701
 5606TIP3    H216825   4.223   5.443   4.715
 5607TIP3   OH216826   4.566   1.493   5.053
 5607TIP3    H116827   4.557   1.586   5.069
 5607TIP3    H216828   4.633   1.464   5.115
 5608TIP3   OH216829   3.554   1.573   3.251
 5608TIP3    H116830   3.591   1.628   3.182
 5608TIP3    H216831   3.514   1.634   3.313
 5609TIP3   OH216832   4.773   2.150   0.479
 5609TIP3    H116833   4.702   2.112   0.428
 5609TIP3    H216834   4.828   2.076   0.504
 5610TIP3   OH216835   6.294   1.301   2.158
 5610TIP3    H116836   6.325   1.220   2.120
 5610TIP3    H216837   6.373   1.351   2.179
 5611TIP3   OH216838   4.732   4.705   3.145
 5611TIP3    H116839   4.687   4.779   3.104
 5611TIP3    H216840   4.675   4.679   3.217
 5612TIP3   OH216841   0.276   2.850   5.108
 5612TIP3    H116842   0.357   2.846   5.057
 5612TIP3    H216843   0.280   2.773   5.165
 5613TIP3   OH216844   5.291   1.689   0.225
 5613TIP3    H116845   5.209   1.737   0.235
 5613TIP3    H216846   5.264   1.601   0.198
 5614TIP3   OH216847   4.089   5.867   0.190
 5614TIP3    H116848   4.141   5.900   0.117
 5614TIP3    H216849   4.154   5.836   0.253
 5615TIP3   OH216850   0.815   3.759   3.893
 5615TIP3    H116851   0.769   3.675   3.885
 5615TIP3    H216852   0.840   3.763   3.986
 5616TIP3   OH216853   5.465   1.838   1.628
 5616TIP3    H116854   5.401   1.871   1.564
 5616TIP3    H216855   5.506   1.763   1.585
 5617TIP3   OH216856   5.446   1.393   1.503
 5617TIP3    H116857   5.442   1.316   1.448
 5617TIP3    H216858   5.437   1.359   1.592
 5618TIP3   OH216859   6.224   2.606   0.867
 5618TIP3    H116860   6.237   2.603   0.962
 5618TIP3    H216861   6.138   2.648   0.857
 5619TIP3   OH216862   4.780   2.287   0.715
 5619TIP3    H116863   4.847   2.353   0.697
 5619TIP3    H216864   4.784   2.228   0.639
 5620TIP3   OH216865   6.068   1.217   0.310
 5620TIP3    H116866   6.116   1.178   0.237
 5620TIP3    H216867   6.107   1.304   0.320
 5621TIP3   OH216868   4.376   3.700   4.681
 5621TIP3    H116869   4.368   3.793   4.699
 5621TIP3    H216870   4.286   3.672   4.661
 5622TIP3   OH216871   0.800   3.960   0.214
 5622TIP3    H116872   0.865   3.944   0.282
 5622TIP3    H216873   0.829   4.040   0.171
 5623TIP3   OH216874   2.140   1.493   2.686
 5623TIP3    H116875   2.079   1.539   2.628
 5623TIP3    H216876   2.106   1.403   2.689
 5624TIP3   OH216877   0.626   5.089   4.261
 5624TIP3    H116878   0.628   5.180   4.232
 5624TIP3    H216879   0.534   5.064   4.257
 5625TIP3   OH216880   0.477   5.300   5.050
 5625TIP3    H116881   0.431   5.356   5.113
 5625TIP3    H216882   0.569   5.324   5.060
 5626TIP3   OH216883   5.382   0.400   5.124
 5626TIP3    H116884   5.355   0.451   5.200
 5626TIP3    H216885   5.458   0.448   5.089
 5627TIP3   OH216886   2.865   0.360   2.065
 5627TIP3    H116887   2.824   0.287   2.018
 5627TIP3    H216888   2.825   0.358   2.152
 5628TIP3   OH216889   1.025   2.657   1.785
 5628TIP3    H116890   1.105   2.690   1.743
 5628TIP3    H216891   1.056   2.586   1.841
 5629TIP3   OH216892   3.636   2.143   1.080
 5629TIP3    H116893   3.670   2.061   1.116
 5629TIP3    H216894   3.659   2.210   1.144
 5630TIP3   OH216895   0.922   3.449   0.903
 5630TIP3    H116896   0.832   3.419   0.907
 5630TIP3    H216897   0.972   3.385   0.954
 5631TIP3   OH216898   3.566   1.311   3.358
 5631TIP3    H116899   3.588   1.404   3.357
 5631TIP3    H216900   3.649   1.266   3.347
 5632TIP3   OH216901   5.716   3.259   0.508
 5632TIP3    H116902   5.752   3.284   0.593
 5632TIP3    H216903   5.656   3.187   0.527
 5633TIP3   OH216904   1.822   1.726   4.855
 5633TIP3    H116905   1.795   1.818   4.849
 5633TIP3    H216906   1.769   1.691   4.927
 5634TIP3   OH216907   5.674   2.612   5.032
 5634TIP3    H116908   5.749   2.671   5.045
 5634TIP3    H216909   5.637   2.640   4.948
 5635TIP3   OH216910   6.312   4.116   3.302
 5635TIP3    H116911   6.314   4.096   3.208
 5635TIP3    H216912   6.296   4.210   3.306
 5636TIP3   OH216913   5.196   4.354   1.581
 5636TIP3    H116914   5.283   4.314   1.579
 5636TIP3    H216915   5.147   4.309   1.512
 5637TIP3   OH216916   0.402   0.841   4.140
 5637TIP3    H116917   0.378   0.854   4.231
 5637TIP3    H216918   0.319   0.836   4.093
 5638TIP3   OH216919   4.940   0.279   5.071
 5638TIP3    H116920   4.987   0.233   5.001
 5638TIP3    H216921   4.966   0.370   5.062
 5639TIP3   OH216922   2.202   3.546   0.897
 5639TIP3    H116923   2.142   3.527   0.824
 5639TIP3    H216924   2.154   3.518   0.975
 5640TIP3   OH216925   5.130   2.157   1.782
 5640TIP3    H116926   5.143   2.063   1.767
 5640TIP3    H216927   5.190   2.178   1.854
 5641TIP3   OH216928   0.021   2.715   0.452
 5641TIP3    H116929   0.091   2.781   0.451
 5641TIP3    H216930  -0.041   2.746   0.518
 5642TIP3   OH216931   1.870   1.104   0.747
 5642TIP3    H116932   1.903   1.176   0.693
 5642TIP3    H216933   1.806   1.060   0.691
 5643TIP3   OH216934   1.429   5.728   0.903
 5643TIP3    H116935   1.482   5.741   0.982
 5643TIP3    H216936   1.387   5.643   0.916
 5644TIP3   OH216937   5.295   4.427   4.100
 5644TIP3    H116938   5.261   4.510   4.065
 5644TIP3    H216939   5.239   4.360   4.062
 5645TIP3   OH216940   3.243   3.722   3.871
 5645TIP3    H116941   3.280   3.648   3.823
 5645TIP3    H216942   3.272   3.708   3.962
 5646TIP3   OH216943   4.816   0.526   2.393
 5646TIP3    H116944   4.880   0.591   2.420
 5646TIP3    H216945   4.743   0.577   2.359
 5647TIP3   OH216946   2.377   2.933   4.505
 5647TIP3    H116947   2.282   2.939   4.504
 5647TIP3    H216948   2.398   2.872   4.435
 5648TIP3   OH216949   5.580   2.569   0.891
 5648TIP3    H116950   5.511   2.505   0.871
 5648TIP3    H216951   5.615   2.593   0.805
 5649TIP3   OH216952   0.184   3.851   2.797
 5649TIP3    H116953   0.130   3.783   2.838
 5649TIP3    H216954   0.269   3.810   2.784
 5650TIP3   OH216955   1.080   1.185   4.294
 5650TIP3    H116956   1.072   1.179   4.198
 5650TIP3    H216957   0.995   1.154   4.326
 5651TIP3   OH216958   5.353   0.550   4.325
 5651TIP3    H116959   5.332   0.642   4.312
 5651TIP3    H216960   5.276   0.512   4.366
 5652TIP3   OH216961   1.710   3.040   1.870
 5652TIP3    H116962   1.798   3.063   1.901
 5652TIP3    H216963   1.661   3.122   1.876
 5653TIP3   OH216964   4.271   0.777   2.922
 5653TIP3    H116965   4.329   0.727   2.865
 5653TIP3    H216966   4.238   0.848   2.867
 5654TIP3   OH216967   0.871   2.870   1.927
 5654TIP3    H116968   0.836   2.790   1.967
 5654TIP3    H216969   0.857   2.859   1.833
 5655TIP3   OH216970   3.789   1.135   3.078
 5655TIP3    H116971   3.797   1.107   3.169
 5655TIP3    H216972   3.878   1.127   3.043
 5656TIP3   OH216973   2.631   3.008   4.576
 5656TIP3    H116974   2.658   2.962   4.496
 5656TIP3    H216975   2.536   3.015   4.568
 5657TIP3   OH216976   5.808   2.971   4.534
 5657TIP3    H116977   5.725   2.992   4.490
 5657TIP3    H216978   5.784   2.907   4.600
 5658TIP3   OH216979   2.171   4.374   3.815
 5658TIP3    H116980   2.103   4.435   3.786
 5658TIP3    H216981   2.168   4.379   3.911
 5659TIP3   OH216982   4.245   2.294   4.474
 5659TIP3    H116983   4.318   2.256   4.426
 5659TIP3    H216984   4.250   2.388   4.455
 5660TIP3   OH216985   4.773   0.279   2.284
 5660TIP3    H116986   4.783   0.360   2.333
 5660TIP3    H216987   4.706   0.229   2.331
 5661TIP3   OH216988   1.046   0.538   2.348
 5661TIP3    H116989   1.139   0.519   2.358
 5661TIP3    H216990   1.039   0.586   2.265
 5662TIP3   OH216991   5.623   2.517   4.728
 5662TIP3    H116992   5.704   2.558   4.757
 5662TIP3    H216993   5.576   2.586   4.682
 5663TIP3   OH216994   1.376   5.186   4.994
 5663TIP3    H116995   1.387   5.166   5.087
 5663TIP3    H216996   1.336   5.107   4.958
 5664TIP3   OH216997   2.302   3.617   1.926
 5664TIP3    H116998   2.292   3.712   1.936
 5664TIP3    H216999   2.214   3.582   1.941
 5665TIP3   OH217000   1.420   4.287   4.870
 5665TIP3    H117001   1.449   4.344   4.942
 5665TIP3    H217002   1.436   4.199   4.902
 5666TIP3   OH217003   4.482   3.882   0.081
 5666TIP3    H117004   4.531   3.828   0.143
 5666TIP3    H217005   4.478   3.969   0.122
 5667TIP3   OH217006   4.159   5.728   0.842
 5667TIP3    H117007   4.209   5.698   0.917
 5667TIP3    H217008   4.070   5.697   0.859
 5668TIP3   OH217009   0.294   3.274   0.703
 5668TIP3    H117010   0.237   3.235   0.637
 5668TIP3    H217011   0.236   3.291   0.778
 5669TIP3   OH217012   3.605   1.381   3.054
 5669TIP3    H117013   3.672   1.322   3.087
 5669TIP3    H217014   3.581   1.435   3.129
 5670TIP3   OH217015   5.753   0.335   1.469
 5670TIP3    H117016   5.735   0.242   1.463
 5670TIP3    H217017   5.849   0.342   1.472
 5671TIP3   OH217018   2.669   4.013   1.440
 5671TIP3    H117019   2.607   4.025   1.512
 5671TIP3    H217020   2.753   4.001   1.484
 5672TIP3   OH217021   6.094   0.175   1.067
 5672TIP3    H117022   6.152   0.229   1.121
 5672TIP3    H217023   6.038   0.129   1.129
 5673TIP3   OH217024   0.744   5.371   2.514
 5673TIP3    H117025   0.786   5.304   2.460
 5673TIP3    H217026   0.815   5.412   2.562
 5674TIP3   OH217027   1.815   3.681   2.412
 5674TIP3    H117028   1.796   3.735   2.489
 5674TIP3    H217029   1.903   3.708   2.386
 5675TIP3   OH217030   0.520   5.457   4.264
 5675TIP3    H117031   0.505   5.545   4.230
 5675TIP3    H217032   0.608   5.460   4.303
 5676TIP3   OH217033   4.408   0.365   1.762
 5676TIP3    H117034   4.494   0.385   1.800
 5676TIP3    H217035   4.422   0.287   1.709
 5677TIP3   OH217036   6.083   0.618   3.291
 5677TIP3    H117037   6.028   0.539   3.294
 5677TIP3    H217038   6.171   0.586   3.311
 5678TIP3   OH217039   2.181   5.923   4.386
 5678TIP3    H117040   2.097   5.960   4.412
 5678TIP3    H217041   2.170   5.829   4.399
 5679TIP3   OH217042   4.257   2.955   2.569
 5679TIP3    H117043   4.176   3.006   2.574
 5679TIP3    H217044   4.321   3.015   2.532
 5680TIP3   OH217045   5.355   2.919   0.107
 5680TIP3    H117046   5.349   2.886   0.017
 5680TIP3    H217047   5.314   3.006   0.103
 5681TIP3   OH217048   3.457   5.275   3.478
 5681TIP3    H117049   3.405   5.270   3.558
 5681TIP3    H217050   3.448   5.188   3.438
 5682TIP3   OH217051   1.406   3.537   2.906
 5682TIP3    H117052   1.439   3.588   2.980
 5682TIP3    H217053   1.483   3.521   2.851
 5683TIP3   OH217054   1.644   4.927   4.373
 5683TIP3    H117055   1.653   4.996   4.439
 5683TIP3    H217056   1.665   4.970   4.290
 5684TIP3   OH217057   0.688   3.475   0.559
 5684TIP3    H117058   0.615   3.529   0.588
 5684TIP3    H217059   0.653   3.386   0.554
 5685TIP3   OH217060   5.062   3.591   5.002
 5685TIP3    H117061   5.144   3.640   5.002
 5685TIP3    H217062   4.996   3.654   4.974
 5686TIP3   OH217063   0.810   1.038   3.259
 5686TIP3    H117064   0.776   0.980   3.190
 5686TIP3    H217065   0.752   1.114   3.258
 5687TIP3   OH217066   5.142   2.474   4.109
 5687TIP3    H117067   5.051   2.444   4.111
 5687TIP3    H217068   5.171   2.459   4.019
 5688TIP3   OH217069   1.022   5.977   1.213
 5688TIP3    H117070   0.956   5.922   1.171
 5688TIP3    H217071   0.999   5.976   1.306
 5689TIP3   OH217072   1.695   5.499   4.185
 5689TIP3    H117073   1.621   5.555   4.162
 5689TIP3    H217074   1.772   5.550   4.163
 5690TIP3   OH217075   3.182   1.099   0.345
 5690TIP3    H117076   3.130   1.129   0.420
 5690TIP3    H217077   3.154   1.155   0.273
 5691TIP3   OH217078   4.224   1.403   2.616
 5691TIP3    H117079   4.220   1.376   2.708
 5691TIP3    H217080   4.134   1.396   2.585
 5692TIP3   OH217081   3.152   3.999   4.820
 5692TIP3    H117082   3.227   4.000   4.880
 5692TIP3    H217083   3.147   3.908   4.791
 5693TIP3   OH217084   0.245   3.347   0.011
 5693TIP3    H117085   0.160   3.336   0.053
 5693TIP3    H217086   0.275   3.433   0.042
 5694TIP3   OH217087   1.038   1.946   2.335
 5694TIP3    H117088   0.985   1.934   2.414
 5694TIP3    H217089   1.121   1.903   2.356
 5695TIP3   OH217090   5.375   1.213   1.270
 5695TIP3    H117091   5.406   1.217   1.179
 5695TIP3    H217092   5.351   1.122   1.283
 5696TIP3   OH217093   1.967   5.898   3.367
 5696TIP3    H117094   2.026   5.933   3.301
 5696TIP3    H217095   1.954   5.970   3.429
 5697TIP3   OH217096   3.554   5.896   3.585
 5697TIP3    H117097   3.496   5.959   3.627
 5697TIP3    H217098   3.642   5.934   3.595
 5698TIP3   OH217099   5.073   2.093   3.632
 5698TIP3    H117100   4.987   2.063   3.600
 5698TIP3    H217101   5.079   2.060   3.721
 5699TIP3   OH217102   3.899   0.176   3.117
 5699TIP3    H117103   3.836   0.125   3.167
 5699TIP3    H217104   3.978   0.122   3.115
 5700TIP3   OH217105   2.680   5.085   4.756
 5700TIP3    H117106   2.620   5.066   4.828
 5700TIP3    H217107   2.684   5.004   4.706
 5701TIP3   OH217108   1.800   1.680   1.193
 5701TIP3    H117109   1.834   1.623   1.124
 5701TIP3    H217110   1.706   1.665   1.193
 5702TIP3   OH217111   0.940   3.976   0.701
 5702TIP3    H117112   0.879   4.045   0.673
 5702TIP3    H217113   0.884   3.907   0.736
 5703TIP3   OH217114   4.054   2.108   3.434
 5703TIP3    H117115   4.052   2.155   3.517
 5703TIP3    H217116   4.107   2.030   3.452
 5704TIP3   OH217117   6.205   3.804   2.643
 5704TIP3    H117118   6.218   3.715   2.612
 5704TIP3    H217119   6.174   3.852   2.566
 5705TIP3   OH217120   5.542   0.684   0.505
 5705TIP3    H117121   5.500   0.770   0.516
 5705TIP3    H217122   5.546   0.648   0.594
 5706TIP3   OH217123   5.570   2.511   1.634
 5706TIP3    H117124   5.516   2.468   1.701
 5706TIP3    H217125   5.619   2.439   1.594
 5707TIP3   OH217126   0.273   2.077   1.083
 5707TIP3    H117127   0.317   2.127   1.152
 5707TIP3    H217128   0.343   2.052   1.023
 5708TIP3   OH217129   3.511   2.457   4.744
 5708TIP3    H117130   3.521   2.528   4.808
 5708TIP3    H217131   3.533   2.497   4.660
 5709TIP3   OH217132   2.303   4.973   3.663
 5709TIP3    H117133   2.275   5.051   3.615
 5709TIP3    H217134   2.340   4.916   3.596
 5710TIP3   OH217135   2.216   5.195   3.548
 5710TIP3    H117136   2.165   5.234   3.477
 5710TIP3    H217137   2.185   5.239   3.627
 5711TIP3   OH217138   2.305   1.340   3.954
 5711TIP3    H117139   2.364   1.283   3.906
 5711TIP3    H217140   2.219   1.299   3.947
 5712TIP3   OH217141   4.653   2.907   4.978
 5712TIP3    H117142   4.730   2.946   5.020
 5712TIP3    H217143   4.689   2.848   4.912
 5713TIP3   OH217144   0.592   0.605   4.509
 5713TIP3    H117145   0.615   0.698   4.516
 5713TIP3    H217146   0.600   0.571   4.598
 5714TIP3   OH217147   2.768   4.133   0.818
 5714TIP3    H117148   2.719   4.181   0.884
 5714TIP3    H217149   2.812   4.200   0.767
 5715TIP3   OH217150   6.279   3.137   3.253
 5715TIP3    H117151   6.293   3.053   3.297
 5715TIP3    H217152   6.347   3.194   3.288
 5716TIP3   OH217153   3.864   2.730   5.225
 5716TIP3    H117154   3.851   2.665   5.156
 5716TIP3    H217155   3.808   2.804   5.200
 5717TIP3   OH217156   3.905   4.970   1.757
 5717TIP3    H117157   3.972   4.953   1.691
 5717TIP3    H217158   3.867   5.054   1.732
 5718TIP3   OH217159   1.018   0.825   0.473
 5718TIP3    H117160   0.962   0.843   0.398
 5718TIP3    H217161   1.106   0.851   0.444
 5719TIP3   OH217162   3.757   1.699   2.371
 5719TIP3    H117163   3.698   1.721   2.299
 5719TIP3    H217164   3.796   1.615   2.346
 5720TIP3   OH217165   6.219   0.100   1.502
 5720TIP3    H117166   6.256   0.088   1.589
 5720TIP3    H217167   6.294   0.104   1.443
 5721TIP3   OH217168   1.251   5.099   2.384
 5721TIP3    H117169   1.321   5.040   2.358
 5721TIP3    H217170   1.293   5.185   2.390
 5722TIP3   OH217171   4.694   3.196   4.627
 5722TIP3    H117172   4.638   3.251   4.682
 5722TIP3    H217173   4.636   3.126   4.598
 5723TIP3   OH217174   2.268   5.501   4.212
 5723TIP3    H117175   2.266   5.413   4.172
 5723TIP3    H217176   2.176   5.527   4.216
 5724TIP3   OH217177   0.087   5.681   2.153
 5724TIP3    H117178   0.023   5.617   2.184
 5724TIP3    H217179   0.159   5.629   2.118
 5725TIP3   OH217180   0.032   3.943   1.549
 5725TIP3    H117181   0.054   3.975   1.461
 5725TIP3    H217182  -0.013   3.860   1.533
 5726TIP3   OH217183   3.923   4.901   0.999
 5726TIP3    H117184   4.005   4.916   0.954
 5726TIP3    H217185   3.917   4.971   1.064
 5727TIP3   OH217186   4.211   3.205   4.150
 5727TIP3    H117187   4.185   3.118   4.119
 5727TIP3    H217188   4.155   3.221   4.227
 5728TIP3   OH217189   2.570   4.995   0.768
 5728TIP3    H117190   2.590   5.087   0.751
 5728TIP3    H217191   2.540   4.960   0.684
 5729TIP3   OH217192   4.222   4.223   2.070
 5729TIP3    H117193   4.205   4.177   1.988
 5729TIP3    H217194   4.263   4.305   2.043
 5730TIP3   OH217195   4.532   4.669   0.700
 5730TIP3    H117196   4.504   4.749   0.745
 5730TIP3    H217197   4.454   4.639   0.654
 5731TIP3   OH217198   5.711   2.376   1.017
 5731TIP3    H117199   5.655   2.393   1.094
 5731TIP3    H217200   5.668   2.423   0.946
 5732TIP3   OH217201   1.645   3.566   4.560
 5732TIP3    H117202   1.588   3.515   4.502
 5732TIP3    H217203   1.619   3.538   4.648
 5733TIP3   OH217204   0.843   1.971   3.848
 5733TIP3    H117205   0.878   1.886   3.875
 5733TIP3    H217206   0.763   1.950   3.801
 5734TIP3   OH217207   2.641   0.576   1.800
 5734TIP3    H117208   2.722   0.529   1.778
 5734TIP3    H217209   2.571   0.515   1.778
 5735TIP3   OH217210   5.591   1.349   4.811
 5735TIP3    H117211   5.585   1.414   4.881
 5735TIP3    H217212   5.527   1.378   4.746
 5736TIP3   OH217213   0.374   4.251   1.173
 5736TIP3    H117214   0.299   4.275   1.118
 5736TIP3    H217215   0.341   4.260   1.263
 5737TIP3   OH217216   1.201   4.022   4.132
 5737TIP3    H117217   1.206   3.978   4.217
 5737TIP3    H217218   1.168   4.109   4.152
 5738TIP3   OH217219   3.595   2.319   3.674
 5738TIP3    H117220   3.548   2.247   3.716
 5738TIP3    H217221   3.533   2.356   3.613
 5739TIP3   OH217222   0.097   4.607   3.720
 5739TIP3    H117223   0.025   4.625   3.780
 5739TIP3    H217224   0.108   4.512   3.723
 5740TIP3   OH217225   0.621   4.631   3.387
 5740TIP3    H117226   0.638   4.724   3.405
 5740TIP3    H217227   0.549   4.608   3.446
 5741TIP3   OH217228   3.167   3.451   3.658
 5741TIP3    H117229   3.253   3.468   3.696
 5741TIP3    H217230   3.157   3.356   3.664
 5742TIP3   OH217231   1.404   1.001   1.318
 5742TIP3    H117232   1.487   1.014   1.272
 5742TIP3    H217233   1.429   0.991   1.410
 5743TIP3   OH217234   3.648   2.787   4.666
 5743TIP3    H117235   3.553   2.799   4.661
 5743TIP3    H217236   3.663   2.754   4.755
 5744TIP3   OH217237   2.221   0.278   0.465
 5744TIP3    H117238   2.284   0.311   0.401
 5744TIP3    H217239   2.263   0.292   0.550
 5745TIP3   OH217240   4.609   4.617   2.495
 5745TIP3    H117241   4.543   4.574   2.441
 5745TIP3    H217242   4.565   4.629   2.580
 5746TIP3   OH217243   5.618   4.810   5.125
 5746TIP3    H117244   5.670   4.824   5.046
 5746TIP3    H217245   5.653   4.871   5.189
 5747TIP3   OH217246   4.414   5.272   0.192
 5747TIP3    H117247   4.364   5.196   0.161
 5747TIP3    H217248   4.378   5.346   0.143
 5748TIP3   OH217249   0.694   2.582   1.855
 5748TIP3    H117250   0.682   2.492   1.885
 5748TIP3    H217251   0.635   2.633   1.910
 5749TIP3   OH217252   0.173   2.212   3.928
 5749TIP3    H117253   0.147   2.261   3.850
 5749TIP3    H217254   0.237   2.149   3.896
 5750TIP3   OH217255   0.714   3.306   4.784
 5750TIP3    H117256   0.755   3.239   4.729
 5750TIP3    H217257   0.625   3.275   4.798
 5751TIP3   OH217258  -0.050   0.529   4.375
 5751TIP3    H117259   0.037   0.496   4.351
 5751TIP3    H217260  -0.038   0.623   4.386
 5752TIP3   OH217261   2.504   4.092   4.725
 5752TIP3    H117262   2.566   4.107   4.797
 5752TIP3    H217263   2.536   4.012   4.683
 5753TIP3   OH217264   5.234   1.864   0.684
 5753TIP3    H117265   5.222   1.866   0.779
 5753TIP3    H217266   5.225   1.772   0.660
 5754TIP3   OH217267   0.343   0.952   1.247
 5754TIP3    H117268   0.250   0.931   1.249
 5754TIP3    H217269   0.383   0.888   1.305
 5755TIP3   OH217270   0.687   3.903   4.685
 5755TIP3    H117271   0.604   3.869   4.719
 5755TIP3    H217272   0.665   3.990   4.651
 5756TIP3   OH217273   0.451   3.406   2.410
 5756TIP3    H117274   0.356   3.394   2.409
 5756TIP3    H217275   0.470   3.430   2.501
 5757TIP3   OH217276   5.657   1.213   2.712
 5757TIP3    H117277   5.592   1.283   2.708
 5757TIP3    H217278   5.739   1.255   2.686
 5758TIP3   OH217279   3.214   5.918   4.229
 5758TIP3    H117280   3.206   5.851   4.297
 5758TIP3    H217281   3.144   5.980   4.247
 5759TIP3   OH217282   1.759   5.045   1.792
 5759TIP3    H117283   1.813   4.970   1.768
 5759TIP3    H217284   1.816   5.120   1.781
 5760TIP3   OH217285   5.365   3.727   2.714
 5760TIP3    H117286   5.345   3.634   2.713
 5760TIP3    H217287   5.362   3.754   2.622
 5761TIP3   OH217288   2.838   0.217   2.948
 5761TIP3    H117289   2.748   0.203   2.917
 5761TIP3    H217290   2.880   0.132   2.938
 5762TIP3   OH217291   1.034   3.889   4.446
 5762TIP3    H117292   1.001   3.961   4.499
 5762TIP3    H217293   0.978   3.815   4.468
 5763TIP3   OH217294   2.808   0.350   1.172
 5763TIP3    H117295   2.837   0.439   1.192
 5763TIP3    H217296   2.730   0.362   1.119
 5764TIP3   OH217297   0.969   0.968   5.038
 5764TIP3    H117298   0.906   0.897   5.047
 5764TIP3    H217299   0.928   1.030   4.978
 5765TIP3   OH217300   3.172   0.846   0.266
 5765TIP3    H117301   3.214   0.930   0.283
 5765TIP3    H217302   3.081   0.859   0.291
 5766TIP3   OH217303   4.074   4.408   4.988
 5766TIP3    H117304   4.088   4.417   5.083
 5766TIP3    H217305   4.158   4.376   4.955
 5767TIP3   OH217306   2.992   4.629   4.202
 5767TIP3    H117307   2.929   4.560   4.221
 5767TIP3    H217308   3.078   4.590   4.222
 5768TIP3   OH217309   1.135   4.203   1.654
 5768TIP3    H117310   1.079   4.279   1.670
 5768TIP3    H217311   1.075   4.128   1.659
 5769TIP3   OH217312   4.610   1.133   3.999
 5769TIP3    H117313   4.697   1.109   3.968
 5769TIP3    H217314   4.610   1.111   4.092
 5770TIP3   OH217315   0.287   2.562   3.492
 5770TIP3    H117316   0.219   2.612   3.447
 5770TIP3    H217317   0.322   2.504   3.425
 5771TIP3   OH217318   5.131   0.436   4.431
 5771TIP3    H117319   5.062   0.502   4.436
 5771TIP3    H217320   5.085   0.353   4.434
 5772TIP3   OH217321   4.449   5.286   3.863
 5772TIP3    H117322   4.490   5.224   3.923
 5772TIP3    H217323   4.384   5.332   3.917
 5773TIP3   OH217324   5.455   0.125   2.769
 5773TIP3    H117325   5.438   0.203   2.822
 5773TIP3    H217326   5.371   0.079   2.765
 5774TIP3   OH217327   1.810   3.309   2.163
 5774TIP3    H117328   1.827   3.266   2.247
 5774TIP3    H217329   1.819   3.403   2.182
 5775TIP3   OH217330   5.327   2.441   0.792
 5775TIP3    H117331   5.369   2.355   0.795
 5775TIP3    H217332   5.264   2.440   0.864
 5776TIP3   OH217333   2.842   3.346   4.767
 5776TIP3    H117334   2.820   3.417   4.707
 5776TIP3    H217335   2.876   3.276   4.712
 5777TIP3   OH217336   5.515   3.270   5.138
 5777TIP3    H117337   5.491   3.348   5.188
 5777TIP3    H217338   5.570   3.302   5.067
 5778TIP3   OH217339   0.929   2.084   5.064
 5778TIP3    H117340   0.943   2.147   5.135
 5778TIP3    H217341   0.842   2.048   5.081
 5779TIP3   OH217342   6.140   1.808   2.979
 5779TIP3    H117343   6.062   1.760   3.006
 5779TIP3    H217344   6.113   1.855   2.900
 5780TIP3   OH217345   3.773   0.022   3.333
 5780TIP3    H117346   3.832  -0.015   3.399
 5780TIP3    H217347   3.710   0.072   3.384
 5781TIP3   OH217348   3.829   2.863   3.553
 5781TIP3    H117349   3.794   2.901   3.472
 5781TIP3    H217350   3.794   2.774   3.555
 5782TIP3   OH217351   1.431   1.295   2.485
 5782TIP3    H117352   1.462   1.288   2.576
 5782TIP3    H217353   1.489   1.359   2.445
 5783TIP3   OH217354   2.159   0.234   1.858
 5783TIP3    H117355   2.184   0.315   1.814
 5783TIP3    H217356   2.076   0.209   1.816
 5784TIP3   OH217357   3.405   5.483   2.109
 5784TIP3    H117358   3.420   5.570   2.146
 5784TIP3    H217359   3.390   5.427   2.186
 5785TIP3   OH217360   6.288   5.677   2.909
 5785TIP3    H117361   6.228   5.747   2.936
 5785TIP3    H217362   6.231   5.602   2.892
 5786TIP3   OH217363   0.607   1.222   1.236
 5786TIP3    H117364   0.662   1.231   1.158
 5786TIP3    H217365   0.517   1.229   1.203
 5787TIP3   OH217366   1.610   2.423   3.011
 5787TIP3    H117367   1.551   2.443   3.084
 5787TIP3    H217368   1.582   2.337   2.981
 5788TIP3   OH217369   2.669   5.843   4.984
 5788TIP3    H117370   2.637   5.879   4.901
 5788TIP3    H217371   2.619   5.890   5.051
 5789TIP3   OH217372   1.491   5.830   2.774
 5789TIP3    H117373   1.498   5.885   2.852
 5789TIP3    H217374   1.499   5.891   2.700
 5790TIP3   OH217375   2.788   3.160   1.509
 5790TIP3    H117376   2.802   3.187   1.600
 5790TIP3    H217377   2.693   3.169   1.495
 5791TIP3   OH217378   2.525   5.472   4.308
 5791TIP3    H117379   2.438   5.498   4.278
 5791TIP3    H217380   2.561   5.551   4.349
 5792TIP3   OH217381   5.460   2.633   3.106
 5792TIP3    H117382   5.483   2.565   3.043
 5792TIP3    H217383   5.521   2.621   3.178
 5793TIP3   OH217384   4.595   4.593   1.406
 5793TIP3    H117385   4.644   4.601   1.324
 5793TIP3    H217386   4.642   4.649   1.468
 5794TIP3   OH217387   1.480   2.049   0.370
 5794TIP3    H117388   1.434   2.123   0.407
 5794TIP3    H217389   1.464   2.055   0.276
 5795TIP3   OH217390   3.956   1.765   1.570
 5795TIP3    H117391   4.023   1.699   1.588
 5795TIP3    H217392   3.942   1.758   1.475
 5796TIP3   OH217393   3.990   2.657   2.347
 5796TIP3    H117394   4.080   2.665   2.379
 5796TIP3    H217395   3.999   2.638   2.254
 5797TIP3   OH217396   3.593   0.058   2.919
 5797TIP3    H117397   3.597   0.021   3.007
 5797TIP3    H217398   3.513   0.110   2.919
 5798TIP3   OH217399   1.264   5.048   1.569
 5798TIP3    H117400   1.231   5.114   1.630
 5798TIP3    H217401   1.256   4.965   1.616
 5799TIP3   OH217402   2.869   1.504   0.484
 5799TIP3    H117403   2.817   1.575   0.522
 5799TIP3    H217404   2.805   1.441   0.453
 5800TIP3   OH217405   6.128   5.908   3.436
 5800TIP3    H117406   6.101   5.887   3.526
 5800TIP3    H217407   6.142   6.002   3.436
 5801TIP3   OH217408   4.419   3.139   3.432
 5801TIP3    H117409   4.383   3.056   3.399
 5801TIP3    H217410   4.342   3.192   3.451
 5802TIP3   OH217411   3.811   1.923   2.746
 5802TIP3    H117412   3.904   1.946   2.748
 5802TIP3    H217413   3.774   1.965   2.824
 5803TIP3   OH217414   1.651   0.238   0.478
 5803TIP3    H117415   1.587   0.237   0.407
 5803TIP3    H217416   1.735   0.254   0.434
 5804TIP3   OH217417   3.353   5.580   0.543
 5804TIP3    H117418   3.392   5.566   0.630
 5804TIP3    H217419   3.428   5.587   0.485
 5805TIP3   OH217420   4.905   5.137   3.370
 5805TIP3    H117421   4.857   5.173   3.296
 5805TIP3    H217422   4.873   5.047   3.379
 5806TIP3   OH217423   1.884   3.721   2.044
 5806TIP3    H117424   1.919   3.782   2.109
 5806TIP3    H217425   1.897   3.766   1.960
 5807TIP3   OH217426   3.592   2.002   0.617
 5807TIP3    H117427   3.626   2.052   0.691
 5807TIP3    H217428   3.617   1.911   0.636
 5808TIP3   OH217429   4.335   1.370   3.513
 5808TIP3    H117430   4.407   1.307   3.515
 5808TIP3    H217431   4.296   1.365   3.600
 5809TIP3   OH217432   2.563   1.704   0.355
 5809TIP3    H117433   2.606   1.735   0.435
 5809TIP3    H217434   2.488   1.653   0.386
 5810TIP3   OH217435   4.646   5.482   2.356
 5810TIP3    H117436   4.572   5.542   2.344
 5810TIP3    H217437   4.713   5.535   2.398
 5811TIP3   OH217438   1.764   2.172   2.698
 5811TIP3    H117439   1.704   2.180   2.771
 5811TIP3    H217440   1.851   2.174   2.738
 5812TIP3   OH217441   3.792   3.671   2.220
 5812TIP3    H117442   3.869   3.711   2.180
 5812TIP3    H217443   3.823   3.639   2.305
 5813TIP3   OH217444   1.981   1.336   4.973
 5813TIP3    H117445   2.016   1.284   4.900
 5813TIP3    H217446   2.004   1.426   4.952
 5814TIP3   OH217447   0.605   1.786   3.295
 5814TIP3    H117448   0.609   1.772   3.390
 5814TIP3    H217449   0.532   1.731   3.266
 5815TIP3   OH217450   2.242   5.171   0.791
 5815TIP3    H117451   2.233   5.088   0.744
 5815TIP3    H217452   2.299   5.151   0.865
 5816TIP3   OH217453   0.757   1.710   1.096
 5816TIP3    H117454   0.815   1.639   1.069
 5816TIP3    H217455   0.677   1.696   1.045
 5817TIP3   OH217456   4.198   3.944   4.719
 5817TIP3    H117457   4.280   3.938   4.671
 5817TIP3    H217458   4.163   4.030   4.697
 5818TIP3   OH217459   0.943   0.778   1.092
 5818TIP3    H117460   0.966   0.839   1.023
 5818TIP3    H217461   1.010   0.790   1.159
 5819TIP3   OH217462   5.138   3.060   4.294
 5819TIP3    H117463   5.079   3.135   4.293
 5819TIP3    H217464   5.131   3.023   4.206
 5820TIP3   OH217465   4.277   1.814   4.689
 5820TIP3    H117466   4.257   1.878   4.758
 5820TIP3    H217467   4.197   1.762   4.681
 5821TIP3   OH217468   5.152   5.235   3.148
 5821TIP3    H117469   5.196   5.164   3.194
 5821TIP3    H217470   5.147   5.306   3.212
 5822TIP3   OH217471   6.266   1.894   3.464
 5822TIP3    H117472   6.256   1.976   3.513
 5822TIP3    H217473   6.234   1.914   3.376
 5823TIP3   OH217474   0.099   3.522   2.610
 5823TIP3    H117475   0.139   3.609   2.601
 5823TIP3    H217476   0.037   3.517   2.537
 5824TIP3   OH217477   1.434   5.854   4.703
 5824TIP3    H117478   1.457   5.873   4.794
 5824TIP3    H217479   1.382   5.929   4.675
 5825TIP3   OH217480   5.244   1.019   3.074
 5825TIP3    H117481   5.165   1.015   3.128
 5825TIP3    H217482   5.301   1.080   3.120
 5826TIP3   OH217483   3.083   5.839   0.149
 5826TIP3    H117484   3.170   5.838   0.188
 5826TIP3    H217485   3.042   5.918   0.183
 5827TIP3   OH217486   5.681   2.110   0.875
 5827TIP3    H117487   5.744   2.167   0.918
 5827TIP3    H217488   5.735   2.055   0.817
 5828TIP3   OH217489   1.066   3.554   4.670
 5828TIP3    H117490   1.112   3.506   4.601
 5828TIP3    H217491   0.996   3.601   4.625
 5829TIP3   OH217492   2.940   3.776   0.438
 5829TIP3    H117493   2.959   3.867   0.463
 5829TIP3    H217494   2.965   3.771   0.346
 5830TIP3   OH217495   5.215   0.758   0.355
 5830TIP3    H117496   5.191   0.692   0.420
 5830TIP3    H217497   5.206   0.712   0.271
 5831TIP3   OH217498   4.850   1.863   3.572
 5831TIP3    H117499   4.784   1.894   3.511
 5831TIP3    H217500   4.894   1.792   3.527
 5832TIP3   OH217501   2.342   0.893   4.707
 5832TIP3    H117502   2.389   0.814   4.734
 5832TIP3    H217503   2.299   0.924   4.786
 5833TIP3   OH217504   2.557   4.063   0.079
 5833TIP3    H117505   2.593   4.138   0.032
 5833TIP3    H217506   2.583   4.077   0.170
 5834TIP3   OH217507   2.451   2.459   0.627
 5834TIP3    H117508   2.539   2.464   0.590
 5834TIP3    H217509   2.463   2.416   0.712
 5835TIP3   OH217510   1.121   4.214   2.880
 5835TIP3    H117511   1.195   4.262   2.843
 5835TIP3    H217512   1.117   4.133   2.829
 5836TIP3   OH217513   5.178   1.431   0.206
 5836TIP3    H117514   5.092   1.390   0.194
 5836TIP3    H217515   5.208   1.399   0.290
 5837TIP3   OH217516   1.569   1.345   2.735
 5837TIP3    H117517   1.533   1.411   2.793
 5837TIP3    H217518   1.614   1.284   2.793
 5838TIP3   OH217519   6.054   3.954   4.811
 5838TIP3    H117520   5.967   3.977   4.779
 5838TIP3    H217521   6.039   3.879   4.869
 5839TIP3   OH217522   1.353   2.978   0.751
 5839TIP3    H117523   1.297   2.905   0.725
 5839TIP3    H217524   1.440   2.939   0.764
 5840TIP3   OH217525   1.879   4.845   2.613
 5840TIP3    H117526   1.951   4.843   2.550
 5840TIP3    H217527   1.921   4.845   2.699
 5841TIP3   OH217528   6.330   3.348   1.474
 5841TIP3    H117529   6.237   3.368   1.463
 5841TIP3    H217530   6.357   3.311   1.390
 5842TIP3   OH217531   3.535   5.741   2.736
 5842TIP3    H117532   3.558   5.830   2.761
 5842TIP3    H217533   3.485   5.752   2.654
 5843TIP3   OH217534   4.827   5.461   4.380
 5843TIP3    H117535   4.808   5.370   4.404
 5843TIP3    H217536   4.907   5.483   4.427
 5844TIP3   OH217537   2.583   5.752   0.228
 5844TIP3    H117538   2.650   5.730   0.293
 5844TIP3    H217539   2.615   5.713   0.147
 5845TIP3   OH217540   4.368   1.893   1.054
 5845TIP3    H117541   4.369   1.839   1.133
 5845TIP3    H217542   4.447   1.946   1.059
 5846TIP3   OH217543   4.373   1.761   2.073
 5846TIP3    H117544   4.376   1.830   2.139
 5846TIP3    H217545   4.342   1.684   2.120
 5847TIP3   OH217546   4.284   5.775   1.968
 5847TIP3    H117547   4.359   5.803   2.020
 5847TIP3    H217548   4.312   5.787   1.877
 5848TIP3   OH217549   4.239   4.788   3.688
 5848TIP3    H117550   4.248   4.884   3.693
 5848TIP3    H217551   4.325   4.758   3.656
 5849TIP3   OH217552   2.540   3.959   3.899
 5849TIP3    H117553   2.620   3.940   3.850
 5849TIP3    H217554   2.555   3.921   3.986
 5850TIP3   OH217555   2.614   4.032   1.741
 5850TIP3    H117556   2.685   3.999   1.796
 5850TIP3    H217557   2.631   4.125   1.733
 5851TIP3   OH217558   5.612   0.112   0.906
 5851TIP3    H117559   5.582   0.092   0.995
 5851TIP3    H217560   5.705   0.130   0.916
 5852TIP3   OH217561   6.080   0.538   2.191
 5852TIP3    H117562   6.170   0.537   2.158
 5852TIP3    H217563   6.031   0.588   2.125
 5853TIP3   OH217564   3.099   0.662   1.780
 5853TIP3    H117565   3.018   0.654   1.831
 5853TIP3    H217566   3.080   0.733   1.718
 5854TIP3   OH217567   4.083   2.943   3.468
 5854TIP3    H117568   4.015   2.914   3.529
 5854TIP3    H217569   4.155   2.882   3.481
 5855TIP3   OH217570   3.045   2.836   1.962
 5855TIP3    H117571   3.076   2.903   1.901
 5855TIP3    H217572   3.120   2.777   1.973
 5856TIP3   OH217573   3.363   1.627   1.273
 5856TIP3    H117574   3.436   1.570   1.297
 5856TIP3    H217575   3.290   1.597   1.327
 5857TIP3   OH217576   1.272   5.646   4.785
 5857TIP3    H117577   1.272   5.556   4.753
 5857TIP3    H217578   1.343   5.689   4.739
 5858TIP3   OH217579   0.527   3.890   3.345
 5858TIP3    H117580   0.612   3.866   3.382
 5858TIP3    H217581   0.464   3.869   3.415
 5859TIP3   OH217582   0.266   5.263   0.143
 5859TIP3    H117583   0.232   5.312   0.218
 5859TIP3    H217584   0.360   5.258   0.158
 5860TIP3   OH217585   2.036   0.365   0.157
 5860TIP3    H117586   2.119   0.319   0.167
 5860TIP3    H217587   1.980   0.304   0.109
 5861TIP3   OH217588   1.736   5.277   3.998
 5861TIP3    H117589   1.712   5.354   4.049
 5861TIP3    H217590   1.685   5.284   3.917
 5862TIP3   OH217591   5.256   3.982   1.283
 5862TIP3    H117592   5.299   3.900   1.258
 5862TIP3    H217593   5.215   4.013   1.203
 5863TIP3   OH217594   0.448   3.003   0.486
 5863TIP3    H117595   0.427   2.978   0.576
 5863TIP3    H217596   0.505   2.933   0.454
 5864TIP3   OH217597   5.915   5.090   5.034
 5864TIP3    H117598   5.995   5.140   5.018
 5864TIP3    H217599   5.872   5.135   5.107
 5865TIP3   OH217600   6.215   0.959   5.067
 5865TIP3    H117601   6.147   0.996   5.123
 5865TIP3    H217602   6.259   1.035   5.030
 5866TIP3   OH217603   0.058   5.087   0.281
 5866TIP3    H117604   0.066   5.089   0.377
 5866TIP3    H217605   0.143   5.119   0.250
 5867TIP3   OH217606   5.272   4.995   2.146
 5867TIP3    H117607   5.206   5.059   2.175
 5867TIP3    H217608   5.320   5.039   2.076
 5868TIP3   OH217609   1.148   1.425   0.426
 5868TIP3    H117610   1.132   1.517   0.405
 5868TIP3    H217611   1.144   1.422   0.522
 5869TIP3   OH217612   4.514   2.052   2.072
 5869TIP3    H117613   4.543   2.020   1.986
 5869TIP3    H217614   4.473   2.137   2.053
 5870TIP3   OH217615   1.620   1.773   3.173
 5870TIP3    H117616   1.694   1.829   3.193
 5870TIP3    H217617   1.658   1.687   3.158
 5871TIP3   OH217618   1.517   1.061   4.246
 5871TIP3    H117619   1.591   1.027   4.297
 5871TIP3    H217620   1.552   1.139   4.202
 5872TIP3   OH217621   5.852   4.314   0.918
 5872TIP3    H117622   5.845   4.326   0.823
 5872TIP3    H217623   5.763   4.327   0.951
 5873TIP3   OH217624   1.620   2.374   0.150
 5873TIP3    H117625   1.528   2.396   0.165
 5873TIP3    H217626   1.638   2.405   0.062
 5874TIP3   OH217627   3.998   1.884   1.833
 5874TIP3    H117628   4.094   1.882   1.824
 5874TIP3    H217629   3.967   1.821   1.768
 5875TIP3   OH217630   3.879   5.918   1.195
 5875TIP3    H117631   3.856   5.946   1.283
 5875TIP3    H217632   3.832   5.836   1.182
 5876TIP3   OH217633   0.669   2.529   4.994
 5876TIP3    H117634   0.763   2.528   4.974
 5876TIP3    H217635   0.643   2.438   4.988
 5877TIP3   OH217636   3.233   4.384   3.893
 5877TIP3    H117637   3.169   4.420   3.832
 5877TIP3    H217638   3.300   4.452   3.900
 5878TIP3   OH217639   3.356   3.561   4.268
 5878TIP3    H117640   3.329   3.609   4.346
 5878TIP3    H217641   3.385   3.629   4.207
 5879TIP3   OH217642   0.457   5.478   1.690
 5879TIP3    H117643   0.380   5.515   1.734
 5879TIP3    H217644   0.421   5.411   1.632
 5880TIP3   OH217645   4.915   0.158   3.859
 5880TIP3    H117646   4.987   0.135   3.800
 5880TIP3    H217647   4.867   0.076   3.871
 5881TIP3   OH217648   4.768   4.114   2.668
 5881TIP3    H117649   4.848   4.064   2.652
 5881TIP3    H217650   4.754   4.106   2.762
 5882TIP3   OH217651   4.648   5.244   4.492
 5882TIP3    H117652   4.708   5.171   4.506
 5882TIP3    H217653   4.577   5.230   4.555
 5883TIP3   OH217654   3.363   3.417   0.423
 5883TIP3    H117655   3.367   3.328   0.457
 5883TIP3    H217656   3.368   3.473   0.501
 5884TIP3   OH217657   5.801   2.567   1.269
 5884TIP3    H117658   5.785   2.628   1.197
 5884TIP3    H217659   5.771   2.613   1.347
 5885TIP3   OH217660   1.000   0.127   0.759
 5885TIP3    H117661   1.078   0.139   0.706
 5885TIP3    H217662   0.950   0.208   0.748
 5886TIP3   OH217663   5.504   2.551   1.177
 5886TIP3    H117664   5.545   2.608   1.112
 5886TIP3    H217665   5.410   2.567   1.167
 5887TIP3   OH217666   5.550   3.562   4.116
 5887TIP3    H117667   5.516   3.478   4.147
 5887TIP3    H217668   5.641   3.563   4.144
 5888TIP3   OH217669   3.049   5.763   3.729
 5888TIP3    H117670   3.104   5.772   3.807
 5888TIP3    H217671   2.965   5.732   3.763
 5889TIP3   OH217672   3.366   3.442   3.080
 5889TIP3    H117673   3.325   3.392   3.151
 5889TIP3    H217674   3.292   3.482   3.034
 5890TIP3   OH217675   2.182   1.368   3.321
 5890TIP3    H117676   2.150   1.300   3.261
 5890TIP3    H217677   2.158   1.450   3.278
 5891TIP3   OH217678   0.472   1.281   2.916
 5891TIP3    H117679   0.423   1.263   2.835
 5891TIP3    H217680   0.547   1.222   2.913
 5892TIP3   OH217681   5.810   3.041   1.804
 5892TIP3    H117682   5.831   2.975   1.739
 5892TIP3    H217683   5.716   3.057   1.792
 5893TIP3   OH217684   6.234   0.495   4.946
 5893TIP3    H117685   6.245   0.559   5.016
 5893TIP3    H217686   6.260   0.542   4.867
 5894TIP3   OH217687   5.402   2.060   2.402
 5894TIP3    H117688   5.452   2.090   2.478
 5894TIP3    H217689   5.465   2.011   2.350
 5895TIP3   OH217690   4.593   1.757   2.546
 5895TIP3    H117691   4.572   1.773   2.638
 5895TIP3    H217692   4.647   1.678   2.547
 5896TIP3   OH217693   2.423   5.821   4.082
 5896TIP3    H117694   2.409   5.909   4.115
 5896TIP3    H217695   2.475   5.778   4.150
 5897TIP3   OH217696   4.914   2.486   3.461
 5897TIP3    H117697   4.831   2.510   3.420
 5897TIP3    H217698   4.927   2.551   3.529
 5898TIP3   OH217699   0.552   4.316   4.964
 5898TIP3    H117700   0.562   4.374   5.039
 5898TIP3    H217701   0.461   4.328   4.937
 5899TIP3   OH217702   5.945   2.992   2.404
 5899TIP3    H117703   5.966   3.049   2.330
 5899TIP3    H217704   5.999   2.914   2.389
 5900TIP3   OH217705   5.616   4.383   1.981
 5900TIP3    H117706   5.605   4.436   1.902
 5900TIP3    H217707   5.602   4.293   1.951
 5901TIP3   OH217708   5.542   5.820   0.155
 5901TIP3    H117709   5.605   5.755   0.124
 5901TIP3    H217710   5.457   5.777   0.147
 5902TIP3   OH217711   6.109   2.172   4.382
 5902TIP3    H117712   6.172   2.242   4.367
 5902TIP3    H217713   6.056   2.202   4.456
 5903TIP3   OH217714   0.269   2.198   3.483
 5903TIP3    H117715   0.195   2.193   3.422
 5903TIP3    H217716   0.232   2.237   3.562
 5904TIP3   OH217717   1.881   0.965   1.140
 5904TIP3    H117718   1.954   0.924   1.187
 5904TIP3    H217719   1.875   0.917   1.058
 5905TIP3   OH217720   0.164   1.718   4.478
 5905TIP3    H117721   0.153   1.645   4.539
 5905TIP3    H217722   0.077   1.757   4.472
 5906TIP3   OH217723   5.013   0.725   4.126
 5906TIP3    H117724   5.072   0.799   4.109
 5906TIP3    H217725   4.980   0.740   4.214
 5907TIP3   OH217726   2.926   5.453   3.502
 5907TIP3    H117727   2.912   5.493   3.416
 5907TIP3    H217728   3.000   5.501   3.539
 5908TIP3   OH217729   5.043   0.330   4.178
 5908TIP3    H117730   4.999   0.343   4.094
 5908TIP3    H217731   5.083   0.415   4.197
 5909TIP3   OH217732   1.816   2.926   3.701
 5909TIP3    H117733   1.839   2.970   3.783
 5909TIP3    H217734   1.761   2.989   3.655
 5910TIP3   OH217735   1.453   2.684   0.710
 5910TIP3    H117736   1.422   2.693   0.800
 5910TIP3    H217737   1.499   2.600   0.708
 5911TIP3   OH217738   0.374   1.438   4.260
 5911TIP3    H117739   0.405   1.526   4.281
 5911TIP3    H217740   0.426   1.380   4.316
 5912TIP3   OH217741   2.638   1.183   1.043
 5912TIP3    H117742   2.546   1.185   1.070
 5912TIP3    H217743   2.686   1.212   1.121
 5913TIP3   OH217744   0.498   2.478   2.751
 5913TIP3    H117745   0.568   2.421   2.783
 5913TIP3    H217746   0.474   2.532   2.826
 5914TIP3   OH217747   4.021   5.332   3.705
 5914TIP3    H117748   3.945   5.388   3.724
 5914TIP3    H217749   4.093   5.393   3.690
 5915TIP3   OH217750   3.299   4.413   1.113
 5915TIP3    H117751   3.260   4.364   1.041
 5915TIP3    H217752   3.366   4.355   1.149
 5916TIP3   OH217753   6.065   4.411   4.465
 5916TIP3    H117754   6.036   4.332   4.419
 5916TIP3    H217755   6.048   4.393   4.557
 5917TIP3   OH217756   2.436   3.454   4.926
 5917TIP3    H117757   2.412   3.441   4.834
 5917TIP3    H217758   2.356   3.434   4.975
 5918TIP3   OH217759   2.219   1.827   4.644
 5918TIP3    H117760   2.202   1.738   4.675
 5918TIP3    H217761   2.250   1.817   4.554
 5919TIP3   OH217762   5.279   3.059   1.072
 5919TIP3    H117763   5.316   3.068   1.160
 5919TIP3    H217764   5.230   3.140   1.058
 5920TIP3   OH217765   1.666   5.835   1.775
 5920TIP3    H117766   1.596   5.808   1.715
 5920TIP3    H217767   1.742   5.849   1.718
 5921TIP3   OH217768   3.520   4.117   0.821
 5921TIP3    H117769   3.583   4.180   0.856
 5921TIP3    H217770   3.438   4.138   0.864
 5922TIP3   OH217771   0.564   4.822   4.507
 5922TIP3    H117772   0.568   4.726   4.507
 5922TIP3    H217773   0.504   4.843   4.436
 5923TIP3   OH217774   5.969   1.471   4.431
 5923TIP3    H117775   6.022   1.536   4.478
 5923TIP3    H217776   6.018   1.454   4.351
 5924TIP3   OH217777   2.136   2.597   0.584
 5924TIP3    H117778   2.083   2.628   0.510
 5924TIP3    H217779   2.225   2.620   0.561
 5925TIP3   OH217780   0.197   4.629   3.050
 5925TIP3    H117781   0.206   4.548   3.000
 5925TIP3    H217782   0.139   4.683   2.997
 5926TIP3   OH217783   5.883   2.752   3.453
 5926TIP3    H117784   5.792   2.764   3.481
 5926TIP3    H217785   5.926   2.834   3.475
 5927TIP3   OH217786   6.104   3.067   1.470
 5927TIP3    H117787   6.045   3.127   1.514
 5927TIP3    H217788   6.192   3.095   1.498
 5928TIP3   OH217789   0.415   4.368   0.113
 5928TIP3    H117790   0.322   4.370   0.088
 5928TIP3    H217791   0.457   4.315   0.045
 5929TIP3   OH217792   0.384   4.497   2.632
 5929TIP3    H117793   0.447   4.538   2.690
 5929TIP3    H217794   0.394   4.403   2.648
 5930TIP3   OH217795   0.441   3.162   1.664
 5930TIP3    H117796   0.364   3.117   1.699
 5930TIP3    H217797   0.484   3.096   1.610
 5931TIP3   OH217798   3.785   4.190   2.679
 5931TIP3    H117799   3.873   4.221   2.703
 5931TIP3    H217800   3.741   4.268   2.646
 5932TIP3   OH217801   3.634   0.731   0.763
 5932TIP3    H117802   3.676   0.700   0.683
 5932TIP3    H217803   3.542   0.710   0.751
 5933TIP3   OH217804   5.292   0.102   0.497
 5933TIP3    H117805   5.335   0.016   0.494
 5933TIP3    H217806   5.253   0.106   0.584
 5934TIP3   OH217807   0.253   5.574   5.099
 5934TIP3    H117808   0.172   5.571   5.048
 5934TIP3    H217809   0.313   5.625   5.045
 5935TIP3   OH217810   1.691   0.532   4.589
 5935TIP3    H117811   1.713   0.587   4.514
 5935TIP3    H217812   1.700   0.442   4.556
 5936TIP3   OH217813   0.841   0.308   4.116
 5936TIP3    H117814   0.776   0.240   4.127
 5936TIP3    H217815   0.858   0.341   4.204
 5937TIP3   OH217816   5.132   1.352   1.300
 5937TIP3    H117817   5.210   1.305   1.270
 5937TIP3    H217818   5.085   1.287   1.352
 5938TIP3   OH217819   1.064   1.584   4.403
 5938TIP3    H117820   1.142   1.601   4.351
 5938TIP3    H217821   0.995   1.566   4.338
 5939TIP3   OH217822   6.034   2.225   1.619
 5939TIP3    H117823   5.961   2.262   1.669
 5939TIP3    H217824   6.111   2.246   1.672
 5940TIP3   OH217825   0.207   5.504   3.844
 5940TIP3    H117826   0.141   5.442   3.875
 5940TIP3    H217827   0.216   5.486   3.751
 5941TIP3   OH217828   4.966   4.994   1.087
 5941TIP3    H117829   5.048   5.020   1.130
 5941TIP3    H217830   4.897   5.030   1.144
 5942TIP3   OH217831   4.888   2.159   1.928
 5942TIP3    H117832   4.936   2.151   1.845
 5942TIP3    H217833   4.935   2.226   1.976
 5943TIP3   OH217834   5.900   3.833   3.951
 5943TIP3    H117835   5.908   3.871   4.038
 5943TIP3    H217836   5.893   3.908   3.892
 5944TIP3   OH217837   2.787   5.101   1.885
 5944TIP3    H117838   2.879   5.126   1.891
 5944TIP3    H217839   2.779   5.061   1.798
 5945TIP3   OH217840   1.768   2.584   2.109
 5945TIP3    H117841   1.755   2.503   2.060
 5945TIP3    H217842   1.763   2.653   2.043
 5946TIP3   OH217843   1.698   3.914   2.293
 5946TIP3    H117844   1.703   3.819   2.290
 5946TIP3    H217845   1.769   3.943   2.236
 5947TIP3   OH217846   4.761   5.064   1.616
 5947TIP3    H117847   4.785   5.148   1.577
 5947TIP3    H217848   4.842   5.029   1.651
 5948TIP3   OH217849   3.315   2.696   1.442
 5948TIP3    H117850   3.402   2.691   1.403
 5948TIP3    H217851   3.259   2.646   1.382
 5949TIP3   OH217852   6.009   1.884   4.761
 5949TIP3    H117853   5.931   1.876   4.815
 5949TIP3    H217854   6.070   1.818   4.796
 5950TIP3   OH217855   0.712   4.987   5.013
 5950TIP3    H117856   0.782   5.048   5.036
 5950TIP3    H217857   0.725   4.967   4.921
 5951TIP3   OH217858   5.025   3.839   3.348
 5951TIP3    H117859   4.953   3.900   3.362
 5951TIP3    H217860   4.991   3.754   3.376
 5952TIP3   OH217861   0.942   4.513   1.037
 5952TIP3    H117862   0.895   4.588   1.001
 5952TIP3    H217863   1.034   4.530   1.016
 5953TIP3   OH217864   0.901   3.908   2.439
 5953TIP3    H117865   0.889   3.927   2.346
 5953TIP3    H217866   0.971   3.843   2.441
 5954TIP3   OH217867   2.342   1.534   0.322
 5954TIP3    H117868   2.247   1.527   0.315
 5954TIP3    H217869   2.365   1.598   0.254
 5955TIP3   OH217870   1.838   1.960   4.665
 5955TIP3    H117871   1.922   2.006   4.672
 5955TIP3    H217872   1.853   1.893   4.599
 5956TIP3   OH217873   0.703   5.869   4.177
 5956TIP3    H117874   0.667   5.912   4.254
 5956TIP3    H217875   0.662   5.915   4.103
 5957TIP3   OH217876   1.182   2.276   4.462
 5957TIP3    H117877   1.166   2.318   4.378
 5957TIP3    H217878   1.234   2.339   4.512
 5958TIP3   OH217879   5.463   5.704   4.623
 5958TIP3    H117880   5.462   5.667   4.712
 5958TIP3    H217881   5.396   5.773   4.625
 5959TIP3   OH217882   1.423   2.134   5.054
 5959TIP3    H117883   1.431   2.152   4.960
 5959TIP3    H217884   1.418   2.039   5.060
 5960TIP3   OH217885   5.020   1.691   4.088
 5960TIP3    H117886   4.949   1.688   4.152
 5960TIP3    H217887   5.052   1.781   4.089
 5961TIP3   OH217888   1.824   2.764   1.326
 5961TIP3    H117889   1.808   2.693   1.388
 5961TIP3    H217890   1.863   2.833   1.379
 5962TIP3   OH217891   5.731   4.136   3.863
 5962TIP3    H117892   5.688   4.078   3.927
 5962TIP3    H217893   5.659   4.185   3.823
 5963TIP3   OH217894   0.610   4.369   1.075
 5963TIP3    H117895   0.516   4.361   1.088
 5963TIP3    H217896   0.635   4.289   1.029
 5964TIP3   OH217897   5.145   4.266   2.451
 5964TIP3    H117898   5.102   4.324   2.514
 5964TIP3    H217899   5.136   4.310   2.367
 5965TIP3   OH217900   5.009   2.489   1.642
 5965TIP3    H117901   4.997   2.581   1.667
 5965TIP3    H217902   4.922   2.450   1.653
 5966TIP3   OH217903   3.681   2.982   0.257
 5966TIP3    H117904   3.595   3.010   0.227
 5966TIP3    H217905   3.742   3.043   0.215
 5967TIP3   OH217906   1.868   3.763   4.134
 5967TIP3    H117907   1.802   3.823   4.101
 5967TIP3    H217908   1.944   3.818   4.152
 5968TIP3   OH217909   1.193   4.288   3.133
 5968TIP3    H117910   1.164   4.249   3.050
 5968TIP3    H217911   1.113   4.295   3.185
 5969TIP3   OH217912   4.318   2.084   4.202
 5969TIP3    H117913   4.262   2.157   4.175
 5969TIP3    H217914   4.296   2.070   4.294
 5970TIP3   OH217915   4.663   5.459   2.725
 5970TIP3    H117916   4.675   5.520   2.652
 5970TIP3    H217917   4.568   5.453   2.735
 5971TIP3   OH217918   0.160   1.422   0.593
 5971TIP3    H117919   0.097   1.438   0.663
 5971TIP3    H217920   0.164   1.327   0.585
 5972TIP3   OH217921   5.398   5.536   3.081
 5972TIP3    H117922   5.303   5.531   3.088
 5972TIP3    H217923   5.422   5.459   3.029
 5973TIP3   OH217924  -0.034   3.712   4.227
 5973TIP3    H117925   0.009   3.632   4.256
 5973TIP3    H217926  -0.044   3.765   4.306
 5974TIP3   OH217927   1.854   1.583   0.676
 5974TIP3    H117928   1.822   1.515   0.617
 5974TIP3    H217929   1.939   1.550   0.707
 5975TIP3   OH217930   4.732   3.641   0.074
 5975TIP3    H117931   4.798   3.572   0.087
 5975TIP3    H217932   4.763   3.714   0.126
 5976TIP3   OH217933   1.036   4.970   1.103
 5976TIP3    H117934   1.119   4.960   1.056
 5976TIP3    H217935   1.061   4.973   1.196
 5977TIP3   OH217936   4.907   2.217   4.124
 5977TIP3    H117937   4.917   2.187   4.034
 5977TIP3    H217938   4.846   2.290   4.119
 5978TIP3   OH217939   1.520   3.248   5.186
 5978TIP3    H117940   1.540   3.328   5.136
 5978TIP3    H217941   1.594   3.190   5.169
 5979TIP3   OH217942   2.786   5.654   4.826
 5979TIP3    H117943   2.737   5.719   4.877
 5979TIP3    H217944   2.744   5.655   4.740
 5980TIP3   OH217945   1.094   3.815   0.110
 5980TIP3    H117946   1.146   3.831   0.188
 5980TIP3    H217947   1.155   3.826   0.037
 5981TIP3   OH217948   6.253   4.222   3.721
 5981TIP3    H117949   6.198   4.212   3.643
 5981TIP3    H217950   6.192   4.214   3.794
 5982TIP3   OH217951   4.433   5.784   2.840
 5982TIP3    H117952   4.432   5.718   2.770
 5982TIP3    H217953   4.347   5.825   2.836
 5983TIP3   OH217954   3.691   1.502   0.143
 5983TIP3    H117955   3.733   1.577   0.102
 5983TIP3    H217956   3.600   1.529   0.155
 5984TIP3   OH217957   4.988   3.861   4.167
 5984TIP3    H117958   5.008   3.954   4.152
 5984TIP3    H217959   4.983   3.823   4.079
 5985TIP3   OH217960   0.278   3.564   3.310
 5985TIP3    H117961   0.244   3.595   3.226
 5985TIP3    H217962   0.200   3.542   3.361
 5986TIP3   OH217963   4.293   2.924   5.129
 5986TIP3    H117964   4.215   2.934   5.185
 5986TIP3    H217965   4.260   2.889   5.047
 5987TIP3   OH217966   0.273   5.031   3.519
 5987TIP3    H117967   0.311   5.008   3.434
 5987TIP3    H217968   0.202   5.091   3.499
 5988TIP3   OH217969   0.096   5.978   3.980
 5988TIP3    H117970   0.060   6.006   4.064
 5988TIP3    H217971   0.043   5.902   3.955
 5989TIP3   OH217972   4.253   3.540   3.473
 5989TIP3    H117973   4.332   3.542   3.527
 5989TIP3    H217974   4.211   3.624   3.490
 5990TIP3   OH217975   6.251   1.110   0.133
 5990TIP3    H117976   6.301   1.169   0.077
 5990TIP3    H217977   6.317   1.058   0.178
 5991TIP3   OH217978   2.161   0.580   0.311
 5991TIP3    H117979   2.101   0.505   0.309
 5991TIP3    H217980   2.186   0.593   0.219
 5992TIP3   OH217981   5.021   1.320   3.202
 5992TIP3    H117982   4.942   1.373   3.211
 5992TIP3    H217983   5.071   1.364   3.132
 5993TIP3   OH217984   1.942   0.572   1.964
 5993TIP3    H117985   2.036   0.580   1.975
 5993TIP3    H217986   1.932   0.521   1.884
 5994TIP3   OH217987   1.765   4.937   3.003
 5994TIP3    H117988   1.861   4.933   2.996
 5994TIP3    H217989   1.736   4.848   2.984
 5995TIP3   OH217990   4.615   5.143   0.335
 5995TIP3    H117991   4.556   5.201   0.286
 5995TIP3    H217992   4.623   5.065   0.280
 5996TIP3   OH217993   4.972   5.722   1.836
 5996TIP3    H117994   4.879   5.744   1.837
 5996TIP3    H217995   5.010   5.774   1.908
 5997TIP3   OH217996   3.414   0.530   3.190
 5997TIP3    H117997   3.447   0.442   3.212
 5997TIP3    H217998   3.371   0.519   3.106
 5998TIP3   OH217999   5.391   0.987   0.882
 5998TIP3    H118000   5.455   0.917   0.867
 5998TIP3    H218001   5.316   0.963   0.829
 5999TIP3   OH218002   2.875   2.912   5.118
 5999TIP3    H118003   2.918   2.867   5.045
 5999TIP3    H218004   2.853   2.998   5.082
 6000TIP3   OH218005   0.417   4.984   1.437
 6000TIP3    H118006   0.493   4.929   1.456
 6000TIP3    H218007   0.400   4.971   1.344
 6001TIP3   OH218008   2.548   2.659   1.058
 6001TIP3    H118009   2.454   2.673   1.051
 6001TIP3    H218010   2.586   2.719   0.994
 6002TIP3   OH218011   4.474   0.116   1.678
 6002TIP3    H118012   4.397   0.092   1.626
 6002TIP3    H218013   4.542   0.053   1.652
 6003TIP3   OH218014   1.106   3.867   3.586
 6003TIP3    H118015   1.039   3.856   3.519
 6003TIP3    H218016   1.119   3.779   3.622
 6004TIP3   OH218017   5.662   0.750   3.872
 6004TIP3    H118018   5.734   0.781   3.927
 6004TIP3    H218019   5.583   0.773   3.921
 6005TIP3   OH218020   1.674   0.620   3.075
 6005TIP3    H118021   1.621   0.698   3.092
 6005TIP3    H218022   1.649   0.592   2.987
 6006TIP3   OH218023   2.274   4.018   1.114
 6006TIP3    H118024   2.251   3.984   1.200
 6006TIP3    H218025   2.191   4.030   1.069
 6007TIP3   OH218026   5.283   1.543   3.460
 6007TIP3    H118027   5.377   1.549   3.472
 6007TIP3    H218028   5.271   1.516   3.369
 6008TIP3   OH218029   5.441   3.196   2.643
 6008TIP3    H118030   5.354   3.160   2.661
 6008TIP3    H218031   5.437   3.227   2.553
 6009TIP3   OH218032   0.437   5.390   3.975
 6009TIP3    H118033   0.355   5.411   3.930
 6009TIP3    H218034   0.410   5.371   4.066
 6010TIP3   OH218035   3.396   3.540   1.548
 6010TIP3    H118036   3.484   3.575   1.563
 6010TIP3    H218037   3.382   3.550   1.454
 6011TIP3   OH218038   0.849   2.891   0.303
 6011TIP3    H118039   0.931   2.845   0.318
 6011TIP3    H218040   0.861   2.933   0.218
 6012TIP3   OH218041   1.190   0.597   0.423
 6012TIP3    H118042   1.262   0.660   0.417
 6012TIP3    H218043   1.171   0.592   0.517
 6013TIP3   OH218044   4.323   1.899   2.714
 6013TIP3    H118045   4.280   1.849   2.645
 6013TIP3    H218046   4.402   1.849   2.735
 6014TIP3   OH218047   2.007   5.309   1.059
 6014TIP3    H118048   2.097   5.301   1.089
 6014TIP3    H218049   1.954   5.288   1.137
 6015TIP3   OH218050   3.571   4.716   1.816
 6015TIP3    H118051   3.596   4.637   1.769
 6015TIP3    H218052   3.520   4.766   1.751
 6016TIP3   OH218053   4.685   1.635   1.598
 6016TIP3    H118054   4.641   1.615   1.681
 6016TIP3    H218055   4.777   1.616   1.615
 6017TIP3   OH218056   0.113   3.750   2.116
 6017TIP3    H118057   0.113   3.782   2.206
 6017TIP3    H218058   0.024   3.717   2.102
 6018TIP3   OH218059   4.908   4.945   4.718
 6018TIP3    H118060   4.994   4.924   4.755
 6018TIP3    H218061   4.873   5.011   4.777
 6019TIP3   OH218062   0.836   5.515   1.540
 6019TIP3    H118063   0.851   5.522   1.634
 6019TIP3    H218064   0.755   5.465   1.532
 6020TIP3   OH218065   2.627   2.038   4.869
 6020TIP3    H118066   2.702   1.984   4.845
 6020TIP3    H218067   2.629   2.042   4.964
 6021TIP3   OH218068   2.870   4.073   1.080
 6021TIP3    H118069   2.880   3.983   1.110
 6021TIP3    H218070   2.812   4.067   1.004
 6022TIP3   OH218071   2.062   1.506   0.340
 6022TIP3    H118072   1.972   1.535   0.327
 6022TIP3    H218073   2.063   1.469   0.428
 6023TIP3   OH218074   6.226   4.411   0.402
 6023TIP3    H118075   6.144   4.444   0.439
 6023TIP3    H218076   6.207   4.397   0.309
 6024TIP3   OH218077   1.034   0.320   5.182
 6024TIP3    H118078   1.100   0.389   5.192
 6024TIP3    H218079   0.954   0.367   5.159
 6025TIP3   OH218080   3.196   5.494   4.435
 6025TIP3    H118081   3.184   5.399   4.437
 6025TIP3    H218082   3.241   5.514   4.518
 6026TIP3   OH218083   0.132   2.998   0.603
 6026TIP3    H118084   0.143   2.958   0.689
 6026TIP3    H218085   0.038   3.010   0.594
 6027TIP3   OH218086   3.120   5.750   4.429
 6027TIP3    H118087   3.062   5.749   4.505
 6027TIP3    H218088   3.166   5.666   4.433
 6028TIP3   OH218089   5.822   1.831   4.985
 6028TIP3    H118090   5.751   1.868   5.037
 6028TIP3    H218091   5.894   1.821   5.046
 6029TIP3   OH218092   0.963   0.028   2.601
 6029TIP3    H118093   0.987   0.115   2.570
 6029TIP3    H218094   1.021   0.012   2.675
 6030TIP3   OH218095   1.042   2.345   1.407
 6030TIP3    H118096   1.123   2.305   1.439
 6030TIP3    H218097   1.025   2.303   1.323
 6031TIP3   OH218098   5.771   2.623   0.024
 6031TIP3    H118099   5.832   2.674   0.077
 6031TIP3    H218100   5.820   2.545  -0.001
 6032TIP3   OH218101   3.594   2.777   3.148
 6032TIP3    H118102   3.550   2.691   3.145
 6032TIP3    H218103   3.525   2.840   3.127
 6033TIP3   OH218104   6.251   1.727   1.687
 6033TIP3    H118105   6.283   1.648   1.731
 6033TIP3    H218106   6.331   1.768   1.653
 6034TIP3   OH218107   0.145   0.857   4.511
 6034TIP3    H118108   0.089   0.917   4.560
 6034TIP3    H218109   0.087   0.816   4.447
 6035TIP3   OH218110   0.230   2.883   3.392
 6035TIP3    H118111   0.308   2.872   3.446
 6035TIP3    H218112   0.258   2.939   3.320
 6036TIP3   OH218113   4.724   1.912   1.263
 6036TIP3    H118114   4.815   1.931   1.285
 6036TIP3    H218115   4.709   1.823   1.297
 6037TIP3   OH218116   2.512   1.199   3.846
 6037TIP3    H118117   2.509   1.145   3.767
 6037TIP3    H218118   2.606   1.211   3.864
 6038TIP3   OH218119   1.186   3.453   3.176
 6038TIP3    H118120   1.210   3.546   3.176
 6038TIP3    H218121   1.263   3.409   3.141
 6039TIP3   OH218122   2.894   4.814   1.076
 6039TIP3    H118123   2.828   4.758   1.117
 6039TIP3    H218124   2.962   4.753   1.047
 6040TIP3   OH218125   2.283   0.318   4.416
 6040TIP3    H118126   2.189   0.307   4.433
 6040TIP3    H218127   2.319   0.352   4.498
 6041TIP3   OH218128   1.428   4.187   3.828
 6041TIP3    H118129   1.497   4.173   3.763
 6041TIP3    H218130   1.466   4.153   3.910
 6042TIP3   OH218131   1.955   5.454   3.834
 6042TIP3    H118132   1.868   5.492   3.840
 6042TIP3    H218133   2.014   5.529   3.834
 6043TIP3   OH218134   5.874   4.274   0.639
 6043TIP3    H118135   5.897   4.365   0.620
 6043TIP3    H218136   5.949   4.223   0.607
 6044TIP3   OH218137   2.507   5.126   1.839
 6044TIP3    H118138   2.599   5.112   1.863
 6044TIP3    H218139   2.509   5.200   1.778
 6045TIP3   OH218140   3.185   5.054   0.415
 6045TIP3    H118141   3.225   5.026   0.498
 6045TIP3    H218142   3.168   5.148   0.426
 6046TIP3   OH218143   5.973   2.785   0.126
 6046TIP3    H118144   6.040   2.755   0.188
 6046TIP3    H218145   6.022   2.838   0.062
 6047TIP3   OH218146   1.360   3.396   2.139
 6047TIP3    H118147   1.366   3.395   2.235
 6047TIP3    H218148   1.450   3.406   2.109
 6048TIP3   OH218149   3.071   3.201   2.463
 6048TIP3    H118150   3.087   3.205   2.369
 6048TIP3    H218151   3.096   3.112   2.487
 6049TIP3   OH218152   0.638   2.517   3.059
 6049TIP3    H118153   0.605   2.573   3.129
 6049TIP3    H218154   0.567   2.454   3.044
 6050TIP3   OH218155   2.416   3.764   4.625
 6050TIP3    H118156   2.467   3.824   4.570
 6050TIP3    H218157   2.441   3.676   4.594
 6051TIP3   OH218158   2.712   1.095   2.588
 6051TIP3    H118159   2.625   1.080   2.625
 6051TIP3    H218160   2.747   1.169   2.638
 6052TIP3   OH218161   3.103   5.004   1.335
 6052TIP3    H118162   3.015   4.978   1.362
 6052TIP3    H218163   3.090   5.047   1.250
 6053TIP3   OH218164   5.847   2.630   4.494
 6053TIP3    H118165   5.809   2.667   4.574
 6053TIP3    H218166   5.781   2.647   4.426
 6054TIP3   OH218167   1.329   4.056   2.468
 6054TIP3    H118168   1.393   4.115   2.508
 6054TIP3    H218169   1.367   4.032   2.384
 6055TIP3   OH218170   1.434   0.745   4.474
 6055TIP3    H118171   1.506   0.738   4.410
 6055TIP3    H218172   1.474   0.720   4.557
 6056TIP3   OH218173   2.682   3.631   4.911
 6056TIP3    H118174   2.604   3.683   4.896
 6056TIP3    H218175   2.649   3.545   4.935
 6057TIP3   OH218176   6.232   2.704   2.923
 6057TIP3    H118177   6.315   2.691   2.878
 6057TIP3    H218178   6.166   2.671   2.863
 6058TIP3   OH218179   4.259   1.936   3.845
 6058TIP3    H118180   4.194   1.956   3.913
 6058TIP3    H218181   4.309   1.862   3.880
 6059TIP3   OH218182   4.901   4.162   2.334
 6059TIP3    H118183   4.940   4.095   2.278
 6059TIP3    H218184   4.961   4.169   2.408
 6060TIP3   OH218185   0.611   5.324   3.230
 6060TIP3    H118186   0.523   5.321   3.193
 6060TIP3    H218187   0.669   5.297   3.158
 6061TIP3   OH218188   2.882   5.709   0.819
 6061TIP3    H118189   2.948   5.660   0.867
 6061TIP3    H218190   2.800   5.662   0.837
 6062TIP3   OH218191   0.353   0.342   2.195
 6062TIP3    H118192   0.395   0.306   2.272
 6062TIP3    H218193   0.363   0.437   2.205
 6063TIP3   OH218194   0.869   5.614   4.114
 6063TIP3    H118195   0.896   5.523   4.129
 6063TIP3    H218196   0.809   5.609   4.039
 6064TIP3   OH218197   5.456   5.505   3.888
 6064TIP3    H118198   5.366   5.490   3.859
 6064TIP3    H218199   5.451   5.586   3.940
 6065TIP3   OH218200   2.669   3.960   2.367
 6065TIP3    H118201   2.708   3.956   2.455
 6065TIP3    H218202   2.578   3.932   2.381
 6066TIP3   OH218203   2.305   2.355   3.179
 6066TIP3    H118204   2.313   2.450   3.178
 6066TIP3    H218205   2.236   2.336   3.115
 6067TIP3   OH218206   6.028   5.949   1.986
 6067TIP3    H118207   6.064   5.964   1.898
 6067TIP3    H218208   6.105   5.949   2.043
 6068TIP3   OH218209   6.072   2.524   4.191
 6068TIP3    H118210   6.010   2.470   4.142
 6068TIP3    H218211   6.070   2.609   4.146
 6069TIP3   OH218212   6.289   2.891   3.867
 6069TIP3    H118213   6.381   2.865   3.856
 6069TIP3    H218214   6.244   2.810   3.889
 6070TIP3   OH218215   3.594   3.624   5.099
 6070TIP3    H118216   3.505   3.656   5.111
 6070TIP3    H218217   3.611   3.632   5.005
 6071TIP3   OH218218   1.318   1.245   0.046
 6071TIP3    H118219   1.232   1.284   0.057
 6071TIP3    H218220   1.305   1.175  -0.019
 6072TIP3   OH218221   1.708   3.342   4.145
 6072TIP3    H118222   1.620   3.311   4.168
 6072TIP3    H218223   1.760   3.326   4.224
 6073TIP3   OH218224   4.294   3.161   0.926
 6073TIP3    H118225   4.369   3.196   0.878
 6073TIP3    H218226   4.224   3.157   0.861
 6074TIP3   OH218227   2.432   3.527   1.382
 6074TIP3    H118228   2.364   3.580   1.339
 6074TIP3    H218229   2.399   3.437   1.377
 6075TIP3   OH218230   3.391   4.008   2.832
 6075TIP3    H118231   3.426   3.961   2.756
 6075TIP3    H218232   3.390   4.099   2.805
 6076TIP3   OH218233   0.352   1.319   3.715
 6076TIP3    H118234   0.366   1.376   3.790
 6076TIP3    H218235   0.269   1.350   3.677
 6077TIP3   OH218236   3.472   4.940   1.652
 6077TIP3    H118237   3.452   5.025   1.612
 6077TIP3    H218238   3.549   4.909   1.604
 6078TIP3   OH218239   5.438   3.240   2.382
 6078TIP3    H118240   5.389   3.201   2.309
 6078TIP3    H218241   5.492   3.307   2.341
 6079TIP3   OH218242   4.497   2.308   1.519
 6079TIP3    H118243   4.495   2.396   1.481
 6079TIP3    H218244   4.579   2.270   1.487
 6080TIP3   OH218245   5.532   2.464   0.147
 6080TIP3    H118246   5.620   2.502   0.143
 6080TIP3    H218247   5.500   2.469   0.057
 6081TIP3   OH218248   0.528   4.951   3.253
 6081TIP3    H118249   0.513   4.871   3.202
 6081TIP3    H218250   0.449   5.003   3.239
 6082TIP3   OH218251   4.309   2.553   0.486
 6082TIP3    H118252   4.233   2.530   0.539
 6082TIP3    H218253   4.379   2.569   0.550
 6083TIP3   OH218254   5.672   0.764   4.451
 6083TIP3    H118255   5.600   0.827   4.459
 6083TIP3    H218256   5.689   0.735   4.541
 6084TIP3   OH218257   3.410   3.995   4.972
 6084TIP3    H118258   3.481   4.048   5.009
 6084TIP3    H218259   3.413   3.914   5.022
 6085TIP3   OH218260   1.274   0.612   4.161
 6085TIP3    H118261   1.188   0.585   4.191
 6085TIP3    H218262   1.274   0.708   4.169
 6086TIP3   OH218263   4.283   4.557   3.392
 6086TIP3    H118264   4.264   4.472   3.430
 6086TIP3    H218265   4.350   4.595   3.449
 6087TIP3   OH218266   1.866   4.199   2.916
 6087TIP3    H118267   1.920   4.267   2.876
 6087TIP3    H218268   1.800   4.179   2.850
 6088TIP3   OH218269   2.891   2.265   0.577
 6088TIP3    H118270   2.959   2.214   0.620
 6088TIP3    H218271   2.928   2.287   0.491
 6089TIP3   OH218272   5.504   5.621   4.318
 6089TIP3    H118273   5.492   5.678   4.394
 6089TIP3    H218274   5.539   5.539   4.355
 6090TIP3   OH218275   3.234   4.758   2.743
 6090TIP3    H118276   3.142   4.739   2.766
 6090TIP3    H218277   3.228   4.818   2.669
 6091TIP3   OH218278   2.578   5.958   4.447
 6091TIP3    H118279   2.656   5.909   4.420
 6091TIP3    H218280   2.574   6.032   4.386
 6092TIP3   OH218281   3.603   1.322   2.014
 6092TIP3    H118282   3.573   1.247   2.065
 6092TIP3    H218283   3.669   1.287   1.955
 6093TIP3   OH218284   5.286   2.707   1.958
 6093TIP3    H118285   5.277   2.617   1.927
 6093TIP3    H218286   5.368   2.738   1.919
 6094TIP3   OH218287   5.176   4.079   4.024
 6094TIP3    H118288   5.105   4.140   4.004
 6094TIP3    H218289   5.172   4.013   3.955
 6095TIP3   OH218290   4.239   0.791   3.709
 6095TIP3    H118291   4.155   0.823   3.740
 6095TIP3    H218292   4.217   0.725   3.643
 6096TIP3   OH218293   5.627   2.091   1.306
 6096TIP3    H118294   5.655   2.182   1.321
 6096TIP3    H218295   5.679   2.040   1.367
 6097TIP3   OH218296   1.224   1.928   5.080
 6097TIP3    H118297   1.177   1.994   5.027
 6097TIP3    H218298   1.225   1.850   5.025
 6098TIP3   OH218299   0.939   0.454   1.269
 6098TIP3    H118300   0.985   0.375   1.295
 6098TIP3    H218301   0.887   0.478   1.346
 6099TIP3   OH218302   4.520   4.523   4.133
 6099TIP3    H118303   4.596   4.539   4.078
 6099TIP3    H218304   4.445   4.536   4.075
 6100TIP3   OH218305   2.420   0.921   1.699
 6100TIP3    H118306   2.380   0.846   1.655
 6100TIP3    H218307   2.362   0.994   1.679
 6101TIP3   OH218308   4.565   0.937   2.851
 6101TIP3    H118309   4.653   0.932   2.815
 6101TIP3    H218310   4.507   0.930   2.775
 6102TIP3   OH218311   2.560   0.722   2.767
 6102TIP3    H118312   2.611   0.648   2.800
 6102TIP3    H218313   2.587   0.796   2.822
 6103TIP3   OH218314   3.718   0.337   4.726
 6103TIP3    H118315   3.786   0.400   4.747
 6103TIP3    H218316   3.746   0.298   4.643
 6104TIP3   OH218317   0.535   3.994   1.148
 6104TIP3    H118318   0.522   4.083   1.117
 6104TIP3    H218319   0.619   3.967   1.109
 6105TIP3   OH218320   3.057   1.246   3.323
 6105TIP3    H118321   3.084   1.256   3.414
 6105TIP3    H218322   3.115   1.179   3.287
 6106TIP3   OH218323   0.106   3.285   1.244
 6106TIP3    H118324   0.156   3.288   1.161
 6106TIP3    H218325   0.097   3.192   1.263
 6107TIP3   OH218326   5.520   2.852   4.868
 6107TIP3    H118327   5.452   2.787   4.856
 6107TIP3    H218328   5.473   2.936   4.874
 6108TIP3   OH218329   0.611   2.507   3.384
 6108TIP3    H118330   0.596   2.593   3.345
 6108TIP3    H218331   0.686   2.520   3.442
 6109TIP3   OH218332   5.788   4.970   2.404
 6109TIP3    H118333   5.780   4.905   2.475
 6109TIP3    H218334   5.698   4.982   2.373
 6110TIP3   OH218335   3.646   1.167   4.950
 6110TIP3    H118336   3.739   1.142   4.953
 6110TIP3    H218337   3.602   1.090   4.914
 6111TIP3   OH218338   3.780   5.467   3.745
 6111TIP3    H118339   3.761   5.492   3.655
 6111TIP3    H218340   3.818   5.545   3.785
 6112TIP3   OH218341   0.672   4.570   4.573
 6112TIP3    H118342   0.705   4.483   4.592
 6112TIP3    H218343   0.631   4.599   4.655
 6113TIP3   OH218344   2.009   2.109   0.254
 6113TIP3    H118345   1.922   2.095   0.291
 6113TIP3    H218346   2.067   2.114   0.330
 6114TIP3   OH218347   1.208   2.425   2.960
 6114TIP3    H118348   1.132   2.379   2.994
 6114TIP3    H218349   1.278   2.360   2.961
 6115TIP3   OH218350   0.043   3.727   3.942
 6115TIP3    H118351  -0.023   3.785   3.904
 6115TIP3    H218352   0.013   3.713   4.032
 6116TIP3   OH218353   4.863   5.974   3.766
 6116TIP3    H118354   4.950   5.971   3.727
 6116TIP3    H218355   4.832   5.884   3.764
 6117TIP3   OH218356   0.624   2.733   3.609
 6117TIP3    H118357   0.678   2.667   3.653
 6117TIP3    H218358   0.678   2.764   3.536
 6118TIP3   OH218359   2.903   2.425   4.364
 6118TIP3    H118360   2.874   2.509   4.399
 6118TIP3    H218361   2.864   2.359   4.422
 6119TIP3   OH218362   2.377   3.927   3.617
 6119TIP3    H118363   2.424   3.964   3.542
 6119TIP3    H218364   2.355   4.002   3.671
 6120TIP3   OH218365   2.404   1.409   0.039
 6120TIP3    H118366   2.441   1.490   0.073
 6120TIP3    H218367   2.470   1.342   0.058
 6121TIP3   OH218368   2.731   2.948   3.238
 6121TIP3    H118369   2.731   2.853   3.236
 6121TIP3    H218370   2.643   2.973   3.209
 6122TIP3   OH218371   2.697   5.365   4.717
 6122TIP3    H118372   2.690   5.270   4.724
 6122TIP3    H218373   2.613   5.397   4.752
 6123TIP3   OH218374   2.903   2.124   2.867
 6123TIP3    H118375   2.813   2.157   2.867
 6123TIP3    H218376   2.893   2.029   2.878
 6124TIP3   OH218377   3.871   3.171   0.211
 6124TIP3    H118378   3.818   3.235   0.257
 6124TIP3    H218379   3.847   3.181   0.119
 6125TIP3   OH218380   1.724   1.414   2.492
 6125TIP3    H118381   1.689   1.370   2.570
 6125TIP3    H218382   1.754   1.343   2.436
 6126TIP3   OH218383   5.110   3.204   3.478
 6126TIP3    H118384   5.108   3.111   3.456
 6126TIP3    H218385   5.018   3.228   3.490
 6127TIP3   OH218386   5.755   0.693   0.242
 6127TIP3    H118387   5.671   0.650   0.231
 6127TIP3    H218388   5.741   0.782   0.213
 6128TIP3   OH218389   2.074   1.619   4.943
 6128TIP3    H118390   1.993   1.664   4.921
 6128TIP3    H218391   2.128   1.685   4.985
 6129TIP3   OH218392   3.387   0.880   3.681
 6129TIP3    H118393   3.440   0.815   3.635
 6129TIP3    H218394   3.355   0.938   3.611
 6130TIP3   OH218395   2.503   3.367   0.551
 6130TIP3    H118396   2.501   3.460   0.572
 6130TIP3    H218397   2.413   3.337   0.564
 6131TIP3   OH218398   0.995   4.303   2.128
 6131TIP3    H118399   0.934   4.325   2.198
 6131TIP3    H218400   1.023   4.214   2.148
 6132TIP3   OH218401   4.124   2.179   1.506
 6132TIP3    H118402   4.198   2.118   1.510
 6132TIP3    H218403   4.144   2.236   1.432
 6133TIP3   OH218404   4.926   4.718   1.399
 6133TIP3    H118405   4.856   4.772   1.362
 6133TIP3    H218406   4.892   4.691   1.484
 6134TIP3   OH218407   2.746   2.222   2.351
 6134TIP3    H118408   2.780   2.157   2.291
 6134TIP3    H218409   2.651   2.207   2.352
 6135TIP3   OH218410   1.023   2.877   1.469
 6135TIP3    H118411   0.997   2.875   1.561
 6135TIP3    H218412   1.028   2.785   1.444
 6136TIP3   OH218413   5.082   0.685   4.630
 6136TIP3    H118414   5.049   0.603   4.669
 6136TIP3    H218415   5.175   0.668   4.613
 6137TIP3   OH218416   4.144   0.726   0.921
 6137TIP3    H118417   4.081   0.683   0.863
 6137TIP3    H218418   4.162   0.661   0.989
 6138TIP3   OH218419   2.518   4.576   1.092
 6138TIP3    H118420   2.511   4.482   1.077
 6138TIP3    H218421   2.546   4.612   1.008
 6139TIP3   OH218422   0.461   5.831   0.868
 6139TIP3    H118423   0.518   5.890   0.819
 6139TIP3    H218424   0.454   5.753   0.813
 6140TIP3   OH218425   6.116   3.852   2.935
 6140TIP3    H118426   6.142   3.908   2.862
 6140TIP3    H218427   6.048   3.902   2.980
 6141TIP3   OH218428   3.955   2.549   3.642
 6141TIP3    H118429   3.869   2.568   3.605
 6141TIP3    H218430   4.009   2.625   3.619
 6142TIP3   OH218431   3.715   5.859   0.925
 6142TIP3    H118432   3.629   5.864   0.886
 6142TIP3    H218433   3.759   5.940   0.898
 6143TIP3   OH218434   2.262   3.995   3.135
 6143TIP3    H118435   2.230   3.970   3.048
 6143TIP3    H218436   2.301   3.915   3.170
 6144TIP3   OH218437   5.725   1.853   1.040
 6144TIP3    H118438   5.787   1.795   0.997
 6144TIP3    H218439   5.779   1.920   1.083
 6145TIP3   OH218440   5.917   1.592   2.752
 6145TIP3    H118441   5.916   1.621   2.844
 6145TIP3    H218442   5.824   1.580   2.731
 6146TIP3   OH218443   6.248   3.687   1.554
 6146TIP3    H118444   6.310   3.617   1.572
 6146TIP3    H218445   6.182   3.647   1.498
 6147TIP3   OH218446   2.498   4.187   4.149
 6147TIP3    H118447   2.458   4.228   4.226
 6147TIP3    H218448   2.458   4.232   4.074
 6148TIP3   OH218449   5.585   4.283   4.754
 6148TIP3    H118450   5.604   4.250   4.666
 6148TIP3    H218451   5.670   4.284   4.798
 6149TIP3   OH218452   4.514   5.199   1.206
 6149TIP3    H118453   4.449   5.129   1.211
 6149TIP3    H218454   4.463   5.279   1.217
 6150TIP3   OH218455   6.324   2.914   3.398
 6150TIP3    H118456   6.305   2.854   3.326
 6150TIP3    H218457   6.415   2.896   3.421
 6151TIP3   OH218458   5.964   0.575   3.007
 6151TIP3    H118459   6.001   0.663   3.023
 6151TIP3    H218460   5.925   0.551   3.091
 6152TIP3   OH218461   2.479   2.142   1.556
 6152TIP3    H118462   2.527   2.146   1.639
 6152TIP3    H218463   2.462   2.234   1.534
 6153TIP3   OH218464   1.710   2.102   3.279
 6153TIP3    H118465   1.767   2.178   3.285
 6153TIP3    H218466   1.635   2.132   3.227
 6154TIP3   OH218467   0.735   1.285   4.577
 6154TIP3    H118468   0.744   1.368   4.624
 6154TIP3    H218469   0.799   1.227   4.618
 6155TIP3   OH218470   4.141   5.036   4.520
 6155TIP3    H118471   4.119   5.092   4.595
 6155TIP3    H218472   4.057   5.003   4.489
 6156TIP3   OH218473   2.594   2.179   1.800
 6156TIP3    H118474   2.551   2.180   1.886
 6156TIP3    H218475   2.639   2.263   1.795
 6157TIP3   OH218476   3.306   1.920   1.913
 6157TIP3    H118477   3.299   1.905   2.007
 6157TIP3    H218478   3.265   1.843   1.873
 6158TIP3   OH218479   4.310   2.910   4.119
 6158TIP3    H118480   4.383   2.928   4.059
 6158TIP3    H218481   4.232   2.931   4.068
 6159TIP3   OH218482   5.295   3.591   1.741
 6159TIP3    H118483   5.361   3.607   1.809
 6159TIP3    H218484   5.346   3.566   1.663
 6160TIP3   OH218485   1.623   2.966   0.475
 6160TIP3    H118486   1.626   2.959   0.571
 6160TIP3    H218487   1.563   3.039   0.459
 6161TIP3   OH218488   0.189   1.242   3.020
 6161TIP3    H118489   0.198   1.172   3.085
 6161TIP3    H218490   0.245   1.215   2.947
 6162TIP3   OH218491   2.988   5.025   2.863
 6162TIP3    H118492   2.926   4.951   2.859
 6162TIP3    H218493   2.933   5.103   2.859
 6163TIP3   OH218494   4.529   1.940   3.188
 6163TIP3    H118495   4.569   1.927   3.274
 6163TIP3    H218496   4.602   1.931   3.127
 6164TIP3   OH218497   0.952   5.205   2.765
 6164TIP3    H118498   1.039   5.178   2.738
 6164TIP3    H218499   0.936   5.286   2.716
 6165TIP3   OH218500   1.267   3.762   4.050
 6165TIP3    H118501   1.201   3.716   4.101
 6165TIP3    H218502   1.237   3.853   4.047
 6166TIP3   OH218503   4.593   0.154   2.457
 6166TIP3    H118504   4.506   0.191   2.444
 6166TIP3    H218505   4.631   0.205   2.529
 6167TIP3   OH218506   4.835   3.783   3.575
 6167TIP3    H118507   4.815   3.692   3.552
 6167TIP3    H218508   4.757   3.832   3.548
 6168TIP3   OH218509   3.978   2.973   0.456
 6168TIP3    H118510   3.905   3.018   0.414
 6168TIP3    H218511   3.974   3.002   0.547
 6169TIP3   OH218512   1.832   0.048   3.889
 6169TIP3    H118513   1.842   0.038   3.984
 6169TIP3    H218514   1.921   0.041   3.855
 6170TIP3   OH218515   2.483   5.340   0.996
 6170TIP3    H118516   2.499   5.309   0.907
 6170TIP3    H218517   2.434   5.270   1.038
 6171TIP3   OH218518   3.559   5.327   4.097
 6171TIP3    H118519   3.570   5.405   4.043
 6171TIP3    H218520   3.638   5.325   4.152
 6172TIP3   OH218521   5.708  -0.006   2.824
 6172TIP3    H118522   5.625   0.038   2.808
 6172TIP3    H218523   5.774   0.055   2.791
 6173TIP3   OH218524   6.234   2.345   1.468
 6173TIP3    H118525   6.150   2.382   1.496
 6173TIP3    H218526   6.229   2.252   1.490
 6174TIP3   OH218527   5.036   1.341   2.927
 6174TIP3    H118528   5.018   1.350   2.834
 6174TIP3    H218529   5.131   1.346   2.935
 6175TIP3   OH218530   4.115   1.275   1.881
 6175TIP3    H118531   4.123   1.186   1.917
 6175TIP3    H218532   4.119   1.332   1.957
 6176TIP3   OH218533   1.627   4.754   3.761
 6176TIP3    H118534   1.683   4.681   3.786
 6176TIP3    H218535   1.570   4.767   3.837
 6177TIP3   OH218536   4.189   1.175   5.154
 6177TIP3    H118537   4.185   1.265   5.187
 6177TIP3    H218538   4.214   1.123   5.230
 6178TIP3   OH218539   5.721   1.694   4.460
 6178TIP3    H118540   5.703   1.666   4.550
 6178TIP3    H218541   5.775   1.772   4.469
 6179TIP3   OH218542   3.226   2.496   4.382
 6179TIP3    H118543   3.206   2.405   4.406
 6179TIP3    H218544   3.210   2.500   4.288
 6180TIP3   OH218545   4.001   1.404   4.625
 6180TIP3    H118546   3.983   1.380   4.715
 6180TIP3    H218547   4.002   1.500   4.625
 6181TIP3   OH218548   4.576   4.616   0.087
 6181TIP3    H118549   4.575   4.639   0.180
 6181TIP3    H218550   4.636   4.541   0.082
 6182TIP3   OH218551   1.501   4.429   0.985
 6182TIP3    H118552   1.593   4.448   1.006
 6182TIP3    H218553   1.483   4.346   1.028
 6183TIP3   OH218554   2.171   3.925   5.039
 6183TIP3    H118555   2.194   3.893   4.952
 6183TIP3    H218556   2.146   4.016   5.025
 6184TIP3   OH218557   2.953   4.263   3.741
 6184TIP3    H118558   2.883   4.222   3.690
 6184TIP3    H218559   3.030   4.207   3.724
 6185TIP3   OH218560   3.644   1.949   2.445
 6185TIP3    H118561   3.720   1.891   2.440
 6185TIP3    H218562   3.578   1.899   2.492
 6186TIP3   OH218563   4.993   5.269   0.853
 6186TIP3    H118564   5.024   5.279   0.763
 6186TIP3    H218565   4.926   5.201   0.848
 6187TIP3   OH218566   1.622   3.629   0.735
 6187TIP3    H118567   1.678   3.597   0.665
 6187TIP3    H218568   1.617   3.557   0.797
 6188TIP3   OH218569   1.619   0.126   2.149
 6188TIP3    H118570   1.546   0.095   2.095
 6188TIP3    H218571   1.697   0.103   2.099
 6189TIP3   OH218572   3.374   1.149   0.898
 6189TIP3    H118573   3.455   1.191   0.929
 6189TIP3    H218574   3.308   1.174   0.961
 6190TIP3   OH218575   2.614   5.610   3.610
 6190TIP3    H118576   2.523   5.600   3.637
 6190TIP3    H218577   2.638   5.526   3.572
 6191TIP3   OH218578   1.585   1.280   3.850
 6191TIP3    H118579   1.644   1.345   3.812
 6191TIP3    H218580   1.576   1.306   3.941
 6192TIP3   OH218581   1.325   2.723   0.467
 6192TIP3    H118582   1.333   2.819   0.465
 6192TIP3    H218583   1.376   2.697   0.543
 6193TIP3   OH218584   5.898   1.912   4.493
 6193TIP3    H118585   5.883   2.005   4.505
 6193TIP3    H218586   5.925   1.880   4.580
 6194TIP3   OH218587   4.079   5.072   4.788
 6194TIP3    H118588   4.023   4.997   4.806
 6194TIP3    H218589   4.084   5.119   4.872
 6195TIP3   OH218590   3.195   4.063   0.120
 6195TIP3    H118591   3.270   4.010   0.146
 6195TIP3    H218592   3.199   4.066   0.024
 6196TIP3   OH218593   2.556   1.167   1.876
 6196TIP3    H118594   2.502   1.238   1.839
 6196TIP3    H218595   2.570   1.108   1.802
 6197TIP3   OH218596   1.125   4.943   4.237
 6197TIP3    H118597   1.181   5.012   4.272
 6197TIP3    H218598   1.056   4.932   4.303
 6198TIP3   OH218599   4.601   0.746   2.000
 6198TIP3    H118600   4.632   0.773   2.087
 6198TIP3    H218601   4.517   0.704   2.017
 6199TIP3   OH218602   4.273   4.782   4.512
 6199TIP3    H118603   4.237   4.868   4.536
 6199TIP3    H218604   4.258   4.728   4.590
 6200TIP3   OH218605   5.583   4.996   3.387
 6200TIP3    H118606   5.660   5.048   3.407
 6200TIP3    H218607   5.616   4.907   3.374
 6201TIP3   OH218608   1.020   4.897   2.652
 6201TIP3    H118609   0.975   4.925   2.572
 6201TIP3    H218610   1.081   4.969   2.672
 6202TIP3   OH218611   3.059   0.054   3.076
 6202TIP3    H118612   3.132   0.085   3.128
 6202TIP3    H218613   2.983   0.104   3.107
 6203TIP3   OH218614   5.242   2.241   0.430
 6203TIP3    H118615   5.263   2.334   0.441
 6203TIP3    H218616   5.315   2.195   0.471
 6204TIP3   OH218617   4.668   4.503   2.975
 6204TIP3    H118618   4.591   4.489   3.030
 6204TIP3    H218619   4.716   4.574   3.018
 6205TIP3   OH218620   2.065   4.036   2.428
 6205TIP3    H118621   2.083   3.995   2.513
 6205TIP3    H218622   1.982   4.082   2.440
 6206TIP3   OH218623   1.912   1.899   2.689
 6206TIP3    H118624   1.970   1.838   2.735
 6206TIP3    H218625   1.917   1.980   2.739
 6207TIP3   OH218626   4.456   4.130   1.633
 6207TIP3    H118627   4.450   4.040   1.603
 6207TIP3    H218628   4.481   4.123   1.725
 6208TIP3   OH218629   1.374   4.658   5.090
 6208TIP3    H118630   1.369   4.705   5.006
 6208TIP3    H218631   1.379   4.727   5.156
 6209TIP3   OH218632   1.966   0.178   4.772
 6209TIP3    H118633   1.979   0.097   4.723
 6209TIP3    H218634   1.873   0.199   4.760
 6210TIP3   OH218635   5.441   1.641   0.454
 6210TIP3    H118636   5.408   1.668   0.368
 6210TIP3    H218637   5.498   1.567   0.435
 6211TIP3   OH218638   3.031   2.961   4.688
 6211TIP3    H118639   3.060   3.013   4.763
 6211TIP3    H218640   3.001   3.026   4.624
 6212TIP3   OH218641   6.010   5.428   4.438
 6212TIP3    H118642   5.980   5.337   4.438
 6212TIP3    H218643   6.100   5.424   4.408
 6213TIP3   OH218644   0.275   0.644   4.975
 6213TIP3    H118645   0.353   0.628   5.028
 6213TIP3    H218646   0.220   0.700   5.029
 6214TIP3   OH218647   1.742   2.053   0.307
 6214TIP3    H118648   1.652   2.078   0.328
 6214TIP3    H218649   1.733   1.974   0.254
 6215TIP3   OH218650   4.302   2.531   2.869
 6215TIP3    H118651   4.322   2.438   2.860
 6215TIP3    H218652   4.247   2.537   2.947
 6216TIP3   OH218653   0.848   4.347   3.815
 6216TIP3    H118654   0.789   4.304   3.752
 6216TIP3    H218655   0.908   4.277   3.841
 6217TIP3   OH218656   0.661   4.438   0.560
 6217TIP3    H118657   0.585   4.452   0.617
 6217TIP3    H218658   0.714   4.517   0.572
 6218TIP3   OH218659   4.972   1.636   1.637
 6218TIP3    H118660   4.962   1.670   1.726
 6218TIP3    H218661   5.065   1.616   1.630
 6219TIP3   OH218662   5.390   3.146   1.619
 6219TIP3    H118663   5.370   3.070   1.673
 6219TIP3    H218664   5.343   3.218   1.662
 6220TIP3   OH218665   6.132   3.553   0.635
 6220TIP3    H118666   6.185   3.542   0.556
 6220TIP3    H218667   6.162   3.636   0.673
 6221TIP3   OH218668   4.298   2.588   4.977
 6221TIP3    H118669   4.309   2.545   4.892
 6221TIP3    H218670   4.279   2.679   4.956
 6222TIP3   OH218671   2.210   4.764   4.249
 6222TIP3    H118672   2.233   4.852   4.220
 6222TIP3    H218673   2.134   4.740   4.196
 6223TIP3   OH218674   5.575   3.858   1.571
 6223TIP3    H118675   5.653   3.899   1.534
 6223TIP3    H218676   5.606   3.773   1.602
 6224TIP3   OH218677   0.198   2.359   1.496
 6224TIP3    H118678   0.121   2.332   1.447
 6224TIP3    H218679   0.169   2.360   1.588
 6225TIP3   OH218680   2.863   4.369   5.094
 6225TIP3    H118681   2.823   4.283   5.083
 6225TIP3    H218682   2.860   4.384   5.189
 6226TIP3   OH218683   1.080   2.474   0.226
 6226TIP3    H118684   1.014   2.506   0.165
 6226TIP3    H218685   1.031   2.423   0.291
 6227TIP3   OH218686   5.297   0.108   4.434
 6227TIP3    H118687   5.325   0.151   4.354
 6227TIP3    H218688   5.374   0.109   4.491
 6228TIP3   OH218689   4.829   4.080   1.903
 6228TIP3    H118690   4.882   4.027   1.963
 6228TIP3    H218691   4.891   4.142   1.864
 6229TIP3   OH218692   5.430   2.694   2.191
 6229TIP3    H118693   5.353   2.689   2.135
 6229TIP3    H218694   5.475   2.610   2.179
 6230TIP3   OH218695   5.098   2.354   2.459
 6230TIP3    H118696   5.038   2.320   2.393
 6230TIP3    H218697   5.135   2.276   2.500
 6231TIP3   OH218698   5.215   3.964   0.987
 6231TIP3    H118699   5.275   4.033   0.958
 6231TIP3    H218700   5.218   3.899   0.917
 6232TIP3   OH218701   2.487   5.691   1.807
 6232TIP3    H118702   2.473   5.732   1.892
 6232TIP3    H218703   2.400   5.661   1.781
 6233TIP3   OH218704   0.899   1.158   2.330
 6233TIP3    H118705   0.936   1.127   2.248
 6233TIP3    H218706   0.846   1.234   2.304
 6234TIP3   OH218707   1.145   2.907   4.488
 6234TIP3    H118708   1.120   2.819   4.460
 6234TIP3    H218709   1.122   2.909   4.581
 6235TIP3   OH218710   5.660   2.974   2.303
 6235TIP3    H118711   5.687   2.883   2.296
 6235TIP3    H218712   5.594   2.986   2.235
 6236TIP3   OH218713   3.875   5.706   5.082
 6236TIP3    H118714   3.818   5.629   5.091
 6236TIP3    H218715   3.822   5.770   5.036
 6237TIP3   OH218716   3.074   1.364   1.664
 6237TIP3    H118717   3.005   1.310   1.703
 6237TIP3    H218718   3.026   1.425   1.607
 6238TIP3   OH218719   0.493   2.322   4.648
 6238TIP3    H118720   0.405   2.314   4.686
 6238TIP3    H218721   0.505   2.241   4.599
 6239TIP3   OH218722   2.555   4.210   2.287
 6239TIP3    H118723   2.480   4.183   2.339
 6239TIP3    H218724   2.612   4.133   2.283
 6240TIP3   OH218725   4.765   2.369   0.334
 6240TIP3    H118726   4.781   2.294   0.392
 6240TIP3    H218727   4.680   2.351   0.295
 6241TIP3   OH218728   0.047   1.177   4.996
 6241TIP3    H118729   0.072   1.259   5.038
 6241TIP3    H218730   0.046   1.197   4.903
 6242TIP3   OH218731   1.543   4.246   1.275
 6242TIP3    H118732   1.608   4.197   1.326
 6242TIP3    H218733   1.521   4.321   1.330
 6243TIP3   OH218734   2.766   0.500   2.905
 6243TIP3    H118735   2.809   0.537   2.828
 6243TIP3    H218736   2.834   0.448   2.948
 6244TIP3   OH218737   2.691   4.625   0.613
 6244TIP3    H118738   2.758   4.688   0.585
 6244TIP3    H218739   2.740   4.547   0.638
 6245TIP3   OH218740   1.048   2.728   4.963
 6245TIP3    H118741   1.143   2.713   4.962
 6245TIP3    H218742   1.010   2.642   4.977
 6246TIP3   OH218743   3.726   3.300   0.403
 6246TIP3    H118744   3.655   3.238   0.422
 6246TIP3    H218745   3.683   3.370   0.354
 6247TIP3   OH218746   0.682   0.911   4.141
 6247TIP3    H118747   0.703   0.832   4.191
 6247TIP3    H218748   0.619   0.881   4.075
 6248TIP3   OH218749   2.211   2.642   2.269
 6248TIP3    H118750   2.165   2.654   2.186
 6248TIP3    H218751   2.147   2.668   2.336
 6249TIP3   OH218752   3.157   2.038   3.073
 6249TIP3    H118753   3.158   2.117   3.127
 6249TIP3    H218754   3.077   2.046   3.021
 6250TIP3   OH218755   0.503   0.079   0.172
 6250TIP3    H118756   0.513   0.169   0.141
 6250TIP3    H218757   0.588   0.056   0.208
 6251TIP3   OH218758   0.111   0.646   3.670
 6251TIP3    H118759   0.183   0.624   3.728
 6251TIP3    H218760   0.085   0.562   3.631
 6252TIP3   OH218761   0.437   0.412   1.005
 6252TIP3    H118762   0.481   0.358   1.072
 6252TIP3    H218763   0.441   0.501   1.040
 6253TIP3   OH218764   6.039   0.330   1.517
 6253TIP3    H118765   6.105   0.268   1.487
 6253TIP3    H218766   6.080   0.416   1.508
 6254TIP3   OH218767   5.691   5.620   4.052
 6254TIP3    H118768   5.725   5.709   4.040
 6254TIP3    H218769   5.619   5.630   4.115
 6255TIP3   OH218770   4.949   3.536   0.920
 6255TIP3    H118771   4.966   3.598   0.848
 6255TIP3    H218772   4.874   3.573   0.966
 6256TIP3   OH218773   5.681   1.791   3.403
 6256TIP3    H118774   5.776   1.782   3.404
 6256TIP3    H218775   5.663   1.862   3.464
 6257TIP3   OH218776   3.642   0.149   0.483
 6257TIP3    H118777   3.692   0.101   0.549
 6257TIP3    H218778   3.667   0.109   0.400
 6258TIP3   OH218779   0.838   0.414   4.841
 6258TIP3    H118780   0.845   0.492   4.786
 6258TIP3    H218781   0.747   0.385   4.831
 6259TIP3   OH218782   3.351   2.813   4.732
 6259TIP3    H118783   3.366   2.754   4.806
 6259TIP3    H218784   3.260   2.797   4.707
 6260TIP3   OH218785   5.272   4.770   0.329
 6260TIP3    H118786   5.183   4.784   0.362
 6260TIP3    H218787   5.287   4.676   0.338
 6261TIP3   OH218788   4.274   2.528   4.693
 6261TIP3    H118789   4.214   2.459   4.724
 6261TIP3    H218790   4.264   2.526   4.598
 6262TIP3   OH218791   1.787   2.856   2.454
 6262TIP3    H118792   1.802   2.795   2.526
 6262TIP3    H218793   1.709   2.823   2.410
 6263TIP3   OH218794   4.061   3.899   0.479
 6263TIP3    H118795   4.096   3.928   0.563
 6263TIP3    H218796   4.056   3.979   0.426
 6264TIP3   OH218797   5.263   5.908   4.692
 6264TIP3    H118798   5.203   5.875   4.624
 6264TIP3    H218799   5.217   5.983   4.730
 6265TIP3   OH218800   2.901   1.102   3.684
 6265TIP3    H118801   2.831   1.130   3.626
 6265TIP3    H218802   2.980   1.144   3.650
 6266TIP3   OH218803   3.353   2.533   0.140
 6266TIP3    H118804   3.273   2.584   0.142
 6266TIP3    H218805   3.420   2.591   0.175
 6267TIP3   OH218806   1.192   3.940   0.325
 6267TIP3    H118807   1.273   3.944   0.375
 6267TIP3    H218808   1.195   4.016   0.266
 6268TIP3   OH218809   5.983   1.311   2.837
 6268TIP3    H118810   5.949   1.393   2.874
 6268TIP3    H218811   5.917   1.246   2.858
 6269TIP3   OH218812   4.353   5.908   4.548
 6269TIP3    H118813   4.377   5.943   4.634
 6269TIP3    H218814   4.392   5.821   4.545
 6270TIP3   OH218815   1.479   0.652   1.829
 6270TIP3    H118816   1.572   0.670   1.834
 6270TIP3    H218817   1.449   0.698   1.751
 6271TIP3   OH218818   2.377   5.811   4.573
 6271TIP3    H118819   2.461   5.846   4.546
 6271TIP3    H218820   2.314   5.852   4.514
 6272TIP3   OH218821   5.046   2.860   3.160
 6272TIP3    H118822   5.135   2.843   3.130
 6272TIP3    H218823   5.009   2.774   3.180
 6273TIP3   OH218824   5.047   0.152   4.802
 6273TIP3    H118825   5.049   0.114   4.714
 6273TIP3    H218826   5.123   0.115   4.846
 6274TIP3   OH218827   0.395   4.246   2.706
 6274TIP3    H118828   0.313   4.210   2.672
 6274TIP3    H218829   0.463   4.192   2.666
 6275TIP3   OH218830   0.436   1.512   1.226
 6275TIP3    H118831   0.525   1.536   1.255
 6275TIP3    H218832   0.390   1.492   1.307
 6276TIP3   OH218833   0.662   3.549   4.011
 6276TIP3    H118834   0.640   3.456   4.021
 6276TIP3    H218835   0.580   3.591   3.985
 6277TIP3   OH218836   0.124   5.172   3.888
 6277TIP3    H118837   0.186   5.110   3.925
 6277TIP3    H218838   0.080   5.124   3.817
 6278TIP3   OH218839   6.264   5.348   2.500
 6278TIP3    H118840   6.256   5.304   2.585
 6278TIP3    H218841   6.270   5.277   2.437
 6279TIP3   OH218842   4.821   5.803   0.363
 6279TIP3    H118843   4.817   5.868   0.434
 6279TIP3    H218844   4.894   5.746   0.387
 6280TIP3   OH218845   3.189   4.613   3.012
 6280TIP3    H118846   3.165   4.663   3.090
 6280TIP3    H218847   3.127   4.642   2.945
 6281TIP3   OH218848   0.130   5.422   0.418
 6281TIP3    H118849   0.157   5.452   0.505
 6281TIP3    H218850   0.115   5.502   0.368
 6282TIP3   OH218851   0.665   2.865   0.904
 6282TIP3    H118852   0.733   2.886   0.968
 6282TIP3    H218853   0.607   2.803   0.951
 6283TIP3   OH218854   3.676   2.414   1.209
 6283TIP3    H118855   3.585   2.443   1.210
 6283TIP3    H218856   3.714   2.459   1.133
 6284TIP3   OH218857   3.436   3.207   4.549
 6284TIP3    H118858   3.352   3.169   4.527
 6284TIP3    H218859   3.455   3.175   4.637
 6285TIP3   OH218860   2.997   2.012   0.702
 6285TIP3    H118861   2.975   1.951   0.773
 6285TIP3    H218862   3.027   2.091   0.747
 6286TIP3   OH218863   4.707   4.184   0.566
 6286TIP3    H118864   4.637   4.122   0.543
 6286TIP3    H218865   4.712   4.179   0.662
 6287TIP3   OH218866   0.162   5.146   0.812
 6287TIP3    H118867   0.214   5.217   0.849
 6287TIP3    H218868   0.087   5.138   0.870
 6288TIP3   OH218869   0.436   2.482   2.101
 6288TIP3    H118870   0.518   2.434   2.088
 6288TIP3    H218871   0.379   2.421   2.147
 6289TIP3   OH218872   4.207   2.678   2.134
 6289TIP3    H118873   4.239   2.719   2.214
 6289TIP3    H218874   4.234   2.587   2.141
 6290TIP3   OH218875   6.202   0.682   5.156
 6290TIP3    H118876   6.141   0.683   5.229
 6290TIP3    H218877   6.202   0.772   5.123
 6291TIP3   OH218878   5.605   1.060   0.463
 6291TIP3    H118879   5.628   1.081   0.553
 6291TIP3    H218880   5.518   1.021   0.468
 6292TIP3   OH218881   1.772   0.625   1.298
 6292TIP3    H118882   1.682   0.608   1.271
 6292TIP3    H218883   1.822   0.622   1.216
 6293TIP3   OH218884   2.831   4.381   4.680
 6293TIP3    H118885   2.918   4.367   4.644
 6293TIP3    H218886   2.776   4.316   4.636
 6294TIP3   OH218887   2.946   4.933   4.136
 6294TIP3    H118888   2.950   4.873   4.062
 6294TIP3    H218889   2.907   5.012   4.100
 6295TIP3   OH218890   1.428   5.549   4.548
 6295TIP3    H118891   1.468   5.620   4.498
 6295TIP3    H218892   1.496   5.522   4.610
 6296TIP3   OH218893   5.734   2.308   3.053
 6296TIP3    H118894   5.823   2.333   3.078
 6296TIP3    H218895   5.729   2.214   3.074
 6297TIP3   OH218896   4.466   2.560   1.404
 6297TIP3    H118897   4.417   2.637   1.433
 6297TIP3    H218898   4.557   2.590   1.399
 6298TIP3   OH218899   1.621   2.730   2.283
 6298TIP3    H118900   1.566   2.781   2.224
 6298TIP3    H218901   1.680   2.682   2.225
 6299TIP3   OH218902   2.988   1.906   0.944
 6299TIP3    H118903   2.944   1.969   1.001
 6299TIP3    H218904   3.047   1.858   1.003
 6300TIP3   OH218905   2.550   0.716   0.296
 6300TIP3    H118906   2.556   0.809   0.278
 6300TIP3    H218907   2.633   0.679   0.266
 6301TIP3   OH218908   4.413   5.673   1.651
 6301TIP3    H118909   4.323   5.641   1.664
 6301TIP3    H218910   4.465   5.594   1.638
 6302TIP3   OH218911   4.047   5.860   4.693
 6302TIP3    H118912   3.962   5.878   4.653
 6302TIP3    H218913   4.100   5.824   4.623
 6303TIP3   OH218914   1.987   1.083   2.453
 6303TIP3    H118915   1.950   1.026   2.521
 6303TIP3    H218916   1.912   1.132   2.420
 6304TIP3   OH218917   5.334   4.934   3.970
 6304TIP3    H118918   5.296   5.018   3.946
 6304TIP3    H218919   5.359   4.944   4.062
 6305TIP3   OH218920   5.239   0.515   2.993
 6305TIP3    H118921   5.160   0.465   3.014
 6305TIP3    H218922   5.259   0.564   3.073
 6306TIP3   OH218923   5.414   3.654   2.023
 6306TIP3    H118924   5.487   3.616   2.072
 6306TIP3    H218925   5.384   3.727   2.077
 6307TIP3   OH218926   0.904   4.188   2.607
 6307TIP3    H118927   0.837   4.214   2.671
 6307TIP3    H218928   0.892   4.094   2.596
 6308TIP3   OH218929   3.766   4.688   1.092
 6308TIP3    H118930   3.810   4.741   1.026
 6308TIP3    H218931   3.681   4.731   1.105
 6309TIP3   OH218932   3.065   5.523   1.916
 6309TIP3    H118933   3.077   5.505   1.823
 6309TIP3    H218934   3.050   5.617   1.921
 6310TIP3   OH218935   2.991   2.541   0.730
 6310TIP3    H118936   3.029   2.532   0.642
 6310TIP3    H218937   2.901   2.569   0.715
 6311TIP3   OH218938   1.780   5.238   0.354
 6311TIP3    H118939   1.830   5.244   0.272
 6311TIP3    H218940   1.836   5.189   0.413
 6312TIP3   OH218941   3.238   4.845   4.175
 6312TIP3    H118942   3.148   4.872   4.155
 6312TIP3    H218943   3.231   4.798   4.258
 6313TIP3   OH218944   3.790   0.641   4.557
 6313TIP3    H118945   3.756   0.665   4.471
 6313TIP3    H218946   3.873   0.598   4.540
 6314TIP3   OH218947   2.813   0.841   4.754
 6314TIP3    H118948   2.746   0.906   4.731
 6314TIP3    H218949   2.827   0.791   4.674
 6315TIP3   OH218950   4.529   3.859   3.945
 6315TIP3    H118951   4.459   3.886   3.885
 6315TIP3    H218952   4.547   3.937   3.997
 6316TIP3   OH218953   5.725   3.918   0.160
 6316TIP3    H118954   5.759   3.899   0.247
 6316TIP3    H218955   5.677   4.001   0.171
 6317TIP3   OH218956   5.650   1.163   3.647
 6317TIP3    H118957   5.678   1.203   3.564
 6317TIP3    H218958   5.719   1.101   3.668
 6318TIP3   OH218959   1.189   5.139   2.663
 6318TIP3    H118960   1.190   5.141   2.567
 6318TIP3    H218961   1.268   5.187   2.689
 6319TIP3   OH218962   5.664   0.942   2.872
 6319TIP3    H118963   5.690   0.864   2.822
 6319TIP3    H218964   5.619   0.998   2.808
 6320TIP3   OH218965   4.592   5.018   2.378
 6320TIP3    H118966   4.513   4.967   2.398
 6320TIP3    H218967   4.575   5.056   2.292
 6321TIP3   OH218968   5.188   5.544   4.783
 6321TIP3    H118969   5.236   5.462   4.795
 6321TIP3    H218970   5.235   5.608   4.836
 6322TIP3   OH218971   2.951   4.098   2.012
 6322TIP3    H118972   2.926   4.141   1.930
 6322TIP3    H218973   3.028   4.146   2.042
 6323TIP3   OH218974   3.541   0.926   1.730
 6323TIP3    H118975   3.535   0.848   1.785
 6323TIP3    H218976   3.508   0.997   1.784
 6324TIP3   OH218977   2.476   3.850   0.989
 6324TIP3    H118978   2.395   3.895   1.013
 6324TIP3    H218979   2.519   3.832   1.072
 6325TIP3   OH218980   1.359   2.491   0.242
 6325TIP3    H118981   1.397   2.577   0.259
 6325TIP3    H218982   1.265   2.505   0.243
 6326TIP3   OH218983   1.036   0.731   3.478
 6326TIP3    H118984   0.993   0.761   3.399
 6326TIP3    H218985   1.001   0.788   3.547
 6327TIP3   OH218986   0.301   5.471   3.581
 6327TIP3    H118987   0.358   5.417   3.636
 6327TIP3    H218988   0.360   5.523   3.528
 6328TIP3   OH218989   6.320   3.251   1.728
 6328TIP3    H118990   6.386   3.182   1.741
 6328TIP3    H218991   6.311   3.258   1.633
 6329TIP3   OH218992   4.649   2.089   2.501
 6329TIP3    H118993   4.691   2.004   2.484
 6329TIP3    H218994   4.630   2.123   2.414
 6330TIP3   OH218995   1.531   1.376   0.732
 6330TIP3    H118996   1.494   1.289   0.724
 6330TIP3    H218997   1.511   1.403   0.822
 6331TIP3   OH218998   5.610   0.514   4.364
 6331TIP3    H118999   5.623   0.608   4.376
 6331TIP3    H219000   5.517   0.505   4.345
 6332TIP3   OH219001   1.491   0.082   0.664
 6332TIP3    H119002   1.417   0.038   0.622
 6332TIP3    H219003   1.545   0.114   0.591
 6333TIP3   OH219004   4.762   5.620   5.107
 6333TIP3    H119005   4.711   5.542   5.129
 6333TIP3    H219006   4.832   5.588   5.051
 6334TIP3   OH219007   0.230   1.770   2.022
 6334TIP3    H119008   0.192   1.858   2.019
 6334TIP3    H219009   0.299   1.772   1.956
 6335TIP3   OH219010   5.669   3.030   0.855
 6335TIP3    H119011   5.623   3.073   0.783
 6335TIP3    H219012   5.760   3.027   0.827
 6336TIP3   OH219013   5.114   2.628   2.280
 6336TIP3    H119014   5.119   2.542   2.321
 6336TIP3    H219015   5.150   2.688   2.346
 6337TIP3   OH219016   5.665   3.742   2.745
 6337TIP3    H119017   5.689   3.818   2.798
 6337TIP3    H219018   5.570   3.745   2.740
 6338TIP3   OH219019   0.264   2.871   1.209
 6338TIP3    H119020   0.329   2.931   1.171
 6338TIP3    H219021   0.255   2.802   1.143
 6339TIP3   OH219022   3.105   1.287   0.155
 6339TIP3    H119023   3.155   1.307   0.076
 6339TIP3    H219024   3.014   1.287   0.125
 6340TIP3   OH219025   3.824   5.082   3.341
 6340TIP3    H119026   3.900   5.110   3.392
 6340TIP3    H219027   3.800   5.158   3.289
 6341TIP3   OH219028   4.662   3.384  -0.030
 6341TIP3    H119029   4.689   3.469  -0.064
 6341TIP3    H219030   4.675   3.391   0.065
 6342TIP3   OH219031   4.519   2.824   5.226
 6342TIP3    H119032   4.426   2.844   5.235
 6342TIP3    H219033   4.537   2.838   5.133
 6343TIP3   OH219034   4.847   2.531   5.089
 6343TIP3    H119035   4.762   2.561   5.057
 6343TIP3    H219036   4.854   2.441   5.059
 6344TIP3   OH219037   0.830   2.111   0.269
 6344TIP3    H119038   0.844   2.119   0.364
 6344TIP3    H219039   0.826   2.201   0.238
 6345TIP3   OH219040   4.464   3.850   1.550
 6345TIP3    H119041   4.543   3.846   1.495
 6345TIP3    H219042   4.392   3.830   1.490
 6346TIP3   OH219043   5.214   3.573   1.026
 6346TIP3    H119044   5.280   3.556   0.958
 6346TIP3    H219045   5.131   3.575   0.979
 6347TIP3   OH219046   3.539   1.560   1.554
 6347TIP3    H119047   3.571   1.640   1.594
 6347TIP3    H219048   3.444   1.564   1.564
 6348TIP3   OH219049   2.717   0.266   0.766
 6348TIP3    H119050   2.772   0.198   0.727
 6348TIP3    H219051   2.668   0.303   0.693
 6349TIP3   OH219052   0.220   2.335   4.791
 6349TIP3    H119053   0.164   2.360   4.718
 6349TIP3    H219054   0.207   2.240   4.799
 6350TIP3   OH219055   0.510   0.134   2.341
 6350TIP3    H119056   0.477   0.060   2.392
 6350TIP3    H219057   0.587   0.164   2.390
 6351TIP3   OH219058   0.639   5.830   2.677
 6351TIP3    H119059   0.552   5.791   2.685
 6351TIP3    H219060   0.626   5.922   2.697
 6352TIP3   OH219061   2.077   1.636   0.925
 6352TIP3    H119062   2.084   1.643   0.830
 6352TIP3    H219063   2.016   1.563   0.939
 6353TIP3   OH219064   1.196   3.800   2.097
 6353TIP3    H119065   1.104   3.772   2.097
 6353TIP3    H219066   1.241   3.733   2.046
 6354TIP3   OH219067   1.785   5.334   3.320
 6354TIP3    H119068   1.729   5.259   3.300
 6354TIP3    H219069   1.800   5.376   3.235
 6355TIP3   OH219070   3.631   2.562   0.483
 6355TIP3    H119071   3.537   2.571   0.470
 6355TIP3    H219072   3.662   2.652   0.494
 6356TIP3   OH219073   2.478   2.872   5.090
 6356TIP3    H119074   2.543   2.886   5.021
 6356TIP3    H219075   2.521   2.902   5.170
 6357TIP3   OH219076   5.323   5.325   4.878
 6357TIP3    H119077   5.330   5.333   4.973
 6357TIP3    H219078   5.406   5.358   4.844
 6358TIP3   OH219079   5.564   3.753   4.455
 6358TIP3    H119080   5.572   3.747   4.550
 6358TIP3    H219081   5.655   3.751   4.423
 6359TIP3   OH219082   0.882   2.263   4.695
 6359TIP3    H119083   0.834   2.256   4.612
 6359TIP3    H219084   0.911   2.354   4.699
 6360TIP3   OH219085   4.881   3.774   1.742
 6360TIP3    H119086   4.786   3.766   1.754
 6360TIP3    H219087   4.893   3.784   1.648
 6361TIP3   OH219088   3.459   5.592   0.793
 6361TIP3    H119089   3.480   5.684   0.778
 6361TIP3    H219090   3.518   5.565   0.863
 6362TIP3   OH219091   2.447   3.784   4.912
 6362TIP3    H119092   2.384   3.800   4.842
 6362TIP3    H219093   2.453   3.867   4.960
 6363TIP3   OH219094   4.179   4.250   3.182
 6363TIP3    H119095   4.129   4.171   3.162
 6363TIP3    H219096   4.166   4.306   3.106
 6364TIP3   OH219097   3.492   5.833   3.055
 6364TIP3    H119098   3.577   5.808   3.091
 6364TIP3    H219099   3.513   5.883   2.976
 6365TIP3   OH219100   3.762   3.469   3.459
 6365TIP3    H119101   3.856   3.480   3.477
 6365TIP3    H219102   3.746   3.525   3.384
 6366TIP3   OH219103   1.495   3.233   0.482
 6366TIP3    H119104   1.402   3.252   0.464
 6366TIP3    H219105   1.513   3.277   0.565
 6367TIP3   OH219106   2.068   5.459   2.102
 6367TIP3    H119107   2.139   5.447   2.039
 6367TIP3    H219108   2.107   5.511   2.172
 6368TIP3   OH219109   3.853   1.126   0.523
 6368TIP3    H119110   3.858   1.203   0.466
 6368TIP3    H219111   3.761   1.102   0.523
 6369TIP3   OH219112   2.100   5.549   2.978
 6369TIP3    H119113   2.105   5.546   2.882
 6369TIP3    H219114   2.159   5.621   3.002
 6370TIP3   OH219115   3.074   5.177   1.824
 6370TIP3    H119116   3.119   5.101   1.786
 6370TIP3    H219117   3.126   5.198   1.902
 6371TIP3   OH219118   3.669   3.500   0.233
 6371TIP3    H119119   3.681   3.429   0.170
 6371TIP3    H219120   3.730   3.568   0.205
 6372TIP3   OH219121   5.873   1.887   2.696
 6372TIP3    H119122   5.852   1.798   2.667
 6372TIP3    H219123   5.969   1.887   2.702
 6373TIP3   OH219124   5.785   4.725   4.882
 6373TIP3    H119125   5.838   4.693   4.955
 6373TIP3    H219126   5.706   4.670   4.883
 6374TIP3   OH219127   2.084   1.052   5.123
 6374TIP3    H119128   1.990   1.038   5.130
 6374TIP3    H219129   2.108   1.097   5.204
 6375TIP3   OH219130   0.878   3.133   4.264
 6375TIP3    H119131   0.899   3.074   4.192
 6375TIP3    H219132   0.963   3.168   4.292
 6376TIP3   OH219133   0.264   3.431   1.773
 6376TIP3    H119134   0.344   3.422   1.722
 6376TIP3    H219135   0.197   3.451   1.708
 6377TIP3   OH219136   0.303   2.975   3.103
 6377TIP3    H119137   0.252   3.034   3.048
 6377TIP3    H219138   0.391   2.978   3.065
 6378TIP3   OH219139   1.443   3.113   4.456
 6378TIP3    H119140   1.385   3.112   4.532
 6378TIP3    H219141   1.508   3.044   4.473
 6379TIP3   OH219142   5.347   0.425   0.714
 6379TIP3    H119143   5.325   0.332   0.707
 6379TIP3    H219144   5.441   0.428   0.697
 6380TIP3   OH219145   2.731   0.813   3.451
 6380TIP3    H119146   2.779   0.827   3.532
 6380TIP3    H219147   2.794   0.834   3.382
 6381TIP3   OH219148   0.375   5.748   2.347
 6381TIP3    H119149   0.284   5.718   2.353
 6381TIP3    H219150   0.426   5.675   2.382
 6382TIP3   OH219151   1.792   2.772   1.020
 6382TIP3    H119152   1.881   2.800   0.998
 6382TIP3    H219153   1.800   2.731   1.106
 6383TIP3   OH219154   0.863   5.632   3.761
 6383TIP3    H119155   0.860   5.556   3.704
 6383TIP3    H219156   0.793   5.618   3.824
 6384TIP3   OH219157   0.102   2.612   2.757
 6384TIP3    H119158   0.067   2.563   2.682
 6384TIP3    H219159   0.161   2.550   2.800
 6385TIP3   OH219160   4.165   1.622   3.683
 6385TIP3    H119161   4.100   1.690   3.698
 6385TIP3    H219162   4.242   1.670   3.652
 6386TIP3   OH219163   5.377   3.735   4.232
 6386TIP3    H119164   5.456   3.684   4.209
 6386TIP3    H219165   5.370   3.726   4.327
 6387TIP3   OH219166   3.603   2.156   1.379
 6387TIP3    H119167   3.653   2.077   1.402
 6387TIP3    H219168   3.643   2.226   1.430
 6388TIP3   OH219169   4.335   2.832   4.408
 6388TIP3    H119170   4.339   2.866   4.319
 6388TIP3    H219171   4.380   2.898   4.461
 6389TIP3   OH219172   0.096   0.193   2.177
 6389TIP3    H119173   0.034   0.177   2.248
 6389TIP3    H219174   0.178   0.217   2.222
 6390TIP3   OH219175   1.302   3.741   1.173
 6390TIP3    H119176   1.315   3.654   1.135
 6390TIP3    H219177   1.260   3.724   1.257
 6391TIP3   OH219178   2.926   2.881   0.475
 6391TIP3    H119179   2.843   2.918   0.445
 6391TIP3    H219180   2.953   2.938   0.546
 6392TIP3   OH219181   3.217   1.354   1.280
 6392TIP3    H119182   3.202   1.391   1.192
 6392TIP3    H219183   3.156   1.280   1.285
 6393TIP3   OH219184   4.995   1.222   0.181
 6393TIP3    H119185   4.929   1.208   0.114
 6393TIP3    H219186   5.018   1.134   0.211
 6394TIP3   OH219187   2.956   1.674   2.561
 6394TIP3    H119188   2.916   1.751   2.602
 6394TIP3    H219189   2.886   1.608   2.561
 6395TIP3   OH219190   2.450   5.695   2.570
 6395TIP3    H119191   2.489   5.759   2.510
 6395TIP3    H219192   2.356   5.697   2.549
 6396TIP3   OH219193   5.638   1.601   2.709
 6396TIP3    H119194   5.596   1.520   2.739
 6396TIP3    H219195   5.576   1.670   2.730
 6397TIP3   OH219196   3.099   1.407   4.475
 6397TIP3    H119197   3.167   1.474   4.475
 6397TIP3    H219198   3.065   1.407   4.386
 6398TIP3   OH219199   4.552   5.943   3.934
 6398TIP3    H119200   4.605   5.876   3.978
 6398TIP3    H219201   4.610   6.018   3.927
 6399TIP3   OH219202   1.578   2.365   0.722
 6399TIP3    H119203   1.663   2.341   0.684
 6399TIP3    H219204   1.596   2.377   0.815
 6400TIP3   OH219205   0.564   5.086   0.610
 6400TIP3    H119206   0.592   5.157   0.667
 6400TIP3    H219207   0.611   5.100   0.528
 6401TIP3   OH219208   0.631   1.951   3.648
 6401TIP3    H119209   0.625   1.982   3.558
 6401TIP3    H219210   0.585   2.018   3.699
 6402TIP3   OH219211   5.070   5.203   4.409
 6402TIP3    H119212   5.117   5.124   4.382
 6402TIP3    H219213   4.978   5.175   4.413
 6403TIP3   OH219214   1.926   4.022   4.311
 6403TIP3    H119215   1.922   4.115   4.333
 6403TIP3    H219216   1.840   3.987   4.333
 6404TIP3   OH219217   3.146   4.384   0.806
 6404TIP3    H119218   3.094   4.439   0.864
 6404TIP3    H219219   3.188   4.446   0.746
 6405TIP3   OH219220   3.821   2.925   4.864
 6405TIP3    H119221   3.907   2.935   4.823
 6405TIP3    H219222   3.759   2.934   4.791
 6406TIP3   OH219223   1.872   2.730   3.237
 6406TIP3    H119224   1.906   2.657   3.184
 6406TIP3    H219225   1.907   2.715   3.325
 6407TIP3   OH219226   6.151   5.486   0.142
 6407TIP3    H119227   6.082   5.551   0.142
 6407TIP3    H219228   6.134   5.432   0.220
 6408TIP3   OH219229   3.694   2.832   0.530
 6408TIP3    H119230   3.674   2.897   0.597
 6408TIP3    H219231   3.682   2.879   0.447
 6409TIP3   OH219232   3.479   0.483   4.951
 6409TIP3    H119233   3.455   0.401   4.909
 6409TIP3    H219234   3.513   0.538   4.880
 6410TIP3   OH219235   4.439   5.506   3.171
 6410TIP3    H119236   4.367   5.552   3.213
 6410TIP3    H219237   4.504   5.574   3.153
 6411TIP3   OH219238   3.715   0.919   3.332
 6411TIP3    H119239   3.800   0.898   3.372
 6411TIP3    H219240   3.706   1.014   3.345
 6412TIP3   OH219241   0.537   5.137   0.128
 6412TIP3    H119242   0.574   5.133   0.216
 6412TIP3    H219243   0.575   5.063   0.082
 6413TIP3   OH219244   5.124   2.160   2.260
 6413TIP3    H119245   5.145   2.152   2.352
 6413TIP3    H219246   5.135   2.072   2.224
 6414TIP3   OH219247   1.938   2.500   0.748
 6414TIP3    H119248   1.862   2.548   0.713
 6414TIP3    H219249   2.012   2.533   0.698
 6415TIP3   OH219250   2.053   2.500   4.566
 6415TIP3    H119251   2.100   2.525   4.487
 6415TIP3    H219252   2.043   2.582   4.615
 6416TIP3   OH219253   0.075   3.377   2.016
 6416TIP3    H119254  -0.005   3.422   1.991
 6416TIP3    H219255   0.134   3.389   1.941
 6417TIP3   OH219256   1.265   0.127   2.292
 6417TIP3    H119257   1.298   0.107   2.379
 6417TIP3    H219258   1.293   0.053   2.238
 6418TIP3   OH219259   4.609   2.613   1.757
 6418TIP3    H119260   4.687   2.655   1.792
 6418TIP3    H219261   4.610   2.526   1.796
 6419TIP3   OH219262   5.079   0.065   0.281
 6419TIP3    H119263   5.142   0.065   0.352
 6419TIP3    H219264   4.996   0.091   0.322
 6420TIP3   OH219265   1.171   5.286   1.692
 6420TIP3    H119266   1.221   5.336   1.756
 6420TIP3    H219267   1.182   5.334   1.610
 6421TIP3   OH219268   1.274   3.736   3.247
 6421TIP3    H119269   1.276   3.825   3.284
 6421TIP3    H219270   1.359   3.726   3.205
 6422TIP3   OH219271   5.265   2.806   3.012
 6422TIP3    H119272   5.341   2.752   3.034
 6422TIP3    H219273   5.270   2.817   2.917
 6423TIP3   OH219274   2.581   3.124   1.767
 6423TIP3    H119275   2.549   3.197   1.714
 6423TIP3    H219276   2.552   3.046   1.720
 6424TIP3   OH219277   5.803   3.935   2.131
 6424TIP3    H119278   5.780   4.007   2.190
 6424TIP3    H219279   5.873   3.970   2.077
 6425TIP3   OH219280   5.775   2.324   3.734
 6425TIP3    H119281   5.701   2.263   3.738
 6425TIP3    H219282   5.750   2.395   3.793
 6426TIP3   OH219283   1.058   4.618   2.815
 6426TIP3    H119284   1.082   4.704   2.780
 6426TIP3    H219285   1.006   4.637   2.893
 6427TIP3   OH219286   2.679   3.073   1.028
 6427TIP3    H119287   2.722   3.138   1.083
 6427TIP3    H219288   2.588   3.073   1.057
 6428TIP3   OH219289   1.463   4.700   4.014
 6428TIP3    H119290   1.444   4.607   4.004
 6428TIP3    H219291   1.468   4.714   4.108
 6429TIP3   OH219292   2.314   1.773   2.024
 6429TIP3    H119293   2.373   1.788   2.097
 6429TIP3    H219294   2.371   1.765   1.947
 6430TIP3   OH219295   0.184   3.612   0.823
 6430TIP3    H119296   0.124   3.621   0.749
 6430TIP3    H219297   0.138   3.557   0.886
 6431TIP3   OH219298   3.319   0.193   1.149
 6431TIP3    H119299   3.270   0.113   1.168
 6431TIP3    H219300   3.299   0.251   1.222
 6432TIP3   OH219301   2.382   4.942   1.492
 6432TIP3    H119302   2.449   4.992   1.445
 6432TIP3    H219303   2.322   4.913   1.424
 6433TIP3   OH219304   6.112   0.635   4.676
 6433TIP3    H119305   6.113   0.591   4.591
 6433TIP3    H219306   6.052   0.583   4.730
 6434TIP3   OH219307   5.291   3.910   0.287
 6434TIP3    H119308   5.288   3.945   0.198
 6434TIP3    H219309   5.379   3.875   0.296
 6435TIP3   OH219310   5.028   3.015   0.795
 6435TIP3    H119311   4.943   3.036   0.757
 6435TIP3    H219312   5.065   3.100   0.820
 6436TIP3   OH219313   0.024   5.576   2.636
 6436TIP3    H119314  -0.012   5.499   2.594
 6436TIP3    H219315   0.072   5.542   2.712
 6437TIP3   OH219316   0.311   4.590   1.202
 6437TIP3    H119317   0.247   4.526   1.172
 6437TIP3    H219318   0.290   4.670   1.154
 6438TIP3   OH219319   1.725   0.855   2.324
 6438TIP3    H119320   1.734   0.812   2.238
 6438TIP3    H219321   1.631   0.869   2.334
 6439TIP3   OH219322   5.314   4.389   1.996
 6439TIP3    H119323   5.399   4.428   2.013
 6439TIP3    H219324   5.330   4.328   1.924
 6440TIP3   OH219325   4.351   2.903   3.321
 6440TIP3    H119326   4.408   2.947   3.258
 6440TIP3    H219327   4.269   2.891   3.274
 6441TIP3   OH219328   4.377   5.062   4.855
 6441TIP3    H119329   4.285   5.038   4.867
 6441TIP3    H219330   4.409   5.077   4.944
 6442TIP3   OH219331   4.479   1.171   0.153
 6442TIP3    H119332   4.455   1.153   0.063
 6442TIP3    H219333   4.557   1.118   0.168
 6443TIP3   OH219334   2.668   2.742   0.468
 6443TIP3    H119335   2.692   2.832   0.444
 6443TIP3    H219336   2.631   2.705   0.388
 6444TIP3   OH219337   2.976   4.685   2.811
 6444TIP3    H119338   2.942   4.630   2.740
 6444TIP3    H219339   2.899   4.730   2.846
 6445TIP3   OH219340   2.418   5.068   4.567
 6445TIP3    H119341   2.426   5.084   4.661
 6445TIP3    H219342   2.470   5.138   4.527
 6446TIP3   OH219343   2.443   4.476   2.725
 6446TIP3    H119344   2.388   4.427   2.786
 6446TIP3    H219345   2.400   4.466   2.640
 6447TIP3   OH219346   2.667   0.854   1.800
 6447TIP3    H119347   2.658   0.759   1.806
 6447TIP3    H219348   2.581   0.884   1.772
 6448TIP3   OH219349   4.726   0.269   3.233
 6448TIP3    H119350   4.633   0.290   3.238
 6448TIP3    H219351   4.743   0.218   3.312
 6449TIP3   OH219352   6.331   3.111   2.528
 6449TIP3    H119353   6.245   3.115   2.487
 6449TIP3    H219354   6.339   3.020   2.558
 6450TIP3   OH219355   3.204   1.463   0.354
 6450TIP3    H119356   3.165   1.390   0.304
 6450TIP3    H219357   3.132   1.496   0.407
 6451TIP3   OH219358   2.739   4.577   3.318
 6451TIP3    H119359   2.765   4.608   3.231
 6451TIP3    H219360   2.818   4.589   3.372
 6452TIP3   OH219361   2.321   1.781   4.382
 6452TIP3    H119362   2.303   1.789   4.289
 6452TIP3    H219363   2.352   1.691   4.393
 6453TIP3   OH219364   5.965   0.047   1.470
 6453TIP3    H119365   5.927   0.105   1.536
 6453TIP3    H219366   6.058   0.068   1.470
 6454TIP3   OH219367   1.559   0.869   3.015
 6454TIP3    H119368   1.547   0.800   2.949
 6454TIP3    H219369   1.483   0.926   3.004
 6455TIP3   OH219370   6.117   3.948   1.322
 6455TIP3    H119371   6.194   3.919   1.274
 6455TIP3    H219372   6.043   3.930   1.264
 6456TIP3   OH219373   5.439   1.740   4.657
 6456TIP3    H119374   5.516   1.687   4.676
 6456TIP3    H219375   5.467   1.830   4.672
 6457TIP3   OH219376   6.299   2.758   3.169
 6457TIP3    H119377   6.232   2.711   3.218
 6457TIP3    H219378   6.276   2.745   3.077
 6458TIP3   OH219379   3.943   1.044  -0.002
 6458TIP3    H119380   3.999   1.089   0.062
 6458TIP3    H219381   3.915   0.964   0.043
 6459TIP3   OH219382   2.445   1.523   4.428
 6459TIP3    H119383   2.477   1.443   4.387
 6459TIP3    H219384   2.497   1.530   4.509
 6460TIP3   OH219385   4.972   0.956   3.221
 6460TIP3    H119386   4.891   0.909   3.241
 6460TIP3    H219387   5.009   0.978   3.306
 6461TIP3   OH219388   2.152   3.813   2.584
 6461TIP3    H119389   2.088   3.793   2.653
 6461TIP3    H219390   2.233   3.774   2.616
 6462TIP3   OH219391   0.920   0.239   3.508
 6462TIP3    H119392   0.878   0.319   3.540
 6462TIP3    H219393   0.870   0.216   3.430
 6463TIP3   OH219394   5.014   4.864   2.330
 6463TIP3    H119395   4.986   4.936   2.273
 6463TIP3    H219396   4.970   4.882   2.414
 6464TIP3   OH219397   2.510   0.412   3.038
 6464TIP3    H119398   2.436   0.448   2.989
 6464TIP3    H219399   2.585   0.423   2.979
 6465TIP3   OH219400   1.943   1.634   2.013
 6465TIP3    H119401   1.884   1.662   2.083
 6465TIP3    H219402   1.885   1.612   1.940
 6466TIP3   OH219403   0.964   4.545   2.572
 6466TIP3    H119404   0.986   4.452   2.567
 6466TIP3    H219405   1.007   4.575   2.652
 6467TIP3   OH219406   0.936   3.880   0.440
 6467TIP3    H119407   0.952   3.896   0.534
 6467TIP3    H219408   1.023   3.885   0.401
 6468TIP3   OH219409   3.389   2.327   1.295
 6468TIP3    H119410   3.464   2.269   1.308
 6468TIP3    H219411   3.388   2.383   1.373
 6469TIP3   OH219412   3.181   2.530   1.653
 6469TIP3    H119413   3.178   2.587   1.576
 6469TIP3    H219414   3.252   2.468   1.634
 6470TIP3   OH219415   2.320   4.624   4.469
 6470TIP3    H119416   2.313   4.531   4.449
 6470TIP3    H219417   2.299   4.668   4.387
 6471TIP3   OH219418   3.713   5.173   1.057
 6471TIP3    H119419   3.764   5.136   1.129
 6471TIP3    H219420   3.628   5.129   1.063
 6472TIP3   OH219421   3.319   0.449   0.175
 6472TIP3    H119422   3.264   0.513   0.219
 6472TIP3    H219423   3.309   0.369   0.226
 6473TIP3   OH219424   4.604   1.641   1.879
 6473TIP3    H119425   4.588   1.733   1.857
 6473TIP3    H219426   4.648   1.644   1.964
 6474TIP3   OH219427   0.065   0.228   2.726
 6474TIP3    H119428   0.043   0.313   2.689
 6474TIP3    H219429   0.059   0.240   2.821
 6475TIP3   OH219430   2.034   1.587   3.249
 6475TIP3    H119431   1.958   1.577   3.192
 6475TIP3    H219432   2.005   1.647   3.318
 6476TIP3   OH219433   0.065   2.076   3.054
 6476TIP3    H119434   0.108   1.991   3.066
 6476TIP3    H219435   0.136   2.136   3.030
 6477TIP3   OH219436   6.238   4.355   3.375
 6477TIP3    H119437   6.203   4.409   3.304
 6477TIP3    H219438   6.257   4.417   3.445
 6478TIP3   OH219439   2.134   3.279   2.355
 6478TIP3    H119440   2.211   3.332   2.374
 6478TIP3    H219441   2.126   3.282   2.259
 6479TIP3   OH219442   1.007   4.450   1.512
 6479TIP3    H119443   1.000   4.372   1.457
 6479TIP3    H219444   0.946   4.512   1.474
 6480TIP3   OH219445   4.502   4.071   3.241
 6480TIP3    H119446   4.517   4.147   3.185
 6480TIP3    H219447   4.528   4.100   3.328
 6481TIP3   OH219448   2.688   4.100   3.636
 6481TIP3    H119449   2.663   4.008   3.644
 6481TIP3    H219450   2.670   4.137   3.723
 6482TIP3   OH219451   1.187   3.338   3.499
 6482TIP3    H119452   1.235   3.331   3.582
 6482TIP3    H219453   1.255   3.332   3.432
 6483TIP3   OH219454   4.873   1.845   3.833
 6483TIP3    H119455   4.867   1.847   3.737
 6483TIP3    H219456   4.810   1.777   3.859
 6484TIP3   OH219457   6.278   3.289   4.982
 6484TIP3    H119458   6.283   3.381   4.957
 6484TIP3    H219459   6.369   3.261   4.990
 6485TIP3   OH219460   1.315   1.122   3.887
 6485TIP3    H119461   1.369   1.200   3.873
 6485TIP3    H219462   1.254   1.146   3.956
 6486TIP3   OH219463   5.360   3.109   1.330
 6486TIP3    H119464   5.327   3.198   1.315
 6486TIP3    H219465   5.404   3.114   1.415
 6487TIP3   OH219466   5.331   2.267   2.814
 6487TIP3    H119467   5.280   2.316   2.750
 6487TIP3    H219468   5.267   2.244   2.882
 6488TIP3   OH219469   4.144   3.623   0.453
 6488TIP3    H119470   4.098   3.703   0.479
 6488TIP3    H219471   4.123   3.612   0.360
 6489TIP3   OH219472   5.592   1.719   2.153
 6489TIP3    H119473   5.514   1.744   2.203
 6489TIP3    H219474   5.568   1.636   2.112
 6490TIP3   OH219475   1.969   3.862   1.817
 6490TIP3    H119476   1.932   3.951   1.816
 6490TIP3    H219477   2.056   3.872   1.778
 6491TIP3   OH219478   5.439   2.032   4.420
 6491TIP3    H119479   5.457   2.126   4.418
 6491TIP3    H219480   5.500   1.995   4.356
 6492TIP3   OH219481   0.525   1.005   1.000
 6492TIP3    H119482   0.619   1.026   0.998
 6492TIP3    H219483   0.510   0.972   1.089
 6493TIP3   OH219484   1.368   2.980   5.119
 6493TIP3    H119485   1.297   3.028   5.163
 6493TIP3    H219486   1.323   2.913   5.068
 6494TIP3   OH219487   4.546   5.843   2.012
 6494TIP3    H119488   4.568   5.935   1.999
 6494TIP3    H219489   4.610   5.813   2.076
 6495TIP3   OH219490   5.909   1.981   0.754
 6495TIP3    H119491   5.964   1.902   0.745
 6495TIP3    H219492   5.934   2.035   0.679
 6496TIP3   OH219493   3.213   4.001   0.562
 6496TIP3    H119494   3.200   3.959   0.477
 6496TIP3    H219495   3.299   4.043   0.555
 6497TIP3   OH219496   0.719   2.043   2.833
 6497TIP3    H119497   0.685   1.962   2.870
 6497TIP3    H219498   0.684   2.046   2.744
 6498TIP3   OH219499   3.788   4.615   2.649
 6498TIP3    H119500   3.710   4.669   2.635
 6498TIP3    H219501   3.860   4.668   2.616
 6499TIP3   OH219502   2.109   1.353   1.546
 6499TIP3    H119503   2.145   1.411   1.478
 6499TIP3    H219504   2.031   1.399   1.577
 6500TIP3   OH219505   5.730   2.494   3.506
 6500TIP3    H119506   5.809   2.474   3.456
 6500TIP3    H219507   5.739   2.442   3.586
 6501TIP3   OH219508   3.807   4.408   3.810
 6501TIP3    H119509   3.809   4.368   3.897
 6501TIP3    H219510   3.794   4.501   3.826
 6502TIP3   OH219511   5.395   1.047   0.185
 6502TIP3    H119512   5.402   1.131   0.140
 6502TIP3    H219513   5.302   1.037   0.204
 6503TIP3   OH219514   1.502   1.610   2.860
 6503TIP3    H119515   1.413   1.617   2.897
 6503TIP3    H219516   1.515   1.692   2.813
 6504TIP3   OH219517   2.093   5.979   1.574
 6504TIP3    H119518   2.135   5.977   1.488
 6504TIP3    H219519   2.032   5.905   1.573
 6505TIP3   OH219520   6.161   2.787   2.440
 6505TIP3    H119521   6.251   2.812   2.459
 6505TIP3    H219522   6.165   2.748   2.352
 6506TIP3   OH219523   3.760   0.452   3.147
 6506TIP3    H119524   3.798   0.381   3.096
 6506TIP3    H219525   3.681   0.415   3.186
 6507TIP3   OH219526   1.647   1.001   3.799
 6507TIP3    H119527   1.592   0.958   3.864
 6507TIP3    H219528   1.635   1.095   3.814
 6508TIP3   OH219529   3.088   2.270   3.206
 6508TIP3    H119530   3.027   2.235   3.270
 6508TIP3    H219531   3.150   2.322   3.258
 6509TIP3   OH219532   0.880   1.994   3.242
 6509TIP3    H119533   0.932   1.914   3.232
 6509TIP3    H219534   0.789   1.964   3.237
 6510TIP3   OH219535   5.796   4.032   5.043
 6510TIP3    H119536   5.891   4.033   5.057
 6510TIP3    H219537   5.768   3.947   5.077
 6511TIP3   OH219538   2.045   3.368   2.972
 6511TIP3    H119539   1.951   3.360   2.990
 6511TIP3    H219540   2.083   3.287   3.006
 6512TIP3   OH219541   1.232   3.384   1.262
 6512TIP3    H119542   1.204   3.442   1.333
 6512TIP3    H219543   1.228   3.439   1.184
 6513TIP3   OH219544   3.372   4.804   2.012
 6513TIP3    H119545   3.387   4.895   1.989
 6513TIP3    H219546   3.458   4.762   2.003
 6514TIP3   OH219547   0.516   2.736   4.063
 6514TIP3    H119548   0.563   2.654   4.044
 6514TIP3    H219549   0.540   2.795   3.992
 6515TIP3   OH219550   3.469   3.279   2.241
 6515TIP3    H119551   3.446   3.188   2.262
 6515TIP3    H219552   3.541   3.273   2.179
 6516TIP3   OH219553   3.531   4.594   3.118
 6516TIP3    H119554   3.620   4.628   3.107
 6516TIP3    H219555   3.477   4.651   3.062
 6517TIP3   OH219556   3.003   5.126   2.123
 6517TIP3    H119557   3.012   5.033   2.104
 6517TIP3    H219558   3.087   5.164   2.097
 6518TIP3   OH219559   1.714   2.668   4.869
 6518TIP3    H119560   1.659   2.686   4.945
 6518TIP3    H219561   1.790   2.622   4.905
 6519TIP3   OH219562   5.575   3.554   1.266
 6519TIP3    H119563   5.652   3.596   1.305
 6519TIP3    H219564   5.600   3.539   1.175
 6520TIP3   OH219565   2.923   1.734   3.904
 6520TIP3    H119566   2.898   1.654   3.950
 6520TIP3    H219567   2.930   1.800   3.972
 6521TIP3   OH219568   3.365   2.568   2.443
 6521TIP3    H119569   3.278   2.537   2.419
 6521TIP3    H219570   3.419   2.489   2.447
 6522TIP3   OH219571   5.881   5.674   4.421
 6522TIP3    H119572   5.873   5.580   4.437
 6522TIP3    H219573   5.942   5.680   4.348
 6523TIP3   OH219574   0.476   1.238   3.224
 6523TIP3    H119575   0.455   1.146   3.241
 6523TIP3    H219576   0.433   1.258   3.142
 6524TIP3   OH219577   3.219   0.173   2.515
 6524TIP3    H119578   3.267   0.115   2.456
 6524TIP3    H219579   3.132   0.133   2.523
 6525TIP3   OH219580   2.093   5.794   0.162
 6525TIP3    H119581   2.167   5.770   0.217
 6525TIP3    H219582   2.120   5.876   0.120
 6526TIP3   OH219583   4.830   0.769   3.006
 6526TIP3    H119584   4.924   0.763   2.990
 6526TIP3    H219585   4.790   0.724   2.932
 6527TIP3   OH219586   0.251   0.869   0.039
 6527TIP3    H119587   0.200   0.805   0.088
 6527TIP3    H219588   0.187   0.914  -0.017
 6528TIP3   OH219589   6.310   0.767   4.824
 6528TIP3    H119590   6.279   0.850   4.860
 6528TIP3    H219591   6.235   0.732   4.775
 6529TIP3   OH219592   4.975   1.683   0.451
 6529TIP3    H119593   5.056   1.644   0.485
 6529TIP3    H219594   4.905   1.644   0.504
 6530TIP3   OH219595   1.111   2.633   4.073
 6530TIP3    H119596   1.063   2.713   4.094
 6530TIP3    H219597   1.056   2.589   4.008
 6531TIP3   OH219598   4.837   1.584   4.355
 6531TIP3    H119599   4.785   1.654   4.316
 6531TIP3    H219600   4.890   1.627   4.421
 6532TIP3   OH219601   5.656   0.108   5.176
 6532TIP3    H119602   5.594   0.058   5.228
 6532TIP3    H219603   5.651   0.070   5.088
 6533TIP3   OH219604   0.329   5.471   2.516
 6533TIP3    H119605   0.314   5.409   2.586
 6533TIP3    H219606   0.396   5.530   2.550
 6534TIP3   OH219607   0.776   1.840   1.578
 6534TIP3    H119608   0.771   1.842   1.674
 6534TIP3    H219609   0.690   1.807   1.551
 6535TIP3   OH219610   0.409   5.688   4.169
 6535TIP3    H119611   0.433   5.765   4.220
 6535TIP3    H219612   0.373   5.723   4.087
 6536TIP3   OH219613   1.251   4.410   5.092
 6536TIP3    H119614   1.179   4.423   5.031
 6536TIP3    H219615   1.298   4.494   5.091
 6537TIP3   OH219616   1.004   2.219   3.895
 6537TIP3    H119617   0.953   2.138   3.893
 6537TIP3    H219618   1.033   2.226   3.986
 6538TIP3   OH219619   1.190   2.759   0.753
 6538TIP3    H119620   1.183   2.698   0.679
 6538TIP3    H219621   1.227   2.706   0.824
 6539TIP3   OH219622   2.049   3.528   2.117
 6539TIP3    H119623   1.990   3.581   2.065
 6539TIP3    H219624   2.071   3.583   2.192
 6540TIP3   OH219625   4.705   1.639   1.289
 6540TIP3    H119626   4.781   1.617   1.343
 6540TIP3    H219627   4.680   1.557   1.247
 6541TIP3   OH219628   4.049   3.868   4.258
 6541TIP3    H119629   4.135   3.827   4.269
 6541TIP3    H219630   3.995   3.799   4.220
 6542TIP3   OH219631   6.102   3.586   4.591
 6542TIP3    H119632   6.113   3.528   4.667
 6542TIP3    H219633   6.138   3.670   4.620
 6543TIP3   OH219634   4.798   3.786   1.308
 6543TIP3    H119635   4.784   3.861   1.365
 6543TIP3    H219636   4.834   3.823   1.227
 6544TIP3   OH219637   0.666   1.509   1.507
 6544TIP3    H119638   0.661   1.422   1.549
 6544TIP3    H219639   0.758   1.534   1.515
 6545TIP3   OH219640   3.727   5.107   2.023
 6545TIP3    H119641   3.719   5.012   2.016
 6545TIP3    H219642   3.806   5.119   2.076
 6546TIP3   OH219643   4.881   3.976   4.481
 6546TIP3    H119644   4.904   4.043   4.416
 6546TIP3    H219645   4.866   4.024   4.562
 6547TIP3   OH219646   6.095   2.355   0.638
 6547TIP3    H119647   6.075   2.262   0.630
 6547TIP3    H219648   6.160   2.371   0.569
 6548TIP3   OH219649   1.388   1.168   0.385
 6548TIP3    H119650   1.419   1.248   0.343
 6548TIP3    H219651   1.293   1.179   0.391
 6549TIP3   OH219652   5.332  -0.028   1.598
 6549TIP3    H119653   5.320   0.014   1.513
 6549TIP3    H219654   5.306  -0.119   1.584
 6550TIP3   OH219655   2.693   4.032   2.072
 6550TIP3    H119656   2.781   4.070   2.077
 6550TIP3    H219657   2.696   3.957   2.132
 6551TIP3   OH219658   0.701   3.733   2.241
 6551TIP3    H119659   0.654   3.685   2.173
 6551TIP3    H219660   0.683   3.825   2.222
 6552TIP3   OH219661   1.781   2.831   4.002
 6552TIP3    H119662   1.737   2.762   3.953
 6552TIP3    H219663   1.855   2.787   4.044
 6553TIP3   OH219664   4.592   2.051   1.072
 6553TIP3    H119665   4.644   2.060   0.992
 6553TIP3    H219666   4.656   2.028   1.139
 6554TIP3   OH219667   3.375   2.647   3.905
 6554TIP3    H119668   3.334   2.727   3.938
 6554TIP3    H219669   3.420   2.674   3.825
 6555TIP3   OH219670   3.236   4.774   3.443
 6555TIP3    H119671   3.324   4.740   3.433
 6555TIP3    H219672   3.200   4.726   3.517
 6556TIP3   OH219673   3.422   2.401   2.026
 6556TIP3    H119674   3.439   2.346   2.103
 6556TIP3    H219675   3.435   2.490   2.057
 6557TIP3   OH219676   0.038   1.962   2.461
 6557TIP3    H119677  -0.033   1.938   2.402
 6557TIP3    H219678   0.081   1.879   2.483
 6558TIP3   OH219679   6.135   0.134   2.793
 6558TIP3    H119680   6.129   0.194   2.718
 6558TIP3    H219681   6.046   0.101   2.805
 6559TIP3   OH219682   6.284   0.816   2.317
 6559TIP3    H119683   6.276   0.737   2.263
 6559TIP3    H219684   6.218   0.804   2.385
 6560TIP3   OH219685   0.431   0.580   3.586
 6560TIP3    H119686   0.455   0.503   3.535
 6560TIP3    H219687   0.378   0.633   3.525
 6561TIP3   OH219688   4.579   4.427   0.458
 6561TIP3    H119689   4.571   4.332   0.466
 6561TIP3    H219690   4.534   4.462   0.535
 6562TIP3   OH219691   2.221   0.215   1.432
 6562TIP3    H119692   2.279   0.182   1.501
 6562TIP3    H219693   2.278   0.224   1.355
 6563TIP3   OH219694   5.442   4.217   4.397
 6563TIP3    H119695   5.441   4.139   4.341
 6563TIP3    H219696   5.351   4.246   4.399
 6564TIP3   OH219697   0.819   5.414   3.581
 6564TIP3    H119698   0.885   5.432   3.514
 6564TIP3    H219699   0.736   5.439   3.540
 6565TIP3   OH219700   5.163   2.429   2.698
 6565TIP3    H119701   5.131   2.413   2.609
 6565TIP3    H219702   5.126   2.513   2.722
 6566TIP3   OH219703   5.894   5.154   4.372
 6566TIP3    H119704   5.853   5.210   4.305
 6566TIP3    H219705   5.948   5.093   4.322
 6567TIP3   OH219706   3.280   0.630   4.594
 6567TIP3    H119707   3.330   0.549   4.603
 6567TIP3    H219708   3.201   0.605   4.548
 6568TIP3   OH219709   6.300   0.065   1.791
 6568TIP3    H119710   6.378   0.100   1.834
 6568TIP3    H219711   6.254   0.017   1.860
 6569TIP3   OH219712   2.488   4.038   5.029
 6569TIP3    H119713   2.572   4.076   5.053
 6569TIP3    H219714   2.454   4.001   5.111
 6570TIP3   OH219715   3.030   0.142   1.753
 6570TIP3    H119716   3.053   0.235   1.745
 6570TIP3    H219717   2.935   0.140   1.743
 6571TIP3   OH219718   3.360   4.961   0.194
 6571TIP3    H119719   3.300   5.010   0.249
 6571TIP3    H219720   3.317   4.957   0.108
 6572TIP3   OH219721   1.255   1.775   2.432
 6572TIP3    H119722   1.326   1.812   2.484
 6572TIP3    H219723   1.202   1.727   2.495
 6573TIP3   OH219724   5.762   2.057   3.607
 6573TIP3    H119725   5.672   2.053   3.574
 6573TIP3    H219726   5.766   1.989   3.675
 6574TIP3   OH219727   2.752   3.583   2.685
 6574TIP3    H119728   2.803   3.661   2.708
 6574TIP3    H219729   2.805   3.538   2.620
 6575TIP3   OH219730   2.418   2.842   3.476
 6575TIP3    H119731   2.361   2.781   3.523
 6575TIP3    H219732   2.468   2.886   3.545
 6576TIP3   OH219733   3.807   1.180   1.182
 6576TIP3    H119734   3.854   1.101   1.158
 6576TIP3    H219735   3.857   1.217   1.255
 6577TIP3   OH219736   1.217   3.032   0.163
 6577TIP3    H119737   1.157   3.105   0.179
 6577TIP3    H219738   1.165   2.967   0.116
 6578TIP3   OH219739   5.077   1.137   4.532
 6578TIP3    H119740   5.096   1.229   4.515
 6578TIP3    H219741   5.157   1.091   4.505
 6579TIP3   OH219742   6.165   2.118   4.814
 6579TIP3    H119743   6.111   2.042   4.794
 6579TIP3    H219744   6.188   2.155   4.729
 6580TIP3   OH219745   0.687   5.777   1.445
 6580TIP3    H119746   0.762   5.747   1.497
 6580TIP3    H219747   0.714   5.862   1.412
 6581TIP3   OH219748   4.409   1.982   5.018
 6581TIP3    H119749   4.337   1.984   5.081
 6581TIP3    H219750   4.457   2.063   5.034
 6582TIP3   OH219751   0.435   3.780   3.105
 6582TIP3    H119752   0.348   3.743   3.122
 6582TIP3    H219753   0.460   3.822   3.187
 6583TIP3   OH219754   0.905   1.649   3.504
 6583TIP3    H119755   0.921   1.555   3.508
 6583TIP3    H219756   0.811   1.658   3.517
 6584TIP3   OH219757   6.209   4.668   2.717
 6584TIP3    H119758   6.289   4.618   2.699
 6584TIP3    H219759   6.230   4.721   2.794
 6585TIP3   OH219760   4.364   5.033   3.729
 6585TIP3    H119761   4.371   5.112   3.677
 6585TIP3    H219762   4.286   5.045   3.783
 6586TIP3   OH219763   4.117   5.407   4.382
 6586TIP3    H119764   4.200   5.366   4.409
 6586TIP3    H219765   4.071   5.422   4.465
 6587TIP3   OH219766   6.280   2.363   4.301
 6587TIP3    H119767   6.356   2.344   4.247
 6587TIP3    H219768   6.223   2.416   4.246
 6588TIP3   OH219769   5.632   2.615   0.586
 6588TIP3    H119770   5.712   2.570   0.612
 6588TIP3    H219771   5.579   2.548   0.544
 6589TIP3   OH219772   2.403   2.391   4.590
 6589TIP3    H119773   2.382   2.447   4.665
 6589TIP3    H219774   2.475   2.337   4.621
 6590TIP3   OH219775   5.934   3.968   2.743
 6590TIP3    H119776   5.931   3.875   2.766
 6590TIP3    H219777   5.942   3.969   2.648
 6591TIP3   OH219778   2.338   2.873   4.854
 6591TIP3    H119779   2.423   2.909   4.830
 6591TIP3    H219780   2.344   2.858   4.948
 6592TIP3   OH219781   5.497   0.060   3.721
 6592TIP3    H119782   5.502   0.066   3.817
 6592TIP3    H219783   5.406   0.082   3.700
 6593TIP3   OH219784   5.039   0.397   1.757
 6593TIP3    H119785   4.965   0.337   1.766
 6593TIP3    H219786   5.050   0.434   1.845
 6594TIP3   OH219787   4.523   0.082   1.939
 6594TIP3    H119788   4.500   0.093   1.847
 6594TIP3    H219789   4.538  -0.012   1.948
 6595TIP3   OH219790   2.475   2.340   3.953
 6595TIP3    H119791   2.441   2.405   3.892
 6595TIP3    H219792   2.452   2.374   4.039
 6596TIP3   OH219793   4.965   5.474   3.982
 6596TIP3    H119794   5.009   5.449   4.063
 6596TIP3    H219795   5.032   5.464   3.914
 6597TIP3   OH219796   5.640   0.944   0.197
 6597TIP3    H119797   5.691   0.980   0.269
 6597TIP3    H219798   5.555   0.988   0.203
 6598TIP3   OH219799   0.999   1.522   4.886
 6598TIP3    H119800   1.030   1.480   4.805
 6598TIP3    H219801   0.981   1.448   4.945
 6599TIP3   OH219802   2.199   2.860   3.851
 6599TIP3    H119803   2.132   2.792   3.854
 6599TIP3    H219804   2.172   2.923   3.918
 6600TIP3   OH219805   0.206   5.736   4.862
 6600TIP3    H119806   0.180   5.818   4.905
 6600TIP3    H219807   0.128   5.709   4.814
 6601TIP3   OH219808   3.865   4.240   4.039
 6601TIP3    H119809   3.840   4.225   4.131
 6601TIP3    H219810   3.932   4.174   4.021
 6602TIP3   OH219811   6.172   3.567   3.257
 6602TIP3    H119812   6.133   3.557   3.170
 6602TIP3    H219813   6.118   3.512   3.314
 6603TIP3   OH219814   5.841   4.890   0.075
 6603TIP3    H119815   5.828   4.984   0.061
 6603TIP3    H219816   5.863   4.855  -0.011
 6604TIP3   OH219817   3.502   4.322   1.473
 6604TIP3    H119818   3.546   4.263   1.534
 6604TIP3    H219819   3.409   4.305   1.487
 6605TIP3   OH219820   2.555   1.302   2.938
 6605TIP3    H119821   2.571   1.207   2.941
 6605TIP3    H219822   2.460   1.310   2.931
 6606TIP3   OH219823   2.194   2.098   4.719
 6606TIP3    H119824   2.150   2.132   4.641
 6606TIP3    H219825   2.179   2.003   4.716
 6607TIP3   OH219826   1.653   1.090   1.234
 6607TIP3    H119827   1.741   1.053   1.229
 6607TIP3    H219828   1.666   1.177   1.271
 6608TIP3   OH219829   5.262   3.881   1.809
 6608TIP3    H119830   5.248   3.899   1.716
 6608TIP3    H219831   5.289   3.789   1.812
 6609TIP3   OH219832   1.983   0.743   4.698
 6609TIP3    H119833   1.984   0.801   4.621
 6609TIP3    H219834   2.041   0.785   4.761
 6610TIP3   OH219835   4.886   4.109   4.014
 6610TIP3    H119836   4.804   4.062   4.004
 6610TIP3    H219837   4.917   4.123   3.925
 6611TIP3   OH219838   2.554   2.300   3.081
 6611TIP3    H119839   2.465   2.318   3.110
 6611TIP3    H219840   2.595   2.256   3.156
 6612TIP3   OH219841   4.444   0.523   1.363
 6612TIP3    H119842   4.390   0.577   1.306
 6612TIP3    H219843   4.383   0.460   1.401
 6613TIP3   OH219844   2.746   0.101   4.912
 6613TIP3    H119845   2.780   0.182   4.874
 6613TIP3    H219846   2.817   0.038   4.904
 6614TIP3   OH219847   0.077   1.039   4.702
 6614TIP3    H119848   0.140   0.975   4.733
 6614TIP3    H219849   0.123   1.123   4.708
 6615TIP3   OH219850   1.630   0.420   2.060
 6615TIP3    H119851   1.638   0.378   1.974
 6615TIP3    H219852   1.612   0.348   2.120
 6616TIP3   OH219853   3.740   0.294   1.781
 6616TIP3    H119854   3.831   0.321   1.773
 6616TIP3    H219855   3.691   0.376   1.782
 6617TIP3   OH219856   4.328   3.204   5.046
 6617TIP3    H119857   4.413   3.244   5.062
 6617TIP3    H219858   4.325   3.128   5.104
 6618TIP3   OH219859   5.232   0.818   3.361
 6618TIP3    H119860   5.204   0.891   3.417
 6618TIP3    H219861   5.327   0.826   3.359
 6619TIP3   OH219862   2.222   4.085   1.645
 6619TIP3    H119863   2.248   4.140   1.718
 6619TIP3    H219864   2.266   4.123   1.569
 6620TIP3   OH219865   1.065   0.350   3.941
 6620TIP3    H119866   1.144   0.349   3.995
 6620TIP3    H219867   0.993   0.344   4.003
 6621TIP3   OH219868   6.073   0.658   3.834
 6621TIP3    H119869   6.166   0.662   3.856
 6621TIP3    H219870   6.060   0.728   3.770
 6622TIP3   OH219871   5.273   5.391   4.494
 6622TIP3    H119872   5.226   5.464   4.453
 6622TIP3    H219873   5.220   5.314   4.472
 6623TIP3   OH219874   5.024   1.739   4.878
 6623TIP3    H119875   5.003   1.808   4.814
 6623TIP3    H219876   4.972   1.761   4.955
 6624TIP3   OH219877   0.103   3.004   0.199
 6624TIP3    H119878   0.010   3.004   0.218
 6624TIP3    H219879   0.109   2.983   0.106
 6625TIP3   OH219880   0.381   3.756   0.985
 6625TIP3    H119881   0.327   3.725   0.913
 6625TIP3    H219882   0.327   3.821   1.029
 6626TIP3   OH219883   1.380   3.956   3.565
 6626TIP3    H119884   1.456   3.897   3.570
 6626TIP3    H219885   1.306   3.902   3.594
 6627TIP3   OH219886   2.344   0.231   3.864
 6627TIP3    H119887   2.314   0.189   3.944
 6627TIP3    H219888   2.420   0.283   3.891
 6628TIP3   OH219889   2.529   2.423   5.055
 6628TIP3    H119890   2.458   2.487   5.052
 6628TIP3    H219891   2.486   2.339   5.068
 6629TIP3   OH219892   3.575   5.463   4.356
 6629TIP3    H119893   3.517   5.389   4.369
 6629TIP3    H219894   3.518   5.532   4.321
 6630TIP3   OH219895   6.239   0.394   1.193
 6630TIP3    H119896   6.218   0.438   1.276
 6630TIP3    H219897   6.226   0.462   1.127
 6631TIP3   OH219898   2.757   3.733   4.376
 6631TIP3    H119899   2.740   3.740   4.282
 6631TIP3    H219900   2.840   3.686   4.382
 6632TIP3   OH219901   4.249   0.197   4.511
 6632TIP3    H119902   4.333   0.170   4.548
 6632TIP3    H219903   4.212   0.256   4.578
 6633TIP3   OH219904   3.660   0.971   0.907
 6633TIP3    H119905   3.666   0.887   0.863
 6633TIP3    H219906   3.592   0.959   0.973
 6634TIP3   OH219907   6.286   5.057   3.144
 6634TIP3    H119908   6.293   5.045   3.239
 6634TIP3    H219909   6.204   5.104   3.131
 6635TIP3   OH219910   1.041   5.815   4.741
 6635TIP3    H119911   1.107   5.879   4.714
 6635TIP3    H219912   1.086   5.731   4.737
 6636TIP3   OH219913   1.283   4.798   3.145
 6636TIP3    H119914   1.322   4.712   3.129
 6636TIP3    H219915   1.225   4.784   3.219
 6637TIP3   OH219916   3.289   4.566   0.657
 6637TIP3    H119917   3.324   4.553   0.569
 6637TIP3    H219918   3.361   4.606   0.705
 6638TIP3   OH219919   2.175   4.478   5.039
 6638TIP3    H119920   2.196   4.482   4.946
 6638TIP3    H219921   2.079   4.481   5.042
 6639TIP3   OH219922   4.656   0.178   1.391
 6639TIP3    H119923   4.663   0.110   1.458
 6639TIP3    H219924   4.669   0.260   1.438
 6640TIP3   OH219925   5.502   4.491   1.731
 6640TIP3    H119926   5.457   4.564   1.689
 6640TIP3    H219927   5.518   4.428   1.660
 6641TIP3   OH219928   0.377   5.717   2.690
 6641TIP3    H119929   0.291   5.718   2.647
 6641TIP3    H219930   0.358   5.740   2.781
 6642TIP3   OH219931   3.005   2.017   1.969
 6642TIP3    H119932   2.998   1.923   1.958
 6642TIP3    H219933   3.095   2.038   1.941
 6643TIP3   OH219934   3.184   2.220   4.428
 6643TIP3    H119935   3.100   2.216   4.474
 6643TIP3    H219936   3.246   2.181   4.489
 6644TIP3   OH219937   3.993   2.457   4.779
 6644TIP3    H119938   4.010   2.372   4.739
 6644TIP3    H219939   3.930   2.499   4.720
 6645TIP3   OH219940   3.603   0.921   1.352
 6645TIP3    H119941   3.586   1.015   1.356
 6645TIP3    H219942   3.686   0.910   1.398
   6.35386   5.99047   5.18791   0.00000   0.00000  -2.11796   0.00000  -2.11796  -2.99524
