Title t= 260.00000 step= 130000
29212
    1ASP      N    1   2.004   2.371   4.741
    1ASP    HT1    2   1.949   2.451   4.776
    1ASP    HT2    3   1.943   2.290   4.720
    1ASP    HT3    4   2.062   2.393   4.657
    1ASP     CA    5   2.101   2.349   4.852
    1ASP     HA    6   2.037   2.358   4.939
    1ASP     CB    7   2.162   2.204   4.850
    1ASP    HB1    8   2.217   2.185   4.944
    1ASP    HB2    9   2.235   2.185   4.768
    1ASP     CG   10   2.048   2.102   4.855
    1ASP    OD1   11   1.929   2.133   4.881
    1ASP    OD2   12   2.087   1.981   4.832
    1ASP      C   13   2.210   2.455   4.860
    1ASP      O   14   2.195   2.561   4.912
    2GLY      N   15   2.335   2.421   4.812
    2GLY     HN   16   2.344   2.327   4.779
    2GLY     CA   17   2.451   2.507   4.800
    2GLY    HA1   18   2.540   2.458   4.762
    2GLY    HA2   19   2.464   2.546   4.900
    2GLY      C   20   2.431   2.630   4.715
    2GLY      O   21   2.315   2.666   4.681
    3ASP      N   22   2.543   2.697   4.672
    3ASP     HN   23   2.634   2.658   4.678
    3ASP     CA   24   2.528   2.830   4.610
    3ASP     HA   25   2.471   2.897   4.672
    3ASP     CB   26   2.663   2.898   4.588
    3ASP    HB1   27   2.657   3.002   4.548
    3ASP    HB2   28   2.729   2.843   4.517
    3ASP     CG   29   2.735   2.903   4.726
    3ASP    OD1   30   2.680   2.954   4.823
    3ASP    OD2   31   2.851   2.855   4.731
    3ASP      C   32   2.466   2.818   4.469
    3ASP      O   33   2.507   2.733   4.397
    4GLY      N   34   2.383   2.919   4.429
    4GLY     HN   35   2.382   2.996   4.492
    4GLY     CA   36   2.324   2.941   4.297
    4GLY    HA1   37   2.259   3.027   4.300
    4GLY    HA2   38   2.257   2.858   4.282
    4GLY      C   39   2.421   2.950   4.178
    4GLY      O   40   2.544   2.938   4.188
    5PRO      N   41   2.358   2.977   4.051
    5PRO     CD   42   2.216   2.970   4.025
    5PRO    HD1   43   2.166   3.057   4.074
    5PRO    HD2   44   2.180   2.873   4.066
    5PRO     CA   45   2.433   3.025   3.937
    5PRO     HA   46   2.484   2.937   3.902
    5PRO     CB   47   2.327   3.078   3.840
    5PRO    HB1   48   2.362   3.064   3.735
    5PRO    HB2   49   2.310   3.187   3.853
    5PRO     CG   50   2.201   2.993   3.872
    5PRO    HG1   51   2.104   3.041   3.846
    5PRO    HG2   52   2.207   2.894   3.822
    5PRO      C   53   2.545   3.128   3.960
    5PRO      O   54   2.516   3.216   4.041
    6GLY      N   55   2.659   3.109   3.898
    6GLY     HN   56   2.671   3.020   3.855
    6GLY     CA   57   2.767   3.201   3.895
    6GLY    HA1   58   2.850   3.150   3.849
    6GLY    HA2   59   2.785   3.225   3.999
    6GLY      C   60   2.743   3.332   3.828
    6GLY      O   61   2.634   3.386   3.827
    7ASP      N   62   2.842   3.405   3.773
    7ASP     HN   63   2.940   3.388   3.778
    7ASP     CA   64   2.810   3.532   3.706
    7ASP     HA   65   2.757   3.590   3.780
    7ASP     CB   66   2.950   3.594   3.664
    7ASP    HB1   67   2.943   3.678   3.592
    7ASP    HB2   68   3.008   3.509   3.623
    7ASP     CG   69   3.036   3.638   3.782
    7ASP    OD1   70   2.976   3.660   3.890
    7ASP    OD2   71   3.157   3.650   3.772
    7ASP      C   72   2.722   3.527   3.574
    7ASP      O   73   2.718   3.423   3.503
    8PRO      N   74   2.637   3.631   3.541
    8PRO     CD   75   2.646   3.753   3.618
    8PRO    HD1   76   2.744   3.784   3.660
    8PRO    HD2   77   2.572   3.746   3.700
    8PRO     CA   78   2.566   3.656   3.411
    8PRO     HA   79   2.495   3.574   3.415
    8PRO     CB   80   2.504   3.796   3.427
    8PRO    HB1   81   2.409   3.775   3.481
    8PRO    HB2   82   2.477   3.843   3.330
    8PRO     CG   83   2.603   3.861   3.518
    8PRO    HG1   84   2.691   3.893   3.458
    8PRO    HG2   85   2.561   3.948   3.573
    8PRO      C   86   2.657   3.638   3.291
    8PRO      O   87   2.767   3.692   3.296
    9GLY      N   88   2.611   3.560   3.188
    9GLY     HN   89   2.534   3.499   3.206
    9GLY     CA   90   2.683   3.553   3.065
    9GLY    HA1   91   2.632   3.485   2.998
    9GLY    HA2   92   2.776   3.504   3.090
    9GLY      C   93   2.709   3.684   2.997
    9GLY      O   94   2.660   3.792   3.030
   10ASP      N   95   2.779   3.667   2.884
   10ASP     HN   96   2.817   3.577   2.865
   10ASP     CA   97   2.794   3.771   2.775
   10ASP     HA   98   2.781   3.871   2.814
   10ASP     CB   99   2.938   3.756   2.717
   10ASP    HB1  100   2.957   3.815   2.624
   10ASP    HB2  101   2.974   3.652   2.705
   10ASP     CG  102   3.042   3.817   2.808
   10ASP    OD1  103   3.021   3.928   2.861
   10ASP    OD2  104   3.153   3.765   2.802
   10ASP      C  105   2.680   3.746   2.669
   10ASP      O  106   2.642   3.635   2.635
   11GLY      N  107   2.628   3.857   2.617
   11GLY     HN  108   2.671   3.945   2.637
   11GLY     CA  109   2.520   3.864   2.515
   11GLY    HA1  110   2.459   3.951   2.527
   11GLY    HA2  111   2.466   3.771   2.526
   11GLY      C  112   2.581   3.864   2.373
   11GLY    OT1  113   2.641   3.952   2.318
   11GLY    OT2  114   2.560   3.747   2.317
   12SOD    SOD  115   4.460   0.899   1.778
   13SOD    SOD  116   0.154   1.250   1.043
   14SOD    SOD  117   3.256   0.333   2.500
   15SOD    SOD  118   0.663   1.486   3.864
   16SOD    SOD  119   3.940   1.377   4.310
   17SOD    SOD  120   1.927   3.531   4.830
   18SOD    SOD  121   6.681   1.888   1.156
   19SOD    SOD  122   5.098   0.061   4.346
   20SOD    SOD  123   5.819   1.978   4.653
   21SOD    SOD  124   0.417   1.766   0.302
   22SOD    SOD  125   6.494   0.776   5.033
   23SOD    SOD  126   3.765   1.032   2.216
   24SOD    SOD  127   1.764   1.322   5.498
   25SOD    SOD  128   1.880   3.975   1.199
   26SOD    SOD  129   3.745   5.867   3.371
   27SOD    SOD  130   3.252   3.623   3.218
   28SOD    SOD  131   5.300   2.236   3.339
   29SOD    SOD  132   0.521   2.075   2.621
   30SOD    SOD  133   1.483   6.640   4.831
   31SOD    SOD  134   1.623   6.333   3.362
   32SOD    SOD  135   2.748   3.773   1.916
   33SOD    SOD  136   0.474   3.417   1.786
   34SOD    SOD  137   5.110   6.676   3.850
   35SOD    SOD  138   2.787   3.451   1.433
   36SOD    SOD  139   6.124   2.785   4.102
   37SOD    SOD  140   3.739   4.278   0.763
   38SOD    SOD  141   1.495   5.016   4.807
   39SOD    SOD  142   6.939   3.992   2.872
   40SOD    SOD  143   4.090   1.192   1.414
   41SOD    SOD  144   6.966   4.294   2.074
   42SOD    SOD  145   6.210   5.259   5.321
   43CLA    CLA  146   1.482   4.564   4.871
   44CLA    CLA  147   3.400   1.475   5.431
   45CLA    CLA  148   1.950   3.234   0.733
   46CLA    CLA  149   5.714   3.345   4.285
   47CLA    CLA  150   2.470   0.311   1.785
   48CLA    CLA  151   3.734   0.557   2.850
   49CLA    CLA  152   1.197   2.363   3.936
   50CLA    CLA  153   2.107   6.369   4.006
   51CLA    CLA  154   5.673   5.679   3.875
   52CLA    CLA  155   2.030   1.920   3.711
   53CLA    CLA  156   0.155   3.099   1.073
   54CLA    CLA  157   3.988   3.747   2.194
   55CLA    CLA  158   0.909   0.137   3.314
   56CLA    CLA  159   5.917   2.272   0.090
   57CLA    CLA  160   2.084   4.468   1.510
   58CLA    CLA  161   3.457   2.411   3.022
   59CLA    CLA  162   6.480   3.238   2.563
   60CLA    CLA  163   2.303   1.579   4.864
   61CLA    CLA  164   5.470   2.688   1.731
   62CLA    CLA  165   6.163   2.887   2.426
   63CLA    CLA  166   0.490   2.682   3.161
   64CLA    CLA  167   4.466   6.090   1.200
   65CLA    CLA  168   4.359   0.109   3.508
   66CLA    CLA  169   0.669   6.501   3.047
   67CLA    CLA  170   0.915   1.056   2.577
   68CLA    CLA  171   5.847   0.864   0.832
   69CLA    CLA  172   5.215   0.451   2.412
   70TIP3   OH2  173   0.884   0.312   0.088
   70TIP3    H1  174   0.840   0.376   0.144
   70TIP3    H2  175   0.879   0.351   0.000
   71TIP3   OH2  176   4.454   0.075   0.122
   71TIP3    H1  177   4.522   0.011   0.142
   71TIP3    H2  178   4.486   0.121   0.044
   72TIP3   OH2  179   4.433   3.982   5.652
   72TIP3    H1  180   4.347   3.983   5.694
   72TIP3    H2  181   4.493   4.014   5.720
   73TIP3   OH2  182   7.199   0.505   4.800
   73TIP3    H1  183   7.177   0.449   4.874
   73TIP3    H2  184   7.232   0.445   4.733
   74TIP3   OH2  185   2.922   4.964   3.561
   74TIP3    H1  186   2.909   4.876   3.526
   74TIP3    H2  187   2.834   4.994   3.583
   75TIP3   OH2  188   5.942   1.820   5.800
   75TIP3    H1  189   5.981   1.752   5.856
   75TIP3    H2  190   5.853   1.831   5.833
   76TIP3   OH2  191   6.299   5.013   0.368
   76TIP3    H1  192   6.348   5.022   0.450
   76TIP3    H2  193   6.211   5.042   0.389
   77TIP3   OH2  194   1.746   4.912  -0.037
   77TIP3    H1  195   1.694   4.971   0.017
   77TIP3    H2  196   1.789   4.854   0.026
   78TIP3   OH2  197   2.276   6.686   0.156
   78TIP3    H1  198   2.213   6.660   0.223
   78TIP3    H2  199   2.359   6.647   0.184
   79TIP3   OH2  200   6.806   6.316   0.054
   79TIP3    H1  201   6.778   6.367  -0.022
   79TIP3    H2  202   6.901   6.318   0.050
   80TIP3   OH2  203   3.093   1.600   2.349
   80TIP3    H1  204   3.083   1.504   2.345
   80TIP3    H2  205   3.037   1.626   2.421
   81TIP3   OH2  206   7.078   4.883   0.351
   81TIP3    H1  207   7.050   4.946   0.418
   81TIP3    H2  208   7.011   4.890   0.283
   82TIP3   OH2  209   1.819   1.743   4.610
   82TIP3    H1  210   1.839   1.746   4.517
   82TIP3    H2  211   1.859   1.662   4.641
   83TIP3   OH2  212   6.130  -0.006   2.121
   83TIP3    H1  213   6.157   0.049   2.195
   83TIP3    H2  214   6.034   0.003   2.119
   84TIP3   OH2  215   1.987   4.285   3.401
   84TIP3    H1  216   2.056   4.291   3.466
   84TIP3    H2  217   1.970   4.191   3.393
   85TIP3   OH2  218   0.414   0.043   1.798
   85TIP3    H1  219   0.369   0.085   1.726
   85TIP3    H2  220   0.502   0.081   1.797
   86TIP3   OH2  221   4.351   5.343   0.231
   86TIP3    H1  222   4.337   5.284   0.157
   86TIP3    H2  223   4.439   5.379   0.217
   87TIP3   OH2  224   4.250   1.509   5.381
   87TIP3    H1  225   4.342   1.512   5.405
   87TIP3    H2  226   4.212   1.444   5.439
   88TIP3   OH2  227   5.671   1.717   0.767
   88TIP3    H1  228   5.741   1.710   0.701
   88TIP3    H2  229   5.679   1.638   0.819
   89TIP3   OH2  230   5.723   4.661   4.244
   89TIP3    H1  231   5.714   4.740   4.191
   89TIP3    H2  232   5.701   4.589   4.184
   90TIP3   OH2  233   6.565   1.172   2.497
   90TIP3    H1  234   6.605   1.258   2.512
   90TIP3    H2  235   6.505   1.186   2.423
   91TIP3   OH2  236   0.344   1.758   1.615
   91TIP3    H1  237   0.318   1.674   1.578
   91TIP3    H2  238   0.270   1.785   1.670
   92TIP3   OH2  239   4.363   5.671   5.516
   92TIP3    H1  240   4.387   5.691   5.607
   92TIP3    H2  241   4.434   5.616   5.484
   93TIP3   OH2  242   0.533   1.569   0.280
   93TIP3    H1  243   0.566   1.507   0.346
   93TIP3    H2  244   0.610   1.593   0.229
   94TIP3   OH2  245   5.326   0.711   2.963
   94TIP3    H1  246   5.333   0.764   3.042
   94TIP3    H2  247   5.412   0.668   2.955
   95TIP3   OH2  248   3.070   1.451   3.152
   95TIP3    H1  249   3.135   1.513   3.185
   95TIP3    H2  250   3.093   1.438   3.060
   96TIP3   OH2  251   7.196   3.827   0.819
   96TIP3    H1  252   7.144   3.810   0.740
   96TIP3    H2  253   7.136   3.809   0.891
   97TIP3   OH2  254   0.933   2.118   1.323
   97TIP3    H1  255   0.927   2.032   1.365
   97TIP3    H2  256   0.918   2.180   1.394
   98TIP3   OH2  257   3.312   3.513   2.782
   98TIP3    H1  258   3.259   3.591   2.771
   98TIP3    H2  259   3.346   3.519   2.871
   99TIP3   OH2  260   2.669   6.683   1.812
   99TIP3    H1  261   2.736   6.719   1.753
   99TIP3    H2  262   2.597   6.659   1.754
  100TIP3   OH2  263   5.082   3.007   5.455
  100TIP3    H1  264   5.038   3.040   5.377
  100TIP3    H2  265   5.171   3.042   5.450
  101TIP3   OH2  266   2.409   1.518   0.570
  101TIP3    H1  267   2.384   1.426   0.574
  101TIP3    H2  268   2.412   1.546   0.661
  102TIP3   OH2  269   2.419   0.628   0.143
  102TIP3    H1  270   2.493   0.681   0.175
  102TIP3    H2  271   2.404   0.564   0.212
  103TIP3   OH2  272   3.112   0.976   0.920
  103TIP3    H1  273   3.025   0.954   0.952
  103TIP3    H2  274   3.109   1.071   0.905
  104TIP3   OH2  275   5.001   4.055   1.659
  104TIP3    H1  276   4.978   3.972   1.618
  104TIP3    H2  277   4.924   4.110   1.647
  105TIP3   OH2  278   4.108   2.675   0.135
  105TIP3    H1  279   4.013   2.688   0.134
  105TIP3    H2  280   4.145   2.763   0.130
  106TIP3   OH2  281   4.079   5.204   1.743
  106TIP3    H1  282   4.096   5.298   1.733
  106TIP3    H2  283   4.113   5.165   1.663
  107TIP3   OH2  284   1.747   4.861   4.531
  107TIP3    H1  285   1.828   4.809   4.531
  107TIP3    H2  286   1.775   4.949   4.508
  108TIP3   OH2  287   1.250   6.635   3.515
  108TIP3    H1  288   1.175   6.641   3.575
  108TIP3    H2  289   1.245   6.547   3.479
  109TIP3   OH2  290   1.820   3.575   1.572
  109TIP3    H1  291   1.777   3.659   1.588
  109TIP3    H2  292   1.823   3.533   1.658
  110TIP3   OH2  293   4.070   2.086   0.709
  110TIP3    H1  294   4.126   2.126   0.776
  110TIP3    H2  295   4.129   2.067   0.636
  111TIP3   OH2  296   2.779   1.128   3.319
  111TIP3    H1  297   2.695   1.084   3.331
  111TIP3    H2  298   2.787   1.185   3.396
  112TIP3   OH2  299   0.516   1.573   2.176
  112TIP3    H1  300   0.549   1.627   2.105
  112TIP3    H2  301   0.535   1.623   2.255
  113TIP3   OH2  302   2.704   0.671   5.468
  113TIP3    H1  303   2.644   0.641   5.535
  113TIP3    H2  304   2.695   0.766   5.467
  114TIP3   OH2  305   5.167   2.630   4.461
  114TIP3    H1  306   5.212   2.714   4.455
  114TIP3    H2  307   5.142   2.622   4.553
  115TIP3   OH2  308   3.389   1.173   2.915
  115TIP3    H1  309   3.475   1.143   2.945
  115TIP3    H2  310   3.339   1.189   2.995
  116TIP3   OH2  311   4.597   1.828   4.292
  116TIP3    H1  312   4.540   1.823   4.369
  116TIP3    H2  313   4.539   1.816   4.218
  117TIP3   OH2  314   1.353   3.242   4.314
  117TIP3    H1  315   1.300   3.294   4.374
  117TIP3    H2  316   1.327   3.273   4.227
  118TIP3   OH2  317   6.181   2.455   0.099
  118TIP3    H1  318   6.139   2.533   0.135
  118TIP3    H2  319   6.109   2.392   0.087
  119TIP3   OH2  320   4.555   2.249   3.407
  119TIP3    H1  321   4.520   2.165   3.376
  119TIP3    H2  322   4.647   2.230   3.428
  120TIP3   OH2  323   6.439   3.832   0.085
  120TIP3    H1  324   6.529   3.802   0.097
  120TIP3    H2  325   6.402   3.831   0.173
  121TIP3   OH2  326   4.252   4.199   1.104
  121TIP3    H1  327   4.313   4.211   1.032
  121TIP3    H2  328   4.289   4.250   1.176
  122TIP3   OH2  329   5.163   2.693   1.020
  122TIP3    H1  330   5.103   2.760   1.052
  122TIP3    H2  331   5.209   2.663   1.099
  123TIP3   OH2  332   6.978   6.383   0.882
  123TIP3    H1  333   6.932   6.463   0.854
  123TIP3    H2  334   7.033   6.360   0.807
  124TIP3   OH2  335   4.504   3.340   2.822
  124TIP3    H1  336   4.507   3.254   2.780
  124TIP3    H2  337   4.463   3.324   2.907
  125TIP3   OH2  338   3.836   3.984   4.242
  125TIP3    H1  339   3.801   3.902   4.277
  125TIP3    H2  340   3.759   4.035   4.219
  126TIP3   OH2  341   6.467   3.245   3.956
  126TIP3    H1  342   6.441   3.175   4.016
  126TIP3    H2  343   6.531   3.205   3.898
  127TIP3   OH2  344   2.400   3.480   2.707
  127TIP3    H1  345   2.478   3.530   2.730
  127TIP3    H2  346   2.421   3.390   2.730
  128TIP3   OH2  347   0.531   6.223   2.930
  128TIP3    H1  348   0.517   6.157   2.997
  128TIP3    H2  349   0.576   6.295   2.976
  129TIP3   OH2  350   1.759   3.206   0.969
  129TIP3    H1  351   1.806   3.201   0.886
  129TIP3    H2  352   1.820   3.250   1.029
  130TIP3   OH2  353   0.822   1.111   1.955
  130TIP3    H1  354   0.869   1.189   1.986
  130TIP3    H2  355   0.731   1.125   1.982
  131TIP3   OH2  356   4.274   3.936   4.586
  131TIP3    H1  357   4.284   4.018   4.636
  131TIP3    H2  358   4.184   3.909   4.604
  132TIP3   OH2  359   4.159   3.824   0.441
  132TIP3    H1  360   4.154   3.799   0.349
  132TIP3    H2  361   4.093   3.893   0.450
  133TIP3   OH2  362   6.519   4.460   1.728
  133TIP3    H1  363   6.561   4.543   1.703
  133TIP3    H2  364   6.438   4.459   1.678
  134TIP3   OH2  365   3.873   4.889   3.106
  134TIP3    H1  366   3.892   4.857   3.018
  134TIP3    H2  367   3.791   4.847   3.130
  135TIP3   OH2  368   0.877   3.994   5.861
  135TIP3    H1  369   0.904   4.048   5.786
  135TIP3    H2  370   0.864   4.056   5.932
  136TIP3   OH2  371   0.804   2.912   2.333
  136TIP3    H1  372   0.883   2.957   2.362
  136TIP3    H2  373   0.835   2.850   2.266
  137TIP3   OH2  374   1.001   6.241   1.382
  137TIP3    H1  375   0.934   6.278   1.324
  137TIP3    H2  376   0.951   6.191   1.447
  138TIP3   OH2  377   6.313   5.115   3.961
  138TIP3    H1  378   6.348   5.166   3.888
  138TIP3    H2  379   6.259   5.048   3.919
  139TIP3   OH2  380   2.959   0.664   5.380
  139TIP3    H1  381   2.871   0.642   5.409
  139TIP3    H2  382   2.998   0.709   5.455
  140TIP3   OH2  383   5.041   0.660   2.599
  140TIP3    H1  384   5.109   0.614   2.550
  140TIP3    H2  385   5.089   0.720   2.656
  141TIP3   OH2  386   1.248   4.645   4.002
  141TIP3    H1  387   1.280   4.570   3.952
  141TIP3    H2  388   1.293   4.720   3.964
  142TIP3   OH2  389   0.065   2.620   4.044
  142TIP3    H1  390   0.127   2.665   4.101
  142TIP3    H2  391   0.080   2.527   4.060
  143TIP3   OH2  392   3.117   6.488   2.361
  143TIP3    H1  393   3.168   6.410   2.340
  143TIP3    H2  394   3.063   6.462   2.436
  144TIP3   OH2  395   6.216   5.578   1.415
  144TIP3    H1  396   6.294   5.523   1.408
  144TIP3    H2  397   6.143   5.517   1.420
  145TIP3   OH2  398   5.354   2.300   2.176
  145TIP3    H1  399   5.308   2.382   2.195
  145TIP3    H2  400   5.394   2.314   2.090
  146TIP3   OH2  401   1.277   2.734   1.835
  146TIP3    H1  402   1.324   2.786   1.771
  146TIP3    H2  403   1.344   2.682   1.879
  147TIP3   OH2  404   1.987   0.251   1.529
  147TIP3    H1  405   1.894   0.256   1.554
  147TIP3    H2  406   2.030   0.212   1.605
  148TIP3   OH2  407   0.072   6.682   0.955
  148TIP3    H1  408   0.058   6.757   1.012
  148TIP3    H2  409   0.138   6.711   0.892
  149TIP3   OH2  410   6.037   2.769   3.049
  149TIP3    H1  411   6.062   2.828   2.978
  149TIP3    H2  412   5.947   2.792   3.069
  150TIP3   OH2  413   6.275   1.735   0.619
  150TIP3    H1  414   6.277   1.777   0.533
  150TIP3    H2  415   6.322   1.652   0.606
  151TIP3   OH2  416   3.965   1.404   1.432
  151TIP3    H1  417   3.881   1.366   1.456
  151TIP3    H2  418   3.946   1.460   1.357
  152TIP3   OH2  419   6.641   1.030   1.781
  152TIP3    H1  420   6.735   1.048   1.770
  152TIP3    H2  421   6.597   1.108   1.748
  153TIP3   OH2  422   7.076   5.644   1.978
  153TIP3    H1  423   7.140   5.629   2.048
  153TIP3    H2  424   7.121   5.619   1.898
  154TIP3   OH2  425   4.244   3.812   5.181
  154TIP3    H1  426   4.161   3.859   5.178
  154TIP3    H2  427   4.285   3.842   5.262
  155TIP3   OH2  428   1.842   0.594   2.964
  155TIP3    H1  429   1.833   0.508   3.006
  155TIP3    H2  430   1.935   0.600   2.942
  156TIP3   OH2  431   1.224   5.912   0.632
  156TIP3    H1  432   1.167   5.952   0.697
  156TIP3    H2  433   1.262   5.836   0.676
  157TIP3   OH2  434   5.969   4.783   0.166
  157TIP3    H1  435   5.909   4.841   0.213
  157TIP3    H2  436   5.991   4.714   0.229
  158TIP3   OH2  437   0.103   0.565   0.529
  158TIP3    H1  438   0.112   0.547   0.623
  158TIP3    H2  439   0.010   0.552   0.511
  159TIP3   OH2  440   7.021   2.588   0.415
  159TIP3    H1  441   6.936   2.605   0.374
  159TIP3    H2  442   7.008   2.509   0.466
  160TIP3   OH2  443   1.588   6.468   5.401
  160TIP3    H1  444   1.579   6.411   5.477
  160TIP3    H2  445   1.505   6.515   5.396
  161TIP3   OH2  446   5.332   1.816   5.182
  161TIP3    H1  447   5.300   1.726   5.185
  161TIP3    H2  448   5.329   1.840   5.089
  162TIP3   OH2  449   1.462   5.920   2.607
  162TIP3    H1  450   1.416   5.851   2.654
  162TIP3    H2  451   1.549   5.924   2.648
  163TIP3   OH2  452   5.845   1.507   3.528
  163TIP3    H1  453   5.864   1.413   3.523
  163TIP3    H2  454   5.931   1.547   3.541
  164TIP3   OH2  455   1.033   6.446   2.278
  164TIP3    H1  456   1.021   6.458   2.183
  164TIP3    H2  457   0.944   6.445   2.313
  165TIP3   OH2  458   3.438   5.858   0.503
  165TIP3    H1  459   3.531   5.839   0.516
  165TIP3    H2  460   3.405   5.876   0.591
  166TIP3   OH2  461   5.600   3.458   4.759
  166TIP3    H1  462   5.643   3.457   4.674
  166TIP3    H2  463   5.612   3.547   4.791
  167TIP3   OH2  464   7.120   0.779   3.111
  167TIP3    H1  465   7.098   0.774   3.018
  167TIP3    H2  466   7.047   0.826   3.150
  168TIP3   OH2  467   5.481   4.686   0.811
  168TIP3    H1  468   5.390   4.707   0.792
  168TIP3    H2  469   5.505   4.746   0.882
  169TIP3   OH2  470   6.713   5.105   3.242
  169TIP3    H1  471   6.705   5.054   3.322
  169TIP3    H2  472   6.795   5.075   3.203
  170TIP3   OH2  473   2.797   5.825   4.778
  170TIP3    H1  474   2.871   5.845   4.836
  170TIP3    H2  475   2.720   5.839   4.832
  171TIP3   OH2  476   2.552   0.147   0.177
  171TIP3    H1  477   2.614   0.192   0.235
  171TIP3    H2  478   2.468   0.151   0.224
  172TIP3   OH2  479   4.173   6.467   1.415
  172TIP3    H1  480   4.229   6.445   1.489
  172TIP3    H2  481   4.084   6.451   1.446
  173TIP3   OH2  482   4.409   1.713   5.147
  173TIP3    H1  483   4.390   1.630   5.191
  173TIP3    H2  484   4.498   1.734   5.174
  174TIP3   OH2  485   5.151   5.065   0.881
  174TIP3    H1  486   5.058   5.075   0.858
  174TIP3    H2  487   5.184   5.154   0.887
  175TIP3   OH2  488   5.418   3.447   4.990
  175TIP3    H1  489   5.378   3.533   4.974
  175TIP3    H2  490   5.486   3.439   4.924
  176TIP3   OH2  491   6.293   6.623   1.438
  176TIP3    H1  492   6.212   6.600   1.484
  176TIP3    H2  493   6.317   6.709   1.474
  177TIP3   OH2  494   5.782   1.857   2.892
  177TIP3    H1  495   5.712   1.921   2.910
  177TIP3    H2  496   5.776   1.795   2.964
  178TIP3   OH2  497   5.754   3.882   5.251
  178TIP3    H1  498   5.764   3.857   5.342
  178TIP3    H2  499   5.669   3.848   5.225
  179TIP3   OH2  500   6.612   1.772   1.336
  179TIP3    H1  501   6.665   1.793   1.413
  179TIP3    H2  502   6.613   1.676   1.333
  180TIP3   OH2  503   4.251   4.695   5.375
  180TIP3    H1  504   4.179   4.632   5.388
  180TIP3    H2  505   4.223   4.747   5.299
  181TIP3   OH2  506   3.176   3.985   5.545
  181TIP3    H1  507   3.227   4.047   5.598
  181TIP3    H2  508   3.090   4.025   5.538
  182TIP3   OH2  509   5.790   6.451   2.220
  182TIP3    H1  510   5.710   6.497   2.195
  182TIP3    H2  511   5.838   6.514   2.275
  183TIP3   OH2  512   4.186   1.641   2.490
  183TIP3    H1  513   4.200   1.594   2.573
  183TIP3    H2  514   4.178   1.571   2.425
  184TIP3   OH2  515   6.183   0.371   0.152
  184TIP3    H1  516   6.166   0.375   0.058
  184TIP3    H2  517   6.263   0.319   0.160
  185TIP3   OH2  518   0.379   2.598   4.020
  185TIP3    H1  519   0.459   2.549   4.040
  185TIP3    H2  520   0.363   2.651   4.098
  186TIP3   OH2  521   2.929   1.769   1.751
  186TIP3    H1  522   2.880   1.691   1.726
  186TIP3    H2  523   2.981   1.790   1.674
  187TIP3   OH2  524   3.722   2.249   2.189
  187TIP3    H1  525   3.655   2.316   2.189
  187TIP3    H2  526   3.721   2.213   2.278
  188TIP3   OH2  527   5.153   0.108   4.792
  188TIP3    H1  528   5.087   0.113   4.861
  188TIP3    H2  529   5.162   0.198   4.761
  189TIP3   OH2  530   2.622   2.151   1.495
  189TIP3    H1  531   2.667   2.191   1.421
  189TIP3    H2  532   2.665   2.066   1.507
  190TIP3   OH2  533   0.725   0.111   4.047
  190TIP3    H1  534   0.669   0.188   4.038
  190TIP3    H2  535   0.746   0.108   4.141
  191TIP3   OH2  536   1.910   6.427   0.291
  191TIP3    H1  537   1.978   6.378   0.337
  191TIP3    H2  538   1.850   6.360   0.259
  192TIP3   OH2  539   3.901   1.097   0.457
  192TIP3    H1  540   3.993   1.072   0.461
  192TIP3    H2  541   3.861   1.034   0.398
  193TIP3   OH2  542   1.405   2.543   3.776
  193TIP3    H1  543   1.359   2.599   3.713
  193TIP3    H2  544   1.335   2.496   3.822
  194TIP3   OH2  545   3.628   4.607   3.628
  194TIP3    H1  546   3.658   4.575   3.714
  194TIP3    H2  547   3.661   4.542   3.566
  195TIP3   OH2  548   5.961   0.037   0.160
  195TIP3    H1  549   5.961   0.023   0.065
  195TIP3    H2  550   5.946  -0.050   0.197
  196TIP3   OH2  551   2.889   2.155   5.815
  196TIP3    H1  552   2.983   2.157   5.833
  196TIP3    H2  553   2.850   2.125   5.897
  197TIP3   OH2  554   0.473   6.492   1.548
  197TIP3    H1  555   0.561   6.513   1.580
  197TIP3    H2  556   0.415   6.516   1.620
  198TIP3   OH2  557   5.841   2.954   5.447
  198TIP3    H1  558   5.764   2.954   5.391
  198TIP3    H2  559   5.907   2.907   5.396
  199TIP3   OH2  560   2.999   2.680   2.912
  199TIP3    H1  561   2.960   2.668   2.825
  199TIP3    H2  562   3.053   2.758   2.903
  200TIP3   OH2  563   7.004   6.142   2.765
  200TIP3    H1  564   6.943   6.130   2.692
  200TIP3    H2  565   7.030   6.052   2.789
  201TIP3   OH2  566   6.449   2.617   2.659
  201TIP3    H1  567   6.523   2.669   2.628
  201TIP3    H2  568   6.390   2.681   2.699
  202TIP3   OH2  569   2.996   5.392   3.316
  202TIP3    H1  570   2.954   5.392   3.230
  202TIP3    H2  571   2.924   5.405   3.378
  203TIP3   OH2  572   1.653   5.244   3.701
  203TIP3    H1  573   1.635   5.327   3.657
  203TIP3    H2  574   1.613   5.255   3.788
  204TIP3   OH2  575   1.678   2.790   2.974
  204TIP3    H1  576   1.722   2.831   2.899
  204TIP3    H2  577   1.739   2.721   3.002
  205TIP3   OH2  578   1.415   3.446   5.624
  205TIP3    H1  579   1.475   3.489   5.686
  205TIP3    H2  580   1.464   3.370   5.592
  206TIP3   OH2  581   1.072   2.504   5.507
  206TIP3    H1  582   1.053   2.521   5.415
  206TIP3    H2  583   1.154   2.550   5.524
  207TIP3   OH2  584   7.155   2.656   3.298
  207TIP3    H1  585   7.154   2.672   3.203
  207TIP3    H2  586   7.217   2.721   3.332
  208TIP3   OH2  587   1.707   2.159   2.764
  208TIP3    H1  588   1.685   2.093   2.830
  208TIP3    H2  589   1.670   2.240   2.799
  209TIP3   OH2  590   3.504   3.177   0.741
  209TIP3    H1  591   3.571   3.159   0.675
  209TIP3    H2  592   3.474   3.091   0.770
  210TIP3   OH2  593   5.210   0.640   5.092
  210TIP3    H1  594   5.236   0.548   5.089
  210TIP3    H2  595   5.263   0.678   5.162
  211TIP3   OH2  596   6.546   3.909   0.891
  211TIP3    H1  597   6.637   3.939   0.890
  211TIP3    H2  598   6.502   3.971   0.950
  212TIP3   OH2  599   4.151   4.455   4.098
  212TIP3    H1  600   4.150   4.547   4.126
  212TIP3    H2  601   4.066   4.442   4.056
  213TIP3   OH2  602   3.325   6.096   1.806
  213TIP3    H1  603   3.238   6.072   1.837
  213TIP3    H2  604   3.363   6.149   1.877
  214TIP3   OH2  605   3.875   0.427   1.975
  214TIP3    H1  606   3.916   0.354   1.929
  214TIP3    H2  607   3.949   0.479   2.007
  215TIP3   OH2  608   5.917   3.089   1.998
  215TIP3    H1  609   5.982   3.083   2.068
  215TIP3    H2  610   5.900   3.183   1.989
  216TIP3   OH2  611   5.597   0.843   5.779
  216TIP3    H1  612   5.616   0.923   5.828
  216TIP3    H2  613   5.684   0.805   5.761
  217TIP3   OH2  614   0.207   6.494   0.082
  217TIP3    H1  615   0.121   6.536   0.085
  217TIP3    H2  616   0.255   6.543   0.015
  218TIP3   OH2  617   3.330   6.164   0.361
  218TIP3    H1  618   3.330   6.102   0.433
  218TIP3    H2  619   3.292   6.244   0.398
  219TIP3   OH2  620   7.170   3.595   4.649
  219TIP3    H1  621   7.244   3.544   4.616
  219TIP3    H2  622   7.193   3.615   4.740
  220TIP3   OH2  623   0.183   6.215   1.624
  220TIP3    H1  624   0.160   6.126   1.598
  220TIP3    H2  625   0.131   6.231   1.703
  221TIP3   OH2  626   3.092   0.126   0.366
  221TIP3    H1  627   3.169   0.164   0.408
  221TIP3    H2  628   3.084   0.174   0.284
  222TIP3   OH2  629   5.916   1.636   2.396
  222TIP3    H1  630   5.839   1.617   2.341
  222TIP3    H2  631   5.883   1.698   2.461
  223TIP3   OH2  632   1.528   1.708   0.208
  223TIP3    H1  633   1.592   1.731   0.275
  223TIP3    H2  634   1.558   1.624   0.174
  224TIP3   OH2  635   6.837   4.369   2.714
  224TIP3    H1  636   6.863   4.459   2.730
  224TIP3    H2  637   6.770   4.351   2.780
  225TIP3   OH2  638   1.174   0.565   1.697
  225TIP3    H1  639   1.116   0.596   1.766
  225TIP3    H2  640   1.144   0.476   1.678
  226TIP3   OH2  641   3.490   3.138   2.524
  226TIP3    H1  642   3.417   3.199   2.538
  226TIP3    H2  643   3.511   3.146   2.431
  227TIP3   OH2  644   2.171   0.143   5.352
  227TIP3    H1  645   2.112   0.181   5.288
  227TIP3    H2  646   2.113   0.113   5.423
  228TIP3   OH2  647   4.771   5.047   4.269
  228TIP3    H1  648   4.717   5.090   4.203
  228TIP3    H2  649   4.858   5.085   4.258
  229TIP3   OH2  650   2.420   5.172   0.250
  229TIP3    H1  651   2.358   5.212   0.188
  229TIP3    H2  652   2.479   5.122   0.195
  230TIP3   OH2  653   5.623   2.232   3.221
  230TIP3    H1  654   5.645   2.317   3.259
  230TIP3    H2  655   5.626   2.247   3.126
  231TIP3   OH2  656   3.872   2.122   3.464
  231TIP3    H1  657   3.967   2.131   3.462
  231TIP3    H2  658   3.840   2.212   3.467
  232TIP3   OH2  659   4.393   2.380   5.735
  232TIP3    H1  660   4.360   2.334   5.657
  232TIP3    H2  661   4.343   2.461   5.738
  233TIP3   OH2  662   2.776   0.039   4.911
  233TIP3    H1  663   2.796  -0.041   4.863
  233TIP3    H2  664   2.767   0.011   5.002
  234TIP3   OH2  665   4.624   3.067   0.118
  234TIP3    H1  666   4.602   3.045   0.208
  234TIP3    H2  667   4.645   2.983   0.077
  235TIP3   OH2  668   4.211   4.534   0.853
  235TIP3    H1  669   4.237   4.444   0.873
  235TIP3    H2  670   4.119   4.538   0.879
  236TIP3   OH2  671   3.710   4.745   4.057
  236TIP3    H1  672   3.740   4.816   4.001
  236TIP3    H2  673   3.660   4.688   3.998
  237TIP3   OH2  674   0.112   3.032   2.575
  237TIP3    H1  675   0.178   3.031   2.644
  237TIP3    H2  676   0.110   2.943   2.541
  238TIP3   OH2  677   1.610   3.147   2.693
  238TIP3    H1  678   1.583   3.239   2.696
  238TIP3    H2  679   1.645   3.130   2.780
  239TIP3   OH2  680   6.136   5.759   5.459
  239TIP3    H1  681   6.151   5.671   5.492
  239TIP3    H2  682   6.166   5.816   5.530
  240TIP3   OH2  683   6.082   5.374   0.860
  240TIP3    H1  684   5.999   5.394   0.816
  240TIP3    H2  685   6.082   5.279   0.869
  241TIP3   OH2  686   4.622   1.417   2.772
  241TIP3    H1  687   4.534   1.385   2.753
  241TIP3    H2  688   4.663   1.347   2.823
  242TIP3   OH2  689   4.337   3.737   2.754
  242TIP3    H1  690   4.247   3.708   2.737
  242TIP3    H2  691   4.342   3.743   2.850
  243TIP3   OH2  692   5.498   0.137   0.854
  243TIP3    H1  693   5.415   0.108   0.815
  243TIP3    H2  694   5.503   0.230   0.834
  244TIP3   OH2  695   4.591   6.228   5.896
  244TIP3    H1  696   4.615   6.270   5.814
  244TIP3    H2  697   4.578   6.136   5.873
  245TIP3   OH2  698   4.913   5.516   3.854
  245TIP3    H1  699   4.871   5.591   3.896
  245TIP3    H2  700   4.942   5.549   3.770
  246TIP3   OH2  701   4.820   4.701   0.138
  246TIP3    H1  702   4.759   4.689   0.065
  246TIP3    H2  703   4.890   4.638   0.121
  247TIP3   OH2  704   0.869   4.932   4.329
  247TIP3    H1  705   0.821   4.990   4.388
  247TIP3    H2  706   0.900   4.861   4.384
  248TIP3   OH2  707   3.272   3.307   0.324
  248TIP3    H1  708   3.181   3.309   0.294
  248TIP3    H2  709   3.318   3.368   0.267
  249TIP3   OH2  710   1.037   4.001   4.832
  249TIP3    H1  711   0.992   3.931   4.783
  249TIP3    H2  712   1.001   3.994   4.920
  250TIP3   OH2  713   3.451   6.776   2.205
  250TIP3    H1  714   3.395   6.707   2.170
  250TIP3    H2  715   3.404   6.857   2.187
  251TIP3   OH2  716   6.453   2.212   4.052
  251TIP3    H1  717   6.453   2.307   4.049
  251TIP3    H2  718   6.393   2.185   3.983
  252TIP3   OH2  719   6.869   4.204   1.881
  252TIP3    H1  720   6.892   4.124   1.833
  252TIP3    H2  721   6.774   4.212   1.872
  253TIP3   OH2  722   6.011   1.408   0.727
  253TIP3    H1  723   6.058   1.355   0.662
  253TIP3    H2  724   5.919   1.391   0.709
  254TIP3   OH2  725   3.604   0.842   2.170
  254TIP3    H1  726   3.626   0.768   2.226
  254TIP3    H2  727   3.537   0.889   2.218
  255TIP3   OH2  728   7.037   1.658   0.730
  255TIP3    H1  729   6.959   1.604   0.715
  255TIP3    H2  730   7.053   1.649   0.824
  256TIP3   OH2  731   4.361   2.319   4.199
  256TIP3    H1  732   4.345   2.225   4.209
  256TIP3    H2  733   4.455   2.328   4.210
  257TIP3   OH2  734   2.687   3.901   5.400
  257TIP3    H1  735   2.675   3.908   5.494
  257TIP3    H2  736   2.671   3.808   5.381
  258TIP3   OH2  737   0.557   4.386   5.142
  258TIP3    H1  738   0.493   4.333   5.094
  258TIP3    H2  739   0.504   4.446   5.194
  259TIP3   OH2  740   3.334   2.512   3.823
  259TIP3    H1  741   3.377   2.427   3.819
  259TIP3    H2  742   3.387   2.563   3.884
  260TIP3   OH2  743   4.741   0.452   0.061
  260TIP3    H1  744   4.799   0.504   0.115
  260TIP3    H2  745   4.761   0.478  -0.029
  261TIP3   OH2  746   5.694   5.446   5.186
  261TIP3    H1  747   5.640   5.402   5.120
  261TIP3    H2  748   5.708   5.380   5.254
  262TIP3   OH2  749   0.422   3.215   1.181
  262TIP3    H1  750   0.414   3.305   1.150
  262TIP3    H2  751   0.345   3.170   1.146
  263TIP3   OH2  752   2.839   0.356   4.313
  263TIP3    H1  753   2.848   0.449   4.294
  263TIP3    H2  754   2.769   0.351   4.378
  264TIP3   OH2  755   3.520   3.712  -0.027
  264TIP3    H1  756   3.520   3.776   0.044
  264TIP3    H2  757   3.581   3.644   0.000
  265TIP3   OH2  758   1.407   0.903   5.649
  265TIP3    H1  759   1.367   0.988   5.631
  265TIP3    H2  760   1.412   0.899   5.744
  266TIP3   OH2  761   4.711   2.810   4.659
  266TIP3    H1  762   4.632   2.780   4.614
  266TIP3    H2  763   4.679   2.848   4.741
  267TIP3   OH2  764   2.574   4.558   1.650
  267TIP3    H1  765   2.604   4.633   1.599
  267TIP3    H2  766   2.639   4.490   1.634
  268TIP3   OH2  767   6.746   0.370   3.943
  268TIP3    H1  768   6.823   0.327   3.905
  268TIP3    H2  769   6.688   0.383   3.868
  269TIP3   OH2  770   1.920   5.004   4.220
  269TIP3    H1  771   1.935   4.911   4.239
  269TIP3    H2  772   1.856   5.003   4.148
  270TIP3   OH2  773   4.088   3.492   1.973
  270TIP3    H1  774   4.140   3.526   1.901
  270TIP3    H2  775   4.070   3.568   2.028
  271TIP3   OH2  776   4.168   2.257   4.615
  271TIP3    H1  777   4.143   2.309   4.538
  271TIP3    H2  778   4.094   2.197   4.627
  272TIP3   OH2  779   2.171   1.671   0.495
  272TIP3    H1  780   2.186   1.684   0.402
  272TIP3    H2  781   2.180   1.576   0.508
  273TIP3   OH2  782   2.485   0.495   1.164
  273TIP3    H1  783   2.474   0.404   1.136
  273TIP3    H2  784   2.574   0.518   1.137
  274TIP3   OH2  785   3.861   5.178   2.306
  274TIP3    H1  786   3.922   5.106   2.288
  274TIP3    H2  787   3.863   5.231   2.226
  275TIP3   OH2  788   5.603   5.100   4.987
  275TIP3    H1  789   5.548   5.178   4.985
  275TIP3    H2  790   5.627   5.085   4.896
  276TIP3   OH2  791   3.926   4.219   5.710
  276TIP3    H1  792   3.877   4.138   5.722
  276TIP3    H2  793   3.987   4.201   5.638
  277TIP3   OH2  794   1.697   1.027   3.956
  277TIP3    H1  795   1.725   1.064   3.873
  277TIP3    H2  796   1.771   0.975   3.985
  278TIP3   OH2  797   1.591   1.446   0.182
  278TIP3    H1  798   1.624   1.389   0.112
  278TIP3    H2  799   1.497   1.430   0.183
  279TIP3   OH2  800   0.397   3.025   3.775
  279TIP3    H1  801   0.323   3.080   3.750
  279TIP3    H2  802   0.357   2.949   3.817
  280TIP3   OH2  803   1.521   1.659   1.211
  280TIP3    H1  804   1.608   1.642   1.248
  280TIP3    H2  805   1.510   1.754   1.220
  281TIP3   OH2  806   3.449   6.776   3.297
  281TIP3    H1  807   3.389   6.771   3.223
  281TIP3    H2  808   3.528   6.818   3.263
  282TIP3   OH2  809   6.599   3.497   4.450
  282TIP3    H1  810   6.622   3.562   4.517
  282TIP3    H2  811   6.568   3.549   4.376
  283TIP3   OH2  812   3.613   0.076   5.141
  283TIP3    H1  813   3.558   0.135   5.192
  283TIP3    H2  814   3.697   0.122   5.133
  284TIP3   OH2  815   4.038   1.806   3.243
  284TIP3    H1  816   3.970   1.785   3.307
  284TIP3    H2  817   4.071   1.892   3.271
  285TIP3   OH2  818   0.731   1.001   4.864
  285TIP3    H1  819   0.771   1.038   4.786
  285TIP3    H2  820   0.645   1.044   4.870
  286TIP3   OH2  821   7.149   2.671   4.449
  286TIP3    H1  822   7.216   2.703   4.510
  286TIP3    H2  823   7.182   2.585   4.422
  287TIP3   OH2  824   2.383   3.954   1.827
  287TIP3    H1  825   2.362   4.002   1.907
  287TIP3    H2  826   2.298   3.919   1.797
  288TIP3   OH2  827   0.463   3.868   5.627
  288TIP3    H1  828   0.516   3.872   5.707
  288TIP3    H2  829   0.431   3.778   5.624
  289TIP3   OH2  830   0.427   6.340   2.696
  289TIP3    H1  831   0.480   6.271   2.737
  289TIP3    H2  832   0.410   6.403   2.766
  290TIP3   OH2  833   5.942   6.053   5.205
  290TIP3    H1  834   5.853   6.051   5.170
  290TIP3    H2  835   5.946   6.135   5.255
  291TIP3   OH2  836   6.872   3.587   3.563
  291TIP3    H1  837   6.866   3.519   3.629
  291TIP3    H2  838   6.888   3.668   3.612
  292TIP3   OH2  839   5.635   5.799   2.899
  292TIP3    H1  840   5.580   5.832   2.828
  292TIP3    H2  841   5.609   5.708   2.910
  293TIP3   OH2  842   1.021   2.476   3.419
  293TIP3    H1  843   1.061   2.448   3.502
  293TIP3    H2  844   0.929   2.450   3.427
  294TIP3   OH2  845   4.510   0.961   4.793
  294TIP3    H1  846   4.596   0.997   4.815
  294TIP3    H2  847   4.464   1.032   4.750
  295TIP3   OH2  848   3.260   5.399   2.792
  295TIP3    H1  849   3.273   5.357   2.707
  295TIP3    H2  850   3.331   5.365   2.847
  296TIP3   OH2  851   3.341   3.171   4.473
  296TIP3    H1  852   3.409   3.231   4.442
  296TIP3    H2  853   3.269   3.228   4.498
  297TIP3   OH2  854   4.276   4.991   1.054
  297TIP3    H1  855   4.270   4.933   0.977
  297TIP3    H2  856   4.370   4.997   1.071
  298TIP3   OH2  857   1.952   3.246   2.152
  298TIP3    H1  858   2.016   3.243   2.223
  298TIP3    H2  859   1.872   3.211   2.191
  299TIP3   OH2  860   4.730   0.199   5.250
  299TIP3    H1  861   4.752   0.189   5.343
  299TIP3    H2  862   4.805   0.161   5.204
  300TIP3   OH2  863   2.165   6.293   5.114
  300TIP3    H1  864   2.193   6.211   5.074
  300TIP3    H2  865   2.159   6.274   5.207
  301TIP3   OH2  866   3.396   0.811   3.201
  301TIP3    H1  867   3.466   0.809   3.136
  301TIP3    H2  868   3.319   0.840   3.152
  302TIP3   OH2  869   3.183   3.682   5.037
  302TIP3    H1  870   3.156   3.630   4.960
  302TIP3    H2  871   3.195   3.770   5.003
  303TIP3   OH2  872   4.903   2.866   2.472
  303TIP3    H1  873   4.821   2.865   2.423
  303TIP3    H2  874   4.970   2.886   2.407
  304TIP3   OH2  875   2.175   3.794   4.253
  304TIP3    H1  876   2.079   3.798   4.260
  304TIP3    H2  877   2.195   3.835   4.168
  305TIP3   OH2  878   4.024   2.575   4.600
  305TIP3    H1  879   3.959   2.513   4.631
  305TIP3    H2  880   3.974   2.648   4.566
  306TIP3   OH2  881   1.145   5.613   1.138
  306TIP3    H1  882   1.074   5.598   1.075
  306TIP3    H2  883   1.118   5.566   1.217
  307TIP3   OH2  884   1.312   0.294   0.430
  307TIP3    H1  885   1.233   0.240   0.426
  307TIP3    H2  886   1.377   0.245   0.380
  308TIP3   OH2  887   5.508   1.044   1.363
  308TIP3    H1  888   5.470   0.965   1.325
  308TIP3    H2  889   5.434   1.103   1.376
  309TIP3   OH2  890   6.780   2.498   4.446
  309TIP3    H1  891   6.712   2.544   4.495
  309TIP3    H2  892   6.797   2.419   4.497
  310TIP3   OH2  893   0.319   3.766   1.951
  310TIP3    H1  894   0.306   3.839   2.012
  310TIP3    H2  895   0.239   3.765   1.898
  311TIP3   OH2  896   2.913   0.189   5.771
  311TIP3    H1  897   2.970   0.140   5.713
  311TIP3    H2  898   2.958   0.189   5.856
  312TIP3   OH2  899   7.230   1.824   0.608
  312TIP3    H1  900   7.178   1.754   0.649
  312TIP3    H2  901   7.215   1.813   0.514
  313TIP3   OH2  902   1.566   1.180   3.616
  313TIP3    H1  903   1.513   1.106   3.644
  313TIP3    H2  904   1.504   1.242   3.579
  314TIP3   OH2  905   2.649   0.748   1.758
  314TIP3    H1  906   2.606   0.821   1.803
  314TIP3    H2  907   2.719   0.790   1.707
  315TIP3   OH2  908   5.377   1.628   3.394
  315TIP3    H1  909   5.378   1.534   3.410
  315TIP3    H2  910   5.337   1.637   3.307
  316TIP3   OH2  911   5.765   2.480   2.346
  316TIP3    H1  912   5.829   2.544   2.313
  316TIP3    H2  913   5.818   2.408   2.380
  317TIP3   OH2  914   2.166   1.344   3.528
  317TIP3    H1  915   2.116   1.290   3.588
  317TIP3    H2  916   2.121   1.429   3.529
  318TIP3   OH2  917   2.957   4.616   1.633
  318TIP3    H1  918   2.995   4.603   1.547
  318TIP3    H2  919   2.977   4.707   1.656
  319TIP3   OH2  920   2.350   4.055   2.080
  319TIP3    H1  921   2.288   4.067   2.152
  319TIP3    H2  922   2.389   4.141   2.068
  320TIP3   OH2  923   1.356   6.063   3.924
  320TIP3    H1  924   1.277   6.014   3.948
  320TIP3    H2  925   1.382   6.107   4.004
  321TIP3   OH2  926   2.673   1.850   2.476
  321TIP3    H1  927   2.690   1.943   2.492
  321TIP3    H2  928   2.580   1.847   2.453
  322TIP3   OH2  929   3.951   2.418   5.017
  322TIP3    H1  930   3.910   2.378   5.094
  322TIP3    H2  931   3.928   2.511   5.023
  323TIP3   OH2  932   3.318   5.105   4.559
  323TIP3    H1  933   3.277   5.018   4.556
  323TIP3    H2  934   3.326   5.130   4.466
  324TIP3   OH2  935   4.013   1.163   3.293
  324TIP3    H1  936   3.964   1.092   3.335
  324TIP3    H2  937   3.977   1.243   3.330
  325TIP3   OH2  938   0.788   1.277   1.048
  325TIP3    H1  939   0.822   1.328   0.974
  325TIP3    H2  940   0.804   1.186   1.024
  326TIP3   OH2  941   2.722   0.565   5.154
  326TIP3    H1  942   2.811   0.543   5.128
  326TIP3    H2  943   2.731   0.601   5.243
  327TIP3   OH2  944   4.749   6.456   2.752
  327TIP3    H1  945   4.742   6.473   2.846
  327TIP3    H2  946   4.661   6.430   2.725
  328TIP3   OH2  947   2.611   5.892   4.965
  328TIP3    H1  948   2.569   5.810   4.993
  328TIP3    H2  949   2.608   5.948   5.043
  329TIP3   OH2  950   5.281   2.532   4.989
  329TIP3    H1  951   5.338   2.608   4.992
  329TIP3    H2  952   5.294   2.488   5.073
  330TIP3   OH2  953   4.981   6.480   1.409
  330TIP3    H1  954   5.017   6.399   1.444
  330TIP3    H2  955   4.886   6.466   1.408
  331TIP3   OH2  956   1.108   4.194   0.029
  331TIP3    H1  957   1.132   4.179  -0.062
  331TIP3    H2  958   1.191   4.207   0.074
  332TIP3   OH2  959   3.146   1.835   4.293
  332TIP3    H1  960   3.102   1.868   4.214
  332TIP3    H2  961   3.077   1.794   4.344
  333TIP3   OH2  962   2.867   1.927   0.070
  333TIP3    H1  963   2.801   1.867   0.106
  333TIP3    H2  964   2.884   1.990   0.141
  334TIP3   OH2  965   6.726   3.700   2.337
  334TIP3    H1  966   6.690   3.643   2.270
  334TIP3    H2  967   6.814   3.666   2.353
  335TIP3   OH2  968   1.518   5.048   3.255
  335TIP3    H1  969   1.568   5.058   3.174
  335TIP3    H2  970   1.515   4.954   3.270
  336TIP3   OH2  971   6.955   1.971   2.919
  336TIP3    H1  972   6.980   1.939   3.006
  336TIP3    H2  973   6.874   2.021   2.935
  337TIP3   OH2  974   3.094   0.369   4.457
  337TIP3    H1  975   3.103   0.456   4.418
  337TIP3    H2  976   3.015   0.333   4.416
  338TIP3   OH2  977   6.143   5.759   4.996
  338TIP3    H1  978   6.083   5.740   5.068
  338TIP3    H2  979   6.177   5.846   5.015
  339TIP3   OH2  980   0.996   0.839   4.650
  339TIP3    H1  981   0.917   0.883   4.617
  339TIP3    H2  982   0.983   0.835   4.745
  340TIP3   OH2  983   2.466   4.223   4.446
  340TIP3    H1  984   2.443   4.130   4.447
  340TIP3    H2  985   2.561   4.224   4.433
  341TIP3   OH2  986   3.593   4.923   2.774
  341TIP3    H1  987   3.641   4.955   2.698
  341TIP3    H2  988   3.516   4.880   2.738
  342TIP3   OH2  989   0.890   4.919   0.397
  342TIP3    H1  990   0.889   4.824   0.388
  342TIP3    H2  991   0.860   4.936   0.486
  343TIP3   OH2  992   0.160   4.851   5.264
  343TIP3    H1  993   0.091   4.786   5.273
  343TIP3    H2  994   0.220   4.813   5.200
  344TIP3   OH2  995   6.633   4.414   3.440
  344TIP3    H1  996   6.649   4.353   3.512
  344TIP3    H2  997   6.572   4.478   3.477
  345TIP3   OH2  998   6.023   3.841   3.919
  345TIP3    H1  999   6.005   3.747   3.914
  345TIP3    H2 1000   5.991   3.868   4.005
  346TIP3   OH2 1001   3.477   3.951   3.210
  346TIP3    H1 1002   3.413   4.001   3.160
  346TIP3    H2 1003   3.529   3.905   3.144
  347TIP3   OH2 1004   5.279   5.124   2.703
  347TIP3    H1 1005   5.232   5.205   2.686
  347TIP3    H2 1006   5.240   5.060   2.644
  348TIP3   OH2 1007   3.266   6.101   5.306
  348TIP3    H1 1008   3.263   6.005   5.298
  348TIP3    H2 1009   3.292   6.116   5.397
  349TIP3   OH2 1010   4.548   1.876   3.769
  349TIP3    H1 1011   4.575   1.861   3.679
  349TIP3    H2 1012   4.453   1.866   3.767
  350TIP3   OH2 1013   5.916   2.080   1.785
  350TIP3    H1 1014   5.859   2.004   1.794
  350TIP3    H2 1015   5.860   2.146   1.744
  351TIP3   OH2 1016   5.616   5.055   2.377
  351TIP3    H1 1017   5.688   5.097   2.329
  351TIP3    H2 1018   5.570   5.128   2.420
  352TIP3   OH2 1019   4.334   0.808   2.004
  352TIP3    H1 1020   4.344   0.713   2.003
  352TIP3    H2 1021   4.370   0.835   2.089
  353TIP3   OH2 1022   4.777   5.167   5.165
  353TIP3    H1 1023   4.830   5.227   5.112
  353TIP3    H2 1024   4.835   5.140   5.236
  354TIP3   OH2 1025   0.309   3.363   0.581
  354TIP3    H1 1026   0.228   3.355   0.631
  354TIP3    H2 1027   0.295   3.439   0.524
  355TIP3   OH2 1028   3.899   2.101   3.144
  355TIP3    H1 1029   3.827   2.163   3.142
  355TIP3    H2 1030   3.859   2.017   3.119
  356TIP3   OH2 1031   4.356   1.291   2.763
  356TIP3    H1 1032   4.325   1.213   2.717
  356TIP3    H2 1033   4.402   1.256   2.840
  357TIP3   OH2 1034   4.017   0.939   5.481
  357TIP3    H1 1035   4.055   0.929   5.569
  357TIP3    H2 1036   3.981   0.852   5.461
  358TIP3   OH2 1037   2.583   1.926   3.176
  358TIP3    H1 1038   2.650   1.860   3.163
  358TIP3    H2 1039   2.544   1.905   3.261
  359TIP3   OH2 1040   3.173   5.403   3.104
  359TIP3    H1 1041   3.099   5.376   3.159
  359TIP3    H2 1042   3.141   5.393   3.014
  360TIP3   OH2 1043   1.732   5.276   3.378
  360TIP3    H1 1044   1.693   5.234   3.301
  360TIP3    H2 1045   1.656   5.303   3.431
  361TIP3   OH2 1046   0.313   5.133   1.768
  361TIP3    H1 1047   0.272   5.156   1.685
  361TIP3    H2 1048   0.407   5.142   1.753
  362TIP3   OH2 1049   0.288   3.053   2.304
  362TIP3    H1 1050   0.333   3.036   2.387
  362TIP3    H2 1051   0.199   3.079   2.329
  363TIP3   OH2 1052   6.531   2.408   3.318
  363TIP3    H1 1053   6.541   2.393   3.224
  363TIP3    H2 1054   6.436   2.410   3.332
  364TIP3   OH2 1055   6.361   4.893   1.133
  364TIP3    H1 1056   6.440   4.861   1.089
  364TIP3    H2 1057   6.392   4.968   1.185
  365TIP3   OH2 1058   5.413   1.602   4.219
  365TIP3    H1 1059   5.377   1.579   4.305
  365TIP3    H2 1060   5.406   1.697   4.215
  366TIP3   OH2 1061   4.720   3.120   3.336
  366TIP3    H1 1062   4.724   3.201   3.387
  366TIP3    H2 1063   4.739   3.146   3.246
  367TIP3   OH2 1064   5.946   4.684   1.130
  367TIP3    H1 1065   5.905   4.760   1.090
  367TIP3    H2 1066   5.879   4.616   1.125
  368TIP3   OH2 1067   1.911   2.275   2.119
  368TIP3    H1 1068   1.891   2.356   2.073
  368TIP3    H2 1069   1.896   2.206   2.054
  369TIP3   OH2 1070   5.838   3.507   0.283
  369TIP3    H1 1071   5.883   3.434   0.325
  369TIP3    H2 1072   5.833   3.575   0.350
  370TIP3   OH2 1073   0.604   6.065   1.115
  370TIP3    H1 1074   0.688   6.067   1.161
  370TIP3    H2 1075   0.626   6.090   1.025
  371TIP3   OH2 1076   1.579   5.254   1.460
  371TIP3    H1 1077   1.650   5.205   1.502
  371TIP3    H2 1078   1.565   5.329   1.518
  372TIP3   OH2 1079   5.553   6.329   0.821
  372TIP3    H1 1080   5.526   6.411   0.862
  372TIP3    H2 1081   5.645   6.317   0.848
  373TIP3   OH2 1082   5.288   2.569   4.189
  373TIP3    H1 1083   5.200   2.579   4.153
  373TIP3    H2 1084   5.280   2.594   4.281
  374TIP3   OH2 1085   2.079   0.528   1.429
  374TIP3    H1 1086   2.126   0.554   1.350
  374TIP3    H2 1087   2.057   0.436   1.415
  375TIP3   OH2 1088   1.879   5.117   4.464
  375TIP3    H1 1089   1.890   5.212   4.458
  375TIP3    H2 1090   1.897   5.085   4.375
  376TIP3   OH2 1091   4.132   5.666   4.763
  376TIP3    H1 1092   4.224   5.670   4.788
  376TIP3    H2 1093   4.096   5.750   4.789
  377TIP3   OH2 1094   2.818   0.037   4.613
  377TIP3    H1 1095   2.733   0.005   4.582
  377TIP3    H2 1096   2.797   0.093   4.687
  378TIP3   OH2 1097   5.967   6.367   3.287
  378TIP3    H1 1098   6.008   6.290   3.328
  378TIP3    H2 1099   5.947   6.425   3.361
  379TIP3   OH2 1100   5.059   4.252   0.732
  379TIP3    H1 1101   5.085   4.194   0.660
  379TIP3    H2 1102   5.056   4.194   0.808
  380TIP3   OH2 1103   5.490   4.383   5.583
  380TIP3    H1 1104   5.509   4.324   5.511
  380TIP3    H2 1105   5.401   4.361   5.611
  381TIP3   OH2 1106   0.104   3.839   0.497
  381TIP3    H1 1107   0.195   3.857   0.520
  381TIP3    H2 1108   0.110   3.769   0.432
  382TIP3   OH2 1109   5.508   6.544   4.910
  382TIP3    H1 1110   5.598   6.567   4.932
  382TIP3    H2 1111   5.462   6.628   4.905
  383TIP3   OH2 1112   2.691   6.414   0.586
  383TIP3    H1 1113   2.772   6.363   0.581
  383TIP3    H2 1114   2.714   6.499   0.548
  384TIP3   OH2 1115   3.004   4.450   5.027
  384TIP3    H1 1116   3.099   4.462   5.028
  384TIP3    H2 1117   2.970   4.523   5.079
  385TIP3   OH2 1118   5.344   3.557   1.309
  385TIP3    H1 1119   5.413   3.535   1.371
  385TIP3    H2 1120   5.332   3.477   1.258
  386TIP3   OH2 1121   1.966   4.619   3.740
  386TIP3    H1 1122   2.062   4.617   3.734
  386TIP3    H2 1123   1.947   4.702   3.784
  387TIP3   OH2 1124   3.570   0.795   2.997
  387TIP3    H1 1125   3.617   0.722   2.956
  387TIP3    H2 1126   3.636   0.864   3.005
  388TIP3   OH2 1127   2.949   0.952   1.366
  388TIP3    H1 1128   2.967   1.043   1.391
  388TIP3    H2 1129   3.008   0.936   1.292
  389TIP3   OH2 1130   0.178   2.013   4.269
  389TIP3    H1 1131   0.127   1.960   4.208
  389TIP3    H2 1132   0.269   1.997   4.245
  390TIP3   OH2 1133   1.446   5.374   4.947
  390TIP3    H1 1134   1.420   5.458   4.909
  390TIP3    H2 1135   1.378   5.313   4.919
  391TIP3   OH2 1136   0.233   2.466   2.452
  391TIP3    H1 1137   0.181   2.447   2.374
  391TIP3    H2 1138   0.242   2.561   2.451
  392TIP3   OH2 1139   6.675   6.368   5.501
  392TIP3    H1 1140   6.761   6.368   5.542
  392TIP3    H2 1141   6.688   6.411   5.417
  393TIP3   OH2 1142   6.729   4.082   2.829
  393TIP3    H1 1143   6.679   4.151   2.874
  393TIP3    H2 1144   6.667   4.045   2.767
  394TIP3   OH2 1145   0.871   4.010   3.938
  394TIP3    H1 1146   0.784   4.027   3.974
  394TIP3    H2 1147   0.861   4.026   3.844
  395TIP3   OH2 1148   6.419   2.931   5.872
  395TIP3    H1 1149   6.448   2.846   5.840
  395TIP3    H2 1150   6.484   2.993   5.838
  396TIP3   OH2 1151   2.691   0.169   4.189
  396TIP3    H1 1152   2.761   0.223   4.226
  396TIP3    H2 1153   2.736   0.102   4.138
  397TIP3   OH2 1154   5.846   1.486   1.881
  397TIP3    H1 1155   5.779   1.509   1.945
  397TIP3    H2 1156   5.916   1.550   1.894
  398TIP3   OH2 1157   5.704   3.195   4.587
  398TIP3    H1 1158   5.635   3.249   4.625
  398TIP3    H2 1159   5.716   3.231   4.498
  399TIP3   OH2 1160   2.997   5.918   4.236
  399TIP3    H1 1161   3.026   5.891   4.149
  399TIP3    H2 1162   3.010   6.013   4.236
  400TIP3   OH2 1163   1.720   2.741   5.822
  400TIP3    H1 1164   1.783   2.808   5.850
  400TIP3    H2 1165   1.732   2.671   5.886
  401TIP3   OH2 1166   6.553   3.350   4.183
  401TIP3    H1 1167   6.537   3.348   4.089
  401TIP3    H2 1168   6.617   3.420   4.196
  402TIP3   OH2 1169   2.148   6.660   4.513
  402TIP3    H1 1170   2.221   6.611   4.551
  402TIP3    H2 1171   2.144   6.630   4.422
  403TIP3   OH2 1172   6.494   4.238   5.240
  403TIP3    H1 1173   6.470   4.269   5.153
  403TIP3    H2 1174   6.555   4.166   5.223
  404TIP3   OH2 1175   6.658   4.793   2.762
  404TIP3    H1 1176   6.586   4.777   2.701
  404TIP3    H2 1177   6.632   4.872   2.809
  405TIP3   OH2 1178   4.196   4.049   5.725
  405TIP3    H1 1179   4.205   4.145   5.726
  405TIP3    H2 1180   4.124   4.031   5.785
  406TIP3   OH2 1181   1.788   1.989   3.352
  406TIP3    H1 1182   1.813   1.913   3.404
  406TIP3    H2 1183   1.774   2.059   3.416
  407TIP3   OH2 1184   6.570   3.485   1.973
  407TIP3    H1 1185   6.536   3.565   2.014
  407TIP3    H2 1186   6.653   3.512   1.933
  408TIP3   OH2 1187   3.311   4.615   1.650
  408TIP3    H1 1188   3.307   4.708   1.673
  408TIP3    H2 1189   3.241   4.603   1.586
  409TIP3   OH2 1190   1.451   1.165   0.044
  409TIP3    H1 1191   1.368   1.150  -0.002
  409TIP3    H2 1192   1.491   1.078   0.050
  410TIP3   OH2 1193   2.703   4.329   1.560
  410TIP3    H1 1194   2.735   4.353   1.473
  410TIP3    H2 1195   2.668   4.241   1.550
  411TIP3   OH2 1196   7.011   2.376   5.652
  411TIP3    H1 1197   7.000   2.361   5.746
  411TIP3    H2 1198   6.940   2.436   5.628
  412TIP3   OH2 1199   4.396   0.266   4.458
  412TIP3    H1 1200   4.465   0.240   4.518
  412TIP3    H2 1201   4.358   0.184   4.427
  413TIP3   OH2 1202   2.593   5.852   0.754
  413TIP3    H1 1203   2.656   5.914   0.790
  413TIP3    H2 1204   2.528   5.841   0.823
  414TIP3   OH2 1205   5.273   4.605   1.431
  414TIP3    H1 1206   5.367   4.622   1.428
  414TIP3    H2 1207   5.254   4.557   1.350
  415TIP3   OH2 1208   1.294   3.541   2.853
  415TIP3    H1 1209   1.248   3.544   2.769
  415TIP3    H2 1210   1.253   3.609   2.906
  416TIP3   OH2 1211   2.638   3.869   1.380
  416TIP3    H1 1212   2.692   3.945   1.357
  416TIP3    H2 1213   2.601   3.840   1.297
  417TIP3   OH2 1214   6.915   2.886   4.023
  417TIP3    H1 1215   6.837   2.895   4.078
  417TIP3    H2 1216   6.951   2.975   4.019
  418TIP3   OH2 1217   1.175   4.375   1.055
  418TIP3    H1 1218   1.160   4.470   1.060
  418TIP3    H2 1219   1.092   4.336   1.083
  419TIP3   OH2 1220   6.281   4.938   2.799
  419TIP3    H1 1221   6.336   4.883   2.744
  419TIP3    H2 1222   6.255   4.881   2.872
  420TIP3   OH2 1223   4.226   2.836   3.480
  420TIP3    H1 1224   4.140   2.826   3.521
  420TIP3    H2 1225   4.258   2.920   3.513
  421TIP3   OH2 1226   3.756   0.257   0.005
  421TIP3    H1 1227   3.707   0.205   0.069
  421TIP3    H2 1228   3.790   0.193  -0.058
  422TIP3   OH2 1229   0.855   0.558   3.276
  422TIP3    H1 1230   0.857   0.636   3.331
  422TIP3    H2 1231   0.948   0.538   3.261
  423TIP3   OH2 1232   4.812   3.428   0.045
  423TIP3    H1 1233   4.901   3.461   0.033
  423TIP3    H2 1234   4.810   3.392   0.133
  424TIP3   OH2 1235   1.852   4.368   3.806
  424TIP3    H1 1236   1.877   4.451   3.766
  424TIP3    H2 1237   1.922   4.348   3.868
  425TIP3   OH2 1238   0.540   4.612   4.101
  425TIP3    H1 1239   0.526   4.628   4.007
  425TIP3    H2 1240   0.563   4.698   4.136
  426TIP3   OH2 1241   1.765   0.034   0.397
  426TIP3    H1 1242   1.807   0.031   0.483
  426TIP3    H2 1243   1.748   0.126   0.382
  427TIP3   OH2 1244   1.260   6.563   1.907
  427TIP3    H1 1245   1.298   6.645   1.939
  427TIP3    H2 1246   1.170   6.585   1.882
  428TIP3   OH2 1247   5.621   0.065   5.040
  428TIP3    H1 1248   5.531   0.061   5.006
  428TIP3    H2 1249   5.658   0.144   4.999
  429TIP3   OH2 1250   1.868   2.640   5.427
  429TIP3    H1 1251   1.875   2.545   5.427
  429TIP3    H2 1252   1.834   2.662   5.340
  430TIP3   OH2 1253   1.203   5.052   5.119
  430TIP3    H1 1254   1.131   5.114   5.127
  430TIP3    H2 1255   1.186   4.986   5.186
  431TIP3   OH2 1256   6.475   5.739   3.171
  431TIP3    H1 1257   6.402   5.791   3.204
  431TIP3    H2 1258   6.526   5.717   3.248
  432TIP3   OH2 1259   4.750   6.475   5.188
  432TIP3    H1 1260   4.698   6.395   5.181
  432TIP3    H2 1261   4.833   6.454   5.147
  433TIP3   OH2 1262   6.185   2.963   3.960
  433TIP3    H1 1263   6.169   2.953   3.866
  433TIP3    H2 1264   6.277   2.986   3.967
  434TIP3   OH2 1265   1.783   0.343   3.077
  434TIP3    H1 1266   1.808   0.310   2.991
  434TIP3    H2 1267   1.712   0.286   3.105
  435TIP3   OH2 1268   1.251   4.147   4.711
  435TIP3    H1 1269   1.209   4.084   4.770
  435TIP3    H2 1270   1.193   4.149   4.634
  436TIP3   OH2 1271   1.014   6.797   4.201
  436TIP3    H1 1272   0.993   6.871   4.258
  436TIP3    H2 1273   0.992   6.719   4.252
  437TIP3   OH2 1274   3.967   0.131   5.878
  437TIP3    H1 1275   4.045   0.167   5.921
  437TIP3    H2 1276   3.981   0.148   5.785
  438TIP3   OH2 1277   3.562   1.748   1.399
  438TIP3    H1 1278   3.477   1.748   1.355
  438TIP3    H2 1279   3.613   1.681   1.353
  439TIP3   OH2 1280   4.150   6.289   0.919
  439TIP3    H1 1281   4.197   6.337   0.987
  439TIP3    H2 1282   4.090   6.354   0.882
  440TIP3   OH2 1283   6.907   6.633   0.259
  440TIP3    H1 1284   6.858   6.589   0.189
  440TIP3    H2 1285   6.923   6.563   0.323
  441TIP3   OH2 1286   1.683   6.127   3.857
  441TIP3    H1 1287   1.617   6.181   3.900
  441TIP3    H2 1288   1.762   6.182   3.856
  442TIP3   OH2 1289   5.627   1.736   4.001
  442TIP3    H1 1290   5.659   1.730   3.911
  442TIP3    H2 1291   5.555   1.799   3.996
  443TIP3   OH2 1292   4.287   1.234   4.465
  443TIP3    H1 1293   4.273   1.174   4.391
  443TIP3    H2 1294   4.224   1.304   4.451
  444TIP3   OH2 1295   2.089   2.776   3.652
  444TIP3    H1 1296   2.092   2.761   3.557
  444TIP3    H2 1297   2.046   2.698   3.686
  445TIP3   OH2 1298   2.260   1.007   2.790
  445TIP3    H1 1299   2.168   0.986   2.770
  445TIP3    H2 1300   2.295   1.037   2.706
  446TIP3   OH2 1301   6.080   1.637   3.597
  446TIP3    H1 1302   6.050   1.638   3.688
  446TIP3    H2 1303   6.174   1.655   3.603
  447TIP3   OH2 1304   6.794   6.161   3.469
  447TIP3    H1 1305   6.886   6.180   3.447
  447TIP3    H2 1306   6.757   6.126   3.389
  448TIP3   OH2 1307   0.901   5.029   3.833
  448TIP3    H1 1308   0.991   5.001   3.818
  448TIP3    H2 1309   0.862   5.032   3.745
  449TIP3   OH2 1310   3.175   6.548   3.317
  449TIP3    H1 1311   3.084   6.573   3.332
  449TIP3    H2 1312   3.182   6.537   3.222
  450TIP3   OH2 1313   4.403   5.274   4.007
  450TIP3    H1 1314   4.373   5.324   4.082
  450TIP3    H2 1315   4.475   5.220   4.041
  451TIP3   OH2 1316   6.981   4.678   0.636
  451TIP3    H1 1317   6.983   4.727   0.554
  451TIP3    H2 1318   6.888   4.659   0.651
  452TIP3   OH2 1319   3.404   5.631   4.116
  452TIP3    H1 1320   3.499   5.619   4.117
  452TIP3    H2 1321   3.390   5.712   4.164
  453TIP3   OH2 1322   3.144   2.027   2.030
  453TIP3    H1 1323   3.115   2.108   2.071
  453TIP3    H2 1324   3.200   1.985   2.095
  454TIP3   OH2 1325   0.071   0.144   5.524
  454TIP3    H1 1326   0.153   0.184   5.552
  454TIP3    H2 1327   0.088   0.050   5.529
  455TIP3   OH2 1328   6.452   4.502   3.072
  455TIP3    H1 1329   6.424   4.414   3.097
  455TIP3    H2 1330   6.444   4.553   3.152
  456TIP3   OH2 1331   3.933   3.311   4.291
  456TIP3    H1 1332   3.844   3.331   4.321
  456TIP3    H2 1333   3.924   3.228   4.244
  457TIP3   OH2 1334   4.757   3.191   3.053
  457TIP3    H1 1335   4.841   3.236   3.065
  457TIP3    H2 1336   4.778   3.113   3.001
  458TIP3   OH2 1337   4.400   5.970   4.621
  458TIP3    H1 1338   4.485   5.983   4.579
  458TIP3    H2 1339   4.336   5.993   4.553
  459TIP3   OH2 1340   1.398   2.627   0.446
  459TIP3    H1 1341   1.433   2.695   0.388
  459TIP3    H2 1342   1.388   2.551   0.389
  460TIP3   OH2 1343   5.991   3.487   2.936
  460TIP3    H1 1344   5.919   3.523   2.989
  460TIP3    H2 1345   6.062   3.474   2.998
  461TIP3   OH2 1346   3.358   1.247   2.387
  461TIP3    H1 1347   3.266   1.275   2.393
  461TIP3    H2 1348   3.383   1.226   2.477
  462TIP3   OH2 1349   6.936   1.523   2.960
  462TIP3    H1 1350   7.019   1.513   2.914
  462TIP3    H2 1351   6.920   1.438   3.000
  463TIP3   OH2 1352   2.229   3.494   3.145
  463TIP3    H1 1353   2.146   3.446   3.133
  463TIP3    H2 1354   2.290   3.428   3.178
  464TIP3   OH2 1355   2.507   4.652   3.678
  464TIP3    H1 1356   2.470   4.648   3.766
  464TIP3    H2 1357   2.453   4.592   3.626
  465TIP3   OH2 1358   6.841   0.728   5.056
  465TIP3    H1 1359   6.921   0.743   5.107
  465TIP3    H2 1360   6.773   0.773   5.106
  466TIP3   OH2 1361   2.640   1.241   0.595
  466TIP3    H1 1362   2.624   1.273   0.683
  466TIP3    H2 1363   2.705   1.302   0.559
  467TIP3   OH2 1364   1.706   6.374   5.034
  467TIP3    H1 1365   1.799   6.397   5.041
  467TIP3    H2 1366   1.682   6.343   5.121
  468TIP3   OH2 1367   4.275   6.391   0.023
  468TIP3    H1 1368   4.202   6.398   0.084
  468TIP3    H2 1369   4.257   6.456  -0.045
  469TIP3   OH2 1370   1.244   2.086   2.887
  469TIP3    H1 1371   1.327   2.093   2.935
  469TIP3    H2 1372   1.255   2.144   2.812
  470TIP3   OH2 1373   0.018   5.125   5.315
  470TIP3    H1 1374   0.063   5.063   5.372
  470TIP3    H2 1375  -0.064   5.081   5.292
  471TIP3   OH2 1376   4.492   4.774   4.901
  471TIP3    H1 1377   4.534   4.718   4.966
  471TIP3    H2 1378   4.473   4.716   4.828
  472TIP3   OH2 1379   5.095   4.134   2.286
  472TIP3    H1 1380   5.085   4.095   2.372
  472TIP3    H2 1381   5.061   4.069   2.225
  473TIP3   OH2 1382   2.042   4.451   5.493
  473TIP3    H1 1383   2.052   4.523   5.555
  473TIP3    H2 1384   2.010   4.378   5.546
  474TIP3   OH2 1385   2.186   0.086   3.874
  474TIP3    H1 1386   2.162   0.162   3.821
  474TIP3    H2 1387   2.192   0.119   3.963
  475TIP3   OH2 1388   4.804   2.530   3.515
  475TIP3    H1 1389   4.810   2.436   3.531
  475TIP3    H2 1390   4.893   2.556   3.491
  476TIP3   OH2 1391   3.822   6.738   3.943
  476TIP3    H1 1392   3.772   6.672   3.895
  476TIP3    H2 1393   3.791   6.730   4.033
  477TIP3   OH2 1394   4.181   4.293   4.574
  477TIP3    H1 1395   4.232   4.223   4.615
  477TIP3    H2 1396   4.247   4.349   4.533
  478TIP3   OH2 1397   1.527   0.931   0.322
  478TIP3    H1 1398   1.566   0.953   0.238
  478TIP3    H2 1399   1.557   0.841   0.339
  479TIP3   OH2 1400   6.944   5.020   1.719
  479TIP3    H1 1401   6.932   5.030   1.625
  479TIP3    H2 1402   7.035   4.990   1.729
  480TIP3   OH2 1403   6.586   4.824   4.776
  480TIP3    H1 1404   6.563   4.915   4.795
  480TIP3    H2 1405   6.671   4.811   4.818
  481TIP3   OH2 1406   2.827   6.101   5.715
  481TIP3    H1 1407   2.772   6.060   5.648
  481TIP3    H2 1408   2.903   6.044   5.722
  482TIP3   OH2 1409   2.575   1.589   4.425
  482TIP3    H1 1410   2.623   1.507   4.416
  482TIP3    H2 1411   2.620   1.651   4.368
  483TIP3   OH2 1412   3.349   2.169   5.571
  483TIP3    H1 1413   3.272   2.209   5.532
  483TIP3    H2 1414   3.404   2.145   5.497
  484TIP3   OH2 1415   3.410   6.164   0.658
  484TIP3    H1 1416   3.450   6.237   0.611
  484TIP3    H2 1417   3.482   6.126   0.708
  485TIP3   OH2 1418   3.808   6.517   2.135
  485TIP3    H1 1419   3.850   6.603   2.138
  485TIP3    H2 1420   3.720   6.535   2.101
  486TIP3   OH2 1421   6.818   2.566   1.655
  486TIP3    H1 1422   6.802   2.615   1.735
  486TIP3    H2 1423   6.912   2.550   1.655
  487TIP3   OH2 1424   5.190   4.148   2.680
  487TIP3    H1 1425   5.105   4.106   2.669
  487TIP3    H2 1426   5.249   4.078   2.706
  488TIP3   OH2 1427   2.316   2.487   5.835
  488TIP3    H1 1428   2.377   2.459   5.767
  488TIP3    H2 1429   2.237   2.512   5.787
  489TIP3   OH2 1430   0.214   1.704   0.297
  489TIP3    H1 1431   0.150   1.708   0.226
  489TIP3    H2 1432   0.163   1.682   0.375
  490TIP3   OH2 1433   7.019   0.273   0.902
  490TIP3    H1 1434   7.078   0.209   0.860
  490TIP3    H2 1435   7.030   0.256   0.996
  491TIP3   OH2 1436   4.607   0.701   1.841
  491TIP3    H1 1437   4.654   0.642   1.783
  491TIP3    H2 1438   4.653   0.694   1.925
  492TIP3   OH2 1439   0.096   2.128   0.475
  492TIP3    H1 1440   0.169   2.068   0.488
  492TIP3    H2 1441   0.022   2.086   0.519
  493TIP3   OH2 1442   1.687   3.452   3.636
  493TIP3    H1 1443   1.718   3.455   3.545
  493TIP3    H2 1444   1.653   3.540   3.653
  494TIP3   OH2 1445   6.085   6.486   0.605
  494TIP3    H1 1446   6.137   6.495   0.525
  494TIP3    H2 1447   6.148   6.501   0.676
  495TIP3   OH2 1448   6.115   4.052   2.292
  495TIP3    H1 1449   6.057   3.977   2.305
  495TIP3    H2 1450   6.060   4.128   2.314
  496TIP3   OH2 1451   5.353   2.814   4.390
  496TIP3    H1 1452   5.443   2.785   4.408
  496TIP3    H2 1453   5.363   2.895   4.341
  497TIP3   OH2 1454   1.667   1.406   1.533
  497TIP3    H1 1455   1.656   1.311   1.529
  497TIP3    H2 1456   1.581   1.438   1.561
  498TIP3   OH2 1457   1.331   4.775   4.488
  498TIP3    H1 1458   1.311   4.682   4.503
  498TIP3    H2 1459   1.314   4.789   4.395
  499TIP3   OH2 1460   6.031   5.536   2.013
  499TIP3    H1 1461   6.034   5.459   1.955
  499TIP3    H2 1462   6.048   5.610   1.955
  500TIP3   OH2 1463   5.183   3.779   4.449
  500TIP3    H1 1464   5.259   3.832   4.423
  500TIP3    H2 1465   5.107   3.828   4.415
  501TIP3   OH2 1466   6.981   2.537   4.677
  501TIP3    H1 1467   6.915   2.469   4.661
  501TIP3    H2 1468   6.972   2.596   4.602
  502TIP3   OH2 1469   3.709   3.296   0.515
  502TIP3    H1 1470   3.698   3.386   0.485
  502TIP3    H2 1471   3.689   3.241   0.439
  503TIP3   OH2 1472   2.048   2.987   5.603
  503TIP3    H1 1473   2.070   2.936   5.681
  503TIP3    H2 1474   2.094   2.943   5.532
  504TIP3   OH2 1475   4.581   2.203   1.721
  504TIP3    H1 1476   4.666   2.166   1.745
  504TIP3    H2 1477   4.533   2.211   1.803
  505TIP3   OH2 1478   5.001   5.092   4.809
  505TIP3    H1 1479   4.975   5.046   4.730
  505TIP3    H2 1480   4.929   5.078   4.870
  506TIP3   OH2 1481   6.666   1.014   2.692
  506TIP3    H1 1482   6.587   1.051   2.731
  506TIP3    H2 1483   6.666   1.047   2.601
  507TIP3   OH2 1484   0.992   1.546   1.098
  507TIP3    H1 1485   0.963   1.515   1.012
  507TIP3    H2 1486   1.027   1.468   1.141
  508TIP3   OH2 1487   5.915   5.170   3.932
  508TIP3    H1 1488   5.937   5.263   3.933
  508TIP3    H2 1489   5.819   5.168   3.938
  509TIP3   OH2 1490   4.302   3.429   1.437
  509TIP3    H1 1491   4.260   3.360   1.488
  509TIP3    H2 1492   4.299   3.398   1.347
  510TIP3   OH2 1493   5.231   1.852   1.227
  510TIP3    H1 1494   5.259   1.763   1.246
  510TIP3    H2 1495   5.251   1.864   1.134
  511TIP3   OH2 1496   3.622   6.585   3.824
  511TIP3    H1 1497   3.532   6.587   3.858
  511TIP3    H2 1498   3.612   6.574   3.730
  512TIP3   OH2 1499   0.535   5.536   3.242
  512TIP3    H1 1500   0.578   5.590   3.175
  512TIP3    H2 1501   0.447   5.573   3.250
  513TIP3   OH2 1502   5.194   1.416   0.332
  513TIP3    H1 1503   5.289   1.417   0.346
  513TIP3    H2 1504   5.183   1.393   0.240
  514TIP3   OH2 1505   4.303   3.041   3.620
  514TIP3    H1 1506   4.321   3.059   3.713
  514TIP3    H2 1507   4.362   3.099   3.572
  515TIP3   OH2 1508   3.443   3.966   5.318
  515TIP3    H1 1509   3.476   3.878   5.301
  515TIP3    H2 1510   3.350   3.961   5.299
  516TIP3   OH2 1511   1.944   5.102   2.303
  516TIP3    H1 1512   1.863   5.153   2.296
  516TIP3    H2 1513   1.961   5.072   2.214
  517TIP3   OH2 1514   6.732   4.575   0.958
  517TIP3    H1 1515   6.742   4.584   0.863
  517TIP3    H2 1516   6.794   4.506   0.982
  518TIP3   OH2 1517   4.807   0.187   4.671
  518TIP3    H1 1518   4.715   0.174   4.691
  518TIP3    H2 1519   4.843   0.230   4.748
  519TIP3   OH2 1520   0.117   1.091   4.548
  519TIP3    H1 1521   0.140   1.172   4.593
  519TIP3    H2 1522   0.036   1.062   4.590
  520TIP3   OH2 1523   3.288   2.962   2.149
  520TIP3    H1 1524   3.228   3.030   2.180
  520TIP3    H2 1525   3.288   2.972   2.054
  521TIP3   OH2 1526   6.636   2.348   1.654
  521TIP3    H1 1527   6.611   2.321   1.742
  521TIP3    H2 1528   6.700   2.418   1.668
  522TIP3   OH2 1529   3.813   2.637   3.298
  522TIP3    H1 1530   3.775   2.718   3.332
  522TIP3    H2 1531   3.848   2.661   3.212
  523TIP3   OH2 1532   0.737   6.136   0.869
  523TIP3    H1 1533   0.799   6.101   0.805
  523TIP3    H2 1534   0.709   6.220   0.832
  524TIP3   OH2 1535   6.968   5.008   3.596
  524TIP3    H1 1536   6.982   5.085   3.652
  524TIP3    H2 1537   7.044   5.007   3.538
  525TIP3   OH2 1538   4.481   1.841   2.921
  525TIP3    H1 1539   4.481   1.746   2.921
  525TIP3    H2 1540   4.408   1.865   2.978
  526TIP3   OH2 1541   7.116   4.948   4.956
  526TIP3    H1 1542   7.172   5.025   4.941
  526TIP3    H2 1543   7.170   4.874   4.929
  527TIP3   OH2 1544   2.367   3.307   5.258
  527TIP3    H1 1545   2.416   3.387   5.276
  527TIP3    H2 1546   2.347   3.312   5.164
  528TIP3   OH2 1547   0.853   2.491   2.349
  528TIP3    H1 1548   0.846   2.508   2.255
  528TIP3    H2 1549   0.767   2.513   2.384
  529TIP3   OH2 1550   4.030   6.052   1.844
  529TIP3    H1 1551   3.990   6.029   1.760
  529TIP3    H2 1552   4.067   6.139   1.829
  530TIP3   OH2 1553   5.192   4.072   0.544
  530TIP3    H1 1554   5.188   4.134   0.472
  530TIP3    H2 1555   5.285   4.066   0.566
  531TIP3   OH2 1556   5.438   1.620   1.281
  531TIP3    H1 1557   5.405   1.538   1.317
  531TIP3    H2 1558   5.465   1.670   1.358
  532TIP3   OH2 1559   3.850   1.750   3.416
  532TIP3    H1 1560   3.887   1.755   3.504
  532TIP3    H2 1561   3.792   1.673   3.419
  533TIP3   OH2 1562   5.917   1.947   4.284
  533TIP3    H1 1563   5.833   1.992   4.269
  533TIP3    H2 1564   5.901   1.891   4.360
  534TIP3   OH2 1565   1.292   2.770   3.939
  534TIP3    H1 1566   1.357   2.760   3.870
  534TIP3    H2 1567   1.309   2.697   3.999
  535TIP3   OH2 1568   4.303   4.800   4.516
  535TIP3    H1 1569   4.246   4.723   4.516
  535TIP3    H2 1570   4.281   4.847   4.436
  536TIP3   OH2 1571   4.766   5.053   1.691
  536TIP3    H1 1572   4.678   5.040   1.653
  536TIP3    H2 1573   4.826   5.032   1.619
  537TIP3   OH2 1574   0.281   3.684   5.047
  537TIP3    H1 1575   0.372   3.655   5.043
  537TIP3    H2 1576   0.251   3.653   5.132
  538TIP3   OH2 1577   0.770   1.208   4.656
  538TIP3    H1 1578   0.704   1.275   4.638
  538TIP3    H2 1579   0.838   1.254   4.704
  539TIP3   OH2 1580   1.992   6.559   0.998
  539TIP3    H1 1581   2.006   6.550   1.092
  539TIP3    H2 1582   1.907   6.517   0.982
  540TIP3   OH2 1583   1.846   0.175   2.851
  540TIP3    H1 1584   1.800   0.103   2.809
  540TIP3    H2 1585   1.914   0.199   2.787
  541TIP3   OH2 1586   6.532   2.312   4.577
  541TIP3    H1 1587   6.455   2.260   4.602
  541TIP3    H2 1588   6.542   2.296   4.483
  542TIP3   OH2 1589   1.403   6.667   0.951
  542TIP3    H1 1590   1.409   6.579   0.986
  542TIP3    H2 1591   1.387   6.655   0.857
  543TIP3   OH2 1592   3.942   3.001   0.371
  543TIP3    H1 1593   4.014   3.053   0.335
  543TIP3    H2 1594   3.946   3.016   0.465
  544TIP3   OH2 1595   4.684   5.992   3.170
  544TIP3    H1 1596   4.707   6.083   3.187
  544TIP3    H2 1597   4.704   5.946   3.252
  545TIP3   OH2 1598   1.045   2.724   3.583
  545TIP3    H1 1599   1.010   2.649   3.536
  545TIP3    H2 1600   0.967   2.773   3.611
  546TIP3   OH2 1601   0.078   6.145   5.257
  546TIP3    H1 1602   0.125   6.075   5.302
  546TIP3    H2 1603   0.144   6.213   5.244
  547TIP3   OH2 1604   6.671   0.177   1.713
  547TIP3    H1 1605   6.603   0.137   1.659
  547TIP3    H2 1606   6.738   0.205   1.650
  548TIP3   OH2 1607   3.837   1.769   5.507
  548TIP3    H1 1608   3.800   1.829   5.571
  548TIP3    H2 1609   3.929   1.760   5.533
  549TIP3   OH2 1610   6.259   3.035   0.236
  549TIP3    H1 1611   6.287   3.106   0.295
  549TIP3    H2 1612   6.205   3.079   0.170
  550TIP3   OH2 1613   4.793   4.946   2.889
  550TIP3    H1 1614   4.823   4.999   2.815
  550TIP3    H2 1615   4.857   4.874   2.895
  551TIP3   OH2 1616   5.178   1.489   0.582
  551TIP3    H1 1617   5.112   1.543   0.625
  551TIP3    H2 1618   5.161   1.501   0.488
  552TIP3   OH2 1619   1.208   5.751   3.585
  552TIP3    H1 1620   1.146   5.702   3.640
  552TIP3    H2 1621   1.153   5.813   3.537
  553TIP3   OH2 1622   7.004   2.105   4.014
  553TIP3    H1 1623   6.971   2.030   4.063
  553TIP3    H2 1624   6.927   2.139   3.969
  554TIP3   OH2 1625   4.106   2.406   0.116
  554TIP3    H1 1626   4.184   2.368   0.074
  554TIP3    H2 1627   4.134   2.493   0.144
  555TIP3   OH2 1628   3.516   4.714   0.420
  555TIP3    H1 1629   3.454   4.699   0.348
  555TIP3    H2 1630   3.462   4.742   0.493
  556TIP3   OH2 1631   5.970   3.425   2.357
  556TIP3    H1 1632   5.944   3.335   2.377
  556TIP3    H2 1633   5.973   3.428   2.261
  557TIP3   OH2 1634   0.675   5.703   3.500
  557TIP3    H1 1635   0.676   5.762   3.424
  557TIP3    H2 1636   0.655   5.617   3.463
  558TIP3   OH2 1637   5.462   0.658   4.924
  558TIP3    H1 1638   5.402   0.731   4.943
  558TIP3    H2 1639   5.465   0.654   4.829
  559TIP3   OH2 1640   4.179   1.735   5.795
  559TIP3    H1 1641   4.273   1.725   5.810
  559TIP3    H2 1642   4.164   1.830   5.797
  560TIP3   OH2 1643   6.761   0.568   5.762
  560TIP3    H1 1644   6.851   0.540   5.780
  560TIP3    H2 1645   6.737   0.522   5.682
  561TIP3   OH2 1646   1.196   3.480   2.608
  561TIP3    H1 1647   1.173   3.510   2.520
  561TIP3    H2 1648   1.170   3.388   2.609
  562TIP3   OH2 1649   1.403   5.668   0.438
  562TIP3    H1 1650   1.367   5.743   0.391
  562TIP3    H2 1651   1.469   5.706   0.496
  563TIP3   OH2 1652   1.364   2.713   2.728
  563TIP3    H1 1653   1.336   2.732   2.638
  563TIP3    H2 1654   1.284   2.717   2.780
  564TIP3   OH2 1655   7.055   3.138   4.039
  564TIP3    H1 1656   6.960   3.138   4.047
  564TIP3    H2 1657   7.085   3.203   4.103
  565TIP3   OH2 1658   0.137   3.578   0.781
  565TIP3    H1 1659   0.090   3.661   0.790
  565TIP3    H2 1660   0.226   3.602   0.757
  566TIP3   OH2 1661   0.795   2.061   3.396
  566TIP3    H1 1662   0.881   2.025   3.375
  566TIP3    H2 1663   0.733   1.997   3.361
  567TIP3   OH2 1664   3.351   1.179   5.517
  567TIP3    H1 1665   3.361   1.274   5.509
  567TIP3    H2 1666   3.409   1.143   5.448
  568TIP3   OH2 1667   0.235   2.263   0.269
  568TIP3    H1 1668   0.215   2.268   0.175
  568TIP3    H2 1669   0.150   2.253   0.311
  569TIP3   OH2 1670   0.215   0.610   2.200
  569TIP3    H1 1671   0.288   0.549   2.208
  569TIP3    H2 1672   0.256   0.693   2.174
  570TIP3   OH2 1673   3.161   5.909   2.605
  570TIP3    H1 1674   3.251   5.897   2.575
  570TIP3    H2 1675   3.135   5.993   2.566
  571TIP3   OH2 1676   1.250   0.498   3.779
  571TIP3    H1 1677   1.336   0.481   3.742
  571TIP3    H2 1678   1.191   0.496   3.704
  572TIP3   OH2 1679   6.884   5.515   0.705
  572TIP3    H1 1680   6.902   5.518   0.611
  572TIP3    H2 1681   6.900   5.605   0.735
  573TIP3   OH2 1682   4.295   4.891   2.544
  573TIP3    H1 1683   4.292   4.797   2.527
  573TIP3    H2 1684   4.309   4.898   2.638
  574TIP3   OH2 1685   2.199   2.292   1.909
  574TIP3    H1 1686   2.198   2.287   1.814
  574TIP3    H2 1687   2.238   2.208   1.936
  575TIP3   OH2 1688   0.442   6.356   2.111
  575TIP3    H1 1689   0.358   6.327   2.146
  575TIP3    H2 1690   0.434   6.344   2.016
  576TIP3   OH2 1691   4.220   6.721   3.018
  576TIP3    H1 1692   4.264   6.660   2.959
  576TIP3    H2 1693   4.174   6.782   2.961
  577TIP3   OH2 1694   0.801   2.649   3.213
  577TIP3    H1 1695   0.706   2.643   3.206
  577TIP3    H2 1696   0.817   2.660   3.307
  578TIP3   OH2 1697   3.931   3.091   3.027
  578TIP3    H1 1698   4.011   3.133   2.996
  578TIP3    H2 1699   3.900   3.039   2.953
  579TIP3   OH2 1700   1.392   0.699   5.051
  579TIP3    H1 1701   1.376   0.734   4.963
  579TIP3    H2 1702   1.409   0.606   5.037
  580TIP3   OH2 1703   0.663   6.049   0.526
  580TIP3    H1 1704   0.584   6.079   0.571
  580TIP3    H2 1705   0.642   6.056   0.433
  581TIP3   OH2 1706   2.437   0.502   2.654
  581TIP3    H1 1707   2.403   0.533   2.738
  581TIP3    H2 1708   2.397   0.416   2.643
  582TIP3   OH2 1709   4.433   2.358   3.854
  582TIP3    H1 1710   4.496   2.301   3.898
  582TIP3    H2 1711   4.466   2.365   3.764
  583TIP3   OH2 1712   3.108   0.125   2.475
  583TIP3    H1 1713   3.169   0.054   2.496
  583TIP3    H2 1714   3.023   0.082   2.465
  584TIP3   OH2 1715   6.613   0.659   3.325
  584TIP3    H1 1716   6.564   0.604   3.386
  584TIP3    H2 1717   6.667   0.715   3.381
  585TIP3   OH2 1718   0.610   0.320   1.380
  585TIP3    H1 1719   0.639   0.230   1.388
  585TIP3    H2 1720   0.614   0.339   1.287
  586TIP3   OH2 1721   2.146   0.743   0.417
  586TIP3    H1 1722   2.189   0.826   0.441
  586TIP3    H2 1723   2.219   0.682   0.406
  587TIP3   OH2 1724   1.627   6.101   2.421
  587TIP3    H1 1725   1.592   6.042   2.488
  587TIP3    H2 1726   1.719   6.113   2.445
  588TIP3   OH2 1727   1.087   1.882   1.994
  588TIP3    H1 1728   1.036   1.825   1.937
  588TIP3    H2 1729   1.136   1.823   2.051
  589TIP3   OH2 1730   1.855   3.803   3.562
  589TIP3    H1 1731   1.939   3.779   3.523
  589TIP3    H2 1732   1.877   3.832   3.651
  590TIP3   OH2 1733   5.673   6.562   3.866
  590TIP3    H1 1734   5.638   6.607   3.789
  590TIP3    H2 1735   5.768   6.570   3.857
  591TIP3   OH2 1736   5.847   2.932   3.281
  591TIP3    H1 1737   5.785   2.990   3.324
  591TIP3    H2 1738   5.909   2.908   3.350
  592TIP3   OH2 1739   5.234   0.214   4.258
  592TIP3    H1 1740   5.288   0.244   4.185
  592TIP3    H2 1741   5.285   0.237   4.336
  593TIP3   OH2 1742   5.470   1.333   2.115
  593TIP3    H1 1743   5.531   1.260   2.110
  593TIP3    H2 1744   5.406   1.307   2.181
  594TIP3   OH2 1745   1.042   4.478   5.360
  594TIP3    H1 1746   1.013   4.498   5.271
  594TIP3    H2 1747   1.047   4.383   5.363
  595TIP3   OH2 1748   3.060   0.414   4.716
  595TIP3    H1 1749   3.067   0.398   4.622
  595TIP3    H2 1750   2.997   0.349   4.747
  596TIP3   OH2 1751   5.411   4.904   5.133
  596TIP3    H1 1752   5.370   4.953   5.204
  596TIP3    H2 1753   5.441   4.971   5.072
  597TIP3   OH2 1754   2.317   0.713   2.826
  597TIP3    H1 1755   2.302   0.803   2.797
  597TIP3    H2 1756   2.363   0.722   2.909
  598TIP3   OH2 1757   1.574   2.944   3.473
  598TIP3    H1 1758   1.491   2.896   3.478
  598TIP3    H2 1759   1.593   2.950   3.380
  599TIP3   OH2 1760   1.383   1.566   1.558
  599TIP3    H1 1761   1.313   1.631   1.562
  599TIP3    H2 1762   1.392   1.547   1.465
  600TIP3   OH2 1763   3.933   2.775   3.073
  600TIP3    H1 1764   4.003   2.780   3.008
  600TIP3    H2 1765   3.884   2.856   3.061
  601TIP3   OH2 1766   1.084   0.617   1.964
  601TIP3    H1 1767   1.093   0.614   2.059
  601TIP3    H2 1768   1.091   0.710   1.942
  602TIP3   OH2 1769   6.262   1.527   0.859
  602TIP3    H1 1770   6.181   1.505   0.812
  602TIP3    H2 1771   6.290   1.445   0.899
  603TIP3   OH2 1772   4.886   1.824   2.733
  603TIP3    H1 1773   4.802   1.856   2.702
  603TIP3    H2 1774   4.884   1.730   2.713
  604TIP3   OH2 1775   6.889   4.639   2.745
  604TIP3    H1 1776   6.964   4.692   2.719
  604TIP3    H2 1777   6.816   4.701   2.749
  605TIP3   OH2 1778   0.271   5.160   2.311
  605TIP3    H1 1779   0.329   5.124   2.377
  605TIP3    H2 1780   0.283   5.103   2.235
  606TIP3   OH2 1781   4.531   2.006   1.563
  606TIP3    H1 1782   4.520   2.079   1.625
  606TIP3    H2 1783   4.552   1.931   1.618
  607TIP3   OH2 1784   3.088   0.889   0.076
  607TIP3    H1 1785   3.167   0.891   0.022
  607TIP3    H2 1786   3.120   0.904   0.165
  608TIP3   OH2 1787   0.916   0.734   2.473
  608TIP3    H1 1788   0.900   0.824   2.502
  608TIP3    H2 1789   0.868   0.680   2.535
  609TIP3   OH2 1790   7.103   3.741   4.200
  609TIP3    H1 1791   7.193   3.728   4.228
  609TIP3    H2 1792   7.097   3.835   4.180
  610TIP3   OH2 1793   1.611   0.715   2.286
  610TIP3    H1 1794   1.611   0.712   2.382
  610TIP3    H2 1795   1.544   0.780   2.264
  611TIP3   OH2 1796   6.343   3.908   5.421
  611TIP3    H1 1797   6.430   3.885   5.390
  611TIP3    H2 1798   6.327   3.849   5.495
  612TIP3   OH2 1799   2.425   3.900   0.399
  612TIP3    H1 1800   2.465   3.880   0.483
  612TIP3    H2 1801   2.408   3.994   0.402
  613TIP3   OH2 1802   0.525   6.530  -0.029
  613TIP3    H1 1803   0.580   6.510   0.047
  613TIP3    H2 1804   0.487   6.616  -0.009
  614TIP3   OH2 1805   1.377   2.635   4.916
  614TIP3    H1 1806   1.402   2.559   4.864
  614TIP3    H2 1807   1.328   2.598   4.990
  615TIP3   OH2 1808   2.829   3.554   5.008
  615TIP3    H1 1809   2.880   3.474   4.997
  615TIP3    H2 1810   2.740   3.524   5.027
  616TIP3   OH2 1811   5.457   6.609   5.237
  616TIP3    H1 1812   5.456   6.690   5.186
  616TIP3    H2 1813   5.514   6.550   5.188
  617TIP3   OH2 1814   3.943   0.895   2.289
  617TIP3    H1 1815   3.933   0.808   2.328
  617TIP3    H2 1816   4.038   0.908   2.284
  618TIP3   OH2 1817   1.926   3.664   1.960
  618TIP3    H1 1818   1.937   3.757   1.981
  618TIP3    H2 1819   1.999   3.620   2.003
  619TIP3   OH2 1820   3.592   5.379   1.884
  619TIP3    H1 1821   3.608   5.399   1.792
  619TIP3    H2 1822   3.661   5.318   1.909
  620TIP3   OH2 1823   2.742   4.745   0.319
  620TIP3    H1 1824   2.789   4.828   0.322
  620TIP3    H2 1825   2.753   4.709   0.408
  621TIP3   OH2 1826   5.484   2.711   2.913
  621TIP3    H1 1827   5.451   2.686   2.826
  621TIP3    H2 1828   5.563   2.762   2.896
  622TIP3   OH2 1829   3.077   1.774   2.851
  622TIP3    H1 1830   3.070   1.795   2.944
  622TIP3    H2 1831   3.049   1.854   2.806
  623TIP3   OH2 1832   1.991   1.101   5.720
  623TIP3    H1 1833   2.043   1.066   5.793
  623TIP3    H2 1834   2.039   1.075   5.642
  624TIP3   OH2 1835   0.581   3.345   1.597
  624TIP3    H1 1836   0.526   3.326   1.521
  624TIP3    H2 1837   0.668   3.314   1.572
  625TIP3   OH2 1838   7.206   2.366   4.147
  625TIP3    H1 1839   7.208   2.350   4.241
  625TIP3    H2 1840   7.138   2.307   4.114
  626TIP3   OH2 1841   7.009   1.025   4.354
  626TIP3    H1 1842   6.939   1.090   4.353
  626TIP3    H2 1843   7.002   0.982   4.269
  627TIP3   OH2 1844   1.423   2.903   1.679
  627TIP3    H1 1845   1.401   2.991   1.648
  627TIP3    H2 1846   1.435   2.852   1.598
  628TIP3   OH2 1847   4.521   3.539   1.680
  628TIP3    H1 1848   4.510   3.598   1.605
  628TIP3    H2 1849   4.561   3.461   1.642
  629TIP3   OH2 1850   6.075   1.659   4.223
  629TIP3    H1 1851   6.136   1.606   4.273
  629TIP3    H2 1852   5.993   1.609   4.222
  630TIP3   OH2 1853   4.262   4.618   0.150
  630TIP3    H1 1854   4.268   4.648   0.241
  630TIP3    H2 1855   4.190   4.669   0.113
  631TIP3   OH2 1856   1.272   1.659   2.679
  631TIP3    H1 1857   1.321   1.741   2.684
  631TIP3    H2 1858   1.337   1.591   2.700
  632TIP3   OH2 1859   4.243   2.218   1.697
  632TIP3    H1 1860   4.255   2.263   1.613
  632TIP3    H2 1861   4.265   2.127   1.679
  633TIP3   OH2 1862   5.055   5.215   2.950
  633TIP3    H1 1863   5.120   5.253   3.008
  633TIP3    H2 1864   5.104   5.189   2.872
  634TIP3   OH2 1865   0.425   5.018   2.474
  634TIP3    H1 1866   0.441   4.929   2.444
  634TIP3    H2 1867   0.396   5.008   2.565
  635TIP3   OH2 1868   0.414   1.187   1.357
  635TIP3    H1 1869   0.450   1.100   1.374
  635TIP3    H2 1870   0.474   1.247   1.403
  636TIP3   OH2 1871   5.957   2.174   5.777
  636TIP3    H1 1872   6.040   2.133   5.801
  636TIP3    H2 1873   5.897   2.152   5.848
  637TIP3   OH2 1874   4.885   3.883   0.669
  637TIP3    H1 1875   4.831   3.834   0.731
  637TIP3    H2 1876   4.956   3.920   0.722
  638TIP3   OH2 1877   1.113   4.397   3.979
  638TIP3    H1 1878   1.208   4.403   3.966
  638TIP3    H2 1879   1.076   4.460   3.918
  639TIP3   OH2 1880   6.343   1.521   0.164
  639TIP3    H1 1881   6.381   1.608   0.150
  639TIP3    H2 1882   6.417   1.461   0.156
  640TIP3   OH2 1883   1.509   2.795   1.244
  640TIP3    H1 1884   1.508   2.885   1.274
  640TIP3    H2 1885   1.491   2.800   1.150
  641TIP3   OH2 1886   7.208   3.556   3.162
  641TIP3    H1 1887   7.200   3.464   3.137
  641TIP3    H2 1888   7.158   3.563   3.244
  642TIP3   OH2 1889   1.723   5.396   2.570
  642TIP3    H1 1890   1.762   5.483   2.581
  642TIP3    H2 1891   1.733   5.376   2.477
  643TIP3   OH2 1892   3.121   3.464   4.189
  643TIP3    H1 1893   3.088   3.494   4.274
  643TIP3    H2 1894   3.047   3.476   4.129
  644TIP3   OH2 1895   5.800   2.806   0.647
  644TIP3    H1 1896   5.729   2.830   0.588
  644TIP3    H2 1897   5.772   2.839   0.733
  645TIP3   OH2 1898   0.324   1.784   2.770
  645TIP3    H1 1899   0.409   1.827   2.760
  645TIP3    H2 1900   0.307   1.785   2.864
  646TIP3   OH2 1901   1.318   2.400   0.640
  646TIP3    H1 1902   1.243   2.457   0.658
  646TIP3    H2 1903   1.391   2.460   0.629
  647TIP3   OH2 1904   6.324   1.182   5.513
  647TIP3    H1 1905   6.267   1.257   5.531
  647TIP3    H2 1906   6.402   1.198   5.567
  648TIP3   OH2 1907   1.306   3.719   0.166
  648TIP3    H1 1908   1.279   3.781   0.098
  648TIP3    H2 1909   1.396   3.742   0.186
  649TIP3   OH2 1910   1.459   5.624   1.410
  649TIP3    H1 1911   1.434   5.704   1.364
  649TIP3    H2 1912   1.484   5.654   1.497
  650TIP3   OH2 1913   1.380   3.558   0.904
  650TIP3    H1 1914   1.313   3.627   0.902
  650TIP3    H2 1915   1.355   3.499   0.833
  651TIP3   OH2 1916   2.498   1.468   3.821
  651TIP3    H1 1917   2.589   1.462   3.790
  651TIP3    H2 1918   2.452   1.399   3.772
  652TIP3   OH2 1919   5.117   3.662   5.583
  652TIP3    H1 1920   5.065   3.636   5.659
  652TIP3    H2 1921   5.160   3.582   5.555
  653TIP3   OH2 1922   4.165   2.233   0.911
  653TIP3    H1 1923   4.238   2.294   0.897
  653TIP3    H2 1924   4.170   2.210   1.004
  654TIP3   OH2 1925   3.160   2.347   3.023
  654TIP3    H1 1926   3.113   2.407   3.080
  654TIP3    H2 1927   3.249   2.382   3.018
  655TIP3   OH2 1928   5.749   1.696   1.603
  655TIP3    H1 1929   5.782   1.611   1.632
  655TIP3    H2 1930   5.753   1.692   1.507
  656TIP3   OH2 1931   0.628   3.987   1.921
  656TIP3    H1 1932   0.628   3.912   1.860
  656TIP3    H2 1933   0.713   3.981   1.965
  657TIP3   OH2 1934   5.176   3.865   5.860
  657TIP3    H1 1935   5.256   3.918   5.866
  657TIP3    H2 1936   5.119   3.915   5.802
  658TIP3   OH2 1937   5.236   0.162   3.214
  658TIP3    H1 1938   5.267   0.155   3.305
  658TIP3    H2 1939   5.198   0.250   3.208
  659TIP3   OH2 1940   2.751   2.029   4.320
  659TIP3    H1 1941   2.742   2.075   4.403
  659TIP3    H2 1942   2.729   2.094   4.254
  660TIP3   OH2 1943   3.799   5.314   5.524
  660TIP3    H1 1944   3.879   5.263   5.514
  660TIP3    H2 1945   3.829   5.405   5.523
  661TIP3   OH2 1946   1.804   6.002   4.492
  661TIP3    H1 1947   1.892   6.031   4.513
  661TIP3    H2 1948   1.808   5.907   4.496
  662TIP3   OH2 1949   1.791   5.651   0.890
  662TIP3    H1 1950   1.762   5.740   0.874
  662TIP3    H2 1951   1.725   5.613   0.947
  663TIP3   OH2 1952   7.168   3.974   3.781
  663TIP3    H1 1953   7.229   4.048   3.779
  663TIP3    H2 1954   7.200   3.919   3.852
  664TIP3   OH2 1955   1.189   3.033   4.832
  664TIP3    H1 1956   1.227   3.035   4.744
  664TIP3    H2 1957   1.102   3.072   4.821
  665TIP3   OH2 1958   4.143   6.397   5.414
  665TIP3    H1 1959   4.094   6.333   5.466
  665TIP3    H2 1960   4.187   6.345   5.347
  666TIP3   OH2 1961   6.036   1.285   3.569
  666TIP3    H1 1962   6.028   1.273   3.475
  666TIP3    H2 1963   6.128   1.266   3.588
  667TIP3   OH2 1964   4.708   4.631   0.379
  667TIP3    H1 1965   4.763   4.554   0.390
  667TIP3    H2 1966   4.749   4.680   0.308
  668TIP3   OH2 1967   3.807   5.006   4.265
  668TIP3    H1 1968   3.806   4.976   4.174
  668TIP3    H2 1969   3.865   4.944   4.310
  669TIP3   OH2 1970   6.555   2.338   2.491
  669TIP3    H1 1971   6.494   2.410   2.503
  669TIP3    H2 1972   6.613   2.367   2.421
  670TIP3   OH2 1973   2.582   2.789   1.351
  670TIP3    H1 1974   2.593   2.702   1.389
  670TIP3    H2 1975   2.672   2.823   1.343
  671TIP3   OH2 1976   7.205   6.644   0.085
  671TIP3    H1 1977   7.183   6.729   0.125
  671TIP3    H2 1978   7.129   6.624   0.030
  672TIP3   OH2 1979   1.946   2.560   3.705
  672TIP3    H1 1980   1.864   2.598   3.674
  672TIP3    H2 1981   1.924   2.470   3.728
  673TIP3   OH2 1982   0.161   5.357   5.221
  673TIP3    H1 1983   0.093   5.292   5.237
  673TIP3    H2 1984   0.242   5.307   5.222
  674TIP3   OH2 1985   2.674   0.989   0.520
  674TIP3    H1 1986   2.655   1.073   0.561
  674TIP3    H2 1987   2.708   1.011   0.434
  675TIP3   OH2 1988   0.601   1.822   1.238
  675TIP3    H1 1989   0.561   1.841   1.323
  675TIP3    H2 1990   0.687   1.786   1.259
  676TIP3   OH2 1991   5.827   6.198   5.679
  676TIP3    H1 1992   5.852   6.166   5.765
  676TIP3    H2 1993   5.839   6.123   5.620
  677TIP3   OH2 1994   5.429   0.820   0.178
  677TIP3    H1 1995   5.396   0.905   0.147
  677TIP3    H2 1996   5.520   0.818   0.150
  678TIP3   OH2 1997   3.563   4.852   1.678
  678TIP3    H1 1998   3.559   4.785   1.746
  678TIP3    H2 1999   3.597   4.930   1.723
  679TIP3   OH2 2000   0.027   1.181   2.412
  679TIP3    H1 2001  -0.008   1.121   2.478
  679TIP3    H2 2002   0.037   1.264   2.458
  680TIP3   OH2 2003   1.495   6.173   4.805
  680TIP3    H1 2004   1.478   6.266   4.819
  680TIP3    H2 2005   1.575   6.171   4.753
  681TIP3   OH2 2006   4.893   5.693   0.556
  681TIP3    H1 2007   4.833   5.761   0.526
  681TIP3    H2 2008   4.845   5.611   0.546
  682TIP3   OH2 2009   7.003   6.202   3.829
  682TIP3    H1 2010   7.048   6.120   3.844
  682TIP3    H2 2011   7.071   6.262   3.799
  683TIP3   OH2 2012   0.539   2.341   1.968
  683TIP3    H1 2013   0.486   2.346   1.889
  683TIP3    H2 2014   0.517   2.420   2.018
  684TIP3   OH2 2015   4.284   2.278   5.480
  684TIP3    H1 2016   4.286   2.349   5.416
  684TIP3    H2 2017   4.208   2.225   5.454
  685TIP3   OH2 2018   6.248   0.354   2.023
  685TIP3    H1 2019   6.223   0.429   1.970
  685TIP3    H2 2020   6.327   0.320   1.982
  686TIP3   OH2 2021   3.554   1.325   0.246
  686TIP3    H1 2022   3.519   1.237   0.254
  686TIP3    H2 2023   3.477   1.380   0.229
  687TIP3   OH2 2024   1.167   6.340   3.446
  687TIP3    H1 2025   1.117   6.277   3.498
  687TIP3    H2 2026   1.104   6.372   3.381
  688TIP3   OH2 2027   5.434   4.756   0.507
  688TIP3    H1 2028   5.370   4.827   0.517
  688TIP3    H2 2029   5.448   4.724   0.596
  689TIP3   OH2 2030   6.321   5.218   3.089
  689TIP3    H1 2031   6.241   5.272   3.087
  689TIP3    H2 2032   6.340   5.200   2.998
  690TIP3   OH2 2033   5.766   6.391   1.092
  690TIP3    H1 2034   5.838   6.331   1.112
  690TIP3    H2 2035   5.754   6.442   1.172
  691TIP3   OH2 2036   3.212   0.082   1.999
  691TIP3    H1 2037   3.267   0.008   2.022
  691TIP3    H2 2038   3.174   0.111   2.082
  692TIP3   OH2 2039   2.634   2.828   1.944
  692TIP3    H1 2040   2.665   2.909   1.904
  692TIP3    H2 2041   2.542   2.847   1.966
  693TIP3   OH2 2042   0.276   5.296   0.571
  693TIP3    H1 2043   0.304   5.210   0.540
  693TIP3    H2 2044   0.214   5.327   0.505
  694TIP3   OH2 2045   2.251   3.926   4.863
  694TIP3    H1 2046   2.234   3.988   4.934
  694TIP3    H2 2047   2.341   3.897   4.877
  695TIP3   OH2 2048   5.594   2.852   0.445
  695TIP3    H1 2049   5.565   2.764   0.420
  695TIP3    H2 2050   5.628   2.890   0.364
  696TIP3   OH2 2051   0.929   1.702   0.082
  696TIP3    H1 2052   0.921   1.665   0.170
  696TIP3    H2 2053   1.003   1.655   0.044
  697TIP3   OH2 2054   3.022   0.769   4.526
  697TIP3    H1 2055   3.027   0.850   4.476
  697TIP3    H2 2056   2.939   0.775   4.573
  698TIP3   OH2 2057   5.360   6.278   1.346
  698TIP3    H1 2058   5.365   6.368   1.313
  698TIP3    H2 2059   5.425   6.274   1.417
  699TIP3   OH2 2060   4.159   3.152   0.334
  699TIP3    H1 2061   4.242   3.177   0.376
  699TIP3    H2 2062   4.115   3.235   0.319
  700TIP3   OH2 2063   5.250   5.580   0.344
  700TIP3    H1 2064   5.254   5.668   0.306
  700TIP3    H2 2065   5.185   5.534   0.291
  701TIP3   OH2 2066   2.682   6.793   3.446
  701TIP3    H1 2067   2.613   6.832   3.500
  701TIP3    H2 2068   2.724   6.728   3.504
  702TIP3   OH2 2069   2.640   2.605   2.796
  702TIP3    H1 2070   2.630   2.680   2.855
  702TIP3    H2 2071   2.629   2.642   2.709
  703TIP3   OH2 2072   2.152   3.463   5.595
  703TIP3    H1 2073   2.144   3.511   5.677
  703TIP3    H2 2074   2.192   3.526   5.535
  704TIP3   OH2 2075   5.178   2.204   1.289
  704TIP3    H1 2076   5.196   2.276   1.350
  704TIP3    H2 2077   5.195   2.125   1.340
  705TIP3   OH2 2078   0.287   5.210   4.138
  705TIP3    H1 2079   0.247   5.143   4.193
  705TIP3    H2 2080   0.235   5.289   4.155
  706TIP3   OH2 2081   4.625   3.580   4.428
  706TIP3    H1 2082   4.716   3.595   4.401
  706TIP3    H2 2083   4.575   3.644   4.378
  707TIP3   OH2 2084   4.021   5.663   1.303
  707TIP3    H1 2085   4.106   5.704   1.318
  707TIP3    H2 2086   4.031   5.574   1.338
  708TIP3   OH2 2087   0.353   2.313   4.658
  708TIP3    H1 2088   0.266   2.302   4.619
  708TIP3    H2 2089   0.403   2.238   4.626
  709TIP3   OH2 2090   5.083   1.224   1.628
  709TIP3    H1 2091   5.082   1.261   1.540
  709TIP3    H2 2092   5.150   1.274   1.675
  710TIP3   OH2 2093   6.318   5.826   2.317
  710TIP3    H1 2094   6.267   5.747   2.301
  710TIP3    H2 2095   6.387   5.823   2.251
  711TIP3   OH2 2096   5.797   3.535   0.672
  711TIP3    H1 2097   5.879   3.547   0.623
  711TIP3    H2 2098   5.729   3.544   0.606
  712TIP3   OH2 2099   1.967   4.634   3.410
  712TIP3    H1 2100   1.961   4.563   3.473
  712TIP3    H2 2101   2.057   4.664   3.416
  713TIP3   OH2 2102   1.644   3.923   5.013
  713TIP3    H1 2103   1.619   3.868   5.088
  713TIP3    H2 2104   1.586   3.895   4.942
  714TIP3   OH2 2105   4.665   6.254   0.685
  714TIP3    H1 2106   4.599   6.314   0.651
  714TIP3    H2 2107   4.636   6.232   0.773
  715TIP3   OH2 2108   4.890   2.390   0.157
  715TIP3    H1 2109   4.927   2.451   0.221
  715TIP3    H2 2110   4.929   2.306   0.180
  716TIP3   OH2 2111   0.296   4.190   5.250
  716TIP3    H1 2112   0.342   4.126   5.306
  716TIP3    H2 2113   0.243   4.137   5.191
  717TIP3   OH2 2114   0.803   5.486   5.132
  717TIP3    H1 2115   0.779   5.418   5.195
  717TIP3    H2 2116   0.897   5.478   5.122
  718TIP3   OH2 2117   7.049   5.977   5.192
  718TIP3    H1 2118   7.124   6.029   5.219
  718TIP3    H2 2119   6.976   6.014   5.242
  719TIP3   OH2 2120   0.435   3.892   3.787
  719TIP3    H1 2121   0.412   3.832   3.858
  719TIP3    H2 2122   0.526   3.871   3.766
  720TIP3   OH2 2123   5.185   2.695   2.924
  720TIP3    H1 2124   5.268   2.741   2.939
  720TIP3    H2 2125   5.159   2.721   2.836
  721TIP3   OH2 2126   7.180   4.453   4.837
  721TIP3    H1 2127   7.245   4.417   4.777
  721TIP3    H2 2128   7.110   4.484   4.779
  722TIP3   OH2 2129   2.549   5.396   5.453
  722TIP3    H1 2130   2.627   5.412   5.508
  722TIP3    H2 2131   2.549   5.468   5.390
  723TIP3   OH2 2132   2.064   3.588   0.194
  723TIP3    H1 2133   2.157   3.600   0.214
  723TIP3    H2 2134   2.021   3.663   0.236
  724TIP3   OH2 2135   4.516   1.179   3.381
  724TIP3    H1 2136   4.484   1.164   3.470
  724TIP3    H2 2137   4.442   1.155   3.325
  725TIP3   OH2 2138   1.155   3.304   5.366
  725TIP3    H1 2139   1.130   3.212   5.356
  725TIP3    H2 2140   1.247   3.306   5.338
  726TIP3   OH2 2141   6.824   6.084   1.310
  726TIP3    H1 2142   6.785   6.023   1.373
  726TIP3    H2 2143   6.804   6.170   1.346
  727TIP3   OH2 2144   1.130   2.140   5.262
  727TIP3    H1 2145   1.066   2.071   5.281
  727TIP3    H2 2146   1.198   2.097   5.211
  728TIP3   OH2 2147   6.788   5.469   3.204
  728TIP3    H1 2148   6.792   5.437   3.114
  728TIP3    H2 2149   6.737   5.404   3.251
  729TIP3   OH2 2150   2.446   3.072   0.997
  729TIP3    H1 2151   2.516   3.117   1.044
  729TIP3    H2 2152   2.367   3.123   1.019
  730TIP3   OH2 2153   0.690   5.301   4.274
  730TIP3    H1 2154   0.763   5.256   4.316
  730TIP3    H2 2155   0.726   5.387   4.250
  731TIP3   OH2 2156   3.885   3.686   4.303
  731TIP3    H1 2157   3.934   3.674   4.385
  731TIP3    H2 2158   3.804   3.637   4.317
  732TIP3   OH2 2159   3.700   5.424   0.580
  732TIP3    H1 2160   3.612   5.444   0.613
  732TIP3    H2 2161   3.721   5.497   0.523
  733TIP3   OH2 2162   1.996   3.357   1.449
  733TIP3    H1 2163   1.985   3.298   1.523
  733TIP3    H2 2164   1.942   3.433   1.470
  734TIP3   OH2 2165   6.884   3.012   0.668
  734TIP3    H1 2166   6.892   2.923   0.632
  734TIP3    H2 2167   6.797   3.014   0.707
  735TIP3   OH2 2168   5.713   6.336   5.483
  735TIP3    H1 2169   5.655   6.391   5.538
  735TIP3    H2 2170   5.745   6.268   5.543
  736TIP3   OH2 2171   2.551   0.600   1.422
  736TIP3    H1 2172   2.548   0.508   1.396
  736TIP3    H2 2173   2.641   0.627   1.408
  737TIP3   OH2 2174   3.149   4.985   4.001
  737TIP3    H1 2175   3.053   4.977   3.994
  737TIP3    H2 2176   3.167   5.076   3.979
  738TIP3   OH2 2177   1.173   6.621   2.613
  738TIP3    H1 2178   1.225   6.701   2.626
  738TIP3    H2 2179   1.234   6.558   2.576
  739TIP3   OH2 2180   2.940   5.097   3.140
  739TIP3    H1 2181   3.031   5.113   3.116
  739TIP3    H2 2182   2.891   5.115   3.060
  740TIP3   OH2 2183   4.983   3.327   3.036
  740TIP3    H1 2184   5.069   3.291   3.015
  740TIP3    H2 2185   5.002   3.413   3.074
  741TIP3   OH2 2186   1.429   6.415   4.924
  741TIP3    H1 2187   1.505   6.374   4.965
  741TIP3    H2 2188   1.362   6.417   4.993
  742TIP3   OH2 2189   6.940   5.971   0.555
  742TIP3    H1 2190   7.024   5.946   0.516
  742TIP3    H2 2191   6.939   6.066   0.551
  743TIP3   OH2 2192   5.947   3.153   2.421
  743TIP3    H1 2193   5.857   3.124   2.432
  743TIP3    H2 2194   5.997   3.072   2.413
  744TIP3   OH2 2195   0.199   0.523   1.512
  744TIP3    H1 2196   0.250   0.604   1.516
  744TIP3    H2 2197   0.118   0.545   1.558
  745TIP3   OH2 2198   0.786   0.333   3.526
  745TIP3    H1 2199   0.695   0.349   3.500
  745TIP3    H2 2200   0.822   0.278   3.455
  746TIP3   OH2 2201   6.656   3.431   2.257
  746TIP3    H1 2202   6.590   3.394   2.199
  746TIP3    H2 2203   6.729   3.369   2.254
  747TIP3   OH2 2204   3.569   0.077   0.460
  747TIP3    H1 2205   3.661   0.102   0.465
  747TIP3    H2 2206   3.568  -0.001   0.404
  748TIP3   OH2 2207   0.432   0.263   4.114
  748TIP3    H1 2208   0.484   0.294   4.040
  748TIP3    H2 2209   0.352   0.316   4.111
  749TIP3   OH2 2210   5.911   2.299   4.322
  749TIP3    H1 2211   5.874   2.278   4.236
  749TIP3    H2 2212   6.001   2.327   4.303
  750TIP3   OH2 2213   6.661   6.524   1.221
  750TIP3    H1 2214   6.709   6.521   1.303
  750TIP3    H2 2215   6.708   6.463   1.164
  751TIP3   OH2 2216   3.760   6.589   1.819
  751TIP3    H1 2217   3.740   6.676   1.785
  751TIP3    H2 2218   3.783   6.604   1.911
  752TIP3   OH2 2219   1.982   2.087   2.904
  752TIP3    H1 2220   1.889   2.070   2.921
  752TIP3    H2 2221   2.026   2.060   2.984
  753TIP3   OH2 2222   0.620   4.735   4.607
  753TIP3    H1 2223   0.673   4.799   4.652
  753TIP3    H2 2224   0.597   4.671   4.674
  754TIP3   OH2 2225   2.206   0.838   4.292
  754TIP3    H1 2226   2.227   0.911   4.235
  754TIP3    H2 2227   2.121   0.861   4.331
  755TIP3   OH2 2228   2.357   1.591   2.490
  755TIP3    H1 2229   2.401   1.577   2.406
  755TIP3    H2 2230   2.394   1.525   2.548
  756TIP3   OH2 2231   5.690   1.198   4.349
  756TIP3    H1 2232   5.778   1.176   4.381
  756TIP3    H2 2233   5.702   1.216   4.256
  757TIP3   OH2 2234   4.584   5.115   0.857
  757TIP3    H1 2235   4.542   5.189   0.813
  757TIP3    H2 2236   4.551   5.038   0.811
  758TIP3   OH2 2237   0.762   0.263   5.602
  758TIP3    H1 2238   0.758   0.324   5.677
  758TIP3    H2 2239   0.801   0.184   5.638
  759TIP3   OH2 2240   6.575   1.961   2.200
  759TIP3    H1 2241   6.562   2.054   2.181
  759TIP3    H2 2242   6.623   1.960   2.283
  760TIP3   OH2 2243   0.272   1.601   4.368
  760TIP3    H1 2244   0.304   1.599   4.278
  760TIP3    H2 2245   0.178   1.582   4.361
  761TIP3   OH2 2246   3.058   1.084   4.512
  761TIP3    H1 2247   3.115   1.049   4.580
  761TIP3    H2 2248   3.067   1.179   4.519
  762TIP3   OH2 2249   3.714   5.199   0.757
  762TIP3    H1 2250   3.631   5.172   0.797
  762TIP3    H2 2251   3.697   5.288   0.725
  763TIP3   OH2 2252   2.440   2.238   5.111
  763TIP3    H1 2253   2.445   2.333   5.122
  763TIP3    H2 2254   2.531   2.209   5.117
  764TIP3   OH2 2255   4.909   2.818   1.121
  764TIP3    H1 2256   4.823   2.778   1.132
  764TIP3    H2 2257   4.892   2.912   1.116
  765TIP3   OH2 2258   5.070   5.967   4.373
  765TIP3    H1 2259   5.124   5.924   4.307
  765TIP3    H2 2260   5.078   5.910   4.450
  766TIP3   OH2 2261   2.879   3.542   4.097
  766TIP3    H1 2262   2.790   3.512   4.082
  766TIP3    H2 2263   2.905   3.581   4.014
  767TIP3   OH2 2264   1.386   6.301   5.565
  767TIP3    H1 2265   1.346   6.368   5.621
  767TIP3    H2 2266   1.320   6.284   5.497
  768TIP3   OH2 2267   4.744   5.743   4.333
  768TIP3    H1 2268   4.834   5.713   4.344
  768TIP3    H2 2269   4.701   5.719   4.415
  769TIP3   OH2 2270   1.145   4.011   1.304
  769TIP3    H1 2271   1.080   4.046   1.243
  769TIP3    H2 2272   1.148   4.074   1.376
  770TIP3   OH2 2273   1.623   3.173   5.055
  770TIP3    H1 2274   1.695   3.154   4.995
  770TIP3    H2 2275   1.666   3.201   5.136
  771TIP3   OH2 2276   2.390   1.053   3.899
  771TIP3    H1 2277   2.366   1.125   3.841
  771TIP3    H2 2278   2.343   1.070   3.980
  772TIP3   OH2 2279   6.470   3.999   3.219
  772TIP3    H1 2280   6.464   4.094   3.233
  772TIP3    H2 2281   6.530   3.990   3.146
  773TIP3   OH2 2282   5.883   5.055   4.203
  773TIP3    H1 2283   5.887   5.027   4.112
  773TIP3    H2 2284   5.971   5.041   4.236
  774TIP3   OH2 2285   5.413   3.390   0.772
  774TIP3    H1 2286   5.502   3.379   0.736
  774TIP3    H2 2287   5.416   3.345   0.856
  775TIP3   OH2 2288   6.815   5.648   5.289
  775TIP3    H1 2289   6.809   5.735   5.250
  775TIP3    H2 2290   6.725   5.628   5.317
  776TIP3   OH2 2291   4.362   1.664   1.733
  776TIP3    H1 2292   4.278   1.641   1.693
  776TIP3    H2 2293   4.374   1.756   1.712
  777TIP3   OH2 2294   3.145   3.433   1.031
  777TIP3    H1 2295   3.060   3.399   1.062
  777TIP3    H2 2296   3.143   3.417   0.937
  778TIP3   OH2 2297   1.998   2.218   3.530
  778TIP3    H1 2298   1.976   2.127   3.546
  778TIP3    H2 2299   2.084   2.229   3.571
  779TIP3   OH2 2300   0.876   0.312   3.794
  779TIP3    H1 2301   0.921   0.234   3.824
  779TIP3    H2 2302   0.865   0.299   3.700
  780TIP3   OH2 2303   3.392   2.245   3.852
  780TIP3    H1 2304   3.410   2.196   3.771
  780TIP3    H2 2305   3.335   2.186   3.902
  781TIP3   OH2 2306   2.200   1.186   2.100
  781TIP3    H1 2307   2.223   1.096   2.126
  781TIP3    H2 2308   2.215   1.238   2.179
  782TIP3   OH2 2309   2.255   2.797   3.094
  782TIP3    H1 2310   2.262   2.765   3.005
  782TIP3    H2 2311   2.344   2.788   3.130
  783TIP3   OH2 2312   5.928   4.348   5.616
  783TIP3    H1 2313   5.934   4.253   5.605
  783TIP3    H2 2314   6.018   4.376   5.630
  784TIP3   OH2 2315   7.021   0.206   2.104
  784TIP3    H1 2316   7.058   0.290   2.131
  784TIP3    H2 2317   6.993   0.164   2.186
  785TIP3   OH2 2318   3.336   1.692   4.447
  785TIP3    H1 2319   3.305   1.662   4.533
  785TIP3    H2 2320   3.269   1.754   4.417
  786TIP3   OH2 2321   2.174   5.503   4.275
  786TIP3    H1 2322   2.194   5.534   4.364
  786TIP3    H2 2323   2.222   5.421   4.267
  787TIP3   OH2 2324   0.035   4.383   2.575
  787TIP3    H1 2325  -0.040   4.367   2.518
  787TIP3    H2 2326   0.021   4.326   2.650
  788TIP3   OH2 2327   6.382   4.018   0.533
  788TIP3    H1 2328   6.475   4.020   0.511
  788TIP3    H2 2329   6.360   4.110   0.550
  789TIP3   OH2 2330   4.568   3.073   3.616
  789TIP3    H1 2331   4.636   3.140   3.614
  789TIP3    H2 2332   4.561   3.044   3.525
  790TIP3   OH2 2333   3.855   3.899   0.458
  790TIP3    H1 2334   3.824   3.839   0.390
  790TIP3    H2 2335   3.781   3.906   0.519
  791TIP3   OH2 2336   5.716   6.656   4.388
  791TIP3    H1 2337   5.770   6.589   4.344
  791TIP3    H2 2338   5.742   6.738   4.347
  792TIP3   OH2 2339   2.961   1.854   4.944
  792TIP3    H1 2340   2.959   1.839   5.038
  792TIP3    H2 2341   2.981   1.768   4.907
  793TIP3   OH2 2342   4.393   5.254   0.658
  793TIP3    H1 2343   4.376   5.338   0.615
  793TIP3    H2 2344   4.368   5.189   0.592
  794TIP3   OH2 2345   6.255   3.730   4.484
  794TIP3    H1 2346   6.347   3.744   4.505
  794TIP3    H2 2347   6.232   3.804   4.428
  795TIP3   OH2 2348   4.617   5.821   4.738
  795TIP3    H1 2349   4.708   5.790   4.740
  795TIP3    H2 2350   4.613   5.879   4.662
  796TIP3   OH2 2351   6.814   1.711   3.391
  796TIP3    H1 2352   6.829   1.760   3.310
  796TIP3    H2 2353   6.759   1.637   3.364
  797TIP3   OH2 2354   1.446   5.719   3.935
  797TIP3    H1 2355   1.410   5.797   3.976
  797TIP3    H2 2356   1.538   5.718   3.962
  798TIP3   OH2 2357   0.493   3.965   1.306
  798TIP3    H1 2358   0.538   4.004   1.380
  798TIP3    H2 2359   0.476   3.875   1.332
  799TIP3   OH2 2360   2.613   0.378   4.831
  799TIP3    H1 2361   2.634   0.435   4.905
  799TIP3    H2 2362   2.602   0.438   4.757
  800TIP3   OH2 2363   6.585   0.489   1.034
  800TIP3    H1 2364   6.596   0.400   1.068
  800TIP3    H2 2365   6.660   0.502   0.976
  801TIP3   OH2 2366   5.971   3.852   4.199
  801TIP3    H1 2367   6.007   3.893   4.278
  801TIP3    H2 2368   5.911   3.785   4.233
  802TIP3   OH2 2369   6.279   6.205   4.928
  802TIP3    H1 2370   6.332   6.128   4.909
  802TIP3    H2 2371   6.195   6.187   4.887
  803TIP3   OH2 2372   2.660   4.615   4.739
  803TIP3    H1 2373   2.598   4.608   4.667
  803TIP3    H2 2374   2.718   4.539   4.729
  804TIP3   OH2 2375   6.769   6.407   1.825
  804TIP3    H1 2376   6.826   6.426   1.751
  804TIP3    H2 2377   6.712   6.483   1.832
  805TIP3   OH2 2378   5.227   4.727   2.041
  805TIP3    H1 2379   5.157   4.714   2.105
  805TIP3    H2 2380   5.284   4.651   2.052
  806TIP3   OH2 2381   0.567   5.231   4.039
  806TIP3    H1 2382   0.614   5.273   4.111
  806TIP3    H2 2383   0.481   5.209   4.075
  807TIP3   OH2 2384   0.172   1.705   2.243
  807TIP3    H1 2385   0.186   1.613   2.220
  807TIP3    H2 2386   0.228   1.719   2.320
  808TIP3   OH2 2387   5.866   4.766   2.084
  808TIP3    H1 2388   5.920   4.837   2.117
  808TIP3    H2 2389   5.928   4.707   2.041
  809TIP3   OH2 2390   3.093   2.757   4.764
  809TIP3    H1 2391   2.998   2.765   4.771
  809TIP3    H2 2392   3.110   2.665   4.784
  810TIP3   OH2 2393   5.948   4.360   3.926
  810TIP3    H1 2394   5.949   4.301   3.852
  810TIP3    H2 2395   6.013   4.427   3.904
  811TIP3   OH2 2396   0.437   2.466   5.531
  811TIP3    H1 2397   0.419   2.407   5.457
  811TIP3    H2 2398   0.524   2.440   5.561
  812TIP3   OH2 2399   1.619   0.664   0.094
  812TIP3    H1 2400   1.639   0.756   0.080
  812TIP3    H2 2401   1.579   0.661   0.181
  813TIP3   OH2 2402   3.325   2.811   5.821
  813TIP3    H1 2403   3.310   2.785   5.730
  813TIP3    H2 2404   3.420   2.823   5.827
  814TIP3   OH2 2405   2.182   4.823   1.289
  814TIP3    H1 2406   2.268   4.832   1.329
  814TIP3    H2 2407   2.120   4.840   1.360
  815TIP3   OH2 2408   4.493   4.448   0.389
  815TIP3    H1 2409   4.428   4.481   0.451
  815TIP3    H2 2410   4.577   4.480   0.423
  816TIP3   OH2 2411   6.771   0.878   5.802
  816TIP3    H1 2412   6.774   0.908   5.893
  816TIP3    H2 2413   6.769   0.782   5.809
  817TIP3   OH2 2414   6.539   3.258   0.870
  817TIP3    H1 2415   6.585   3.287   0.950
  817TIP3    H2 2416   6.543   3.162   0.874
  818TIP3   OH2 2417   0.664   2.576   3.942
  818TIP3    H1 2418   0.665   2.543   3.852
  818TIP3    H2 2419   0.751   2.615   3.954
  819TIP3   OH2 2420   4.930   6.228   4.849
  819TIP3    H1 2421   4.897   6.149   4.892
  819TIP3    H2 2422   4.950   6.288   4.921
  820TIP3   OH2 2423   4.587   6.553   2.423
  820TIP3    H1 2424   4.511   6.542   2.479
  820TIP3    H2 2425   4.558   6.523   2.337
  821TIP3   OH2 2426   6.880   3.341   3.685
  821TIP3    H1 2427   6.972   3.317   3.691
  821TIP3    H2 2428   6.847   3.292   3.610
  822TIP3   OH2 2429   4.330   1.876   2.611
  822TIP3    H1 2430   4.272   1.901   2.539
  822TIP3    H2 2431   4.271   1.852   2.683
  823TIP3   OH2 2432   6.386   0.802   0.154
  823TIP3    H1 2433   6.372   0.729   0.094
  823TIP3    H2 2434   6.420   0.762   0.234
  824TIP3   OH2 2435   1.434   3.766   0.539
  824TIP3    H1 2436   1.503   3.704   0.564
  824TIP3    H2 2437   1.367   3.712   0.497
  825TIP3   OH2 2438   5.439   4.388   3.183
  825TIP3    H1 2439   5.449   4.475   3.143
  825TIP3    H2 2440   5.426   4.329   3.109
  826TIP3   OH2 2441   0.971   1.664   0.600
  826TIP3    H1 2442   0.999   1.696   0.685
  826TIP3    H2 2443   0.968   1.569   0.609
  827TIP3   OH2 2444   0.507   5.670   2.700
  827TIP3    H1 2445   0.491   5.669   2.794
  827TIP3    H2 2446   0.445   5.735   2.667
  828TIP3   OH2 2447   6.547   5.360   2.480
  828TIP3    H1 2448   6.605   5.327   2.411
  828TIP3    H2 2449   6.599   5.426   2.526
  829TIP3   OH2 2450   5.205   2.005   5.361
  829TIP3    H1 2451   5.201   1.951   5.440
  829TIP3    H2 2452   5.253   1.951   5.298
  830TIP3   OH2 2453   5.370   1.006   1.948
  830TIP3    H1 2454   5.352   0.940   1.881
  830TIP3    H2 2455   5.288   1.055   1.955
  831TIP3   OH2 2456   0.685   0.757   2.256
  831TIP3    H1 2457   0.728   0.842   2.267
  831TIP3    H2 2458   0.662   0.754   2.163
  832TIP3   OH2 2459   5.633   5.451   4.081
  832TIP3    H1 2460   5.641   5.529   4.026
  832TIP3    H2 2461   5.620   5.380   4.018
  833TIP3   OH2 2462   6.816   4.146   0.084
  833TIP3    H1 2463   6.901   4.134   0.041
  833TIP3    H2 2464   6.834   4.136   0.177
  834TIP3   OH2 2465   6.496   5.011   0.548
  834TIP3    H1 2466   6.489   5.000   0.643
  834TIP3    H2 2467   6.560   5.082   0.537
  835TIP3   OH2 2468   2.696   5.451   0.218
  835TIP3    H1 2469   2.744   5.530   0.193
  835TIP3    H2 2470   2.704   5.394   0.142
  836TIP3   OH2 2471   4.424   0.651   3.217
  836TIP3    H1 2472   4.387   0.576   3.263
  836TIP3    H2 2473   4.354   0.680   3.158
  837TIP3   OH2 2474   2.592   1.553   0.007
  837TIP3    H1 2475   2.595   1.598   0.091
  837TIP3    H2 2476   2.524   1.598  -0.042
  838TIP3   OH2 2477   0.583   2.540   0.530
  838TIP3    H1 2478   0.551   2.515   0.616
  838TIP3    H2 2479   0.676   2.558   0.543
  839TIP3   OH2 2480   0.107   1.763   1.779
  839TIP3    H1 2481   0.047   1.692   1.802
  839TIP3    H2 2482   0.064   1.842   1.811
  840TIP3   OH2 2483   2.872   3.604   4.717
  840TIP3    H1 2484   2.834   3.581   4.802
  840TIP3    H2 2485   2.893   3.697   4.725
  841TIP3   OH2 2486   7.022   4.182   2.534
  841TIP3    H1 2487   6.975   4.235   2.599
  841TIP3    H2 2488   7.017   4.093   2.568
  842TIP3   OH2 2489   5.460   0.261   5.661
  842TIP3    H1 2490   5.530   0.221   5.608
  842TIP3    H2 2491   5.471   0.355   5.646
  843TIP3   OH2 2492   2.266   2.069   5.222
  843TIP3    H1 2493   2.334   2.125   5.185
  843TIP3    H2 2494   2.278   1.984   5.178
  844TIP3   OH2 2495   5.247   3.667   1.619
  844TIP3    H1 2496   5.294   3.745   1.648
  844TIP3    H2 2497   5.316   3.604   1.597
  845TIP3   OH2 2498   5.508   1.914   1.237
  845TIP3    H1 2499   5.534   1.996   1.279
  845TIP3    H2 2500   5.415   1.905   1.256
  846TIP3   OH2 2501   2.192   6.448   2.248
  846TIP3    H1 2502   2.129   6.509   2.210
  846TIP3    H2 2503   2.162   6.362   2.220
  847TIP3   OH2 2504   6.116   0.963   0.155
  847TIP3    H1 2505   6.118   1.036   0.093
  847TIP3    H2 2506   6.207   0.934   0.162
  848TIP3   OH2 2507   0.805   3.560   5.761
  848TIP3    H1 2508   0.765   3.598   5.683
  848TIP3    H2 2509   0.878   3.618   5.782
  849TIP3   OH2 2510   4.229   0.308   4.189
  849TIP3    H1 2511   4.258   0.398   4.176
  849TIP3    H2 2512   4.286   0.274   4.259
  850TIP3   OH2 2513   6.145   2.595   1.653
  850TIP3    H1 2514   6.216   2.535   1.679
  850TIP3    H2 2515   6.079   2.584   1.722
  851TIP3   OH2 2516   1.827   6.333   5.743
  851TIP3    H1 2517   1.742   6.319   5.786
  851TIP3    H2 2518   1.843   6.253   5.694
  852TIP3   OH2 2519   2.165   1.062   5.499
  852TIP3    H1 2520   2.162   0.992   5.433
  852TIP3    H2 2521   2.234   1.035   5.559
  853TIP3   OH2 2522   2.955   3.311   4.963
  853TIP3    H1 2523   2.981   3.218   4.967
  853TIP3    H2 2524   2.962   3.334   4.871
  854TIP3   OH2 2525   1.556   5.117   0.058
  854TIP3    H1 2526   1.560   5.164  -0.026
  854TIP3    H2 2527   1.464   5.093   0.068
  855TIP3   OH2 2528   6.139   1.388   2.781
  855TIP3    H1 2529   6.085   1.351   2.712
  855TIP3    H2 2530   6.130   1.483   2.771
  856TIP3   OH2 2531   5.408   6.064   0.904
  856TIP3    H1 2532   5.449   6.026   0.982
  856TIP3    H2 2533   5.464   6.139   0.882
  857TIP3   OH2 2534   4.314   2.114   0.224
  857TIP3    H1 2535   4.303   2.038   0.167
  857TIP3    H2 2536   4.379   2.168   0.180
  858TIP3   OH2 2537   3.226   1.199   5.801
  858TIP3    H1 2538   3.270   1.268   5.750
  858TIP3    H2 2539   3.297   1.147   5.837
  859TIP3   OH2 2540   1.453   5.667   3.672
  859TIP3    H1 2541   1.439   5.699   3.761
  859TIP3    H2 2542   1.369   5.680   3.629
  860TIP3   OH2 2543   4.048   0.464   4.630
  860TIP3    H1 2544   4.025   0.376   4.601
  860TIP3    H2 2545   4.000   0.476   4.712
  861TIP3   OH2 2546   2.053   4.068   3.716
  861TIP3    H1 2547   2.137   4.056   3.672
  861TIP3    H2 2548   2.029   3.981   3.747
  862TIP3   OH2 2549   2.444   0.207   3.734
  862TIP3    H1 2550   2.423   0.298   3.711
  862TIP3    H2 2551   2.432   0.203   3.829
  863TIP3   OH2 2552   2.468   6.082   5.133
  863TIP3    H1 2553   2.481   6.165   5.179
  863TIP3    H2 2554   2.438   6.021   5.200
  864TIP3   OH2 2555   3.321   0.245   1.012
  864TIP3    H1 2556   3.409   0.214   0.992
  864TIP3    H2 2557   3.315   0.243   1.108
  865TIP3   OH2 2558   3.536   4.462   1.652
  865TIP3    H1 2559   3.544   4.521   1.577
  865TIP3    H2 2560   3.457   4.492   1.698
  866TIP3   OH2 2561   5.586   2.808   5.564
  866TIP3    H1 2562   5.565   2.881   5.505
  866TIP3    H2 2563   5.502   2.779   5.598
  867TIP3   OH2 2564   2.825   2.411   3.787
  867TIP3    H1 2565   2.919   2.412   3.773
  867TIP3    H2 2566   2.805   2.497   3.824
  868TIP3   OH2 2567   1.663   3.176   2.975
  868TIP3    H1 2568   1.579   3.196   3.016
  868TIP3    H2 2569   1.695   3.100   3.023
  869TIP3   OH2 2570   2.635   2.189   1.012
  869TIP3    H1 2571   2.668   2.275   1.040
  869TIP3    H2 2572   2.580   2.208   0.936
  870TIP3   OH2 2573   5.511   1.823   2.314
  870TIP3    H1 2574   5.547   1.802   2.400
  870TIP3    H2 2575   5.486   1.915   2.320
  871TIP3   OH2 2576   3.669   0.879   1.156
  871TIP3    H1 2577   3.716   0.805   1.119
  871TIP3    H2 2578   3.689   0.952   1.097
  872TIP3   OH2 2579   3.264   6.578   2.151
  872TIP3    H1 2580   3.222   6.546   2.231
  872TIP3    H2 2581   3.192   6.592   2.090
  873TIP3   OH2 2582   4.901   5.437   5.090
  873TIP3    H1 2583   4.873   5.470   5.176
  873TIP3    H2 2584   4.832   5.466   5.030
  874TIP3   OH2 2585   5.104   4.973   5.205
  874TIP3    H1 2586   5.012   4.956   5.183
  874TIP3    H2 2587   5.152   4.946   5.126
  875TIP3   OH2 2588   1.866   4.537   2.881
  875TIP3    H1 2589   1.938   4.475   2.879
  875TIP3    H2 2590   1.844   4.546   2.974
  876TIP3   OH2 2591   4.240   1.183   3.704
  876TIP3    H1 2592   4.187   1.112   3.740
  876TIP3    H2 2593   4.330   1.159   3.727
  877TIP3   OH2 2594   6.618   4.021   1.263
  877TIP3    H1 2595   6.547   4.040   1.201
  877TIP3    H2 2596   6.698   4.030   1.212
  878TIP3   OH2 2597   0.398   5.329   0.861
  878TIP3    H1 2598   0.366   5.324   0.771
  878TIP3    H2 2599   0.319   5.339   0.914
  879TIP3   OH2 2600   6.960   0.265   3.770
  879TIP3    H1 2601   6.990   0.336   3.714
  879TIP3    H2 2602   6.884   0.229   3.725
  880TIP3   OH2 2603   5.943   0.909   2.265
  880TIP3    H1 2604   6.023   0.871   2.229
  880TIP3    H2 2605   5.881   0.908   2.192
  881TIP3   OH2 2606   1.251   1.313   5.203
  881TIP3    H1 2607   1.263   1.353   5.117
  881TIP3    H2 2608   1.329   1.259   5.215
  882TIP3   OH2 2609   1.757   5.999   0.185
  882TIP3    H1 2610   1.725   6.078   0.229
  882TIP3    H2 2611   1.731   6.010   0.094
  883TIP3   OH2 2612   0.566   6.080   5.153
  883TIP3    H1 2613   0.532   6.139   5.220
  883TIP3    H2 2614   0.488   6.042   5.112
  884TIP3   OH2 2615   3.392   2.670   2.607
  884TIP3    H1 2616   3.365   2.692   2.517
  884TIP3    H2 2617   3.484   2.645   2.599
  885TIP3   OH2 2618   4.926   6.407   1.691
  885TIP3    H1 2619   4.958   6.345   1.626
  885TIP3    H2 2620   4.938   6.493   1.650
  886TIP3   OH2 2621   6.337   2.633   2.297
  886TIP3    H1 2622   6.287   2.714   2.296
  886TIP3    H2 2623   6.428   2.660   2.291
  887TIP3   OH2 2624   6.368   3.657   3.650
  887TIP3    H1 2625   6.383   3.569   3.615
  887TIP3    H2 2626   6.411   3.715   3.588
  888TIP3   OH2 2627   7.058   3.209   5.151
  888TIP3    H1 2628   7.152   3.227   5.149
  888TIP3    H2 2629   7.027   3.236   5.065
  889TIP3   OH2 2630   2.784   0.001   1.949
  889TIP3    H1 2631   2.770   0.094   1.969
  889TIP3    H2 2632   2.773  -0.043   2.034
  890TIP3   OH2 2633   1.577   5.274   3.962
  890TIP3    H1 2634   1.667   5.273   3.995
  890TIP3    H2 2635   1.549   5.365   3.968
  891TIP3   OH2 2636   1.763   0.994   5.261
  891TIP3    H1 2637   1.691   0.978   5.200
  891TIP3    H2 2638   1.832   1.031   5.206
  892TIP3   OH2 2639   6.185   5.528   3.965
  892TIP3    H1 2640   6.100   5.485   3.972
  892TIP3    H2 2641   6.168   5.619   3.991
  893TIP3   OH2 2642   1.158   3.870   4.496
  893TIP3    H1 2643   1.119   3.954   4.522
  893TIP3    H2 2644   1.213   3.891   4.421
  894TIP3   OH2 2645   6.488   2.825   1.776
  894TIP3    H1 2646   6.560   2.860   1.723
  894TIP3    H2 2647   6.409   2.848   1.727
  895TIP3   OH2 2648   3.635   5.171   5.138
  895TIP3    H1 2649   3.708   5.112   5.117
  895TIP3    H2 2650   3.576   5.117   5.190
  896TIP3   OH2 2651   4.392   5.950   2.157
  896TIP3    H1 2652   4.301   5.935   2.183
  896TIP3    H2 2653   4.396   5.925   2.065
  897TIP3   OH2 2654   3.498   4.628   2.796
  897TIP3    H1 2655   3.425   4.644   2.856
  897TIP3    H2 2656   3.490   4.696   2.730
  898TIP3   OH2 2657   3.320   0.577   3.690
  898TIP3    H1 2658   3.257   0.586   3.762
  898TIP3    H2 2659   3.351   0.486   3.697
  899TIP3   OH2 2660   6.305   2.923   1.005
  899TIP3    H1 2661   6.241   2.892   0.941
  899TIP3    H2 2662   6.331   2.844   1.053
  900TIP3   OH2 2663   0.050   5.900   2.184
  900TIP3    H1 2664   0.106   5.826   2.162
  900TIP3    H2 2665   0.069   5.918   2.276
  901TIP3   OH2 2666   7.188   2.996   5.709
  901TIP3    H1 2667   7.135   3.062   5.753
  901TIP3    H2 2668   7.180   2.918   5.764
  902TIP3   OH2 2669   5.458   4.103   0.645
  902TIP3    H1 2670   5.432   4.190   0.677
  902TIP3    H2 2671   5.548   4.116   0.614
  903TIP3   OH2 2672   1.047   6.260   5.610
  903TIP3    H1 2673   1.123   6.202   5.620
  903TIP3    H2 2674   0.992   6.215   5.546
  904TIP3   OH2 2675   7.189   4.681   1.056
  904TIP3    H1 2676   7.272   4.728   1.070
  904TIP3    H2 2677   7.167   4.699   0.965
  905TIP3   OH2 2678   2.825   2.487   2.446
  905TIP3    H1 2679   2.736   2.465   2.420
  905TIP3    H2 2680   2.862   2.404   2.477
  906TIP3   OH2 2681   7.182   0.749   3.424
  906TIP3    H1 2682   7.184   0.768   3.330
  906TIP3    H2 2683   7.093   0.770   3.451
  907TIP3   OH2 2684   4.122   2.603   1.634
  907TIP3    H1 2685   4.141   2.690   1.600
  907TIP3    H2 2686   4.156   2.543   1.568
  908TIP3   OH2 2687   6.266   3.667   1.935
  908TIP3    H1 2688   6.325   3.734   1.901
  908TIP3    H2 2689   6.271   3.677   2.030
  909TIP3   OH2 2690   5.185   3.888   3.392
  909TIP3    H1 2691   5.240   3.936   3.330
  909TIP3    H2 2692   5.239   3.814   3.420
  910TIP3   OH2 2693   2.159   5.729   3.701
  910TIP3    H1 2694   2.237   5.782   3.720
  910TIP3    H2 2695   2.187   5.639   3.720
  911TIP3   OH2 2696   6.049   5.894   3.760
  911TIP3    H1 2697   6.056   5.843   3.841
  911TIP3    H2 2698   5.956   5.914   3.753
  912TIP3   OH2 2699   3.235   0.424   2.745
  912TIP3    H1 2700   3.255   0.479   2.821
  912TIP3    H2 2701   3.222   0.337   2.783
  913TIP3   OH2 2702   5.904   5.243   4.558
  913TIP3    H1 2703   5.865   5.239   4.471
  913TIP3    H2 2704   5.989   5.284   4.544
  914TIP3   OH2 2705   4.970   4.002   2.641
  914TIP3    H1 2706   4.896   4.032   2.693
  914TIP3    H2 2707   4.932   3.943   2.576
  915TIP3   OH2 2708   0.627   0.749   4.924
  915TIP3    H1 2709   0.670   0.834   4.915
  915TIP3    H2 2710   0.697   0.689   4.947
  916TIP3   OH2 2711   4.182   6.508   1.940
  916TIP3    H1 2712   4.268   6.543   1.918
  916TIP3    H2 2713   4.172   6.525   2.034
  917TIP3   OH2 2714   4.110   3.631   2.570
  917TIP3    H1 2715   4.052   3.695   2.528
  917TIP3    H2 2716   4.051   3.574   2.620
  918TIP3   OH2 2717   6.275   2.190   4.697
  918TIP3    H1 2718   6.284   2.248   4.772
  918TIP3    H2 2719   6.257   2.104   4.734
  919TIP3   OH2 2720   3.914   6.389   4.276
  919TIP3    H1 2721   3.923   6.469   4.328
  919TIP3    H2 2722   3.858   6.415   4.202
  920TIP3   OH2 2723   0.548   1.654   4.568
  920TIP3    H1 2724   0.595   1.704   4.501
  920TIP3    H2 2725   0.457   1.682   4.560
  921TIP3   OH2 2726   5.150   4.366   2.891
  921TIP3    H1 2727   5.087   4.347   2.960
  921TIP3    H2 2728   5.175   4.281   2.856
  922TIP3   OH2 2729   3.131   3.275   2.768
  922TIP3    H1 2730   3.209   3.326   2.744
  922TIP3    H2 2731   3.154   3.236   2.852
  923TIP3   OH2 2732   2.703   3.201   0.901
  923TIP3    H1 2733   2.702   3.232   0.992
  923TIP3    H2 2734   2.763   3.126   0.902
  924TIP3   OH2 2735   2.710   4.679   0.896
  924TIP3    H1 2736   2.616   4.660   0.899
  924TIP3    H2 2737   2.717   4.755   0.838
  925TIP3   OH2 2738   0.692   1.937   5.179
  925TIP3    H1 2739   0.779   1.958   5.215
  925TIP3    H2 2740   0.685   1.842   5.188
  926TIP3   OH2 2741   2.817   0.198   2.320
  926TIP3    H1 2742   2.785   0.233   2.237
  926TIP3    H2 2743   2.778   0.111   2.327
  927TIP3   OH2 2744   2.688   5.445   4.599
  927TIP3    H1 2745   2.773   5.419   4.565
  927TIP3    H2 2746   2.705   5.472   4.690
  928TIP3   OH2 2747   5.145   3.687   2.185
  928TIP3    H1 2748   5.133   3.594   2.204
  928TIP3    H2 2749   5.060   3.715   2.152
  929TIP3   OH2 2750  -0.019   5.184   5.724
  929TIP3    H1 2751   0.046   5.192   5.793
  929TIP3    H2 2752   0.014   5.114   5.667
  930TIP3   OH2 2753   4.625   4.720   0.895
  930TIP3    H1 2754   4.681   4.730   0.972
  930TIP3    H2 2755   4.540   4.693   0.930
  931TIP3   OH2 2756   5.208   0.879   0.502
  931TIP3    H1 2757   5.209   0.942   0.430
  931TIP3    H2 2758   5.231   0.795   0.462
  932TIP3   OH2 2759   6.733   5.523   4.719
  932TIP3    H1 2760   6.729   5.557   4.808
  932TIP3    H2 2761   6.819   5.480   4.714
  933TIP3   OH2 2762   0.416   1.380   4.985
  933TIP3    H1 2763   0.426   1.378   5.080
  933TIP3    H2 2764   0.433   1.472   4.962
  934TIP3   OH2 2765   3.131   6.536   5.122
  934TIP3    H1 2766   3.220   6.504   5.110
  934TIP3    H2 2767   3.088   6.468   5.174
  935TIP3   OH2 2768   4.599   5.085   1.947
  935TIP3    H1 2769   4.541   5.147   1.902
  935TIP3    H2 2770   4.674   5.075   1.888
  936TIP3   OH2 2771   3.720   2.956   2.573
  936TIP3    H1 2772   3.658   2.992   2.509
  936TIP3    H2 2773   3.792   2.922   2.519
  937TIP3   OH2 2774   2.888   2.628   2.657
  937TIP3    H1 2775   2.883   2.595   2.567
  937TIP3    H2 2776   2.799   2.620   2.690
  938TIP3   OH2 2777   0.644   0.298   0.761
  938TIP3    H1 2778   0.595   0.367   0.715
  938TIP3    H2 2779   0.652   0.330   0.851
  939TIP3   OH2 2780   0.749   0.227   0.360
  939TIP3    H1 2781   0.691   0.151   0.361
  939TIP3    H2 2782   0.835   0.191   0.380
  940TIP3   OH2 2783   4.748   0.932   4.136
  940TIP3    H1 2784   4.838   0.960   4.151
  940TIP3    H2 2785   4.700   0.962   4.213
  941TIP3   OH2 2786   1.384   5.291   5.466
  941TIP3    H1 2787   1.409   5.340   5.388
  941TIP3    H2 2788   1.293   5.264   5.450
  942TIP3   OH2 2789   5.802   4.476   0.193
  942TIP3    H1 2790   5.774   4.568   0.198
  942TIP3    H2 2791   5.772   4.438   0.276
  943TIP3   OH2 2792   1.201   3.020   3.712
  943TIP3    H1 2793   1.127   2.979   3.756
  943TIP3    H2 2794   1.192   2.994   3.621
  944TIP3   OH2 2795   0.697   2.251   5.451
  944TIP3    H1 2796   0.749   2.183   5.495
  944TIP3    H2 2797   0.725   2.333   5.492
  945TIP3   OH2 2798   4.367   5.147   2.401
  945TIP3    H1 2799   4.336   5.069   2.447
  945TIP3    H2 2800   4.357   5.218   2.465
  946TIP3   OH2 2801   4.303   5.353   2.600
  946TIP3    H1 2802   4.229   5.400   2.639
  946TIP3    H2 2803   4.375   5.366   2.661
  947TIP3   OH2 2804   2.150   3.825   1.762
  947TIP3    H1 2805   2.130   3.738   1.796
  947TIP3    H2 2806   2.149   3.814   1.666
  948TIP3   OH2 2807   2.191   3.533   2.391
  948TIP3    H1 2808   2.179   3.580   2.474
  948TIP3    H2 2809   2.285   3.512   2.389
  949TIP3   OH2 2810   7.058   6.337   2.247
  949TIP3    H1 2811   6.993   6.374   2.307
  949TIP3    H2 2812   7.026   6.359   2.160
  950TIP3   OH2 2813   3.647   1.748   1.694
  950TIP3    H1 2814   3.571   1.797   1.725
  950TIP3    H2 2815   3.618   1.708   1.611
  951TIP3   OH2 2816   1.976   3.500   0.958
  951TIP3    H1 2817   1.920   3.577   0.962
  951TIP3    H2 2818   1.953   3.457   0.876
  952TIP3   OH2 2819   0.719   5.180   1.909
  952TIP3    H1 2820   0.680   5.150   1.826
  952TIP3    H2 2821   0.798   5.226   1.883
  953TIP3   OH2 2822   1.595   1.263   5.103
  953TIP3    H1 2823   1.527   1.218   5.054
  953TIP3    H2 2824   1.570   1.252   5.195
  954TIP3   OH2 2825   1.026   0.399   4.952
  954TIP3    H1 2826   1.082   0.359   4.886
  954TIP3    H2 2827   1.077   0.394   5.033
  955TIP3   OH2 2828   1.912   1.246   0.854
  955TIP3    H1 2829   2.004   1.218   0.854
  955TIP3    H2 2830   1.895   1.270   0.763
  956TIP3   OH2 2831   0.143   2.070   2.289
  956TIP3    H1 2832   0.060   2.023   2.279
  956TIP3    H2 2833   0.124   2.138   2.353
  957TIP3   OH2 2834   3.441   1.107   3.906
  957TIP3    H1 2835   3.488   1.057   3.972
  957TIP3    H2 2836   3.492   1.095   3.826
  958TIP3   OH2 2837   6.701   3.711   0.067
  958TIP3    H1 2838   6.687   3.652  -0.007
  958TIP3    H2 2839   6.795   3.730   0.065
  959TIP3   OH2 2840   0.225   1.985   0.685
  959TIP3    H1 2841   0.149   1.927   0.689
  959TIP3    H2 2842   0.236   2.016   0.775
  960TIP3   OH2 2843   7.186   2.093   3.381
  960TIP3    H1 2844   7.207   2.183   3.358
  960TIP3    H2 2845   7.146   2.099   3.468
  961TIP3   OH2 2846   3.529   4.541   3.911
  961TIP3    H1 2847   3.555   4.449   3.908
  961TIP3    H2 2848   3.448   4.545   3.860
  962TIP3   OH2 2849   0.548   1.823   3.625
  962TIP3    H1 2850   0.514   1.802   3.712
  962TIP3    H2 2851   0.625   1.768   3.615
  963TIP3   OH2 2852   1.231   6.315   0.377
  963TIP3    H1 2853   1.166   6.268   0.325
  963TIP3    H2 2854   1.247   6.259   0.453
  964TIP3   OH2 2855   0.158   4.689   1.947
  964TIP3    H1 2856   0.077   4.736   1.966
  964TIP3    H2 2857   0.213   4.753   1.902
  965TIP3   OH2 2858   3.152   2.371   0.254
  965TIP3    H1 2859   3.177   2.345   0.165
  965TIP3    H2 2860   3.079   2.432   0.242
  966TIP3   OH2 2861   3.707   1.363   1.550
  966TIP3    H1 2862   3.749   1.332   1.630
  966TIP3    H2 2863   3.618   1.387   1.577
  967TIP3   OH2 2864   3.623   5.817   4.806
  967TIP3    H1 2865   3.676   5.866   4.869
  967TIP3    H2 2866   3.686   5.768   4.754
  968TIP3   OH2 2867   0.815   5.313   5.825
  968TIP3    H1 2868   0.791   5.394   5.870
  968TIP3    H2 2869   0.881   5.339   5.762
  969TIP3   OH2 2870   1.622   5.572   1.100
  969TIP3    H1 2871   1.610   5.497   1.157
  969TIP3    H2 2872   1.535   5.614   1.098
  970TIP3   OH2 2873   0.932   1.360   4.819
  970TIP3    H1 2874   0.892   1.446   4.830
  970TIP3    H2 2875   1.001   1.356   4.885
  971TIP3   OH2 2876   1.861   1.129   3.392
  971TIP3    H1 2877   1.871   1.034   3.383
  971TIP3    H2 2878   1.893   1.147   3.481
  972TIP3   OH2 2879   1.567   2.648   2.434
  972TIP3    H1 2880   1.596   2.730   2.475
  972TIP3    H2 2881   1.472   2.648   2.446
  973TIP3   OH2 2882   7.149   5.875   3.583
  973TIP3    H1 2883   7.102   5.885   3.500
  973TIP3    H2 2884   7.236   5.845   3.557
  974TIP3   OH2 2885   2.360   1.927   4.940
  974TIP3    H1 2886   2.352   1.832   4.941
  974TIP3    H2 2887   2.279   1.957   4.897
  975TIP3   OH2 2888   0.075   3.753   1.815
  975TIP3    H1 2889   0.037   3.691   1.753
  975TIP3    H2 2890   0.036   3.837   1.793
  976TIP3   OH2 2891   3.006   1.559   0.238
  976TIP3    H1 2892   3.064   1.534   0.310
  976TIP3    H2 2893   2.921   1.525   0.262
  977TIP3   OH2 2894   5.083   0.182   2.312
  977TIP3    H1 2895   5.022   0.137   2.371
  977TIP3    H2 2896   5.092   0.270   2.351
  978TIP3   OH2 2897   3.431   5.518   3.088
  978TIP3    H1 2898   3.485   5.456   3.037
  978TIP3    H2 2899   3.353   5.467   3.111
  979TIP3   OH2 2900   3.004   3.501   1.490
  979TIP3    H1 2901   3.021   3.531   1.580
  979TIP3    H2 2902   3.086   3.459   1.463
  980TIP3   OH2 2903   6.468   0.398   5.378
  980TIP3    H1 2904   6.427   0.312   5.383
  980TIP3    H2 2905   6.506   0.402   5.290
  981TIP3   OH2 2906   1.957   4.725   4.296
  981TIP3    H1 2907   1.918   4.675   4.367
  981TIP3    H2 2908   1.945   4.669   4.219
  982TIP3   OH2 2909   6.086   1.821   3.087
  982TIP3    H1 2910   6.055   1.769   3.161
  982TIP3    H2 2911   6.038   1.904   3.094
  983TIP3   OH2 2912   1.819   5.420   2.313
  983TIP3    H1 2913   1.773   5.499   2.283
  983TIP3    H2 2914   1.766   5.348   2.280
  984TIP3   OH2 2915   4.720   1.113   3.881
  984TIP3    H1 2916   4.732   1.041   3.943
  984TIP3    H2 2917   4.695   1.069   3.799
  985TIP3   OH2 2918   3.259   6.685   4.192
  985TIP3    H1 2919   3.218   6.771   4.201
  985TIP3    H2 2920   3.311   6.692   4.112
  986TIP3   OH2 2921   2.789   6.046   0.832
  986TIP3    H1 2922   2.769   6.032   0.924
  986TIP3    H2 2923   2.828   6.133   0.828
  987TIP3   OH2 2924   3.769   5.797   0.004
  987TIP3    H1 2925   3.803   5.866   0.062
  987TIP3    H2 2926   3.840   5.732   0.001
  988TIP3   OH2 2927   0.562   4.400   3.730
  988TIP3    H1 2928   0.521   4.313   3.730
  988TIP3    H2 2929   0.488   4.461   3.730
  989TIP3   OH2 2930   5.161   3.931   0.761
  989TIP3    H1 2931   5.246   3.957   0.795
  989TIP3    H2 2932   5.161   3.962   0.670
  990TIP3   OH2 2933   4.335   4.492   4.401
  990TIP3    H1 2934   4.421   4.459   4.375
  990TIP3    H2 2935   4.310   4.551   4.330
  991TIP3   OH2 2936   3.841   4.971   3.964
  991TIP3    H1 2937   3.842   5.060   3.930
  991TIP3    H2 2938   3.933   4.944   3.965
  992TIP3   OH2 2939   2.385   3.829   1.250
  992TIP3    H1 2940   2.319   3.792   1.191
  992TIP3    H2 2941   2.340   3.835   1.334
  993TIP3   OH2 2942   3.308   5.513   3.849
  993TIP3    H1 2943   3.328   5.474   3.764
  993TIP3    H2 2944   3.325   5.443   3.912
  994TIP3   OH2 2945   1.916   4.915   2.494
  994TIP3    H1 2946   1.928   4.964   2.575
  994TIP3    H2 2947   1.923   4.981   2.425
  995TIP3   OH2 2948   3.727   0.846   0.033
  995TIP3    H1 2949   3.733   0.770  -0.026
  995TIP3    H2 2950   3.634   0.853   0.053
  996TIP3   OH2 2951   2.061   5.108   3.179
  996TIP3    H1 2952   2.153   5.127   3.195
  996TIP3    H2 2953   2.039   5.157   3.100
  997TIP3   OH2 2954   6.856   1.975   4.462
  997TIP3    H1 2955   6.851   2.023   4.380
  997TIP3    H2 2956   6.915   1.902   4.443
  998TIP3   OH2 2957   1.304   4.781   0.362
  998TIP3    H1 2958   1.350   4.836   0.299
  998TIP3    H2 2959   1.366   4.710   0.382
  999TIP3   OH2 2960   1.472   6.405   1.370
  999TIP3    H1 2961   1.431   6.363   1.446
  999TIP3    H2 2962   1.566   6.388   1.380
 1000TIP3   OH2 2963   4.702   3.103   5.726
 1000TIP3    H1 2964   4.652   3.172   5.684
 1000TIP3    H2 2965   4.792   3.116   5.695
 1001TIP3   OH2 2966   0.317   3.666   5.819
 1001TIP3    H1 2967   0.272   3.585   5.797
 1001TIP3    H2 2968   0.396   3.638   5.866
 1002TIP3   OH2 2969   0.178   3.419   4.566
 1002TIP3    H1 2970   0.251   3.420   4.627
 1002TIP3    H2 2971   0.132   3.337   4.583
 1003TIP3   OH2 2972   3.917   3.686   5.438
 1003TIP3    H1 2973   3.872   3.708   5.357
 1003TIP3    H2 2974   3.873   3.606   5.470
 1004TIP3   OH2 2975   4.181   3.768   0.727
 1004TIP3    H1 2976   4.185   3.788   0.633
 1004TIP3    H2 2977   4.087   3.768   0.747
 1005TIP3   OH2 2978   3.095   1.520   4.218
 1005TIP3    H1 2979   3.045   1.580   4.272
 1005TIP3    H2 2980   3.155   1.476   4.279
 1006TIP3   OH2 2981   7.175   2.366   4.430
 1006TIP3    H1 2982   7.203   2.407   4.512
 1006TIP3    H2 2983   7.244   2.302   4.410
 1007TIP3   OH2 2984   2.457   0.666   4.404
 1007TIP3    H1 2985   2.369   0.633   4.421
 1007TIP3    H2 2986   2.443   0.749   4.359
 1008TIP3   OH2 2987   1.662   3.422   0.732
 1008TIP3    H1 2988   1.618   3.373   0.662
 1008TIP3    H2 2989   1.745   3.376   0.744
 1009TIP3   OH2 2990   7.034   3.710   1.036
 1009TIP3    H1 2991   6.958   3.720   0.978
 1009TIP3    H2 2992   7.029   3.620   1.066
 1010TIP3   OH2 2993   7.179   0.477   2.512
 1010TIP3    H1 2994   7.189   0.455   2.419
 1010TIP3    H2 2995   7.216   0.565   2.520
 1011TIP3   OH2 2996   3.049   1.082   2.562
 1011TIP3    H1 2997   3.067   1.152   2.625
 1011TIP3    H2 2998   2.962   1.050   2.586
 1012TIP3   OH2 2999   6.012   0.994   4.030
 1012TIP3    H1 3000   6.051   0.923   3.979
 1012TIP3    H2 3001   5.980   1.055   3.963
 1013TIP3   OH2 3002   4.969   1.015   3.751
 1013TIP3    H1 3003   5.024   1.081   3.709
 1013TIP3    H2 3004   4.955   1.048   3.840
 1014TIP3   OH2 3005   2.042   6.460   1.559
 1014TIP3    H1 3006   2.084   6.516   1.625
 1014TIP3    H2 3007   2.104   6.388   1.545
 1015TIP3   OH2 3008   0.104   3.926  -0.035
 1015TIP3    H1 3009   0.013   3.921  -0.006
 1015TIP3    H2 3010   0.154   3.927   0.047
 1016TIP3   OH2 3011   1.588   5.084   2.469
 1016TIP3    H1 3012   1.656   5.099   2.534
 1016TIP3    H2 3013   1.515   5.047   2.518
 1017TIP3   OH2 3014   2.526   6.354   3.772
 1017TIP3    H1 3015   2.506   6.426   3.712
 1017TIP3    H2 3016   2.445   6.304   3.778
 1018TIP3   OH2 3017   2.036   2.569   0.850
 1018TIP3    H1 3018   2.002   2.516   0.778
 1018TIP3    H2 3019   2.080   2.642   0.808
 1019TIP3   OH2 3020   4.059   0.685   0.826
 1019TIP3    H1 3021   4.089   0.617   0.887
 1019TIP3    H2 3022   4.049   0.639   0.743
 1020TIP3   OH2 3023   4.300   5.462   1.585
 1020TIP3    H1 3024   4.254   5.494   1.662
 1020TIP3    H2 3025   4.388   5.500   1.592
 1021TIP3   OH2 3026   3.429   5.743   3.544
 1021TIP3    H1 3027   3.383   5.765   3.463
 1021TIP3    H2 3028   3.364   5.698   3.597
 1022TIP3   OH2 3029   4.198   2.117   3.563
 1022TIP3    H1 3030   4.175   2.102   3.655
 1022TIP3    H2 3031   4.281   2.070   3.552
 1023TIP3   OH2 3032   0.893   3.462   1.799
 1023TIP3    H1 3033   0.890   3.416   1.715
 1023TIP3    H2 3034   0.924   3.550   1.777
 1024TIP3   OH2 3035   2.808   0.366   0.694
 1024TIP3    H1 3036   2.903   0.381   0.695
 1024TIP3    H2 3037   2.794   0.297   0.760
 1025TIP3   OH2 3038   3.430   2.196   1.287
 1025TIP3    H1 3039   3.398   2.221   1.200
 1025TIP3    H2 3040   3.355   2.211   1.345
 1026TIP3   OH2 3041   6.896   4.037   0.336
 1026TIP3    H1 3042   6.856   3.951   0.320
 1026TIP3    H2 3043   6.949   4.024   0.415
 1027TIP3   OH2 3044   5.220   3.432   2.463
 1027TIP3    H1 3045   5.182   3.383   2.389
 1027TIP3    H2 3046   5.311   3.447   2.438
 1028TIP3   OH2 3047   3.098   3.040   1.033
 1028TIP3    H1 3048   3.182   3.079   1.011
 1028TIP3    H2 3049   3.118   2.975   1.100
 1029TIP3   OH2 3050   3.158   3.843   4.044
 1029TIP3    H1 3051   3.190   3.874   3.959
 1029TIP3    H2 3052   3.093   3.776   4.023
 1030TIP3   OH2 3053   2.122   4.922   2.735
 1030TIP3    H1 3054   2.068   4.844   2.749
 1030TIP3    H2 3055   2.208   4.898   2.772
 1031TIP3   OH2 3056   0.215   6.732   2.441
 1031TIP3    H1 3057   0.122   6.708   2.442
 1031TIP3    H2 3058   0.231   6.766   2.529
 1032TIP3   OH2 3059   6.266   1.826   0.353
 1032TIP3    H1 3060   6.255   1.921   0.350
 1032TIP3    H2 3061   6.249   1.797   0.263
 1033TIP3   OH2 3062   6.453   5.243   2.837
 1033TIP3    H1 3063   6.483   5.211   2.753
 1033TIP3    H2 3064   6.376   5.297   2.817
 1034TIP3   OH2 3065   5.149   2.669   5.328
 1034TIP3    H1 3066   5.154   2.595   5.389
 1034TIP3    H2 3067   5.098   2.735   5.375
 1035TIP3   OH2 3068   4.095   3.482   1.142
 1035TIP3    H1 3069   4.115   3.574   1.125
 1035TIP3    H2 3070   3.999   3.476   1.134
 1036TIP3   OH2 3071   1.694   5.919   0.840
 1036TIP3    H1 3072   1.599   5.911   0.848
 1036TIP3    H2 3073   1.715   6.001   0.884
 1037TIP3   OH2 3074   4.493   3.186   0.690
 1037TIP3    H1 3075   4.567   3.231   0.650
 1037TIP3    H2 3076   4.416   3.218   0.641
 1038TIP3   OH2 3077   4.719   4.984   0.609
 1038TIP3    H1 3078   4.681   4.932   0.538
 1038TIP3    H2 3079   4.752   5.063   0.566
 1039TIP3   OH2 3080   1.654   2.297   2.282
 1039TIP3    H1 3081   1.744   2.281   2.254
 1039TIP3    H2 3082   1.640   2.237   2.355
 1040TIP3   OH2 3083   1.809   3.581   2.973
 1040TIP3    H1 3084   1.790   3.564   2.881
 1040TIP3    H2 3085   1.727   3.559   3.018
 1041TIP3   OH2 3086   6.115   5.935   0.213
 1041TIP3    H1 3087   6.176   5.877   0.258
 1041TIP3    H2 3088   6.045   5.877   0.182
 1042TIP3   OH2 3089   6.206   4.738   1.897
 1042TIP3    H1 3090   6.133   4.684   1.867
 1042TIP3    H2 3091   6.240   4.779   1.817
 1043TIP3   OH2 3092   0.254   1.222   5.641
 1043TIP3    H1 3093   0.225   1.295   5.588
 1043TIP3    H2 3094   0.343   1.247   5.669
 1044TIP3   OH2 3095   0.608   1.217   2.133
 1044TIP3    H1 3096   0.586   1.299   2.177
 1044TIP3    H2 3097   0.669   1.173   2.192
 1045TIP3   OH2 3098   5.374   1.064   0.074
 1045TIP3    H1 3099   5.341   1.077  -0.015
 1045TIP3    H2 3100   5.454   1.117   0.078
 1046TIP3   OH2 3101   2.977   4.517   3.611
 1046TIP3    H1 3102   2.946   4.605   3.592
 1046TIP3    H2 3103   3.073   4.523   3.605
 1047TIP3   OH2 3104   3.072   1.264   5.323
 1047TIP3    H1 3105   2.976   1.264   5.333
 1047TIP3    H2 3106   3.104   1.306   5.403
 1048TIP3   OH2 3107   6.497   3.333   1.493
 1048TIP3    H1 3108   6.492   3.371   1.581
 1048TIP3    H2 3109   6.419   3.366   1.448
 1049TIP3   OH2 3110   4.361   4.148   4.739
 1049TIP3    H1 3111   4.444   4.179   4.703
 1049TIP3    H2 3112   4.383   4.122   4.829
 1050TIP3   OH2 3113   2.863   4.161   3.477
 1050TIP3    H1 3114   2.830   4.197   3.559
 1050TIP3    H2 3115   2.814   4.207   3.409
 1051TIP3   OH2 3116   6.352   0.866   3.877
 1051TIP3    H1 3117   6.275   0.810   3.866
 1051TIP3    H2 3118   6.426   0.810   3.853
 1052TIP3   OH2 3119   5.173   4.924   4.947
 1052TIP3    H1 3120   5.134   4.992   4.892
 1052TIP3    H2 3121   5.237   4.881   4.890
 1053TIP3   OH2 3122   6.340   5.033   0.770
 1053TIP3    H1 3123   6.292   4.995   0.843
 1053TIP3    H2 3124   6.312   5.125   0.768
 1054TIP3   OH2 3125   2.760   1.291   4.113
 1054TIP3    H1 3126   2.678   1.339   4.114
 1054TIP3    H2 3127   2.736   1.203   4.082
 1055TIP3   OH2 3128   1.717   4.519   5.679
 1055TIP3    H1 3129   1.622   4.505   5.679
 1055TIP3    H2 3130   1.737   4.548   5.590
 1056TIP3   OH2 3131   1.996   5.531   5.214
 1056TIP3    H1 3132   2.018   5.438   5.202
 1056TIP3    H2 3133   2.010   5.547   5.307
 1057TIP3   OH2 3134   4.014   6.715   4.931
 1057TIP3    H1 3135   3.953   6.746   4.997
 1057TIP3    H2 3136   4.099   6.751   4.958
 1058TIP3   OH2 3137   4.270   3.568   1.809
 1058TIP3    H1 3138   4.277   3.661   1.834
 1058TIP3    H2 3139   4.347   3.552   1.755
 1059TIP3   OH2 3140   5.152   1.816   0.065
 1059TIP3    H1 3141   5.097   1.889   0.035
 1059TIP3    H2 3142   5.220   1.808  -0.002
 1060TIP3   OH2 3143   5.280   4.168   4.616
 1060TIP3    H1 3144   5.275   4.077   4.645
 1060TIP3    H2 3145   5.206   4.210   4.659
 1061TIP3   OH2 3146   6.710   1.130   4.931
 1061TIP3    H1 3147   6.699   1.042   4.895
 1061TIP3    H2 3148   6.622   1.157   4.958
 1062TIP3   OH2 3149   2.827   6.489   2.606
 1062TIP3    H1 3150   2.832   6.542   2.685
 1062TIP3    H2 3151   2.827   6.398   2.636
 1063TIP3   OH2 3152   5.494   2.898   3.826
 1063TIP3    H1 3153   5.462   2.829   3.884
 1063TIP3    H2 3154   5.567   2.938   3.874
 1064TIP3   OH2 3155   0.895   2.702   0.929
 1064TIP3    H1 3156   0.871   2.790   0.957
 1064TIP3    H2 3157   0.934   2.714   0.842
 1065TIP3   OH2 3158   1.610   5.475   3.122
 1065TIP3    H1 3159   1.631   5.481   3.215
 1065TIP3    H2 3160   1.627   5.384   3.100
 1066TIP3   OH2 3161   0.128   4.728   3.519
 1066TIP3    H1 3162   0.139   4.823   3.512
 1066TIP3    H2 3163   0.033   4.715   3.522
 1067TIP3   OH2 3164   7.039   6.620   3.846
 1067TIP3    H1 3165   7.001   6.707   3.836
 1067TIP3    H2 3166   6.965   6.563   3.866
 1068TIP3   OH2 3167   2.359   1.306   4.664
 1068TIP3    H1 3168   2.451   1.323   4.643
 1068TIP3    H2 3169   2.342   1.360   4.742
 1069TIP3   OH2 3170   2.363   4.006   5.465
 1069TIP3    H1 3171   2.297   3.984   5.530
 1069TIP3    H2 3172   2.397   4.091   5.491
 1070TIP3   OH2 3173   5.755   3.188   0.204
 1070TIP3    H1 3174   5.793   3.160   0.288
 1070TIP3    H2 3175   5.665   3.210   0.225
 1071TIP3   OH2 3176   0.193   5.323   3.030
 1071TIP3    H1 3177   0.222   5.384   2.962
 1071TIP3    H2 3178   0.268   5.266   3.045
 1072TIP3   OH2 3179   5.221   4.794   2.724
 1072TIP3    H1 3180   5.235   4.784   2.819
 1072TIP3    H2 3181   5.308   4.812   2.689
 1073TIP3   OH2 3182   5.584   5.798   4.415
 1073TIP3    H1 3183   5.558   5.875   4.364
 1073TIP3    H2 3184   5.581   5.726   4.351
 1074TIP3   OH2 3185   1.980   6.472   5.017
 1074TIP3    H1 3186   1.982   6.536   5.089
 1074TIP3    H2 3187   2.058   6.418   5.032
 1075TIP3   OH2 3188   2.275   4.719   0.548
 1075TIP3    H1 3189   2.193   4.715   0.499
 1075TIP3    H2 3190   2.342   4.738   0.482
 1076TIP3   OH2 3191   6.203   1.676   1.539
 1076TIP3    H1 3192   6.268   1.740   1.514
 1076TIP3    H2 3193   6.140   1.675   1.467
 1077TIP3   OH2 3194   2.548   6.448   1.982
 1077TIP3    H1 3195   2.499   6.385   1.929
 1077TIP3    H2 3196   2.638   6.414   1.981
 1078TIP3   OH2 3197   0.970   1.294   5.157
 1078TIP3    H1 3198   1.064   1.305   5.171
 1078TIP3    H2 3199   0.964   1.218   5.100
 1079TIP3   OH2 3200   0.790   5.696   3.033
 1079TIP3    H1 3201   0.885   5.698   3.039
 1079TIP3    H2 3202   0.771   5.636   2.961
 1080TIP3   OH2 3203   5.696   2.366   2.088
 1080TIP3    H1 3204   5.777   2.331   2.050
 1080TIP3    H2 3205   5.726   2.414   2.166
 1081TIP3   OH2 3206   1.520   3.620   2.647
 1081TIP3    H1 3207   1.461   3.569   2.591
 1081TIP3    H2 3208   1.480   3.617   2.734
 1082TIP3   OH2 3209   1.811   1.851   1.564
 1082TIP3    H1 3210   1.742   1.807   1.613
 1082TIP3    H2 3211   1.889   1.840   1.618
 1083TIP3   OH2 3212   6.320   3.025   0.700
 1083TIP3    H1 3213   6.412   3.042   0.720
 1083TIP3    H2 3214   6.309   2.931   0.713
 1084TIP3   OH2 3215   6.830   4.648   3.342
 1084TIP3    H1 3216   6.782   4.717   3.295
 1084TIP3    H2 3217   6.761   4.593   3.380
 1085TIP3   OH2 3218   0.053   3.936   3.460
 1085TIP3    H1 3219   0.026   3.928   3.551
 1085TIP3    H2 3220   0.142   3.903   3.458
 1086TIP3   OH2 3221   3.397   2.247   2.776
 1086TIP3    H1 3222   3.324   2.303   2.749
 1086TIP3    H2 3223   3.428   2.285   2.858
 1087TIP3   OH2 3224   5.931   5.453   1.213
 1087TIP3    H1 3225   5.883   5.460   1.130
 1087TIP3    H2 3226   5.877   5.500   1.276
 1088TIP3   OH2 3227   6.199   6.109   4.490
 1088TIP3    H1 3228   6.235   6.159   4.417
 1088TIP3    H2 3229   6.235   6.021   4.479
 1089TIP3   OH2 3230   2.097   5.559   0.191
 1089TIP3    H1 3231   2.031   5.628   0.186
 1089TIP3    H2 3232   2.180   5.603   0.175
 1090TIP3   OH2 3233   3.852   1.215   3.812
 1090TIP3    H1 3234   3.904   1.282   3.768
 1090TIP3    H2 3235   3.763   1.231   3.783
 1091TIP3   OH2 3236   6.614   5.169   4.104
 1091TIP3    H1 3237   6.551   5.242   4.109
 1091TIP3    H2 3238   6.623   5.151   4.010
 1092TIP3   OH2 3239   3.736   4.566   2.695
 1092TIP3    H1 3240   3.738   4.619   2.615
 1092TIP3    H2 3241   3.647   4.579   2.729
 1093TIP3   OH2 3242   2.833   3.247   4.539
 1093TIP3    H1 3243   2.921   3.210   4.533
 1093TIP3    H2 3244   2.787   3.211   4.463
 1094TIP3   OH2 3245   5.766   3.013   3.620
 1094TIP3    H1 3246   5.679   3.041   3.591
 1094TIP3    H2 3247   5.823   3.087   3.597
 1095TIP3   OH2 3248   5.549   5.837   2.387
 1095TIP3    H1 3249   5.520   5.866   2.300
 1095TIP3    H2 3250   5.469   5.825   2.437
 1096TIP3   OH2 3251   1.251   4.655   2.184
 1096TIP3    H1 3252   1.309   4.579   2.192
 1096TIP3    H2 3253   1.266   4.687   2.095
 1097TIP3   OH2 3254   0.169   6.537   1.258
 1097TIP3    H1 3255   0.118   6.486   1.194
 1097TIP3    H2 3256   0.134   6.510   1.343
 1098TIP3   OH2 3257   5.949   3.833   5.058
 1098TIP3    H1 3258   6.026   3.827   5.115
 1098TIP3    H2 3259   5.877   3.855   5.118
 1099TIP3   OH2 3260   3.631   1.211   4.807
 1099TIP3    H1 3261   3.592   1.298   4.819
 1099TIP3    H2 3262   3.724   1.228   4.797
 1100TIP3   OH2 3263   5.154   3.956   1.414
 1100TIP3    H1 3264   5.091   3.961   1.342
 1100TIP3    H2 3265   5.118   3.888   1.472
 1101TIP3   OH2 3266   3.413   1.414   2.769
 1101TIP3    H1 3267   3.365   1.339   2.805
 1101TIP3    H2 3268   3.455   1.380   2.690
 1102TIP3   OH2 3269   3.216   0.702   2.675
 1102TIP3    H1 3270   3.210   0.608   2.656
 1102TIP3    H2 3271   3.303   0.714   2.712
 1103TIP3   OH2 3272   6.001   4.838   5.369
 1103TIP3    H1 3273   5.907   4.828   5.357
 1103TIP3    H2 3274   6.041   4.774   5.311
 1104TIP3   OH2 3275   0.524   6.134   3.186
 1104TIP3    H1 3276   0.491   6.157   3.273
 1104TIP3    H2 3277   0.525   6.038   3.185
 1105TIP3   OH2 3278   4.216   0.383   5.494
 1105TIP3    H1 3279   4.289   0.414   5.441
 1105TIP3    H2 3280   4.209   0.446   5.565
 1106TIP3   OH2 3281   4.069   3.665   3.029
 1106TIP3    H1 3282   4.047   3.706   2.945
 1106TIP3    H2 3283   3.999   3.692   3.088
 1107TIP3   OH2 3284   2.746   2.204   4.832
 1107TIP3    H1 3285   2.798   2.282   4.853
 1107TIP3    H2 3286   2.748   2.198   4.737
 1108TIP3   OH2 3287   2.188   4.453   4.703
 1108TIP3    H1 3288   2.116   4.392   4.717
 1108TIP3    H2 3289   2.181   4.478   4.611
 1109TIP3   OH2 3290   1.003   5.912   3.482
 1109TIP3    H1 3291   0.940   5.871   3.542
 1109TIP3    H2 3292   0.950   5.963   3.422
 1110TIP3   OH2 3293   5.090   6.130   4.642
 1110TIP3    H1 3294   5.017   6.160   4.694
 1110TIP3    H2 3295   5.158   6.109   4.705
 1111TIP3   OH2 3296   1.456   1.156   5.338
 1111TIP3    H1 3297   1.517   1.127   5.406
 1111TIP3    H2 3298   1.378   1.103   5.353
 1112TIP3   OH2 3299   3.580   0.219   1.986
 1112TIP3    H1 3300   3.615   0.281   1.923
 1112TIP3    H2 3301   3.531   0.273   2.048
 1113TIP3   OH2 3302   4.913   2.207   1.132
 1113TIP3    H1 3303   4.851   2.271   1.167
 1113TIP3    H2 3304   4.984   2.205   1.196
 1114TIP3   OH2 3305   5.225   2.034   2.648
 1114TIP3    H1 3306   5.254   2.039   2.557
 1114TIP3    H2 3307   5.146   1.980   2.645
 1115TIP3   OH2 3308   2.418   4.322   4.166
 1115TIP3    H1 3309   2.401   4.270   4.244
 1115TIP3    H2 3310   2.383   4.408   4.187
 1116TIP3   OH2 3311   2.430   3.334   3.250
 1116TIP3    H1 3312   2.408   3.283   3.328
 1116TIP3    H2 3313   2.465   3.269   3.189
 1117TIP3   OH2 3314   4.179   5.920   0.098
 1117TIP3    H1 3315   4.208   5.955   0.182
 1117TIP3    H2 3316   4.189   5.825   0.106
 1118TIP3   OH2 3317   1.660   2.578   1.371
 1118TIP3    H1 3318   1.583   2.634   1.369
 1118TIP3    H2 3319   1.649   2.517   1.298
 1119TIP3   OH2 3320   0.389   3.140   3.075
 1119TIP3    H1 3321   0.382   3.166   2.983
 1119TIP3    H2 3322   0.343   3.209   3.123
 1120TIP3   OH2 3323   6.020   2.455   4.711
 1120TIP3    H1 3324   5.929   2.429   4.699
 1120TIP3    H2 3325   6.063   2.428   4.630
 1121TIP3   OH2 3326   6.359   6.585   2.116
 1121TIP3    H1 3327   6.306   6.663   2.100
 1121TIP3    H2 3328   6.425   6.587   2.047
 1122TIP3   OH2 3329   5.326   6.133   4.820
 1122TIP3    H1 3330   5.352   6.203   4.880
 1122TIP3    H2 3331   5.407   6.109   4.775
 1123TIP3   OH2 3332   1.990   0.046   2.361
 1123TIP3    H1 3333   2.012   0.019   2.451
 1123TIP3    H2 3334   2.025  -0.024   2.306
 1124TIP3   OH2 3335   3.701   2.536   5.270
 1124TIP3    H1 3336   3.672   2.623   5.298
 1124TIP3    H2 3337   3.795   2.536   5.288
 1125TIP3   OH2 3338   2.638   1.318   4.633
 1125TIP3    H1 3339   2.644   1.223   4.625
 1125TIP3    H2 3340   2.722   1.344   4.673
 1126TIP3   OH2 3341   2.279   0.509   4.545
 1126TIP3    H1 3342   2.238   0.503   4.631
 1126TIP3    H2 3343   2.330   0.428   4.538
 1127TIP3   OH2 3344   5.919   0.635   0.633
 1127TIP3    H1 3345   5.958   0.577   0.698
 1127TIP3    H2 3346   5.903   0.717   0.680
 1128TIP3   OH2 3347   6.217   6.677   0.228
 1128TIP3    H1 3348   6.278   6.686   0.155
 1128TIP3    H2 3349   6.208   6.765   0.264
 1129TIP3   OH2 3350   3.863   1.393   3.364
 1129TIP3    H1 3351   3.858   1.406   3.458
 1129TIP3    H2 3352   3.773   1.410   3.333
 1130TIP3   OH2 3353   0.669   0.400   4.357
 1130TIP3    H1 3354   0.731   0.383   4.428
 1130TIP3    H2 3355   0.628   0.316   4.339
 1131TIP3   OH2 3356   4.489   2.942   0.323
 1131TIP3    H1 3357   4.530   2.952   0.408
 1131TIP3    H2 3358   4.455   2.853   0.322
 1132TIP3   OH2 3359   3.880   1.607   2.883
 1132TIP3    H1 3360   3.838   1.627   2.799
 1132TIP3    H2 3361   3.872   1.512   2.893
 1133TIP3   OH2 3362   5.047   0.263   5.663
 1133TIP3    H1 3363   5.013   0.353   5.659
 1133TIP3    H2 3364   5.061   0.239   5.571
 1134TIP3   OH2 3365   4.287   6.435   1.100
 1134TIP3    H1 3366   4.230   6.505   1.132
 1134TIP3    H2 3367   4.344   6.414   1.175
 1135TIP3   OH2 3368   4.376   2.628   3.374
 1135TIP3    H1 3369   4.432   2.651   3.300
 1135TIP3    H2 3370   4.326   2.707   3.392
 1136TIP3   OH2 3371   1.645   4.850   4.788
 1136TIP3    H1 3372   1.632   4.763   4.825
 1136TIP3    H2 3373   1.673   4.835   4.698
 1137TIP3   OH2 3374   2.467   4.391   3.596
 1137TIP3    H1 3375   2.549   4.433   3.569
 1137TIP3    H2 3376   2.491   4.333   3.667
 1138TIP3   OH2 3377   5.917   2.160   2.058
 1138TIP3    H1 3378   5.944   2.089   2.116
 1138TIP3    H2 3379   5.952   2.135   1.973
 1139TIP3   OH2 3380   2.686   1.660   5.730
 1139TIP3    H1 3381   2.658   1.745   5.696
 1139TIP3    H2 3382   2.606   1.609   5.738
 1140TIP3   OH2 3383   0.259   0.796   1.512
 1140TIP3    H1 3384   0.347   0.792   1.548
 1140TIP3    H2 3385   0.209   0.846   1.576
 1141TIP3   OH2 3386   0.820   5.995   4.715
 1141TIP3    H1 3387   0.861   5.979   4.630
 1141TIP3    H2 3388   0.875   5.946   4.777
 1142TIP3   OH2 3389   4.597   3.882   0.230
 1142TIP3    H1 3390   4.643   3.816   0.179
 1142TIP3    H2 3391   4.639   3.965   0.208
 1143TIP3   OH2 3392   5.668   0.188   5.831
 1143TIP3    H1 3393   5.585   0.150   5.803
 1143TIP3    H2 3394   5.710   0.217   5.750
 1144TIP3   OH2 3395   0.947   0.926   2.882
 1144TIP3    H1 3396   0.931   1.007   2.930
 1144TIP3    H2 3397   0.946   0.952   2.790
 1145TIP3   OH2 3398   1.401   3.056   5.410
 1145TIP3    H1 3399   1.489   3.047   5.373
 1145TIP3    H2 3400   1.345   3.005   5.351
 1146TIP3   OH2 3401   7.179   3.529   4.939
 1146TIP3    H1 3402   7.235   3.457   4.967
 1146TIP3    H2 3403   7.114   3.538   5.009
 1147TIP3   OH2 3404   0.448   2.531   1.113
 1147TIP3    H1 3405   0.520   2.470   1.124
 1147TIP3    H2 3406   0.475   2.589   1.041
 1148TIP3   OH2 3407   2.394   3.271   4.962
 1148TIP3    H1 3408   2.355   3.340   4.909
 1148TIP3    H2 3409   2.480   3.257   4.923
 1149TIP3   OH2 3410   2.799   5.568   3.767
 1149TIP3    H1 3411   2.791   5.663   3.763
 1149TIP3    H2 3412   2.886   5.553   3.805
 1150TIP3   OH2 3413   3.154   3.164   5.247
 1150TIP3    H1 3414   3.184   3.107   5.177
 1150TIP3    H2 3415   3.058   3.160   5.242
 1151TIP3   OH2 3416   2.612   3.605   0.759
 1151TIP3    H1 3417   2.541   3.546   0.785
 1151TIP3    H2 3418   2.691   3.551   0.763
 1152TIP3   OH2 3419   0.616   3.252   3.432
 1152TIP3    H1 3420   0.655   3.233   3.347
 1152TIP3    H2 3421   0.522   3.237   3.419
 1153TIP3   OH2 3422   6.792   1.231   3.749
 1153TIP3    H1 3423   6.863   1.268   3.696
 1153TIP3    H2 3424   6.795   1.281   3.831
 1154TIP3   OH2 3425   4.480   6.174   1.737
 1154TIP3    H1 3426   4.459   6.091   1.781
 1154TIP3    H2 3427   4.554   6.209   1.787
 1155TIP3   OH2 3428   3.552   3.011   1.328
 1155TIP3    H1 3429   3.647   3.001   1.329
 1155TIP3    H2 3430   3.521   2.942   1.269
 1156TIP3   OH2 3431   6.886   1.732   0.364
 1156TIP3    H1 3432   6.814   1.767   0.312
 1156TIP3    H2 3433   6.845   1.670   0.423
 1157TIP3   OH2 3434   2.246   1.079   4.160
 1157TIP3    H1 3435   2.182   1.150   4.153
 1157TIP3    H2 3436   2.306   1.108   4.229
 1158TIP3   OH2 3437   5.026   5.195   4.243
 1158TIP3    H1 3438   5.029   5.251   4.165
 1158TIP3    H2 3439   5.033   5.255   4.317
 1159TIP3   OH2 3440   0.875   6.075   1.553
 1159TIP3    H1 3441   0.864   5.989   1.594
 1159TIP3    H2 3442   0.868   6.137   1.626
 1160TIP3   OH2 3443   1.236   2.700   4.490
 1160TIP3    H1 3444   1.204   2.623   4.536
 1160TIP3    H2 3445   1.250   2.765   4.560
 1161TIP3   OH2 3446   3.739   2.527   0.355
 1161TIP3    H1 3447   3.695   2.606   0.323
 1161TIP3    H2 3448   3.811   2.560   0.408
 1162TIP3   OH2 3449   4.880   4.482   0.626
 1162TIP3    H1 3450   4.883   4.435   0.710
 1162TIP3    H2 3451   4.903   4.417   0.561
 1163TIP3   OH2 3452   6.344   0.063   0.554
 1163TIP3    H1 3453   6.326   0.080   0.462
 1163TIP3    H2 3454   6.440   0.060   0.560
 1164TIP3   OH2 3455   4.462   5.175   4.430
 1164TIP3    H1 3456   4.545   5.154   4.472
 1164TIP3    H2 3457   4.399   5.179   4.502
 1165TIP3   OH2 3458   2.407   3.201   0.364
 1165TIP3    H1 3459   2.383   3.223   0.454
 1165TIP3    H2 3460   2.373   3.274   0.312
 1166TIP3   OH2 3461   0.420   2.268   5.357
 1166TIP3    H1 3462   0.515   2.278   5.365
 1166TIP3    H2 3463   0.408   2.202   5.289
 1167TIP3   OH2 3464   0.485   2.906   1.457
 1167TIP3    H1 3465   0.480   2.946   1.545
 1167TIP3    H2 3466   0.411   2.944   1.410
 1168TIP3   OH2 3467   0.934   2.909   3.317
 1168TIP3    H1 3468   0.949   2.815   3.316
 1168TIP3    H2 3469   0.839   2.918   3.322
 1169TIP3   OH2 3470   2.522   0.237   5.388
 1169TIP3    H1 3471   2.427   0.245   5.390
 1169TIP3    H2 3472   2.541   0.160   5.441
 1170TIP3   OH2 3473   6.696   6.831   1.202
 1170TIP3    H1 3474   6.714   6.805   1.112
 1170TIP3    H2 3475   6.681   6.748   1.248
 1171TIP3   OH2 3476   5.359   0.294   2.923
 1171TIP3    H1 3477   5.402   0.376   2.947
 1171TIP3    H2 3478   5.421   0.252   2.864
 1172TIP3   OH2 3479   3.716   4.286   1.247
 1172TIP3    H1 3480   3.673   4.211   1.289
 1172TIP3    H2 3481   3.800   4.252   1.216
 1173TIP3   OH2 3482   4.553   2.177   5.514
 1173TIP3    H1 3483   4.463   2.206   5.499
 1173TIP3    H2 3484   4.544   2.087   5.547
 1174TIP3   OH2 3485   3.312   0.549   1.274
 1174TIP3    H1 3486   3.227   0.507   1.259
 1174TIP3    H2 3487   3.312   0.569   1.368
 1175TIP3   OH2 3488   5.296   5.392   3.963
 1175TIP3    H1 3489   5.305   5.485   3.982
 1175TIP3    H2 3490   5.343   5.379   3.881
 1176TIP3   OH2 3491   1.912   5.252   5.117
 1176TIP3    H1 3492   1.913   5.287   5.028
 1176TIP3    H2 3493   1.820   5.258   5.145
 1177TIP3   OH2 3494   1.930   1.142   5.073
 1177TIP3    H1 3495   1.917   1.226   5.117
 1177TIP3    H2 3496   2.025   1.136   5.061
 1178TIP3   OH2 3497   3.948   4.174   2.507
 1178TIP3    H1 3498   4.021   4.134   2.554
 1178TIP3    H2 3499   3.913   4.239   2.568
 1179TIP3   OH2 3500   5.597   3.874   2.425
 1179TIP3    H1 3501   5.620   3.871   2.332
 1179TIP3    H2 3502   5.598   3.968   2.446
 1180TIP3   OH2 3503   2.443   4.873   4.072
 1180TIP3    H1 3504   2.423   4.889   4.165
 1180TIP3    H2 3505   2.500   4.945   4.047
 1181TIP3   OH2 3506   6.532   0.610   0.334
 1181TIP3    H1 3507   6.569   0.687   0.378
 1181TIP3    H2 3508   6.500   0.555   0.406
 1182TIP3   OH2 3509   2.994   4.056   0.300
 1182TIP3    H1 3510   3.036   4.097   0.376
 1182TIP3    H2 3511   2.926   4.000   0.338
 1183TIP3   OH2 3512   3.797   6.242   3.693
 1183TIP3    H1 3513   3.877   6.294   3.698
 1183TIP3    H2 3514   3.777   6.221   3.785
 1184TIP3   OH2 3515   6.707   0.522   1.930
 1184TIP3    H1 3516   6.745   0.552   2.012
 1184TIP3    H2 3517   6.775   0.467   1.890
 1185TIP3   OH2 3518   5.456   5.015   1.617
 1185TIP3    H1 3519   5.542   4.974   1.618
 1185TIP3    H2 3520   5.396   4.946   1.590
 1186TIP3   OH2 3521   4.105   0.215   4.987
 1186TIP3    H1 3522   4.123   0.309   4.999
 1186TIP3    H2 3523   4.165   0.172   5.047
 1187TIP3   OH2 3524   4.513   6.389   2.072
 1187TIP3    H1 3525   4.530   6.308   2.119
 1187TIP3    H2 3526   4.595   6.438   2.076
 1188TIP3   OH2 3527   6.300   2.482   0.793
 1188TIP3    H1 3528   6.336   2.406   0.747
 1188TIP3    H2 3529   6.226   2.510   0.738
 1189TIP3   OH2 3530   3.092   2.222   0.482
 1189TIP3    H1 3531   3.018   2.164   0.464
 1189TIP3    H2 3532   3.105   2.271   0.401
 1190TIP3   OH2 3533   2.697   1.599   1.175
 1190TIP3    H1 3534   2.718   1.664   1.108
 1190TIP3    H2 3535   2.614   1.562   1.146
 1191TIP3   OH2 3536   3.066   3.177   2.326
 1191TIP3    H1 3537   3.117   3.118   2.382
 1191TIP3    H2 3538   3.083   3.264   2.363
 1192TIP3   OH2 3539   6.319   5.841   1.691
 1192TIP3    H1 3540   6.384   5.854   1.760
 1192TIP3    H2 3541   6.295   5.748   1.697
 1193TIP3   OH2 3542   5.298   2.074  -0.005
 1193TIP3    H1 3543   5.341   2.086   0.079
 1193TIP3    H2 3544   5.360   2.110  -0.069
 1194TIP3   OH2 3545   4.706   2.215   0.347
 1194TIP3    H1 3546   4.782   2.171   0.309
 1194TIP3    H2 3547   4.654   2.243   0.272
 1195TIP3   OH2 3548   4.739   0.638   3.810
 1195TIP3    H1 3549   4.740   0.550   3.847
 1195TIP3    H2 3550   4.831   0.664   3.806
 1196TIP3   OH2 3551   5.335   1.847   4.902
 1196TIP3    H1 3552   5.347   1.756   4.876
 1196TIP3    H2 3553   5.296   1.889   4.825
 1197TIP3   OH2 3554   5.638   5.641   5.588
 1197TIP3    H1 3555   5.575   5.713   5.589
 1197TIP3    H2 3556   5.695   5.659   5.514
 1198TIP3   OH2 3557   1.023   1.031   4.278
 1198TIP3    H1 3558   0.995   1.110   4.233
 1198TIP3    H2 3559   0.947   0.973   4.274
 1199TIP3   OH2 3560   0.173   5.387   1.003
 1199TIP3    H1 3561   0.121   5.448   1.056
 1199TIP3    H2 3562   0.110   5.351   0.940
 1200TIP3   OH2 3563   7.043   5.899   3.304
 1200TIP3    H1 3564   7.004   5.954   3.236
 1200TIP3    H2 3565   7.017   5.810   3.281
 1201TIP3   OH2 3566   3.935   1.337   2.564
 1201TIP3    H1 3567   3.980   1.256   2.585
 1201TIP3    H2 3568   3.995   1.406   2.592
 1202TIP3   OH2 3569   6.366   2.760   1.196
 1202TIP3    H1 3570   6.457   2.766   1.226
 1202TIP3    H2 3571   6.317   2.730   1.273
 1203TIP3   OH2 3572   6.190   4.862   0.920
 1203TIP3    H1 3573   6.222   4.772   0.927
 1203TIP3    H2 3574   6.215   4.903   1.002
 1204TIP3   OH2 3575   3.739   2.751   1.542
 1204TIP3    H1 3576   3.721   2.843   1.562
 1204TIP3    H2 3577   3.783   2.717   1.620
 1205TIP3   OH2 3578   0.876   3.792   4.818
 1205TIP3    H1 3579   0.894   3.745   4.899
 1205TIP3    H2 3580   0.780   3.797   4.813
 1206TIP3   OH2 3581   1.455   4.575   0.467
 1206TIP3    H1 3582   1.446   4.526   0.549
 1206TIP3    H2 3583   1.489   4.511   0.405
 1207TIP3   OH2 3584   6.023   6.185   0.195
 1207TIP3    H1 3585   6.060   6.097   0.199
 1207TIP3    H2 3586   6.003   6.207   0.287
 1208TIP3   OH2 3587   4.110   1.930   2.824
 1208TIP3    H1 3588   4.163   1.887   2.891
 1208TIP3    H2 3589   4.082   2.012   2.866
 1209TIP3   OH2 3590   6.433   4.210   0.252
 1209TIP3    H1 3591   6.364   4.213   0.186
 1209TIP3    H2 3592   6.400   4.150   0.319
 1210TIP3   OH2 3593   4.607   5.369   1.277
 1210TIP3    H1 3594   4.662   5.346   1.201
 1210TIP3    H2 3595   4.639   5.455   1.304
 1211TIP3   OH2 3596   3.109   1.326   2.426
 1211TIP3    H1 3597   3.095   1.238   2.459
 1211TIP3    H2 3598   3.058   1.382   2.485
 1212TIP3   OH2 3599   6.407   0.442   3.952
 1212TIP3    H1 3600   6.443   0.428   4.040
 1212TIP3    H2 3601   6.348   0.368   3.938
 1213TIP3   OH2 3602   4.185   2.958   0.130
 1213TIP3    H1 3603   4.268   2.986   0.092
 1213TIP3    H2 3604   4.175   3.011   0.209
 1214TIP3   OH2 3605   0.831   5.828   3.758
 1214TIP3    H1 3606   0.825   5.737   3.729
 1214TIP3    H2 3607   0.742   5.863   3.747
 1215TIP3   OH2 3608   5.558   3.255   1.761
 1215TIP3    H1 3609   5.609   3.277   1.839
 1215TIP3    H2 3610   5.473   3.226   1.795
 1216TIP3   OH2 3611   1.240   1.165   5.574
 1216TIP3    H1 3612   1.311   1.225   5.598
 1216TIP3    H2 3613   1.161   1.211   5.602
 1217TIP3   OH2 3614   6.188   1.861   1.110
 1217TIP3    H1 3615   6.175   1.905   1.194
 1217TIP3    H2 3616   6.100   1.837   1.082
 1218TIP3   OH2 3617   4.133   3.923   3.796
 1218TIP3    H1 3618   4.142   3.945   3.889
 1218TIP3    H2 3619   4.133   4.008   3.751
 1219TIP3   OH2 3620   4.756   0.758   4.604
 1219TIP3    H1 3621   4.692   0.691   4.630
 1219TIP3    H2 3622   4.711   0.841   4.616
 1220TIP3   OH2 3623   6.666   0.471   0.657
 1220TIP3    H1 3624   6.631   0.560   0.663
 1220TIP3    H2 3625   6.722   0.463   0.734
 1221TIP3   OH2 3626   4.444   1.631   3.587
 1221TIP3    H1 3627   4.370   1.604   3.533
 1221TIP3    H2 3628   4.519   1.630   3.527
 1222TIP3   OH2 3629   5.947   6.717   3.702
 1222TIP3    H1 3630   5.878   6.768   3.658
 1222TIP3    H2 3631   6.013   6.782   3.725
 1223TIP3   OH2 3632   4.705   0.273   3.699
 1223TIP3    H1 3633   4.618   0.237   3.686
 1223TIP3    H2 3634   4.697   0.328   3.777
 1224TIP3   OH2 3635   4.766   1.267   2.948
 1224TIP3    H1 3636   4.842   1.214   2.924
 1224TIP3    H2 3637   4.782   1.290   3.040
 1225TIP3   OH2 3638   6.332   6.162   3.085
 1225TIP3    H1 3639   6.330   6.202   3.172
 1225TIP3    H2 3640   6.240   6.149   3.062
 1226TIP3   OH2 3641   1.695   2.387   0.080
 1226TIP3    H1 3642   1.715   2.299   0.048
 1226TIP3    H2 3643   1.781   2.428   0.094
 1227TIP3   OH2 3644   6.969   1.458   5.643
 1227TIP3    H1 3645   7.057   1.493   5.653
 1227TIP3    H2 3646   6.916   1.533   5.615
 1228TIP3   OH2 3647   4.154   4.707   2.895
 1228TIP3    H1 3648   4.187   4.779   2.948
 1228TIP3    H2 3649   4.060   4.725   2.886
 1229TIP3   OH2 3650   1.551   1.900   4.511
 1229TIP3    H1 3651   1.613   1.959   4.467
 1229TIP3    H2 3652   1.498   1.864   4.439
 1230TIP3   OH2 3653   5.996   1.250   4.868
 1230TIP3    H1 3654   5.942   1.260   4.789
 1230TIP3    H2 3655   5.935   1.216   4.934
 1231TIP3   OH2 3656   1.457   1.919   0.590
 1231TIP3    H1 3657   1.419   2.005   0.571
 1231TIP3    H2 3658   1.551   1.935   0.595
 1232TIP3   OH2 3659   0.242   3.068   4.230
 1232TIP3    H1 3660   0.297   3.071   4.309
 1232TIP3    H2 3661   0.178   2.999   4.249
 1233TIP3   OH2 3662   0.115   4.789   0.114
 1233TIP3    H1 3663   0.077   4.763   0.198
 1233TIP3    H2 3664   0.187   4.848   0.138
 1234TIP3   OH2 3665   5.526   6.343   4.727
 1234TIP3    H1 3666   5.595   6.378   4.671
 1234TIP3    H2 3667   5.498   6.418   4.779
 1235TIP3   OH2 3668   1.281   1.481   4.472
 1235TIP3    H1 3669   1.238   1.564   4.453
 1235TIP3    H2 3670   1.325   1.457   4.391
 1236TIP3   OH2 3671   3.320   0.480   0.384
 1236TIP3    H1 3672   3.391   0.437   0.337
 1236TIP3    H2 3673   3.363   0.549   0.434
 1237TIP3   OH2 3674   2.083   4.063   5.341
 1237TIP3    H1 3675   2.038   4.139   5.377
 1237TIP3    H2 3676   2.172   4.069   5.374
 1238TIP3   OH2 3677   5.187   4.267   0.351
 1238TIP3    H1 3678   5.206   4.359   0.336
 1238TIP3    H2 3679   5.210   4.224   0.268
 1239TIP3   OH2 3680   4.733   4.340   1.098
 1239TIP3    H1 3681   4.650   4.385   1.110
 1239TIP3    H2 3682   4.730   4.308   1.008
 1240TIP3   OH2 3683   2.320   4.324   3.851
 1240TIP3    H1 3684   2.365   4.396   3.896
 1240TIP3    H2 3685   2.385   4.255   3.843
 1241TIP3   OH2 3686   2.401   2.269   2.960
 1241TIP3    H1 3687   2.456   2.307   2.892
 1241TIP3    H2 3688   2.382   2.180   2.928
 1242TIP3   OH2 3689   4.404   1.462   5.676
 1242TIP3    H1 3690   4.435   1.403   5.744
 1242TIP3    H2 3691   4.319   1.427   5.649
 1243TIP3   OH2 3692   5.097   1.998   3.124
 1243TIP3    H1 3693   5.079   2.075   3.071
 1243TIP3    H2 3694   5.106   1.926   3.061
 1244TIP3   OH2 3695   2.207   4.012   5.740
 1244TIP3    H1 3696   2.287   4.005   5.792
 1244TIP3    H2 3697   2.158   4.083   5.781
 1245TIP3   OH2 3698   6.004   2.649   4.276
 1245TIP3    H1 3699   6.014   2.718   4.342
 1245TIP3    H2 3700   5.957   2.579   4.320
 1246TIP3   OH2 3701   3.429   0.649   5.319
 1246TIP3    H1 3702   3.427   0.737   5.280
 1246TIP3    H2 3703   3.523   0.629   5.327
 1247TIP3   OH2 3704   2.549   4.162   3.750
 1247TIP3    H1 3705   2.581   4.207   3.828
 1247TIP3    H2 3706   2.629   4.140   3.701
 1248TIP3   OH2 3707   6.931   2.071   2.133
 1248TIP3    H1 3708   6.884   1.998   2.092
 1248TIP3    H2 3709   7.013   2.032   2.164
 1249TIP3   OH2 3710   7.132   5.746   4.810
 1249TIP3    H1 3711   7.185   5.668   4.826
 1249TIP3    H2 3712   7.054   5.734   4.863
 1250TIP3   OH2 3713   4.486   1.189   2.974
 1250TIP3    H1 3714   4.580   1.192   2.954
 1250TIP3    H2 3715   4.482   1.201   3.069
 1251TIP3   OH2 3716   4.404   3.976   0.498
 1251TIP3    H1 3717   4.353   3.922   0.438
 1251TIP3    H2 3718   4.480   3.923   0.519
 1252TIP3   OH2 3719   5.010   4.999   3.738
 1252TIP3    H1 3720   4.967   4.935   3.682
 1252TIP3    H2 3721   5.049   5.063   3.677
 1253TIP3   OH2 3722   3.885   0.862   2.011
 1253TIP3    H1 3723   3.952   0.866   1.943
 1253TIP3    H2 3724   3.931   0.830   2.088
 1254TIP3   OH2 3725   1.061   5.650   3.113
 1254TIP3    H1 3726   1.041   5.609   3.197
 1254TIP3    H2 3727   1.154   5.635   3.101
 1255TIP3   OH2 3728   5.301   4.208   2.134
 1255TIP3    H1 3729   5.240   4.203   2.207
 1255TIP3    H2 3730   5.291   4.297   2.100
 1256TIP3   OH2 3731   1.662   6.727   2.530
 1256TIP3    H1 3732   1.685   6.813   2.495
 1256TIP3    H2 3733   1.719   6.716   2.605
 1257TIP3   OH2 3734   6.594   2.105   1.191
 1257TIP3    H1 3735   6.597   2.170   1.121
 1257TIP3    H2 3736   6.635   2.149   1.266
 1258TIP3   OH2 3737   5.361   3.738   4.983
 1258TIP3    H1 3738   5.293   3.805   4.990
 1258TIP3    H2 3739   5.419   3.770   4.913
 1259TIP3   OH2 3740   3.941   0.217   4.184
 1259TIP3    H1 3741   3.952   0.152   4.114
 1259TIP3    H2 3742   4.024   0.264   4.186
 1260TIP3   OH2 3743   3.714   4.028   2.831
 1260TIP3    H1 3744   3.658   4.006   2.905
 1260TIP3    H2 3745   3.676   3.981   2.757
 1261TIP3   OH2 3746   3.604   5.889   1.819
 1261TIP3    H1 3747   3.673   5.939   1.775
 1261TIP3    H2 3748   3.525   5.905   1.766
 1262TIP3   OH2 3749   1.476   1.852   2.732
 1262TIP3    H1 3750   1.497   1.837   2.640
 1262TIP3    H2 3751   1.560   1.850   2.777
 1263TIP3   OH2 3752   0.938   1.938   5.277
 1263TIP3    H1 3753   0.980   1.852   5.278
 1263TIP3    H2 3754   0.917   1.956   5.369
 1264TIP3   OH2 3755   5.851   5.579   2.844
 1264TIP3    H1 3756   5.822   5.521   2.774
 1264TIP3    H2 3757   5.923   5.629   2.805
 1265TIP3   OH2 3758   1.954   0.892   0.085
 1265TIP3    H1 3759   2.049   0.884   0.079
 1265TIP3    H2 3760   1.925   0.914  -0.004
 1266TIP3   OH2 3761   3.565   3.826   1.503
 1266TIP3    H1 3762   3.533   3.813   1.592
 1266TIP3    H2 3763   3.547   3.743   1.459
 1267TIP3   OH2 3764   4.401   2.590   4.892
 1267TIP3    H1 3765   4.337   2.549   4.951
 1267TIP3    H2 3766   4.362   2.580   4.805
 1268TIP3   OH2 3767   6.732   5.959   4.925
 1268TIP3    H1 3768   6.646   5.968   4.967
 1268TIP3    H2 3769   6.762   6.049   4.914
 1269TIP3   OH2 3770   3.923   0.967   3.866
 1269TIP3    H1 3771   3.886   1.055   3.879
 1269TIP3    H2 3772   3.898   0.944   3.777
 1270TIP3   OH2 3773   1.165   6.210   2.665
 1270TIP3    H1 3774   1.117   6.291   2.684
 1270TIP3    H2 3775   1.098   6.142   2.665
 1271TIP3   OH2 3776   5.812   5.658   1.640
 1271TIP3    H1 3777   5.742   5.601   1.670
 1271TIP3    H2 3778   5.795   5.742   1.683
 1272TIP3   OH2 3779   3.222   6.704   0.825
 1272TIP3    H1 3780   3.299   6.724   0.771
 1272TIP3    H2 3781   3.172   6.785   0.826
 1273TIP3   OH2 3782   1.262   1.742   0.267
 1273TIP3    H1 3783   1.342   1.728   0.217
 1273TIP3    H2 3784   1.253   1.663   0.321
 1274TIP3   OH2 3785   6.243   1.905   1.851
 1274TIP3    H1 3786   6.190   1.857   1.788
 1274TIP3    H2 3787   6.314   1.845   1.874
 1275TIP3   OH2 3788   5.138   3.559   3.551
 1275TIP3    H1 3789   5.217   3.604   3.522
 1275TIP3    H2 3790   5.088   3.544   3.471
 1276TIP3   OH2 3791   2.370   5.388   1.747
 1276TIP3    H1 3792   2.319   5.402   1.668
 1276TIP3    H2 3793   2.461   5.401   1.720
 1277TIP3   OH2 3794   6.020   0.329   3.864
 1277TIP3    H1 3795   5.985   0.414   3.890
 1277TIP3    H2 3796   5.998   0.321   3.771
 1278TIP3   OH2 3797   6.221   6.245   2.708
 1278TIP3    H1 3798   6.186   6.205   2.629
 1278TIP3    H2 3799   6.202   6.338   2.698
 1279TIP3   OH2 3800   4.502   2.380   2.794
 1279TIP3    H1 3801   4.577   2.394   2.735
 1279TIP3    H2 3802   4.448   2.316   2.748
 1280TIP3   OH2 3803   4.703   5.365   4.093
 1280TIP3    H1 3804   4.786   5.410   4.077
 1280TIP3    H2 3805   4.711   5.282   4.046
 1281TIP3   OH2 3806   3.037   5.586   3.909
 1281TIP3    H1 3807   3.033   5.634   3.991
 1281TIP3    H2 3808   3.126   5.551   3.905
 1282TIP3   OH2 3809   6.967   4.233   3.712
 1282TIP3    H1 3810   6.932   4.302   3.656
 1282TIP3    H2 3811   7.001   4.167   3.651
 1283TIP3   OH2 3812   2.988   1.184   3.550
 1283TIP3    H1 3813   3.042   1.258   3.522
 1283TIP3    H2 3814   2.925   1.223   3.611
 1284TIP3   OH2 3815   2.915   3.309   3.153
 1284TIP3    H1 3816   2.958   3.249   3.213
 1284TIP3    H2 3817   2.901   3.257   3.074
 1285TIP3   OH2 3818   6.180   1.570   2.469
 1285TIP3    H1 3819   6.155   1.485   2.505
 1285TIP3    H2 3820   6.097   1.617   2.461
 1286TIP3   OH2 3821   5.243   0.335   5.097
 1286TIP3    H1 3822   5.154   0.345   5.132
 1286TIP3    H2 3823   5.286   0.277   5.160
 1287TIP3   OH2 3824   3.068   0.060   5.585
 1287TIP3    H1 3825   3.140   0.003   5.613
 1287TIP3    H2 3826   3.010   0.003   5.535
 1288TIP3   OH2 3827   1.741   2.522   2.986
 1288TIP3    H1 3828   1.768   2.439   3.025
 1288TIP3    H2 3829   1.679   2.497   2.918
 1289TIP3   OH2 3830   5.084   6.087   2.309
 1289TIP3    H1 3831   5.003   6.050   2.274
 1289TIP3    H2 3832   5.058   6.130   2.390
 1290TIP3   OH2 3833   6.750   2.469   2.029
 1290TIP3    H1 3834   6.805   2.412   1.975
 1290TIP3    H2 3835   6.687   2.506   1.967
 1291TIP3   OH2 3836   2.056   4.248   3.928
 1291TIP3    H1 3837   2.036   4.196   3.850
 1291TIP3    H2 3838   2.151   4.258   3.927
 1292TIP3   OH2 3839   0.679   4.086   1.464
 1292TIP3    H1 3840   0.685   4.097   1.559
 1292TIP3    H2 3841   0.634   4.165   1.434
 1293TIP3   OH2 3842   4.065   2.506   3.208
 1293TIP3    H1 3843   4.014   2.568   3.260
 1293TIP3    H2 3844   4.116   2.457   3.272
 1294TIP3   OH2 3845   3.288   0.087   0.099
 1294TIP3    H1 3846   3.224   0.158   0.095
 1294TIP3    H2 3847   3.274   0.037   0.019
 1295TIP3   OH2 3848   3.132   6.464   2.735
 1295TIP3    H1 3849   3.174   6.378   2.730
 1295TIP3    H2 3850   3.039   6.445   2.723
 1296TIP3   OH2 3851   4.334   5.285   3.492
 1296TIP3    H1 3852   4.386   5.212   3.458
 1296TIP3    H2 3853   4.262   5.294   3.429
 1297TIP3   OH2 3854   4.640   1.565   3.763
 1297TIP3    H1 3855   4.565   1.593   3.710
 1297TIP3    H2 3856   4.633   1.616   3.844
 1298TIP3   OH2 3857   4.369   3.285   3.511
 1298TIP3    H1 3858   4.328   3.277   3.425
 1298TIP3    H2 3859   4.364   3.378   3.531
 1299TIP3   OH2 3860   0.608   0.848   3.648
 1299TIP3    H1 3861   0.658   0.773   3.613
 1299TIP3    H2 3862   0.521   0.812   3.665
 1300TIP3   OH2 3863   4.245   3.823   3.451
 1300TIP3    H1 3864   4.320   3.809   3.509
 1300TIP3    H2 3865   4.170   3.793   3.502
 1301TIP3   OH2 3866   5.527   0.148   4.216
 1301TIP3    H1 3867   5.501   0.199   4.293
 1301TIP3    H2 3868   5.614   0.182   4.193
 1302TIP3   OH2 3869   6.843   5.551   4.187
 1302TIP3    H1 3870   6.902   5.616   4.224
 1302TIP3    H2 3871   6.850   5.476   4.247
 1303TIP3   OH2 3872   4.676   2.672   3.299
 1303TIP3    H1 3873   4.661   2.589   3.252
 1303TIP3    H2 3874   4.714   2.645   3.382
 1304TIP3   OH2 3875   3.982   0.645   2.404
 1304TIP3    H1 3876   3.941   0.579   2.460
 1304TIP3    H2 3877   4.036   0.697   2.463
 1305TIP3   OH2 3878   4.973   0.392   5.171
 1305TIP3    H1 3879   4.987   0.438   5.254
 1305TIP3    H2 3880   4.885   0.418   5.144
 1306TIP3   OH2 3881   1.809   5.154   2.661
 1306TIP3    H1 3882   1.813   5.245   2.631
 1306TIP3    H2 3883   1.845   5.156   2.749
 1307TIP3   OH2 3884   6.678   5.542   0.234
 1307TIP3    H1 3885   6.703   5.452   0.211
 1307TIP3    H2 3886   6.701   5.593   0.157
 1308TIP3   OH2 3887   1.397   2.347   2.423
 1308TIP3    H1 3888   1.432   2.355   2.334
 1308TIP3    H2 3889   1.474   2.357   2.479
 1309TIP3   OH2 3890   5.708   3.049   1.213
 1309TIP3    H1 3891   5.662   3.069   1.294
 1309TIP3    H2 3892   5.640   3.018   1.153
 1310TIP3   OH2 3893   4.671   3.636   3.292
 1310TIP3    H1 3894   4.654   3.645   3.386
 1310TIP3    H2 3895   4.586   3.615   3.253
 1311TIP3   OH2 3896   6.850   1.278   3.049
 1311TIP3    H1 3897   6.827   1.206   3.107
 1311TIP3    H2 3898   6.801   1.260   2.968
 1312TIP3   OH2 3899   6.674   2.427   4.771
 1312TIP3    H1 3900   6.609   2.449   4.838
 1312TIP3    H2 3901   6.622   2.405   4.694
 1313TIP3   OH2 3902   6.945   2.522   2.470
 1313TIP3    H1 3903   6.868   2.496   2.418
 1313TIP3    H2 3904   6.959   2.449   2.530
 1314TIP3   OH2 3905   3.362   6.443   3.862
 1314TIP3    H1 3906   3.392   6.365   3.815
 1314TIP3    H2 3907   3.354   6.415   3.953
 1315TIP3   OH2 3908   6.185   5.821   5.739
 1315TIP3    H1 3909   6.205   5.834   5.831
 1315TIP3    H2 3910   6.268   5.796   5.699
 1316TIP3   OH2 3911   0.607   5.015   3.160
 1316TIP3    H1 3912   0.532   4.958   3.143
 1316TIP3    H2 3913   0.678   4.976   3.111
 1317TIP3   OH2 3914   6.541   1.033   2.026
 1317TIP3    H1 3915   6.596   1.023   1.948
 1317TIP3    H2 3916   6.601   1.021   2.099
 1318TIP3   OH2 3917   6.783   1.294   2.133
 1318TIP3    H1 3918   6.808   1.332   2.217
 1318TIP3    H2 3919   6.813   1.204   2.138
 1319TIP3   OH2 3920   4.667   2.085   5.273
 1319TIP3    H1 3921   4.613   2.125   5.342
 1319TIP3    H2 3922   4.726   2.027   5.320
 1320TIP3   OH2 3923   3.167   5.739   5.514
 1320TIP3    H1 3924   3.244   5.738   5.571
 1320TIP3    H2 3925   3.122   5.657   5.534
 1321TIP3   OH2 3926   6.501   5.294   3.279
 1321TIP3    H1 3927   6.583   5.253   3.250
 1321TIP3    H2 3928   6.441   5.282   3.205
 1322TIP3   OH2 3929   5.975   6.057   1.595
 1322TIP3    H1 3930   6.068   6.075   1.609
 1322TIP3    H2 3931   5.973   6.001   1.517
 1323TIP3   OH2 3932   0.964   6.122   1.052
 1323TIP3    H1 3933   0.902   6.059   1.014
 1323TIP3    H2 3934   1.033   6.067   1.090
 1324TIP3   OH2 3935   0.889   4.669   4.897
 1324TIP3    H1 3936   0.892   4.604   4.967
 1324TIP3    H2 3937   0.898   4.617   4.817
 1325TIP3   OH2 3938   1.403   4.411   2.178
 1325TIP3    H1 3939   1.404   4.395   2.084
 1325TIP3    H2 3940   1.495   4.416   2.203
 1326TIP3   OH2 3941   2.785   3.830   4.958
 1326TIP3    H1 3942   2.802   3.896   5.025
 1326TIP3    H2 3943   2.828   3.751   4.991
 1327TIP3   OH2 3944   6.144   0.379   3.424
 1327TIP3    H1 3945   6.091   0.363   3.502
 1327TIP3    H2 3946   6.085   0.424   3.363
 1328TIP3   OH2 3947   2.494   2.571   1.681
 1328TIP3    H1 3948   2.476   2.477   1.685
 1328TIP3    H2 3949   2.521   2.586   1.590
 1329TIP3   OH2 3950   5.041   0.403   3.646
 1329TIP3    H1 3951   4.962   0.438   3.604
 1329TIP3    H2 3952   5.008   0.352   3.720
 1330TIP3   OH2 3953   4.891   2.881   0.111
 1330TIP3    H1 3954   4.954   2.951   0.131
 1330TIP3    H2 3955   4.879   2.835   0.194
 1331TIP3   OH2 3956   1.803   3.556   1.282
 1331TIP3    H1 3957   1.769   3.554   1.372
 1331TIP3    H2 3958   1.769   3.476   1.242
 1332TIP3   OH2 3959   4.210   5.273   5.262
 1332TIP3    H1 3960   4.228   5.367   5.270
 1332TIP3    H2 3961   4.296   5.231   5.266
 1333TIP3   OH2 3962   1.310   5.621   4.933
 1333TIP3    H1 3963   1.242   5.659   4.988
 1333TIP3    H2 3964   1.384   5.681   4.941
 1334TIP3   OH2 3965   0.463   0.352   4.737
 1334TIP3    H1 3966   0.389   0.408   4.761
 1334TIP3    H2 3967   0.529   0.412   4.703
 1335TIP3   OH2 3968   4.391   0.522   5.284
 1335TIP3    H1 3969   4.440   0.521   5.201
 1335TIP3    H2 3970   4.332   0.597   5.276
 1336TIP3   OH2 3971   5.327   5.773   3.858
 1336TIP3    H1 3972   5.333   5.869   3.866
 1336TIP3    H2 3973   5.415   5.742   3.876
 1337TIP3   OH2 3974   2.388   3.530   1.852
 1337TIP3    H1 3975   2.313   3.522   1.911
 1337TIP3    H2 3976   2.349   3.534   1.765
 1338TIP3   OH2 3977   0.804   1.595   3.290
 1338TIP3    H1 3978   0.735   1.530   3.303
 1338TIP3    H2 3979   0.809   1.606   3.196
 1339TIP3   OH2 3980   4.177   1.201   0.280
 1339TIP3    H1 3981   4.096   1.249   0.298
 1339TIP3    H2 3982   4.152   1.109   0.288
 1340TIP3   OH2 3983   0.457   6.184   3.460
 1340TIP3    H1 3984   0.406   6.129   3.520
 1340TIP3    H2 3985   0.427   6.273   3.479
 1341TIP3   OH2 3986   1.316   0.942   1.960
 1341TIP3    H1 3987   1.266   0.915   1.883
 1341TIP3    H2 3988   1.313   0.866   2.018
 1342TIP3   OH2 3989   4.790   2.649   1.852
 1342TIP3    H1 3990   4.745   2.733   1.843
 1342TIP3    H2 3991   4.726   2.584   1.824
 1343TIP3   OH2 3992   1.074   5.473   5.158
 1343TIP3    H1 3993   1.079   5.477   5.254
 1343TIP3    H2 3994   1.087   5.564   5.130
 1344TIP3   OH2 3995   0.272   2.637   1.354
 1344TIP3    H1 3996   0.322   2.585   1.291
 1344TIP3    H2 3997   0.246   2.575   1.421
 1345TIP3   OH2 3998   5.638   2.174   0.027
 1345TIP3    H1 3999   5.730   2.193   0.043
 1345TIP3    H2 4000   5.603   2.253  -0.013
 1346TIP3   OH2 4001   1.262   2.445   0.056
 1346TIP3    H1 4002   1.232   2.369   0.106
 1346TIP3    H2 4003   1.332   2.483   0.111
 1347TIP3   OH2 4004   0.691   2.170   0.751
 1347TIP3    H1 4005   0.666   2.220   0.829
 1347TIP3    H2 4006   0.609   2.160   0.703
 1348TIP3   OH2 4007   2.293   0.054   0.819
 1348TIP3    H1 4008   2.265   0.007   0.740
 1348TIP3    H2 4009   2.350  -0.007   0.865
 1349TIP3   OH2 4010   4.373   4.534   1.941
 1349TIP3    H1 4011   4.403   4.623   1.926
 1349TIP3    H2 4012   4.291   4.527   1.892
 1350TIP3   OH2 4013   6.292   2.501   3.666
 1350TIP3    H1 4014   6.376   2.459   3.684
 1350TIP3    H2 4015   6.290   2.511   3.571
 1351TIP3   OH2 4016   5.170   0.660   1.591
 1351TIP3    H1 4017   5.216   0.743   1.603
 1351TIP3    H2 4018   5.099   0.681   1.531
 1352TIP3   OH2 4019   4.612   3.260   1.111
 1352TIP3    H1 4020   4.624   3.177   1.064
 1352TIP3    H2 4021   4.684   3.263   1.173
 1353TIP3   OH2 4022   4.767   5.375   4.399
 1353TIP3    H1 4023   4.770   5.342   4.309
 1353TIP3    H2 4024   4.674   5.377   4.420
 1354TIP3   OH2 4025   1.436   2.794   5.819
 1354TIP3    H1 4026   1.519   2.747   5.830
 1354TIP3    H2 4027   1.459   2.872   5.769
 1355TIP3   OH2 4028   4.240   6.315   4.840
 1355TIP3    H1 4029   4.328   6.283   4.858
 1355TIP3    H2 4030   4.254   6.402   4.802
 1356TIP3   OH2 4031   2.464   0.680   4.850
 1356TIP3    H1 4032   2.374   0.712   4.836
 1356TIP3    H2 4033   2.486   0.637   4.767
 1357TIP3   OH2 4034   3.718   2.077   2.443
 1357TIP3    H1 4035   3.726   2.038   2.531
 1357TIP3    H2 4036   3.644   2.137   2.451
 1358TIP3   OH2 4037   2.372   6.098   0.676
 1358TIP3    H1 4038   2.294   6.146   0.704
 1358TIP3    H2 4039   2.360   6.010   0.712
 1359TIP3   OH2 4040   2.890   4.472   0.882
 1359TIP3    H1 4041   2.835   4.551   0.878
 1359TIP3    H2 4042   2.948   4.488   0.957
 1360TIP3   OH2 4043   0.982   3.107   2.084
 1360TIP3    H1 4044   1.005   3.112   1.991
 1360TIP3    H2 4045   0.901   3.055   2.085
 1361TIP3   OH2 4046   1.819   4.510   1.683
 1361TIP3    H1 4047   1.831   4.515   1.778
 1361TIP3    H2 4048   1.907   4.520   1.647
 1362TIP3   OH2 4049   5.989   1.365   3.021
 1362TIP3    H1 4050   6.014   1.429   3.087
 1362TIP3    H2 4051   6.063   1.364   2.959
 1363TIP3   OH2 4052   1.575   4.011   2.780
 1363TIP3    H1 4053   1.618   4.096   2.772
 1363TIP3    H2 4054   1.611   3.959   2.709
 1364TIP3   OH2 4055   5.996   1.710   2.012
 1364TIP3    H1 4056   6.044   1.669   2.084
 1364TIP3    H2 4057   6.044   1.685   1.933
 1365TIP3   OH2 4058   4.004   4.971   5.472
 1365TIP3    H1 4059   4.027   4.928   5.554
 1365TIP3    H2 4060   4.012   5.064   5.491
 1366TIP3   OH2 4061   6.905   6.384   2.458
 1366TIP3    H1 4062   6.890   6.410   2.549
 1366TIP3    H2 4063   6.821   6.349   2.429
 1367TIP3   OH2 4064   2.478   6.282   1.194
 1367TIP3    H1 4065   2.543   6.289   1.263
 1367TIP3    H2 4066   2.500   6.351   1.132
 1368TIP3   OH2 4067   0.927   3.919   2.335
 1368TIP3    H1 4068   1.012   3.915   2.378
 1368TIP3    H2 4069   0.864   3.896   2.404
 1369TIP3   OH2 4070   3.060   1.219   1.472
 1369TIP3    H1 4071   2.979   1.266   1.454
 1369TIP3    H2 4072   3.128   1.270   1.428
 1370TIP3   OH2 4073   3.931   4.663   5.420
 1370TIP3    H1 4074   3.929   4.756   5.398
 1370TIP3    H2 4075   3.840   4.635   5.416
 1371TIP3   OH2 4076   2.838   4.117   3.807
 1371TIP3    H1 4077   2.828   4.034   3.854
 1371TIP3    H2 4078   2.905   4.164   3.857
 1372TIP3   OH2 4079   7.231   1.004   3.212
 1372TIP3    H1 4080   7.174   0.948   3.160
 1372TIP3    H2 4081   7.184   1.018   3.294
 1373TIP3   OH2 4082   1.433   0.417   0.087
 1373TIP3    H1 4083   1.503   0.481   0.076
 1373TIP3    H2 4084   1.446   0.354   0.016
 1374TIP3   OH2 4085   3.430   5.890   2.979
 1374TIP3    H1 4086   3.363   5.834   2.940
 1374TIP3    H2 4087   3.509   5.836   2.981
 1375TIP3   OH2 4088   3.707   6.487   4.910
 1375TIP3    H1 4089   3.799   6.474   4.932
 1375TIP3    H2 4090   3.667   6.519   4.991
 1376TIP3   OH2 4091   5.814   2.263   4.085
 1376TIP3    H1 4092   5.874   2.232   4.018
 1376TIP3    H2 4093   5.784   2.348   4.053
 1377TIP3   OH2 4094   3.504   2.145   5.343
 1377TIP3    H1 4095   3.509   2.111   5.254
 1377TIP3    H2 4096   3.580   2.109   5.387
 1378TIP3   OH2 4097   0.720   6.550   1.678
 1378TIP3    H1 4098   0.714   6.642   1.701
 1378TIP3    H2 4099   0.812   6.528   1.689
 1379TIP3   OH2 4100   1.143   4.532   4.564
 1379TIP3    H1 4101   1.191   4.471   4.509
 1379TIP3    H2 4102   1.182   4.523   4.651
 1380TIP3   OH2 4103   4.188   1.013   5.125
 1380TIP3    H1 4104   4.179   1.052   5.212
 1380TIP3    H2 4105   4.277   0.980   5.122
 1381TIP3   OH2 4106   2.720   6.153   2.897
 1381TIP3    H1 4107   2.658   6.084   2.872
 1381TIP3    H2 4108   2.678   6.197   2.971
 1382TIP3   OH2 4109   4.976   4.355   3.203
 1382TIP3    H1 4110   4.904   4.418   3.207
 1382TIP3    H2 4111   4.960   4.304   3.124
 1383TIP3   OH2 4112   0.373   3.678   0.723
 1383TIP3    H1 4113   0.367   3.718   0.637
 1383TIP3    H2 4114   0.464   3.690   0.749
 1384TIP3   OH2 4115   1.205   0.646   2.545
 1384TIP3    H1 4116   1.273   0.629   2.480
 1384TIP3    H2 4117   1.142   0.703   2.500
 1385TIP3   OH2 4118   1.629   6.606   5.767
 1385TIP3    H1 4119   1.647   6.686   5.717
 1385TIP3    H2 4120   1.548   6.626   5.814
 1386TIP3   OH2 4121   0.570   3.929   2.305
 1386TIP3    H1 4122   0.519   3.986   2.247
 1386TIP3    H2 4123   0.575   3.845   2.258
 1387TIP3   OH2 4124   0.133   5.908   2.435
 1387TIP3    H1 4125   0.051   5.863   2.455
 1387TIP3    H2 4126   0.193   5.883   2.505
 1388TIP3   OH2 4127   2.003   0.237   5.111
 1388TIP3    H1 4128   2.036   0.323   5.085
 1388TIP3    H2 4129   1.908   0.246   5.110
 1389TIP3   OH2 4130   0.764   1.805   4.904
 1389TIP3    H1 4131   0.755   1.888   4.951
 1389TIP3    H2 4132   0.859   1.789   4.902
 1390TIP3   OH2 4133   2.909   1.513   0.871
 1390TIP3    H1 4134   2.968   1.578   0.833
 1390TIP3    H2 4135   2.930   1.514   0.964
 1391TIP3   OH2 4136   6.714   4.524   1.238
 1391TIP3    H1 4137   6.803   4.547   1.212
 1391TIP3    H2 4138   6.725   4.469   1.316
 1392TIP3   OH2 4139   0.992   0.498   4.145
 1392TIP3    H1 4140   0.979   0.511   4.051
 1392TIP3    H2 4141   0.920   0.546   4.186
 1393TIP3   OH2 4142   3.906   3.167   1.491
 1393TIP3    H1 4143   3.961   3.097   1.454
 1393TIP3    H2 4144   3.885   3.223   1.417
 1394TIP3   OH2 4145   6.072   0.037   5.137
 1394TIP3    H1 4146   6.072   0.068   5.047
 1394TIP3    H2 4147   6.134   0.094   5.182
 1395TIP3   OH2 4148   6.796   0.595   1.625
 1395TIP3    H1 4149   6.858   0.522   1.622
 1395TIP3    H2 4150   6.795   0.621   1.717
 1396TIP3   OH2 4151   1.130   0.101   2.499
 1396TIP3    H1 4152   1.151   0.140   2.414
 1396TIP3    H2 4153   1.180   0.152   2.562
 1397TIP3   OH2 4154   4.582   1.023   0.107
 1397TIP3    H1 4155   4.524   1.014   0.031
 1397TIP3    H2 4156   4.533   1.075   0.170
 1398TIP3   OH2 4157   4.038   0.981   0.755
 1398TIP3    H1 4158   4.107   1.032   0.713
 1398TIP3    H2 4159   4.084   0.924   0.817
 1399TIP3   OH2 4160   0.043   6.357   4.359
 1399TIP3    H1 4161  -0.003   6.290   4.410
 1399TIP3    H2 4162   0.098   6.403   4.423
 1400TIP3   OH2 4163   7.032   5.858   2.832
 1400TIP3    H1 4164   7.107   5.870   2.892
 1400TIP3    H2 4165   6.956   5.854   2.890
 1401TIP3   OH2 4166   4.176   6.448   4.212
 1401TIP3    H1 4167   4.082   6.432   4.217
 1401TIP3    H2 4168   4.185   6.515   4.145
 1402TIP3   OH2 4169   3.369   0.956   0.530
 1402TIP3    H1 4170   3.404   0.867   0.538
 1402TIP3    H2 4171   3.413   1.005   0.599
 1403TIP3   OH2 4172   6.737   2.177   3.946
 1403TIP3    H1 4173   6.658   2.162   3.998
 1403TIP3    H2 4174   6.706   2.184   3.856
 1404TIP3   OH2 4175   2.511   3.063   5.267
 1404TIP3    H1 4176   2.583   3.119   5.238
 1404TIP3    H2 4177   2.437   3.123   5.280
 1405TIP3   OH2 4178   0.174   4.127   3.304
 1405TIP3    H1 4179   0.118   4.066   3.352
 1405TIP3    H2 4180   0.114   4.175   3.247
 1406TIP3   OH2 4181   6.879   0.534   5.396
 1406TIP3    H1 4182   6.824   0.480   5.453
 1406TIP3    H2 4183   6.961   0.485   5.389
 1407TIP3   OH2 4184   5.654   6.093   4.867
 1407TIP3    H1 4185   5.649   6.074   4.773
 1407TIP3    H2 4186   5.735   6.142   4.877
 1408TIP3   OH2 4187   3.812   3.742   5.190
 1408TIP3    H1 4188   3.831   3.818   5.136
 1408TIP3    H2 4189   3.718   3.748   5.208
 1409TIP3   OH2 4190   6.683   6.138   0.875
 1409TIP3    H1 4191   6.767   6.110   0.841
 1409TIP3    H2 4192   6.621   6.073   0.844
 1410TIP3   OH2 4193   1.076   3.701   5.651
 1410TIP3    H1 4194   1.056   3.618   5.606
 1410TIP3    H2 4195   1.042   3.688   5.739
 1411TIP3   OH2 4196   4.009   6.288   3.402
 1411TIP3    H1 4197   4.043   6.367   3.359
 1411TIP3    H2 4198   3.927   6.317   3.442
 1412TIP3   OH2 4199   2.963   2.846   5.290
 1412TIP3    H1 4200   2.955   2.818   5.199
 1412TIP3    H2 4201   2.938   2.939   5.289
 1413TIP3   OH2 4202   0.822   3.009   0.442
 1413TIP3    H1 4203   0.899   3.026   0.388
 1413TIP3    H2 4204   0.847   3.037   0.530
 1414TIP3   OH2 4205   7.069   0.722   0.468
 1414TIP3    H1 4206   7.140   0.777   0.434
 1414TIP3    H2 4207   7.012   0.708   0.393
 1415TIP3   OH2 4208   6.554   0.378   4.856
 1415TIP3    H1 4209   6.478   0.416   4.812
 1415TIP3    H2 4210   6.519   0.299   4.897
 1416TIP3   OH2 4211   5.411   0.480  -0.011
 1416TIP3    H1 4212   5.449   0.441   0.067
 1416TIP3    H2 4213   5.483   0.529  -0.051
 1417TIP3   OH2 4214   7.038   0.374   0.562
 1417TIP3    H1 4215   6.998   0.287   0.555
 1417TIP3    H2 4216   6.964   0.434   0.573
 1418TIP3   OH2 4217   2.683   0.342   0.346
 1418TIP3    H1 4218   2.700   0.254   0.379
 1418TIP3    H2 4219   2.627   0.382   0.412
 1419TIP3   OH2 4220   0.766   1.306   2.909
 1419TIP3    H1 4221   0.672   1.321   2.902
 1419TIP3    H2 4222   0.804   1.360   2.840
 1420TIP3   OH2 4223   0.934   6.069   2.584
 1420TIP3    H1 4224   0.914   5.983   2.620
 1420TIP3    H2 4225   0.893   6.131   2.645
 1421TIP3   OH2 4226   2.044   5.376   1.451
 1421TIP3    H1 4227   2.133   5.410   1.442
 1421TIP3    H2 4228   1.991   5.434   1.396
 1422TIP3   OH2 4229   0.416   0.839   1.192
 1422TIP3    H1 4230   0.462   0.881   1.265
 1422TIP3    H2 4231   0.326   0.827   1.223
 1423TIP3   OH2 4232   6.563   6.279   0.551
 1423TIP3    H1 4233   6.546   6.187   0.571
 1423TIP3    H2 4234   6.506   6.297   0.476
 1424TIP3   OH2 4235   5.070   6.056   1.780
 1424TIP3    H1 4236   5.094   6.017   1.864
 1424TIP3    H2 4237   5.025   5.985   1.733
 1425TIP3   OH2 4238   0.186   6.469   4.564
 1425TIP3    H1 4239   0.279   6.448   4.569
 1425TIP3    H2 4240   0.183   6.564   4.554
 1426TIP3   OH2 4241   3.657   5.665   5.075
 1426TIP3    H1 4242   3.656   5.573   5.103
 1426TIP3    H2 4243   3.654   5.661   4.979
 1427TIP3   OH2 4244   1.571   3.838   5.581
 1427TIP3    H1 4245   1.574   3.926   5.544
 1427TIP3    H2 4246   1.618   3.783   5.518
 1428TIP3   OH2 4247   4.929   4.161   5.484
 1428TIP3    H1 4248   4.965   4.072   5.485
 1428TIP3    H2 4249   4.990   4.211   5.431
 1429TIP3   OH2 4250   0.197   2.013   0.110
 1429TIP3    H1 4251   0.245   2.027   0.192
 1429TIP3    H2 4252   0.108   1.990   0.138
 1430TIP3   OH2 4253   0.170   1.589   3.501
 1430TIP3    H1 4254   0.101   1.528   3.527
 1430TIP3    H2 4255   0.129   1.676   3.508
 1431TIP3   OH2 4256   3.775   1.600   1.899
 1431TIP3    H1 4257   3.731   1.638   1.823
 1431TIP3    H2 4258   3.703   1.573   1.957
 1432TIP3   OH2 4259   1.182   5.441   3.785
 1432TIP3    H1 4260   1.125   5.389   3.841
 1432TIP3    H2 4261   1.164   5.411   3.696
 1433TIP3   OH2 4262   7.172   4.048   1.805
 1433TIP3    H1 4263   7.189   4.064   1.898
 1433TIP3    H2 4264   7.083   4.014   1.802
 1434TIP3   OH2 4265   2.546   0.750   0.598
 1434TIP3    H1 4266   2.627   0.700   0.597
 1434TIP3    H2 4267   2.570   0.835   0.561
 1435TIP3   OH2 4268   5.439   2.782   0.004
 1435TIP3    H1 4269   5.479   2.812   0.086
 1435TIP3    H2 4270   5.464   2.848  -0.060
 1436TIP3   OH2 4271   1.473   6.680   1.252
 1436TIP3    H1 4272   1.429   6.604   1.213
 1436TIP3    H2 4273   1.425   6.755   1.217
 1437TIP3   OH2 4274   2.094   1.013   0.996
 1437TIP3    H1 4275   2.096   0.948   1.066
 1437TIP3    H2 4276   2.157   0.981   0.931
 1438TIP3   OH2 4277   3.473   5.254   0.917
 1438TIP3    H1 4278   3.532   5.317   0.959
 1438TIP3    H2 4279   3.396   5.306   0.894
 1439TIP3   OH2 4280   3.838   2.166   4.924
 1439TIP3    H1 4281   3.877   2.254   4.925
 1439TIP3    H2 4282   3.756   2.176   4.971
 1440TIP3   OH2 4283   5.539   6.423   1.773
 1440TIP3    H1 4284   5.480   6.373   1.829
 1440TIP3    H2 4285   5.490   6.503   1.752
 1441TIP3   OH2 4286   4.795   6.271   3.267
 1441TIP3    H1 4287   4.837   6.279   3.181
 1441TIP3    H2 4288   4.832   6.342   3.319
 1442TIP3   OH2 4289   1.667   0.783   1.435
 1442TIP3    H1 4290   1.674   0.875   1.412
 1442TIP3    H2 4291   1.648   0.784   1.529
 1443TIP3   OH2 4292   5.193   5.041   2.226
 1443TIP3    H1 4293   5.244   4.962   2.206
 1443TIP3    H2 4294   5.249   5.091   2.285
 1444TIP3   OH2 4295   2.089   5.944   5.201
 1444TIP3    H1 4296   2.123   5.996   5.274
 1444TIP3    H2 4297   2.004   5.983   5.181
 1445TIP3   OH2 4298   4.564   0.173   1.867
 1445TIP3    H1 4299   4.503   0.099   1.878
 1445TIP3    H2 4300   4.559   0.220   1.950
 1446TIP3   OH2 4301   5.554   1.961   4.994
 1446TIP3    H1 4302   5.466   1.932   4.970
 1446TIP3    H2 4303   5.606   1.948   4.914
 1447TIP3   OH2 4304   3.652   5.744   2.935
 1447TIP3    H1 4305   3.655   5.736   2.839
 1447TIP3    H2 4306   3.721   5.684   2.965
 1448TIP3   OH2 4307   2.806   1.142   4.422
 1448TIP3    H1 4308   2.897   1.125   4.446
 1448TIP3    H2 4309   2.803   1.133   4.327
 1449TIP3   OH2 4310   4.626   3.939   3.998
 1449TIP3    H1 4311   4.538   3.961   4.027
 1449TIP3    H2 4312   4.665   4.023   3.974
 1450TIP3   OH2 4313   5.707   4.725   2.317
 1450TIP3    H1 4314   5.742   4.812   2.336
 1450TIP3    H2 4315   5.750   4.700   2.235
 1451TIP3   OH2 4316   3.355   2.903   4.460
 1451TIP3    H1 4317   3.349   2.993   4.430
 1451TIP3    H2 4318   3.341   2.908   4.555
 1452TIP3   OH2 4319   4.206   1.273   1.916
 1452TIP3    H1 4320   4.132   1.330   1.897
 1452TIP3    H2 4321   4.281   1.333   1.920
 1453TIP3   OH2 4322   2.847   4.653   4.042
 1453TIP3    H1 4323   2.937   4.684   4.050
 1453TIP3    H2 4324   2.826   4.617   4.128
 1454TIP3   OH2 4325   0.761   5.770   2.363
 1454TIP3    H1 4326   0.855   5.756   2.351
 1454TIP3    H2 4327   0.735   5.704   2.427
 1455TIP3   OH2 4328   5.016   6.369   5.098
 1455TIP3    H1 4329   5.003   6.294   5.156
 1455TIP3    H2 4330   5.110   6.382   5.096
 1456TIP3   OH2 4331   7.008   5.338   5.630
 1456TIP3    H1 4332   7.063   5.278   5.681
 1456TIP3    H2 4333   7.058   5.354   5.550
 1457TIP3   OH2 4334   5.161   1.395   1.138
 1457TIP3    H1 4335   5.115   1.402   1.055
 1457TIP3    H2 4336   5.191   1.304   1.141
 1458TIP3   OH2 4337   5.837   6.426   1.437
 1458TIP3    H1 4338   5.811   6.507   1.394
 1458TIP3    H2 4339   5.927   6.411   1.408
 1459TIP3   OH2 4340   3.526   1.778   4.274
 1459TIP3    H1 4341   3.474   1.751   4.350
 1459TIP3    H2 4342   3.468   1.836   4.225
 1460TIP3   OH2 4343   3.628   0.933   5.452
 1460TIP3    H1 4344   3.633   0.971   5.365
 1460TIP3    H2 4345   3.592   1.002   5.507
 1461TIP3   OH2 4346   1.769   3.678   3.989
 1461TIP3    H1 4347   1.782   3.677   4.083
 1461TIP3    H2 4348   1.835   3.618   3.955
 1462TIP3   OH2 4349   2.085   5.729   5.055
 1462TIP3    H1 4350   2.119   5.796   5.114
 1462TIP3    H2 4351   2.040   5.666   5.113
 1463TIP3   OH2 4352   1.607   3.483   4.308
 1463TIP3    H1 4353   1.597   3.572   4.276
 1463TIP3    H2 4354   1.560   3.429   4.245
 1464TIP3   OH2 4355   2.328   2.876   3.522
 1464TIP3    H1 4356   2.260   2.848   3.583
 1464TIP3    H2 4357   2.316   2.819   3.446
 1465TIP3   OH2 4358   5.939   4.729   5.027
 1465TIP3    H1 4359   5.845   4.721   5.041
 1465TIP3    H2 4360   5.979   4.674   5.094
 1466TIP3   OH2 4361   1.676   6.508   3.726
 1466TIP3    H1 4362   1.745   6.445   3.747
 1466TIP3    H2 4363   1.595   6.465   3.753
 1467TIP3   OH2 4364   3.306   1.637   2.668
 1467TIP3    H1 4365   3.357   1.558   2.685
 1467TIP3    H2 4366   3.331   1.697   2.739
 1468TIP3   OH2 4367   5.080   1.113   4.475
 1468TIP3    H1 4368   5.003   1.068   4.442
 1468TIP3    H2 4369   5.070   1.203   4.444
 1469TIP3   OH2 4370   5.107   6.311   4.157
 1469TIP3    H1 4371   5.110   6.295   4.252
 1469TIP3    H2 4372   5.188   6.359   4.139
 1470TIP3   OH2 4373   4.456   4.466   3.720
 1470TIP3    H1 4374   4.543   4.462   3.681
 1470TIP3    H2 4375   4.406   4.398   3.674
 1471TIP3   OH2 4376   5.004   4.654   2.194
 1471TIP3    H1 4377   4.920   4.662   2.149
 1471TIP3    H2 4378   4.990   4.694   2.280
 1472TIP3   OH2 4379   5.748   1.510   0.332
 1472TIP3    H1 4380   5.787   1.574   0.273
 1472TIP3    H2 4381   5.822   1.456   0.360
 1473TIP3   OH2 4382   4.861   2.567   2.117
 1473TIP3    H1 4383   4.864   2.581   2.022
 1473TIP3    H2 4384   4.803   2.636   2.149
 1474TIP3   OH2 4385   3.718   6.662   3.050
 1474TIP3    H1 4386   3.779   6.589   3.051
 1474TIP3    H2 4387   3.667   6.652   3.130
 1475TIP3   OH2 4388   4.674   0.066   0.437
 1475TIP3    H1 4389   4.736   0.032   0.503
 1475TIP3    H2 4390   4.619  -0.009   0.416
 1476TIP3   OH2 4391   1.390   0.290   5.244
 1476TIP3    H1 4392   1.358   0.292   5.154
 1476TIP3    H2 4393   1.484   0.275   5.235
 1477TIP3   OH2 4394   4.916   0.512   0.264
 1477TIP3    H1 4395   4.958   0.502   0.350
 1477TIP3    H2 4396   4.986   0.494   0.202
 1478TIP3   OH2 4397   3.891   1.162   5.619
 1478TIP3    H1 4398   3.900   1.165   5.715
 1478TIP3    H2 4399   3.928   1.077   5.594
 1479TIP3   OH2 4400   6.597   1.720   4.200
 1479TIP3    H1 4401   6.582   1.783   4.129
 1479TIP3    H2 4402   6.570   1.767   4.279
 1480TIP3   OH2 4403   2.317   2.346   2.568
 1480TIP3    H1 4404   2.265   2.334   2.647
 1480TIP3    H2 4405   2.255   2.329   2.496
 1481TIP3   OH2 4406   3.053   4.054   4.186
 1481TIP3    H1 4407   3.023   4.040   4.276
 1481TIP3    H2 4408   3.087   3.968   4.159
 1482TIP3   OH2 4409   2.083   0.706   1.661
 1482TIP3    H1 4410   2.078   0.651   1.582
 1482TIP3    H2 4411   2.157   0.669   1.710
 1483TIP3   OH2 4412   6.647   0.937   0.661
 1483TIP3    H1 4413   6.629   0.869   0.726
 1483TIP3    H2 4414   6.562   0.957   0.623
 1484TIP3   OH2 4415   3.287   3.745   0.972
 1484TIP3    H1 4416   3.251   3.703   1.050
 1484TIP3    H2 4417   3.230   3.717   0.901
 1485TIP3   OH2 4418   3.178   1.168   0.500
 1485TIP3    H1 4419   3.117   1.163   0.574
 1485TIP3    H2 4420   3.236   1.093   0.511
 1486TIP3   OH2 4421   6.117   1.636   1.792
 1486TIP3    H1 4422   6.124   1.650   1.697
 1486TIP3    H2 4423   6.187   1.575   1.813
 1487TIP3   OH2 4424   5.306   2.297   2.692
 1487TIP3    H1 4425   5.284   2.204   2.700
 1487TIP3    H2 4426   5.399   2.298   2.670
 1488TIP3   OH2 4427   5.572   2.321   2.950
 1488TIP3    H1 4428   5.557   2.397   3.006
 1488TIP3    H2 4429   5.523   2.341   2.870
 1489TIP3   OH2 4430   0.450   2.297   2.544
 1489TIP3    H1 4431   0.515   2.366   2.554
 1489TIP3    H2 4432   0.366   2.343   2.545
 1490TIP3   OH2 4433   4.157   1.424   2.326
 1490TIP3    H1 4434   4.180   1.355   2.265
 1490TIP3    H2 4435   4.084   1.470   2.285
 1491TIP3   OH2 4436   3.650   2.587   2.586
 1491TIP3    H1 4437   3.656   2.507   2.638
 1491TIP3    H2 4438   3.737   2.599   2.549
 1492TIP3   OH2 4439   2.095   3.364   5.165
 1492TIP3    H1 4440   2.153   3.384   5.238
 1492TIP3    H2 4441   2.023   3.427   5.174
 1493TIP3   OH2 4442   3.613   3.452   0.034
 1493TIP3    H1 4443   3.550   3.456   0.106
 1493TIP3    H2 4444   3.623   3.358   0.016
 1494TIP3   OH2 4445   3.682   1.275   2.641
 1494TIP3    H1 4446   3.709   1.303   2.728
 1494TIP3    H2 4447   3.763   1.251   2.597
 1495TIP3   OH2 4448   4.779   4.626   4.497
 1495TIP3    H1 4449   4.838   4.551   4.501
 1495TIP3    H2 4450   4.793   4.663   4.410
 1496TIP3   OH2 4451   3.481   6.393   2.113
 1496TIP3    H1 4452   3.489   6.353   2.199
 1496TIP3    H2 4453   3.427   6.471   2.127
 1497TIP3   OH2 4454   0.094   5.922   5.774
 1497TIP3    H1 4455   0.085   5.865   5.850
 1497TIP3    H2 4456   0.020   5.898   5.718
 1498TIP3   OH2 4457   5.855   2.236   3.532
 1498TIP3    H1 4458   5.791   2.301   3.560
 1498TIP3    H2 4459   5.939   2.282   3.535
 1499TIP3   OH2 4460   6.660   0.536   3.066
 1499TIP3    H1 4461   6.641   0.563   3.156
 1499TIP3    H2 4462   6.707   0.453   3.076
 1500TIP3   OH2 4463   1.631   0.518   5.791
 1500TIP3    H1 4464   1.696   0.490   5.727
 1500TIP3    H2 4465   1.547   0.496   5.750
 1501TIP3   OH2 4466   6.362   4.742   0.434
 1501TIP3    H1 4467   6.450   4.726   0.399
 1501TIP3    H2 4468   6.330   4.818   0.387
 1502TIP3   OH2 4469   6.353   3.508   0.467
 1502TIP3    H1 4470   6.429   3.502   0.408
 1502TIP3    H2 4471   6.387   3.553   0.544
 1503TIP3   OH2 4472   6.037   5.627   3.542
 1503TIP3    H1 4473   6.018   5.621   3.448
 1503TIP3    H2 4474   6.081   5.712   3.551
 1504TIP3   OH2 4475   2.172   3.149   3.355
 1504TIP3    H1 4476   2.259   3.109   3.353
 1504TIP3    H2 4477   2.131   3.122   3.272
 1505TIP3   OH2 4478   5.943   0.241   2.047
 1505TIP3    H1 4479   6.012   0.300   2.078
 1505TIP3    H2 4480   5.941   0.256   1.952
 1506TIP3   OH2 4481   3.501   2.198   2.513
 1506TIP3    H1 4482   3.459   2.268   2.463
 1506TIP3    H2 4483   3.470   2.212   2.603
 1507TIP3   OH2 4484   2.638   5.281   5.013
 1507TIP3    H1 4485   2.704   5.266   5.081
 1507TIP3    H2 4486   2.670   5.357   4.965
 1508TIP3   OH2 4487   2.679   4.748   2.863
 1508TIP3    H1 4488   2.727   4.805   2.804
 1508TIP3    H2 4489   2.691   4.787   2.950
 1509TIP3   OH2 4490   5.112   4.389   4.936
 1509TIP3    H1 4491   5.085   4.353   4.851
 1509TIP3    H2 4492   5.182   4.331   4.965
 1510TIP3   OH2 4493   5.916   5.905   0.555
 1510TIP3    H1 4494   5.983   5.914   0.487
 1510TIP3    H2 4495   5.958   5.939   0.634
 1511TIP3   OH2 4496   3.041   5.301   2.038
 1511TIP3    H1 4497   3.071   5.317   1.949
 1511TIP3    H2 4498   2.947   5.318   2.035
 1512TIP3   OH2 4499   2.499   5.795   0.476
 1512TIP3    H1 4500   2.533   5.799   0.565
 1512TIP3    H2 4501   2.562   5.844   0.424
 1513TIP3   OH2 4502   1.212   5.585   4.691
 1513TIP3    H1 4503   1.118   5.572   4.682
 1513TIP3    H2 4504   1.226   5.600   4.784
 1514TIP3   OH2 4505   3.734   3.390   3.645
 1514TIP3    H1 4506   3.809   3.397   3.586
 1514TIP3    H2 4507   3.707   3.480   3.661
 1515TIP3   OH2 4508   5.407   3.064   4.836
 1515TIP3    H1 4509   5.347   3.133   4.811
 1515TIP3    H2 4510   5.470   3.106   4.894
 1516TIP3   OH2 4511   1.448   0.172   0.227
 1516TIP3    H1 4512   1.407   0.249   0.187
 1516TIP3    H2 4513   1.538   0.198   0.243
 1517TIP3   OH2 4514   1.686   0.058   4.822
 1517TIP3    H1 4515   1.769   0.055   4.775
 1517TIP3    H2 4516   1.679  -0.028   4.864
 1518TIP3   OH2 4517   2.867   4.998   3.918
 1518TIP3    H1 4518   2.787   5.026   3.962
 1518TIP3    H2 4519   2.843   4.916   3.874
 1519TIP3   OH2 4520   2.452   5.127   2.521
 1519TIP3    H1 4521   2.456   5.222   2.509
 1519TIP3    H2 4522   2.376   5.099   2.469
 1520TIP3   OH2 4523   4.028   5.802   5.145
 1520TIP3    H1 4524   4.054   5.892   5.125
 1520TIP3    H2 4525   3.956   5.784   5.083
 1521TIP3   OH2 4526   5.494   6.013   1.188
 1521TIP3    H1 4527   5.513   6.096   1.232
 1521TIP3    H2 4528   5.473   5.953   1.259
 1522TIP3   OH2 4529   2.457   0.664   2.442
 1522TIP3    H1 4530   2.435   0.614   2.520
 1522TIP3    H2 4531   2.384   0.649   2.382
 1523TIP3   OH2 4532   3.999   1.388   4.525
 1523TIP3    H1 4533   3.956   1.335   4.592
 1523TIP3    H2 4534   4.037   1.462   4.573
 1524TIP3   OH2 4535   4.006   3.469   3.469
 1524TIP3    H1 4536   4.014   3.552   3.516
 1524TIP3    H2 4537   4.052   3.406   3.525
 1525TIP3   OH2 4538   5.926   1.916   0.686
 1525TIP3    H1 4539   5.859   1.975   0.652
 1525TIP3    H2 4540   5.904   1.830   0.650
 1526TIP3   OH2 4541   3.739   3.018   1.884
 1526TIP3    H1 4542   3.805   2.951   1.868
 1526TIP3    H2 4543   3.774   3.069   1.957
 1527TIP3   OH2 4544   5.367   3.664   3.447
 1527TIP3    H1 4545   5.380   3.631   3.358
 1527TIP3    H2 4546   5.454   3.663   3.486
 1528TIP3   OH2 4547   1.944   0.730   2.649
 1528TIP3    H1 4548   1.978   0.806   2.696
 1528TIP3    H2 4549   2.011   0.663   2.659
 1529TIP3   OH2 4550   4.953   5.094   5.444
 1529TIP3    H1 4551   5.030   5.060   5.397
 1529TIP3    H2 4552   4.905   5.016   5.472
 1530TIP3   OH2 4553   1.376   5.470  -0.013
 1530TIP3    H1 4554   1.452   5.513   0.026
 1530TIP3    H2 4555   1.347   5.408   0.055
 1531TIP3   OH2 4556   6.147   3.019   2.908
 1531TIP3    H1 4557   6.080   2.997   2.843
 1531TIP3    H2 4558   6.097   3.045   2.985
 1532TIP3   OH2 4559   1.248   5.033   1.791
 1532TIP3    H1 4560   1.297   5.113   1.811
 1532TIP3    H2 4561   1.157   5.061   1.785
 1533TIP3   OH2 4562   7.120   4.114   4.729
 1533TIP3    H1 4563   7.140   4.132   4.637
 1533TIP3    H2 4564   7.205   4.095   4.769
 1534TIP3   OH2 4565   3.330   6.004   4.429
 1534TIP3    H1 4566   3.299   6.086   4.467
 1534TIP3    H2 4567   3.401   5.977   4.488
 1535TIP3   OH2 4568   0.060   2.694   0.323
 1535TIP3    H1 4569   0.126   2.688   0.392
 1535TIP3    H2 4570  -0.019   2.656   0.362
 1536TIP3   OH2 4571   6.850   3.607   0.843
 1536TIP3    H1 4572   6.877   3.521   0.812
 1536TIP3    H2 4573   6.759   3.615   0.814
 1537TIP3   OH2 4574   0.243   6.444   3.903
 1537TIP3    H1 4575   0.285   6.524   3.872
 1537TIP3    H2 4576   0.313   6.379   3.904
 1538TIP3   OH2 4577   6.971   0.467   1.858
 1538TIP3    H1 4578   7.060   0.493   1.881
 1538TIP3    H2 4579   6.976   0.373   1.844
 1539TIP3   OH2 4580   5.717   3.539   0.042
 1539TIP3    H1 4581   5.774   3.606   0.005
 1539TIP3    H2 4582   5.755   3.519   0.128
 1540TIP3   OH2 4583   3.220   1.311   1.997
 1540TIP3    H1 4584   3.161   1.237   1.979
 1540TIP3    H2 4585   3.163   1.387   2.000
 1541TIP3   OH2 4586   0.510   0.984   2.444
 1541TIP3    H1 4587   0.518   1.016   2.534
 1541TIP3    H2 4588   0.432   1.028   2.410
 1542TIP3   OH2 4589   3.259   0.844   1.690
 1542TIP3    H1 4590   3.276   0.937   1.670
 1542TIP3    H2 4591   3.257   0.840   1.785
 1543TIP3   OH2 4592   6.421   0.069   2.866
 1543TIP3    H1 4593   6.371   0.112   2.797
 1543TIP3    H2 4594   6.445   0.140   2.926
 1544TIP3   OH2 4595   2.710   6.626   3.678
 1544TIP3    H1 4596   2.649   6.587   3.615
 1544TIP3    H2 4597   2.741   6.552   3.730
 1545TIP3   OH2 4598   2.131   3.039   3.089
 1545TIP3    H1 4599   2.077   3.013   3.014
 1545TIP3    H2 4600   2.195   2.968   3.098
 1546TIP3   OH2 4601   1.259   6.047   3.322
 1546TIP3    H1 4602   1.313   6.125   3.321
 1546TIP3    H2 4603   1.204   6.057   3.401
 1547TIP3   OH2 4604   5.174   3.673   2.713
 1547TIP3    H1 4605   5.117   3.648   2.640
 1547TIP3    H2 4606   5.122   3.732   2.766
 1548TIP3   OH2 4607   5.846   2.271   5.542
 1548TIP3    H1 4608   5.892   2.233   5.617
 1548TIP3    H2 4609   5.834   2.363   5.565
 1549TIP3   OH2 4610   0.811   4.223   4.837
 1549TIP3    H1 4611   0.766   4.220   4.752
 1549TIP3    H2 4612   0.879   4.156   4.829
 1550TIP3   OH2 4613   4.244   5.874   5.368
 1550TIP3    H1 4614   4.168   5.831   5.331
 1550TIP3    H2 4615   4.294   5.804   5.409
 1551TIP3   OH2 4616   0.440   1.888   0.865
 1551TIP3    H1 4617   0.386   1.958   0.828
 1551TIP3    H2 4618   0.497   1.932   0.928
 1552TIP3   OH2 4619   0.464   1.363   5.263
 1552TIP3    H1 4620   0.479   1.430   5.330
 1552TIP3    H2 4621   0.504   1.284   5.299
 1553TIP3   OH2 4622   1.572   1.673   5.610
 1553TIP3    H1 4623   1.484   1.692   5.643
 1553TIP3    H2 4624   1.596   1.751   5.561
 1554TIP3   OH2 4625   4.651   2.713   4.945
 1554TIP3    H1 4626   4.567   2.684   4.909
 1554TIP3    H2 4627   4.630   2.750   5.030
 1555TIP3   OH2 4628   6.076   0.159   2.569
 1555TIP3    H1 4629   6.162   0.194   2.591
 1555TIP3    H2 4630   6.037   0.225   2.512
 1556TIP3   OH2 4631   4.903   4.479   1.747
 1556TIP3    H1 4632   4.943   4.549   1.798
 1556TIP3    H2 4633   4.937   4.398   1.785
 1557TIP3   OH2 4634   3.755   1.314   0.484
 1557TIP3    H1 4635   3.720   1.313   0.394
 1557TIP3    H2 4636   3.810   1.236   0.489
 1558TIP3   OH2 4637   4.009   2.913   1.740
 1558TIP3    H1 4638   4.043   2.910   1.650
 1558TIP3    H2 4639   4.036   2.998   1.773
 1559TIP3   OH2 4640   1.554   4.824   2.327
 1559TIP3    H1 4641   1.571   4.916   2.348
 1559TIP3    H2 4642   1.640   4.784   2.320
 1560TIP3   OH2 4643   6.134   5.794   4.038
 1560TIP3    H1 4644   6.229   5.797   4.053
 1560TIP3    H2 4645   6.096   5.821   4.121
 1561TIP3   OH2 4646   6.410   1.665   2.609
 1561TIP3    H1 4647   6.413   1.736   2.674
 1561TIP3    H2 4648   6.318   1.639   2.606
 1562TIP3   OH2 4649   1.140   4.646   1.066
 1562TIP3    H1 4650   1.206   4.668   1.132
 1562TIP3    H2 4651   1.097   4.729   1.046
 1563TIP3   OH2 4652   3.113   3.432   2.432
 1563TIP3    H1 4653   3.033   3.430   2.484
 1563TIP3    H2 4654   3.144   3.522   2.437
 1564TIP3   OH2 4655   0.656   0.089   2.853
 1564TIP3    H1 4656   0.618   0.163   2.900
 1564TIP3    H2 4657   0.715   0.048   2.916
 1565TIP3   OH2 4658   2.680   2.179   4.547
 1565TIP3    H1 4659   2.642   2.104   4.593
 1565TIP3    H2 4660   2.606   2.239   4.536
 1566TIP3   OH2 4661   7.054   4.619   4.642
 1566TIP3    H1 4662   7.051   4.604   4.548
 1566TIP3    H2 4663   7.016   4.706   4.653
 1567TIP3   OH2 4664   4.152   1.304   3.109
 1567TIP3    H1 4665   4.120   1.395   3.111
 1567TIP3    H2 4666   4.091   1.256   3.165
 1568TIP3   OH2 4667   6.863   3.946   0.794
 1568TIP3    H1 4668   6.884   3.874   0.736
 1568TIP3    H2 4669   6.895   4.024   0.749
 1569TIP3   OH2 4670   2.805   1.143   3.048
 1569TIP3    H1 4671   2.820   1.134   3.142
 1569TIP3    H2 4672   2.766   1.059   3.022
 1570TIP3   OH2 4673   0.268   0.198   1.551
 1570TIP3    H1 4674   0.211   0.123   1.571
 1570TIP3    H2 4675   0.283   0.191   1.456
 1571TIP3   OH2 4676   3.113   6.734   1.954
 1571TIP3    H1 4677   3.050   6.803   1.939
 1571TIP3    H2 4678   3.066   6.671   2.010
 1572TIP3   OH2 4679   2.448   2.062   4.031
 1572TIP3    H1 4680   2.421   1.993   3.971
 1572TIP3    H2 4681   2.538   2.083   4.005
 1573TIP3   OH2 4682   5.635   5.104   0.374
 1573TIP3    H1 4683   5.670   5.047   0.306
 1573TIP3    H2 4684   5.548   5.128   0.343
 1574TIP3   OH2 4685   3.540   4.149   4.472
 1574TIP3    H1 4686   3.544   4.194   4.556
 1574TIP3    H2 4687   3.578   4.211   4.410
 1575TIP3   OH2 4688   0.277   0.304   5.637
 1575TIP3    H1 4689   0.336   0.234   5.666
 1575TIP3    H2 4690   0.327   0.384   5.647
 1576TIP3   OH2 4691   6.840   3.864   4.347
 1576TIP3    H1 4692   6.886   3.851   4.430
 1576TIP3    H2 4693   6.812   3.776   4.322
 1577TIP3   OH2 4694   1.640   2.835   0.510
 1577TIP3    H1 4695   1.633   2.852   0.416
 1577TIP3    H2 4696   1.553   2.854   0.545
 1578TIP3   OH2 4697   4.702   0.582   0.893
 1578TIP3    H1 4698   4.715   0.676   0.910
 1578TIP3    H2 4699   4.620   0.561   0.938
 1579TIP3   OH2 4700   4.803   3.056   1.284
 1579TIP3    H1 4701   4.873   3.119   1.269
 1579TIP3    H2 4702   4.825   3.015   1.368
 1580TIP3   OH2 4703   0.623   1.814   5.496
 1580TIP3    H1 4704   0.646   1.783   5.409
 1580TIP3    H2 4705   0.702   1.800   5.549
 1581TIP3   OH2 4706   2.904   4.730   0.556
 1581TIP3    H1 4707   2.965   4.754   0.626
 1581TIP3    H2 4708   2.953   4.668   0.502
 1582TIP3   OH2 4709   6.947   3.093   3.314
 1582TIP3    H1 4710   6.924   3.044   3.236
 1582TIP3    H2 4711   6.963   3.182   3.282
 1583TIP3   OH2 4712   0.750   0.324   4.995
 1583TIP3    H1 4713   0.815   0.264   4.958
 1583TIP3    H2 4714   0.798   0.407   5.005
 1584TIP3   OH2 4715   6.588   0.927   2.351
 1584TIP3    H1 4716   6.570   1.016   2.382
 1584TIP3    H2 4717   6.502   0.890   2.332
 1585TIP3   OH2 4718   1.757   2.395   5.603
 1585TIP3    H1 4719   1.694   2.467   5.594
 1585TIP3    H2 4720   1.826   2.430   5.659
 1586TIP3   OH2 4721   1.556   2.172   5.031
 1586TIP3    H1 4722   1.522   2.222   4.957
 1586TIP3    H2 4723   1.649   2.195   5.035
 1587TIP3   OH2 4724   2.047   3.326   3.722
 1587TIP3    H1 4725   2.048   3.237   3.687
 1587TIP3    H2 4726   1.984   3.373   3.667
 1588TIP3   OH2 4727   6.323   0.571   1.328
 1588TIP3    H1 4728   6.249   0.551   1.384
 1588TIP3    H2 4729   6.397   0.527   1.369
 1589TIP3   OH2 4730   2.741   4.213   3.225
 1589TIP3    H1 4731   2.778   4.156   3.158
 1589TIP3    H2 4732   2.807   4.281   3.239
 1590TIP3   OH2 4733   3.771   6.079   2.027
 1590TIP3    H1 4734   3.802   6.165   2.055
 1590TIP3    H2 4735   3.819   6.061   1.946
 1591TIP3   OH2 4736   0.565   5.469   2.027
 1591TIP3    H1 4737   0.629   5.489   2.095
 1591TIP3    H2 4738   0.603   5.396   1.979
 1592TIP3   OH2 4739   0.714   2.911   2.697
 1592TIP3    H1 4740   0.744   2.996   2.663
 1592TIP3    H2 4741   0.680   2.931   2.784
 1593TIP3   OH2 4742   3.968   1.791   4.478
 1593TIP3    H1 4743   3.966   1.882   4.507
 1593TIP3    H2 4744   4.049   1.756   4.516
 1594TIP3   OH2 4745   3.946   1.945   3.672
 1594TIP3    H1 4746   3.869   1.910   3.716
 1594TIP3    H2 4747   3.911   1.992   3.596
 1595TIP3   OH2 4748   4.153   4.311   0.468
 1595TIP3    H1 4749   4.191   4.395   0.445
 1595TIP3    H2 4750   4.148   4.263   0.385
 1596TIP3   OH2 4751   6.878   5.777   0.254
 1596TIP3    H1 4752   6.942   5.731   0.200
 1596TIP3    H2 4753   6.902   5.869   0.246
 1597TIP3   OH2 4754   5.910   0.181   0.811
 1597TIP3    H1 4755   5.904   0.232   0.892
 1597TIP3    H2 4756   5.909   0.246   0.741
 1598TIP3   OH2 4757   3.872   3.455   5.146
 1598TIP3    H1 4758   3.961   3.487   5.130
 1598TIP3    H2 4759   3.815   3.528   5.122
 1599TIP3   OH2 4760   6.749   2.608   5.776
 1599TIP3    H1 4761   6.786   2.630   5.862
 1599TIP3    H2 4762   6.698   2.685   5.752
 1600TIP3   OH2 4763   7.085   4.109   0.053
 1600TIP3    H1 4764   7.137   4.151  -0.015
 1600TIP3    H2 4765   7.083   4.173   0.125
 1601TIP3   OH2 4766   0.794   0.720   0.638
 1601TIP3    H1 4767   0.801   0.794   0.698
 1601TIP3    H2 4768   0.850   0.742   0.564
 1602TIP3   OH2 4769   5.699   1.842   2.524
 1602TIP3    H1 4770   5.767   1.824   2.588
 1602TIP3    H2 4771   5.687   1.937   2.526
 1603TIP3   OH2 4772   0.423   5.328   4.366
 1603TIP3    H1 4773   0.517   5.334   4.352
 1603TIP3    H2 4774   0.390   5.278   4.291
 1604TIP3   OH2 4775   6.884   1.839   1.265
 1604TIP3    H1 4776   6.943   1.764   1.259
 1604TIP3    H2 4777   6.940   1.911   1.295
 1605TIP3   OH2 4778   6.956   0.061   4.239
 1605TIP3    H1 4779   6.959  -0.016   4.182
 1605TIP3    H2 4780   6.883   0.113   4.205
 1606TIP3   OH2 4781   1.814   3.670   4.512
 1606TIP3    H1 4782   1.831   3.704   4.600
 1606TIP3    H2 4783   1.735   3.616   4.523
 1607TIP3   OH2 4784   2.536   5.914   4.321
 1607TIP3    H1 4785   2.585   5.854   4.378
 1607TIP3    H2 4786   2.580   5.909   4.237
 1608TIP3   OH2 4787   3.150   2.181   5.874
 1608TIP3    H1 4788   3.180   2.269   5.895
 1608TIP3    H2 4789   3.231   2.132   5.858
 1609TIP3   OH2 4790   6.497   3.725   2.080
 1609TIP3    H1 4791   6.449   3.752   2.158
 1609TIP3    H2 4792   6.567   3.790   2.071
 1610TIP3   OH2 4793   4.093   4.416   2.953
 1610TIP3    H1 4794   4.083   4.438   2.861
 1610TIP3    H2 4795   4.005   4.419   2.989
 1611TIP3   OH2 4796   1.896   0.553   5.527
 1611TIP3    H1 4797   1.933   0.613   5.592
 1611TIP3    H2 4798   1.870   0.608   5.454
 1612TIP3   OH2 4799   4.930   1.927   3.381
 1612TIP3    H1 4800   4.927   1.943   3.286
 1612TIP3    H2 4801   4.979   1.846   3.390
 1613TIP3   OH2 4802   7.145   4.305   3.283
 1613TIP3    H1 4803   7.174   4.255   3.207
 1613TIP3    H2 4804   7.087   4.372   3.246
 1614TIP3   OH2 4805   6.508   0.063   3.553
 1614TIP3    H1 4806   6.530   0.042   3.463
 1614TIP3    H2 4807   6.440   0.000   3.577
 1615TIP3   OH2 4808   4.673   3.991   2.027
 1615TIP3    H1 4809   4.622   4.043   1.964
 1615TIP3    H2 4810   4.652   4.029   2.112
 1616TIP3   OH2 4811   3.449   2.518   1.333
 1616TIP3    H1 4812   3.452   2.539   1.427
 1616TIP3    H2 4813   3.486   2.430   1.327
 1617TIP3   OH2 4814   6.267   5.383   0.169
 1617TIP3    H1 4815   6.262   5.321   0.096
 1617TIP3    H2 4816   6.190   5.364   0.222
 1618TIP3   OH2 4817   1.622   1.670   3.604
 1618TIP3    H1 4818   1.565   1.734   3.646
 1618TIP3    H2 4819   1.564   1.622   3.544
 1619TIP3   OH2 4820   1.974   4.233   5.025
 1619TIP3    H1 4821   1.965   4.299   5.093
 1619TIP3    H2 4822   2.058   4.189   5.044
 1620TIP3   OH2 4823   3.624   6.313   1.085
 1620TIP3    H1 4824   3.709   6.281   1.055
 1620TIP3    H2 4825   3.641   6.401   1.118
 1621TIP3   OH2 4826   3.069   4.866   0.828
 1621TIP3    H1 4827   3.042   4.944   0.779
 1621TIP3    H2 4828   3.023   4.874   0.912
 1622TIP3   OH2 4829   6.870   2.365   4.969
 1622TIP3    H1 4830   6.810   2.351   5.042
 1622TIP3    H2 4831   6.816   2.408   4.902
 1623TIP3   OH2 4832   5.790   3.650   4.867
 1623TIP3    H1 4833   5.859   3.705   4.904
 1623TIP3    H2 4834   5.836   3.581   4.820
 1624TIP3   OH2 4835   4.290   4.004   1.498
 1624TIP3    H1 4836   4.248   3.960   1.572
 1624TIP3    H2 4837   4.380   4.020   1.527
 1625TIP3   OH2 4838   6.711   1.346   3.990
 1625TIP3    H1 4839   6.751   1.272   4.036
 1625TIP3    H2 4840   6.632   1.366   4.041
 1626TIP3   OH2 4841   0.340   0.046   0.279
 1626TIP3    H1 4842   0.402   0.096   0.226
 1626TIP3    H2 4843   0.288   0.113   0.324
 1627TIP3   OH2 4844   2.294   2.033   0.343
 1627TIP3    H1 4845   2.296   1.956   0.400
 1627TIP3    H2 4846   2.366   2.018   0.281
 1628TIP3   OH2 4847   5.966   6.745   3.276
 1628TIP3    H1 4848   5.894   6.807   3.261
 1628TIP3    H2 4849   6.027   6.794   3.332
 1629TIP3   OH2 4850   3.073   5.151   4.353
 1629TIP3    H1 4851   3.157   5.194   4.366
 1629TIP3    H2 4852   3.050   5.169   4.261
 1630TIP3   OH2 4853   5.503   5.841   4.130
 1630TIP3    H1 4854   5.568   5.801   4.073
 1630TIP3    H2 4855   5.531   5.932   4.140
 1631TIP3   OH2 4856   1.021   3.826   0.344
 1631TIP3    H1 4857   0.992   3.736   0.358
 1631TIP3    H2 4858   1.113   3.819   0.320
 1632TIP3   OH2 4859   6.587   0.560   5.081
 1632TIP3    H1 4860   6.544   0.488   5.034
 1632TIP3    H2 4861   6.674   0.526   5.103
 1633TIP3   OH2 4862   5.479   6.017   0.512
 1633TIP3    H1 4863   5.555   6.039   0.565
 1633TIP3    H2 4864   5.513   6.017   0.422
 1634TIP3   OH2 4865   1.861   4.190   5.492
 1634TIP3    H1 4866   1.830   4.186   5.582
 1634TIP3    H2 4867   1.784   4.213   5.441
 1635TIP3   OH2 4868   1.407   2.610   2.102
 1635TIP3    H1 4869   1.436   2.635   2.189
 1635TIP3    H2 4870   1.476   2.643   2.044
 1636TIP3   OH2 4871   1.598   2.958   4.478
 1636TIP3    H1 4872   1.668   2.943   4.415
 1636TIP3    H2 4873   1.605   2.885   4.539
 1637TIP3   OH2 4874   2.794   3.663   5.265
 1637TIP3    H1 4875   2.796   3.644   5.172
 1637TIP3    H2 4876   2.886   3.663   5.291
 1638TIP3   OH2 4877   5.970   2.624   1.906
 1638TIP3    H1 4878   5.970   2.719   1.896
 1638TIP3    H2 4879   5.878   2.601   1.914
 1639TIP3   OH2 4880   5.173   1.618   1.835
 1639TIP3    H1 4881   5.082   1.625   1.863
 1639TIP3    H2 4882   5.223   1.666   1.901
 1640TIP3   OH2 4883   1.045   0.948   0.603
 1640TIP3    H1 4884   1.077   0.858   0.602
 1640TIP3    H2 4885   1.117   1.000   0.640
 1641TIP3   OH2 4886   3.475   4.578   3.309
 1641TIP3    H1 4887   3.566   4.596   3.334
 1641TIP3    H2 4888   3.473   4.484   3.293
 1642TIP3   OH2 4889   3.359   2.231   1.028
 1642TIP3    H1 4890   3.310   2.298   0.980
 1642TIP3    H2 4891   3.342   2.150   0.979
 1643TIP3   OH2 4892   1.503   2.257   4.054
 1643TIP3    H1 4893   1.515   2.268   3.960
 1643TIP3    H2 4894   1.552   2.179   4.077
 1644TIP3   OH2 4895   2.596   0.917   4.274
 1644TIP3    H1 4896   2.631   0.895   4.188
 1644TIP3    H2 4897   2.587   1.012   4.272
 1645TIP3   OH2 4898   5.933   5.093   3.664
 1645TIP3    H1 4899   5.902   5.094   3.755
 1645TIP3    H2 4900   6.020   5.133   3.668
 1646TIP3   OH2 4901   1.402   3.010   4.133
 1646TIP3    H1 4902   1.441   3.071   4.195
 1646TIP3    H2 4903   1.334   2.964   4.182
 1647TIP3   OH2 4904   2.894   0.737   1.959
 1647TIP3    H1 4905   2.922   0.677   1.890
 1647TIP3    H2 4906   2.804   0.761   1.934
 1648TIP3   OH2 4907   3.870   4.009   2.043
 1648TIP3    H1 4908   3.901   3.919   2.054
 1648TIP3    H2 4909   3.864   4.044   2.132
 1649TIP3   OH2 4910   7.150   6.741   4.089
 1649TIP3    H1 4911   7.080   6.735   4.024
 1649TIP3    H2 4912   7.198   6.658   4.080
 1650TIP3   OH2 4913   4.261   6.243   2.004
 1650TIP3    H1 4914   4.311   6.229   1.923
 1650TIP3    H2 4915   4.288   6.329   2.034
 1651TIP3   OH2 4916   6.466   1.308   4.717
 1651TIP3    H1 4917   6.481   1.292   4.810
 1651TIP3    H2 4918   6.502   1.395   4.702
 1652TIP3   OH2 4919   3.901   0.265   2.597
 1652TIP3    H1 4920   3.923   0.351   2.632
 1652TIP3    H2 4921   3.952   0.204   2.650
 1653TIP3   OH2 4922   1.545   1.233   4.043
 1653TIP3    H1 4923   1.573   1.150   4.005
 1653TIP3    H2 4924   1.591   1.300   3.992
 1654TIP3   OH2 4925   6.172   4.036   4.354
 1654TIP3    H1 4926   6.225   4.114   4.371
 1654TIP3    H2 4927   6.096   4.069   4.305
 1655TIP3   OH2 4928   0.499   6.408   1.042
 1655TIP3    H1 4929   0.469   6.429   1.130
 1655TIP3    H2 4930   0.595   6.413   1.047
 1656TIP3   OH2 4931   5.838   6.570   0.786
 1656TIP3    H1 4932   5.907   6.563   0.719
 1656TIP3    H2 4933   5.872   6.634   0.849
 1657TIP3   OH2 4934   7.067   4.654   2.259
 1657TIP3    H1 4935   7.090   4.741   2.224
 1657TIP3    H2 4936   7.087   4.594   2.188
 1658TIP3   OH2 4937   6.191   5.590   1.707
 1658TIP3    H1 4938   6.130   5.558   1.641
 1658TIP3    H2 4939   6.255   5.519   1.718
 1659TIP3   OH2 4940   2.033   5.673   0.736
 1659TIP3    H1 4941   2.020   5.633   0.650
 1659TIP3    H2 4942   1.956   5.648   0.786
 1660TIP3   OH2 4943   5.136   3.103   3.618
 1660TIP3    H1 4944   5.144   3.177   3.678
 1660TIP3    H2 4945   5.140   3.143   3.531
 1661TIP3   OH2 4946   2.553   4.982   1.935
 1661TIP3    H1 4947   2.556   4.991   2.031
 1661TIP3    H2 4948   2.598   4.900   1.917
 1662TIP3   OH2 4949   0.330   6.009   1.135
 1662TIP3    H1 4950   0.425   6.016   1.127
 1662TIP3    H2 4951   0.296   6.068   1.067
 1663TIP3   OH2 4952   1.028   6.701   3.675
 1663TIP3    H1 4953   0.944   6.700   3.630
 1663TIP3    H2 4954   1.012   6.752   3.754
 1664TIP3   OH2 4955   0.078   6.121   0.984
 1664TIP3    H1 4956   0.056   6.114   0.891
 1664TIP3    H2 4957   0.069   6.032   1.018
 1665TIP3   OH2 4958   1.626   6.052   4.298
 1665TIP3    H1 4959   1.678   6.018   4.371
 1665TIP3    H2 4960   1.687   6.108   4.250
 1666TIP3   OH2 4961   2.252   3.713   0.754
 1666TIP3    H1 4962   2.267   3.622   0.781
 1666TIP3    H2 4963   2.232   3.708   0.661
 1667TIP3   OH2 4964   0.454   0.859   0.770
 1667TIP3    H1 4965   0.465   0.903   0.685
 1667TIP3    H2 4966   0.476   0.926   0.835
 1668TIP3   OH2 4967   6.230   0.204   1.758
 1668TIP3    H1 4968   6.218   0.292   1.794
 1668TIP3    H2 4969   6.161   0.152   1.798
 1669TIP3   OH2 4970   2.217   4.861   2.443
 1669TIP3    H1 4971   2.184   4.904   2.364
 1669TIP3    H2 4972   2.165   4.898   2.514
 1670TIP3   OH2 4973   5.308   0.411   1.410
 1670TIP3    H1 4974   5.247   0.340   1.395
 1670TIP3    H2 4975   5.297   0.434   1.502
 1671TIP3   OH2 4976   6.095   0.647   2.556
 1671TIP3    H1 4977   6.133   0.731   2.530
 1671TIP3    H2 4978   6.082   0.655   2.651
 1672TIP3   OH2 4979   2.536   1.500   3.081
 1672TIP3    H1 4980   2.629   1.492   3.104
 1672TIP3    H2 4981   2.489   1.466   3.157
 1673TIP3   OH2 4982   6.118   0.200   4.175
 1673TIP3    H1 4983   6.078   0.115   4.157
 1673TIP3    H2 4984   6.048   0.264   4.157
 1674TIP3   OH2 4985   4.750   1.017   3.316
 1674TIP3    H1 4986   4.684   1.085   3.307
 1674TIP3    H2 4987   4.713   0.942   3.269
 1675TIP3   OH2 4988   0.382   6.758   0.021
 1675TIP3    H1 4989   0.314   6.793   0.079
 1675TIP3    H2 4990   0.406   6.832  -0.035
 1676TIP3   OH2 4991   0.359   4.883   5.458
 1676TIP3    H1 4992   0.440   4.842   5.429
 1676TIP3    H2 4993   0.295   4.860   5.391
 1677TIP3   OH2 4994   1.565   3.565   5.412
 1677TIP3    H1 4995   1.492   3.533   5.464
 1677TIP3    H2 4996   1.630   3.494   5.415
 1678TIP3   OH2 4997   3.773   3.249   2.566
 1678TIP3    H1 4998   3.682   3.251   2.538
 1678TIP3    H2 4999   3.793   3.156   2.578
 1679TIP3   OH2 5000   4.325   4.951   4.780
 1679TIP3    H1 5001   4.393   4.903   4.826
 1679TIP3    H2 5002   4.335   4.926   4.688
 1680TIP3   OH2 5003   4.477   1.370   2.096
 1680TIP3    H1 5004   4.529   1.379   2.175
 1680TIP3    H2 5005   4.408   1.436   2.105
 1681TIP3   OH2 5006   3.970   0.494   0.590
 1681TIP3    H1 5007   4.029   0.512   0.517
 1681TIP3    H2 5008   4.012   0.423   0.638
 1682TIP3   OH2 5009   2.315   2.910   2.585
 1682TIP3    H1 5010   2.279   2.951   2.663
 1682TIP3    H2 5011   2.239   2.867   2.544
 1683TIP3   OH2 5012   1.459   6.385   2.005
 1683TIP3    H1 5013   1.398   6.455   1.983
 1683TIP3    H2 5014   1.403   6.314   2.037
 1684TIP3   OH2 5015   1.205   4.381   2.583
 1684TIP3    H1 5016   1.274   4.348   2.641
 1684TIP3    H2 5017   1.130   4.325   2.601
 1685TIP3   OH2 5018   0.150   4.702   4.367
 1685TIP3    H1 5019   0.213   4.648   4.319
 1685TIP3    H2 5020   0.068   4.693   4.319
 1686TIP3   OH2 5021   1.016   6.423   2.722
 1686TIP3    H1 5022   0.924   6.438   2.739
 1686TIP3    H2 5023   1.048   6.506   2.686
 1687TIP3   OH2 5024   2.502   4.268   1.204
 1687TIP3    H1 5025   2.415   4.296   1.232
 1687TIP3    H2 5026   2.511   4.302   1.115
 1688TIP3   OH2 5027   1.935   1.365   1.278
 1688TIP3    H1 5028   1.851   1.406   1.297
 1688TIP3    H2 5029   1.918   1.309   1.203
 1689TIP3   OH2 5030   2.193   2.011   0.932
 1689TIP3    H1 5031   2.193   2.076   0.862
 1689TIP3    H2 5032   2.205   1.927   0.888
 1690TIP3   OH2 5033   5.684   4.125   1.310
 1690TIP3    H1 5034   5.631   4.126   1.230
 1690TIP3    H2 5035   5.708   4.033   1.321
 1691TIP3   OH2 5036   2.291   4.006   0.748
 1691TIP3    H1 5037   2.297   3.911   0.761
 1691TIP3    H2 5038   2.256   4.015   0.659
 1692TIP3   OH2 5039   5.383   6.457   2.853
 1692TIP3    H1 5040   5.452   6.392   2.838
 1692TIP3    H2 5041   5.368   6.497   2.768
 1693TIP3   OH2 5042   1.146   6.142   4.262
 1693TIP3    H1 5043   1.230   6.157   4.218
 1693TIP3    H2 5044   1.150   6.195   4.341
 1694TIP3   OH2 5045   2.733   6.434   3.104
 1694TIP3    H1 5046   2.665   6.502   3.108
 1694TIP3    H2 5047   2.736   6.399   3.193
 1695TIP3   OH2 5048   6.645   5.163   4.436
 1695TIP3    H1 5049   6.703   5.228   4.397
 1695TIP3    H2 5050   6.660   5.084   4.384
 1696TIP3   OH2 5051   6.451   5.504   3.461
 1696TIP3    H1 5052   6.474   5.427   3.409
 1696TIP3    H2 5053   6.364   5.484   3.497
 1697TIP3   OH2 5054   3.974   1.735   2.011
 1697TIP3    H1 5055   3.921   1.763   2.085
 1697TIP3    H2 5056   3.910   1.705   1.946
 1698TIP3   OH2 5057   5.777   5.908   1.739
 1698TIP3    H1 5058   5.687   5.940   1.740
 1698TIP3    H2 5059   5.824   5.970   1.684
 1699TIP3   OH2 5060   5.241   3.040   5.113
 1699TIP3    H1 5061   5.298   3.115   5.127
 1699TIP3    H2 5062   5.166   3.074   5.063
 1700TIP3   OH2 5063   4.684   3.198   4.234
 1700TIP3    H1 5064   4.593   3.181   4.258
 1700TIP3    H2 5065   4.734   3.132   4.282
 1701TIP3   OH2 5066   0.670   6.377   0.726
 1701TIP3    H1 5067   0.686   6.466   0.758
 1701TIP3    H2 5068   0.575   6.370   0.720
 1702TIP3   OH2 5069   4.993   1.467   3.978
 1702TIP3    H1 5070   4.948   1.519   4.044
 1702TIP3    H2 5071   5.078   1.509   3.967
 1703TIP3   OH2 5072   1.843   4.164   2.559
 1703TIP3    H1 5073   1.810   4.222   2.628
 1703TIP3    H2 5074   1.772   4.160   2.495
 1704TIP3   OH2 5075   4.757   4.672   5.494
 1704TIP3    H1 5076   4.739   4.696   5.585
 1704TIP3    H2 5077   4.671   4.657   5.456
 1705TIP3   OH2 5078   2.570   2.511   1.406
 1705TIP3    H1 5079   2.491   2.458   1.402
 1705TIP3    H2 5080   2.640   2.453   1.375
 1706TIP3   OH2 5081   3.980   2.312   1.215
 1706TIP3    H1 5082   3.903   2.343   1.263
 1706TIP3    H2 5083   3.979   2.360   1.132
 1707TIP3   OH2 5084   4.075   5.977   0.461
 1707TIP3    H1 5085   4.067   5.881   0.456
 1707TIP3    H2 5086   4.156   5.996   0.415
 1708TIP3   OH2 5087   4.859   3.932   5.777
 1708TIP3    H1 5088   4.881   3.921   5.869
 1708TIP3    H2 5089   4.832   4.023   5.768
 1709TIP3   OH2 5090   6.702   4.596   0.680
 1709TIP3    H1 5091   6.610   4.624   0.675
 1709TIP3    H2 5092   6.702   4.508   0.644
 1710TIP3   OH2 5093   3.799   4.868   5.268
 1710TIP3    H1 5094   3.781   4.906   5.182
 1710TIP3    H2 5095   3.831   4.941   5.321
 1711TIP3   OH2 5096   6.015   0.452   5.272
 1711TIP3    H1 5097   5.970   0.430   5.190
 1711TIP3    H2 5098   5.997   0.545   5.286
 1712TIP3   OH2 5099   1.606   4.780   0.565
 1712TIP3    H1 5100   1.550   4.706   0.542
 1712TIP3    H2 5101   1.624   4.823   0.481
 1713TIP3   OH2 5102   2.561   0.912   2.520
 1713TIP3    H1 5103   2.533   0.828   2.484
 1713TIP3    H2 5104   2.632   0.890   2.580
 1714TIP3   OH2 5105   2.066   1.420   0.166
 1714TIP3    H1 5106   2.104   1.417   0.078
 1714TIP3    H2 5107   2.105   1.498   0.206
 1715TIP3   OH2 5108   6.009   1.768   3.367
 1715TIP3    H1 5109   6.053   1.853   3.372
 1715TIP3    H2 5110   6.007   1.737   3.458
 1716TIP3   OH2 5111   7.061   0.760   5.210
 1716TIP3    H1 5112   7.118   0.837   5.205
 1716TIP3    H2 5113   7.120   0.685   5.203
 1717TIP3   OH2 5114   5.091   0.158   5.421
 1717TIP3    H1 5115   5.065   0.103   5.348
 1717TIP3    H2 5116   5.183   0.179   5.404
 1718TIP3   OH2 5117   2.358   6.731   3.861
 1718TIP3    H1 5118   2.274   6.720   3.817
 1718TIP3    H2 5119   2.400   6.803   3.814
 1719TIP3   OH2 5120   4.546   2.644   5.910
 1719TIP3    H1 5121   4.466   2.694   5.894
 1719TIP3    H2 5122   4.561   2.595   5.828
 1720TIP3   OH2 5123   3.114   2.810   4.041
 1720TIP3    H1 5124   3.124   2.767   3.956
 1720TIP3    H2 5125   3.031   2.776   4.075
 1721TIP3   OH2 5126   2.786   0.885   3.827
 1721TIP3    H1 5127   2.863   0.910   3.776
 1721TIP3    H2 5128   2.720   0.862   3.761
 1722TIP3   OH2 5129   3.195   3.704   2.506
 1722TIP3    H1 5130   3.255   3.778   2.504
 1722TIP3    H2 5131   3.144   3.716   2.586
 1723TIP3   OH2 5132   2.950   0.734   2.654
 1723TIP3    H1 5133   2.941   0.652   2.704
 1723TIP3    H2 5134   3.045   0.743   2.641
 1724TIP3   OH2 5135   3.433   2.921   3.309
 1724TIP3    H1 5136   3.469   2.957   3.228
 1724TIP3    H2 5137   3.375   2.850   3.279
 1725TIP3   OH2 5138   6.669   4.867   1.380
 1725TIP3    H1 5139   6.734   4.894   1.314
 1725TIP3    H2 5140   6.602   4.935   1.377
 1726TIP3   OH2 5141   0.801   3.267   0.031
 1726TIP3    H1 5142   0.779   3.190   0.083
 1726TIP3    H2 5143   0.726   3.326   0.044
 1727TIP3   OH2 5144   5.695   2.071   5.238
 1727TIP3    H1 5145   5.645   2.021   5.173
 1727TIP3    H2 5146   5.737   2.140   5.187
 1728TIP3   OH2 5147   3.518   0.146   2.245
 1728TIP3    H1 5148   3.547   0.156   2.154
 1728TIP3    H2 5149   3.525   0.052   2.262
 1729TIP3   OH2 5150   3.315   5.481   4.763
 1729TIP3    H1 5151   3.379   5.435   4.818
 1729TIP3    H2 5152   3.323   5.573   4.789
 1730TIP3   OH2 5153   2.170   0.864   2.106
 1730TIP3    H1 5154   2.238   0.796   2.109
 1730TIP3    H2 5155   2.089   0.815   2.089
 1731TIP3   OH2 5156   1.657   2.051   0.893
 1731TIP3    H1 5157   1.740   2.004   0.899
 1731TIP3    H2 5158   1.625   2.055   0.983
 1732TIP3   OH2 5159   3.249   0.270   5.498
 1732TIP3    H1 5160   3.220   0.360   5.513
 1732TIP3    H2 5161   3.185   0.217   5.545
 1733TIP3   OH2 5162   6.048   6.482   4.852
 1733TIP3    H1 5163   6.071   6.496   4.760
 1733TIP3    H2 5164   5.998   6.400   4.851
 1734TIP3   OH2 5165   2.942   2.241   0.015
 1734TIP3    H1 5166   2.973   2.331   0.030
 1734TIP3    H2 5167   3.018   2.195  -0.019
 1735TIP3   OH2 5168   0.171   0.766   2.937
 1735TIP3    H1 5169   0.085   0.752   2.897
 1735TIP3    H2 5170   0.227   0.699   2.896
 1736TIP3   OH2 5171   1.147   0.716   0.657
 1736TIP3    H1 5172   1.231   0.673   0.638
 1736TIP3    H2 5173   1.084   0.672   0.600
 1737TIP3   OH2 5174   5.331   5.023   0.528
 1737TIP3    H1 5175   5.366   5.061   0.447
 1737TIP3    H2 5176   5.255   5.078   0.549
 1738TIP3   OH2 5177   6.277   4.150   1.800
 1738TIP3    H1 5178   6.266   4.215   1.870
 1738TIP3    H2 5179   6.259   4.198   1.720
 1739TIP3   OH2 5180   6.766   4.815   4.059
 1739TIP3    H1 5181   6.828   4.745   4.079
 1739TIP3    H2 5182   6.764   4.869   4.138
 1740TIP3   OH2 5183   2.490   5.012   5.741
 1740TIP3    H1 5184   2.417   5.056   5.698
 1740TIP3    H2 5185   2.497   5.055   5.827
 1741TIP3   OH2 5186   2.867   4.335  -0.017
 1741TIP3    H1 5187   2.810   4.410  -0.037
 1741TIP3    H2 5188   2.846   4.313   0.074
 1742TIP3   OH2 5189   5.230   1.829   3.561
 1742TIP3    H1 5190   5.314   1.788   3.577
 1742TIP3    H2 5191   5.169   1.784   3.620
 1743TIP3   OH2 5192   4.703   3.526   2.820
 1743TIP3    H1 5193   4.650   3.446   2.827
 1743TIP3    H2 5194   4.792   3.495   2.803
 1744TIP3   OH2 5195   2.732   4.622   1.255
 1744TIP3    H1 5196   2.782   4.671   1.320
 1744TIP3    H2 5197   2.718   4.684   1.183
 1745TIP3   OH2 5198   1.760   4.820   3.487
 1745TIP3    H1 5199   1.830   4.762   3.458
 1745TIP3    H2 5200   1.794   4.908   3.470
 1746TIP3   OH2 5201   2.060   2.452   0.430
 1746TIP3    H1 5202   2.029   2.415   0.512
 1746TIP3    H2 5203   2.067   2.377   0.371
 1747TIP3   OH2 5204   2.207   6.220   1.553
 1747TIP3    H1 5205   2.239   6.218   1.463
 1747TIP3    H2 5206   2.156   6.140   1.562
 1748TIP3   OH2 5207   4.753   3.395   0.795
 1748TIP3    H1 5208   4.676   3.438   0.833
 1748TIP3    H2 5209   4.781   3.333   0.862
 1749TIP3   OH2 5210   2.204   0.075   2.899
 1749TIP3    H1 5211   2.246   0.160   2.885
 1749TIP3    H2 5212   2.159   0.056   2.816
 1750TIP3   OH2 5213   3.745   1.782   5.230
 1750TIP3    H1 5214   3.754   1.756   5.322
 1750TIP3    H2 5215   3.833   1.808   5.203
 1751TIP3   OH2 5216   5.892   2.539   5.716
 1751TIP3    H1 5217   5.851   2.503   5.795
 1751TIP3    H2 5218   5.983   2.553   5.741
 1752TIP3   OH2 5219   0.805   0.855   4.272
 1752TIP3    H1 5220   0.774   0.765   4.284
 1752TIP3    H2 5221   0.730   0.909   4.297
 1753TIP3   OH2 5222   3.091   5.783   3.711
 1753TIP3    H1 5223   3.085   5.725   3.635
 1753TIP3    H2 5224   3.079   5.726   3.786
 1754TIP3   OH2 5225   2.222   5.770   4.809
 1754TIP3    H1 5226   2.191   5.860   4.818
 1754TIP3    H2 5227   2.161   5.719   4.862
 1755TIP3   OH2 5228   6.793   4.910   0.672
 1755TIP3    H1 5229   6.748   4.982   0.715
 1755TIP3    H2 5230   6.750   4.831   0.705
 1756TIP3   OH2 5231   2.091   2.498   5.667
 1756TIP3    H1 5232   2.142   2.528   5.592
 1756TIP3    H2 5233   2.062   2.578   5.710
 1757TIP3   OH2 5234   2.720   3.076   1.834
 1757TIP3    H1 5235   2.666   3.131   1.892
 1757TIP3    H2 5236   2.707   3.114   1.747
 1758TIP3   OH2 5237   3.834   6.328   2.516
 1758TIP3    H1 5238   3.854   6.281   2.435
 1758TIP3    H2 5239   3.825   6.419   2.489
 1759TIP3   OH2 5240   3.837   3.861   3.544
 1759TIP3    H1 5241   3.800   3.933   3.493
 1759TIP3    H2 5242   3.853   3.899   3.631
 1760TIP3   OH2 5243   3.373   2.441   2.392
 1760TIP3    H1 5244   3.345   2.533   2.386
 1760TIP3    H2 5245   3.357   2.406   2.305
 1761TIP3   OH2 5246   0.924   1.843   1.043
 1761TIP3    H1 5247   0.983   1.872   0.973
 1761TIP3    H2 5248   0.945   1.750   1.055
 1762TIP3   OH2 5249   5.703   2.510   0.131
 1762TIP3    H1 5250   5.769   2.444   0.111
 1762TIP3    H2 5251   5.673   2.487   0.219
 1763TIP3   OH2 5252   5.807   5.744   4.149
 1763TIP3    H1 5253   5.803   5.658   4.191
 1763TIP3    H2 5254   5.787   5.727   4.057
 1764TIP3   OH2 5255   6.467   3.162   3.318
 1764TIP3    H1 5256   6.488   3.122   3.234
 1764TIP3    H2 5257   6.452   3.088   3.377
 1765TIP3   OH2 5258   3.453   1.369   0.903
 1765TIP3    H1 5259   3.495   1.423   0.836
 1765TIP3    H2 5260   3.473   1.279   0.878
 1766TIP3   OH2 5261   0.487   6.524   3.293
 1766TIP3    H1 5262   0.541   6.514   3.215
 1766TIP3    H2 5263   0.410   6.469   3.275
 1767TIP3   OH2 5264   2.209   2.138   1.192
 1767TIP3    H1 5265   2.225   2.117   1.100
 1767TIP3    H2 5266   2.114   2.132   1.202
 1768TIP3   OH2 5267   1.344   6.651   0.286
 1768TIP3    H1 5268   1.399   6.723   0.256
 1768TIP3    H2 5269   1.289   6.631   0.210
 1769TIP3   OH2 5270   2.496   3.314   0.734
 1769TIP3    H1 5271   2.567   3.307   0.798
 1769TIP3    H2 5272   2.471   3.223   0.718
 1770TIP3   OH2 5273   4.320   1.744   3.904
 1770TIP3    H1 5274   4.280   1.670   3.857
 1770TIP3    H2 5275   4.256   1.815   3.896
 1771TIP3   OH2 5276   6.988   4.602   1.214
 1771TIP3    H1 5277   7.043   4.597   1.136
 1771TIP3    H2 5278   7.049   4.589   1.287
 1772TIP3   OH2 5279   0.145   4.088   5.737
 1772TIP3    H1 5280   0.197   4.097   5.816
 1772TIP3    H2 5281   0.055   4.083   5.767
 1773TIP3   OH2 5282   4.622   5.879   5.545
 1773TIP3    H1 5283   4.582   5.899   5.460
 1773TIP3    H2 5284   4.662   5.962   5.572
 1774TIP3   OH2 5285   4.384   3.607   0.002
 1774TIP3    H1 5286   4.425   3.626   0.085
 1774TIP3    H2 5287   4.432   3.659  -0.062
 1775TIP3   OH2 5288   6.392   4.143   3.632
 1775TIP3    H1 5289   6.350   4.063   3.664
 1775TIP3    H2 5290   6.320   4.194   3.594
 1776TIP3   OH2 5291   2.148   2.318   4.524
 1776TIP3    H1 5292   2.192   2.394   4.486
 1776TIP3    H2 5293   2.214   2.249   4.523
 1777TIP3   OH2 5294   2.173   0.195   1.733
 1777TIP3    H1 5295   2.188   0.130   1.664
 1777TIP3    H2 5296   2.255   0.245   1.736
 1778TIP3   OH2 5297   4.804   1.369   3.186
 1778TIP3    H1 5298   4.773   1.343   3.273
 1778TIP3    H2 5299   4.896   1.392   3.199
 1779TIP3   OH2 5300   3.530   5.448   2.328
 1779TIP3    H1 5301   3.528   5.367   2.378
 1779TIP3    H2 5302   3.471   5.507   2.376
 1780TIP3   OH2 5303   1.409   3.322   0.170
 1780TIP3    H1 5304   1.391   3.281   0.086
 1780TIP3    H2 5305   1.470   3.394   0.149
 1781TIP3   OH2 5306   1.224   1.527   0.427
 1781TIP3    H1 5307   1.247   1.443   0.387
 1781TIP3    H2 5308   1.130   1.518   0.448
 1782TIP3   OH2 5309   0.738   5.833   2.080
 1782TIP3    H1 5310   0.744   5.820   2.175
 1782TIP3    H2 5311   0.674   5.903   2.069
 1783TIP3   OH2 5312   1.367   4.737   1.927
 1783TIP3    H1 5313   1.392   4.829   1.916
 1783TIP3    H2 5314   1.448   4.694   1.955
 1784TIP3   OH2 5315   0.115   0.058   4.299
 1784TIP3    H1 5316   0.151  -0.030   4.284
 1784TIP3    H2 5317   0.069   0.051   4.383
 1785TIP3   OH2 5318   6.084   0.584   1.155
 1785TIP3    H1 5319   6.043   0.534   1.225
 1785TIP3    H2 5320   6.172   0.548   1.147
 1786TIP3   OH2 5321   4.735   5.627   3.142
 1786TIP3    H1 5322   4.713   5.695   3.206
 1786TIP3    H2 5323   4.701   5.546   3.180
 1787TIP3   OH2 5324   2.204   1.459   5.485
 1787TIP3    H1 5325   2.169   1.514   5.554
 1787TIP3    H2 5326   2.294   1.490   5.473
 1788TIP3   OH2 5327   6.473   3.761   3.401
 1788TIP3    H1 5328   6.500   3.841   3.356
 1788TIP3    H2 5329   6.409   3.721   3.342
 1789TIP3   OH2 5330   1.075   5.526   4.347
 1789TIP3    H1 5331   1.153   5.578   4.328
 1789TIP3    H2 5332   1.107   5.437   4.358
 1790TIP3   OH2 5333   3.579   3.264   2.838
 1790TIP3    H1 5334   3.571   3.284   2.745
 1790TIP3    H2 5335   3.660   3.307   2.865
 1791TIP3   OH2 5336   3.336   5.451   1.931
 1791TIP3    H1 5337   3.352   5.528   1.876
 1791TIP3    H2 5338   3.417   5.401   1.925
 1792TIP3   OH2 5339   1.516   1.606   4.268
 1792TIP3    H1 5340   1.576   1.566   4.331
 1792TIP3    H2 5341   1.562   1.599   4.184
 1793TIP3   OH2 5342   5.036   0.200   2.893
 1793TIP3    H1 5343   5.071   0.287   2.876
 1793TIP3    H2 5344   5.000   0.172   2.809
 1794TIP3   OH2 5345   4.135   5.378   2.373
 1794TIP3    H1 5346   4.181   5.350   2.453
 1794TIP3    H2 5347   4.177   5.327   2.303
 1795TIP3   OH2 5348   0.455   5.015   4.371
 1795TIP3    H1 5349   0.535   5.033   4.421
 1795TIP3    H2 5350   0.481   4.951   4.306
 1796TIP3   OH2 5351   6.727   5.459   1.239
 1796TIP3    H1 5352   6.798   5.480   1.178
 1796TIP3    H2 5353   6.772   5.433   1.319
 1797TIP3   OH2 5354   6.583   1.159   5.645
 1797TIP3    H1 5355   6.598   1.067   5.623
 1797TIP3    H2 5356   6.669   1.191   5.674
 1798TIP3   OH2 5357   4.764   4.057   0.975
 1798TIP3    H1 5358   4.713   3.980   1.000
 1798TIP3    H2 5359   4.699   4.117   0.937
 1799TIP3   OH2 5360   6.294   5.797   0.663
 1799TIP3    H1 5361   6.237   5.751   0.725
 1799TIP3    H2 5362   6.380   5.757   0.674
 1800TIP3   OH2 5363   2.802   3.410   0.480
 1800TIP3    H1 5364   2.783   3.327   0.523
 1800TIP3    H2 5365   2.853   3.459   0.544
 1801TIP3   OH2 5366   3.424   2.913   5.293
 1801TIP3    H1 5367   3.368   2.875   5.224
 1801TIP3    H2 5368   3.434   3.005   5.268
 1802TIP3   OH2 5369   0.723   3.844   1.696
 1802TIP3    H1 5370   0.794   3.908   1.692
 1802TIP3    H2 5371   0.720   3.807   1.608
 1803TIP3   OH2 5372   0.676   2.043   1.736
 1803TIP3    H1 5373   0.614   2.104   1.694
 1803TIP3    H2 5374   0.756   2.050   1.683
 1804TIP3   OH2 5375   6.711   3.075   4.069
 1804TIP3    H1 5376   6.706   3.099   4.161
 1804TIP3    H2 5377   6.705   3.158   4.022
 1805TIP3   OH2 5378   1.791   0.524   1.446
 1805TIP3    H1 5379   1.885   0.513   1.428
 1805TIP3    H2 5380   1.779   0.618   1.456
 1806TIP3   OH2 5381   6.630   5.451   0.849
 1806TIP3    H1 5382   6.608   5.515   0.917
 1806TIP3    H2 5383   6.708   5.488   0.806
 1807TIP3   OH2 5384   3.182   2.063   4.569
 1807TIP3    H1 5385   3.102   2.043   4.522
 1807TIP3    H2 5386   3.247   2.079   4.500
 1808TIP3   OH2 5387   1.579   4.107   5.521
 1808TIP3    H1 5388   1.586   4.164   5.445
 1808TIP3    H2 5389   1.489   4.121   5.553
 1809TIP3   OH2 5390   2.176   2.511   2.940
 1809TIP3    H1 5391   2.101   2.564   2.915
 1809TIP3    H2 5392   2.252   2.564   2.917
 1810TIP3   OH2 5393   4.520   4.920   2.156
 1810TIP3    H1 5394   4.559   4.991   2.106
 1810TIP3    H2 5395   4.585   4.850   2.154
 1811TIP3   OH2 5396   1.219   3.617   0.464
 1811TIP3    H1 5397   1.129   3.599   0.490
 1811TIP3    H2 5398   1.222   3.592   0.371
 1812TIP3   OH2 5399   3.365   4.653   4.236
 1812TIP3    H1 5400   3.278   4.692   4.231
 1812TIP3    H2 5401   3.425   4.726   4.218
 1813TIP3   OH2 5402   3.671   3.099   4.524
 1813TIP3    H1 5403   3.650   3.009   4.499
 1813TIP3    H2 5404   3.662   3.149   4.443
 1814TIP3   OH2 5405   5.906   0.633   4.897
 1814TIP3    H1 5406   5.874   0.612   4.985
 1814TIP3    H2 5407   5.988   0.585   4.889
 1815TIP3   OH2 5408   4.769   3.709   3.983
 1815TIP3    H1 5409   4.858   3.742   3.971
 1815TIP3    H2 5410   4.714   3.787   3.985
 1816TIP3   OH2 5411   6.372   2.495   1.046
 1816TIP3    H1 5412   6.362   2.487   0.951
 1816TIP3    H2 5413   6.342   2.584   1.067
 1817TIP3   OH2 5414   7.163   5.061   2.322
 1817TIP3    H1 5415   7.105   5.075   2.247
 1817TIP3    H2 5416   7.226   5.133   2.317
 1818TIP3   OH2 5417   6.663   5.242   0.579
 1818TIP3    H1 5418   6.599   5.310   0.559
 1818TIP3    H2 5419   6.691   5.260   0.668
 1819TIP3   OH2 5420   6.467   2.503   4.022
 1819TIP3    H1 5421   6.523   2.503   3.944
 1819TIP3    H2 5422   6.381   2.528   3.989
 1820TIP3   OH2 5423   0.215   2.583   5.727
 1820TIP3    H1 5424   0.258   2.505   5.693
 1820TIP3    H2 5425   0.281   2.625   5.782
 1821TIP3   OH2 5426   2.030   6.565   1.299
 1821TIP3    H1 5427   2.021   6.659   1.317
 1821TIP3    H2 5428   2.071   6.529   1.377
 1822TIP3   OH2 5429   4.729   5.238   1.069
 1822TIP3    H1 5430   4.821   5.263   1.056
 1822TIP3    H2 5431   4.690   5.241   0.982
 1823TIP3   OH2 5432   3.967   4.799   4.700
 1823TIP3    H1 5433   3.899   4.843   4.649
 1823TIP3    H2 5434   4.037   4.782   4.637
 1824TIP3   OH2 5435   5.031   4.236   4.707
 1824TIP3    H1 5436   5.020   4.257   4.614
 1824TIP3    H2 5437   4.958   4.178   4.727
 1825TIP3   OH2 5438   1.313   0.371   3.144
 1825TIP3    H1 5439   1.247   0.315   3.104
 1825TIP3    H2 5440   1.266   0.452   3.165
 1826TIP3   OH2 5441   2.490   2.117   4.771
 1826TIP3    H1 5442   2.556   2.165   4.820
 1826TIP3    H2 5443   2.474   2.038   4.823
 1827TIP3   OH2 5444   0.228   6.070   2.972
 1827TIP3    H1 5445   0.163   6.120   2.924
 1827TIP3    H2 5446   0.311   6.116   2.956
 1828TIP3   OH2 5447   2.097   2.603   1.712
 1828TIP3    H1 5448   2.064   2.648   1.634
 1828TIP3    H2 5449   2.117   2.515   1.682
 1829TIP3   OH2 5450   0.981   1.254   5.671
 1829TIP3    H1 5451   0.926   1.256   5.749
 1829TIP3    H2 5452   0.928   1.210   5.604
 1830TIP3   OH2 5453   0.291   1.274   4.703
 1830TIP3    H1 5454   0.383   1.280   4.728
 1830TIP3    H2 5455   0.293   1.244   4.612
 1831TIP3   OH2 5456   0.865   5.669   0.568
 1831TIP3    H1 5457   0.903   5.581   0.563
 1831TIP3    H2 5458   0.803   5.663   0.641
 1832TIP3   OH2 5459   6.652   5.928   2.531
 1832TIP3    H1 5460   6.723   5.975   2.573
 1832TIP3    H2 5461   6.574   5.951   2.581
 1833TIP3   OH2 5462   3.600   6.727   2.449
 1833TIP3    H1 5463   3.595   6.810   2.498
 1833TIP3    H2 5464   3.559   6.747   2.365
 1834TIP3   OH2 5465   1.236   4.791   3.025
 1834TIP3    H1 5466   1.171   4.774   2.957
 1834TIP3    H2 5467   1.237   4.886   3.033
 1835TIP3   OH2 5468   3.304   2.618   5.329
 1835TIP3    H1 5469   3.367   2.551   5.356
 1835TIP3    H2 5470   3.229   2.605   5.387
 1836TIP3   OH2 5471   5.130   2.453   1.399
 1836TIP3    H1 5472   5.088   2.535   1.374
 1836TIP3    H2 5473   5.064   2.407   1.451
 1837TIP3   OH2 5474   1.456   2.198   0.459
 1837TIP3    H1 5475   1.419   2.261   0.520
 1837TIP3    H2 5476   1.387   2.132   0.448
 1838TIP3   OH2 5477   1.743   1.034   4.536
 1838TIP3    H1 5478   1.708   1.036   4.447
 1838TIP3    H2 5479   1.717   0.948   4.570
 1839TIP3   OH2 5480   5.983   5.921   4.447
 1839TIP3    H1 5481   6.043   5.971   4.502
 1839TIP3    H2 5482   6.040   5.863   4.396
 1840TIP3   OH2 5483   2.218   5.368   4.844
 1840TIP3    H1 5484   2.246   5.301   4.906
 1840TIP3    H2 5485   2.295   5.424   4.832
 1841TIP3   OH2 5486   2.397   6.684   1.099
 1841TIP3    H1 5487   2.455   6.610   1.081
 1841TIP3    H2 5488   2.330   6.680   1.031
 1842TIP3   OH2 5489   5.819   0.336   0.488
 1842TIP3    H1 5490   5.846   0.322   0.397
 1842TIP3    H2 5491   5.848   0.425   0.508
 1843TIP3   OH2 5492   2.281   2.890   5.109
 1843TIP3    H1 5493   2.350   2.910   5.046
 1843TIP3    H2 5494   2.210   2.950   5.087
 1844TIP3   OH2 5495   2.525   4.172   4.921
 1844TIP3    H1 5496   2.611   4.183   4.960
 1844TIP3    H2 5497   2.541   4.125   4.839
 1845TIP3   OH2 5498   4.738   6.080   0.164
 1845TIP3    H1 5499   4.763   6.011   0.102
 1845TIP3    H2 5500   4.808   6.082   0.229
 1846TIP3   OH2 5501   6.097   1.388   0.075
 1846TIP3    H1 5502   6.184   1.419   0.102
 1846TIP3    H2 5503   6.067   1.453   0.011
 1847TIP3   OH2 5504   0.344   3.464   2.000
 1847TIP3    H1 5505   0.284   3.448   2.072
 1847TIP3    H2 5506   0.335   3.558   1.982
 1848TIP3   OH2 5507   4.580   5.413   4.797
 1848TIP3    H1 5508   4.522   5.398   4.722
 1848TIP3    H2 5509   4.667   5.388   4.766
 1849TIP3   OH2 5510   2.521   6.321   0.776
 1849TIP3    H1 5511   2.581   6.338   0.704
 1849TIP3    H2 5512   2.487   6.233   0.760
 1850TIP3   OH2 5513   1.611   2.421   2.565
 1850TIP3    H1 5514   1.627   2.485   2.496
 1850TIP3    H2 5515   1.616   2.471   2.646
 1851TIP3   OH2 5516   6.709   4.085   5.166
 1851TIP3    H1 5517   6.722   4.089   5.072
 1851TIP3    H2 5518   6.774   4.145   5.202
 1852TIP3   OH2 5519   3.418   4.172   0.264
 1852TIP3    H1 5520   3.460   4.241   0.213
 1852TIP3    H2 5521   3.370   4.120   0.200
 1853TIP3   OH2 5522   0.525   4.745   3.849
 1853TIP3    H1 5523   0.590   4.692   3.803
 1853TIP3    H2 5524   0.573   4.822   3.879
 1854TIP3   OH2 5525   4.643   0.846   0.673
 1854TIP3    H1 5526   4.717   0.804   0.717
 1854TIP3    H2 5527   4.668   0.848   0.581
 1855TIP3   OH2 5528   2.796   0.977   5.152
 1855TIP3    H1 5529   2.740   0.912   5.111
 1855TIP3    H2 5530   2.756   1.061   5.131
 1856TIP3   OH2 5531   6.387   5.149   5.218
 1856TIP3    H1 5532   6.419   5.069   5.260
 1856TIP3    H2 5533   6.466   5.199   5.199
 1857TIP3   OH2 5534   4.560   0.477   1.554
 1857TIP3    H1 5535   4.620   0.484   1.628
 1857TIP3    H2 5536   4.596   0.537   1.488
 1858TIP3   OH2 5537   2.329   5.138   1.839
 1858TIP3    H1 5538   2.418   5.105   1.846
 1858TIP3    H2 5539   2.339   5.228   1.806
 1859TIP3   OH2 5540   6.061   1.022   2.901
 1859TIP3    H1 5541   6.013   0.981   2.972
 1859TIP3    H2 5542   6.123   1.080   2.944
 1860TIP3   OH2 5543   2.293   3.060   2.179
 1860TIP3    H1 5544   2.234   3.096   2.245
 1860TIP3    H2 5545   2.341   2.990   2.225
 1861TIP3   OH2 5546   2.443   5.396   2.234
 1861TIP3    H1 5547   2.445   5.401   2.329
 1861TIP3    H2 5548   2.351   5.388   2.211
 1862TIP3   OH2 5549   0.600   6.739   3.479
 1862TIP3    H1 5550   0.549   6.693   3.413
 1862TIP3    H2 5551   0.536   6.794   3.525
 1863TIP3   OH2 5552   0.170   4.356   0.175
 1863TIP3    H1 5553   0.205   4.437   0.214
 1863TIP3    H2 5554   0.193   4.287   0.238
 1864TIP3   OH2 5555   1.995   4.977   5.479
 1864TIP3    H1 5556   2.012   4.920   5.403
 1864TIP3    H2 5557   2.030   5.062   5.454
 1865TIP3   OH2 5558   1.872   3.891   5.358
 1865TIP3    H1 5559   1.950   3.931   5.320
 1865TIP3    H2 5560   1.857   3.941   5.439
 1866TIP3   OH2 5561   6.363   2.430   2.101
 1866TIP3    H1 5562   6.335   2.476   2.180
 1866TIP3    H2 5563   6.282   2.401   2.060
 1867TIP3   OH2 5564   5.772   1.152   0.766
 1867TIP3    H1 5565   5.812   1.066   0.771
 1867TIP3    H2 5566   5.785   1.190   0.852
 1868TIP3   OH2 5567   2.253   3.756   3.236
 1868TIP3    H1 5568   2.281   3.666   3.221
 1868TIP3    H2 5569   2.256   3.796   3.149
 1869TIP3   OH2 5570   0.117   6.765   1.603
 1869TIP3    H1 5571   0.076   6.780   1.689
 1869TIP3    H2 5572   0.198   6.815   1.606
 1870TIP3   OH2 5573   2.461   4.651   1.059
 1870TIP3    H1 5574   2.494   4.570   1.020
 1870TIP3    H2 5575   2.374   4.628   1.092
 1871TIP3   OH2 5576   4.407   4.609   2.832
 1871TIP3    H1 5577   4.450   4.552   2.896
 1871TIP3    H2 5578   4.319   4.622   2.867
 1872TIP3   OH2 5579   4.437   6.664   1.810
 1872TIP3    H1 5580   4.516   6.690   1.762
 1872TIP3    H2 5581   4.410   6.744   1.856
 1873TIP3   OH2 5582   0.689   5.209   0.981
 1873TIP3    H1 5583   0.763   5.166   1.024
 1873TIP3    H2 5584   0.726   5.243   0.899
 1874TIP3   OH2 5585   2.449   4.654   0.772
 1874TIP3    H1 5586   2.403   4.605   0.840
 1874TIP3    H2 5587   2.380   4.680   0.711
 1875TIP3   OH2 5588   0.754   6.199   4.072
 1875TIP3    H1 5589   0.813   6.176   4.000
 1875TIP3    H2 5590   0.669   6.163   4.046
 1876TIP3   OH2 5591   4.069   0.300   0.773
 1876TIP3    H1 5592   4.106   0.354   0.843
 1876TIP3    H2 5593   4.023   0.230   0.819
 1877TIP3   OH2 5594   5.607   0.425   3.555
 1877TIP3    H1 5595   5.566   0.437   3.469
 1877TIP3    H2 5596   5.683   0.370   3.537
 1878TIP3   OH2 5597   2.204   5.751   5.492
 1878TIP3    H1 5598   2.245   5.671   5.523
 1878TIP3    H2 5599   2.147   5.723   5.419
 1879TIP3   OH2 5600   6.103   2.905   0.009
 1879TIP3    H1 5601   6.029   2.846   0.020
 1879TIP3    H2 5602   6.071   2.990   0.040
 1880TIP3   OH2 5603   2.131   2.624   3.919
 1880TIP3    H1 5604   2.076   2.567   3.865
 1880TIP3    H2 5605   2.216   2.626   3.873
 1881TIP3   OH2 5606   7.103   6.689   2.392
 1881TIP3    H1 5607   7.048   6.683   2.314
 1881TIP3    H2 5608   7.044   6.670   2.465
 1882TIP3   OH2 5609   5.048   4.908   1.085
 1882TIP3    H1 5610   5.079   4.961   1.012
 1882TIP3    H2 5611   5.025   4.972   1.153
 1883TIP3   OH2 5612   4.786   4.092   3.782
 1883TIP3    H1 5613   4.710   4.096   3.723
 1883TIP3    H2 5614   4.849   4.037   3.735
 1884TIP3   OH2 5615   4.970   3.900   1.223
 1884TIP3    H1 5616   4.993   3.874   1.134
 1884TIP3    H2 5617   4.904   3.836   1.250
 1885TIP3   OH2 5618   2.770   2.232   1.285
 1885TIP3    H1 5619   2.849   2.189   1.252
 1885TIP3    H2 5620   2.756   2.305   1.226
 1886TIP3   OH2 5621   2.383   5.129   5.288
 1886TIP3    H1 5622   2.403   5.038   5.311
 1886TIP3    H2 5623   2.463   5.177   5.309
 1887TIP3   OH2 5624   1.238   4.318   5.135
 1887TIP3    H1 5625   1.178   4.340   5.064
 1887TIP3    H2 5626   1.314   4.279   5.091
 1888TIP3   OH2 5627   2.305   6.566   4.969
 1888TIP3    H1 5628   2.367   6.604   4.907
 1888TIP3    H2 5629   2.344   6.482   4.994
 1889TIP3   OH2 5630   1.269   3.083   2.878
 1889TIP3    H1 5631   1.359   3.113   2.875
 1889TIP3    H2 5632   1.254   3.062   2.971
 1890TIP3   OH2 5633   3.702   2.293   3.159
 1890TIP3    H1 5634   3.706   2.323   3.250
 1890TIP3    H2 5635   3.632   2.346   3.120
 1891TIP3   OH2 5636   1.772   6.222   0.854
 1891TIP3    H1 5637   1.702   6.286   0.866
 1891TIP3    H2 5638   1.779   6.211   0.759
 1892TIP3   OH2 5639   2.806   0.967   2.667
 1892TIP3    H1 5640   2.851   0.886   2.643
 1892TIP3    H2 5641   2.767   0.949   2.752
 1893TIP3   OH2 5642   4.366   5.171   3.141
 1893TIP3    H1 5643   4.312   5.209   3.072
 1893TIP3    H2 5644   4.441   5.134   3.095
 1894TIP3   OH2 5645   6.020   1.287   5.566
 1894TIP3    H1 5646   6.053   1.376   5.580
 1894TIP3    H2 5647   6.032   1.272   5.472
 1895TIP3   OH2 5648   0.998   2.798   0.658
 1895TIP3    H1 5649   1.010   2.802   0.563
 1895TIP3    H2 5650   1.036   2.880   0.690
 1896TIP3   OH2 5651   0.458   5.055   1.191
 1896TIP3    H1 5652   0.510   5.082   1.115
 1896TIP3    H2 5653   0.518   5.006   1.246
 1897TIP3   OH2 5654   5.768   4.953   4.461
 1897TIP3    H1 5655   5.681   4.915   4.457
 1897TIP3    H2 5656   5.790   4.972   4.370
 1898TIP3   OH2 5657   5.313   1.164   1.079
 1898TIP3    H1 5658   5.378   1.218   1.034
 1898TIP3    H2 5659   5.335   1.074   1.054
 1899TIP3   OH2 5660   4.710   2.721   2.765
 1899TIP3    H1 5661   4.781   2.661   2.741
 1899TIP3    H2 5662   4.657   2.672   2.827
 1900TIP3   OH2 5663   1.952   1.509   3.667
 1900TIP3    H1 5664   1.916   1.593   3.697
 1900TIP3    H2 5665   1.879   1.468   3.620
 1901TIP3   OH2 5666   4.764   2.034   3.820
 1901TIP3    H1 5667   4.675   2.005   3.800
 1901TIP3    H2 5668   4.753   2.100   3.889
 1902TIP3   OH2 5669   3.837   0.796   0.664
 1902TIP3    H1 5670   3.900   0.860   0.697
 1902TIP3    H2 5671   3.755   0.818   0.707
 1903TIP3   OH2 5672   0.303   6.735   3.459
 1903TIP3    H1 5673   0.259   6.697   3.383
 1903TIP3    H2 5674   0.236   6.734   3.528
 1904TIP3   OH2 5675   2.670   1.671   1.430
 1904TIP3    H1 5676   2.589   1.629   1.457
 1904TIP3    H2 5677   2.691   1.633   1.345
 1905TIP3   OH2 5678   0.387   4.783   3.221
 1905TIP3    H1 5679   0.338   4.713   3.178
 1905TIP3    H2 5680   0.329   4.815   3.290
 1906TIP3   OH2 5681   5.290   3.202   1.377
 1906TIP3    H1 5682   5.273   3.129   1.437
 1906TIP3    H2 5683   5.366   3.246   1.415
 1907TIP3   OH2 5684   4.701   0.638   2.277
 1907TIP3    H1 5685   4.781   0.685   2.302
 1907TIP3    H2 5686   4.716   0.549   2.308
 1908TIP3   OH2 5687   5.955   5.520   5.834
 1908TIP3    H1 5688   5.979   5.533   5.926
 1908TIP3    H2 5689   5.932   5.428   5.828
 1909TIP3   OH2 5690   2.627   2.721   0.214
 1909TIP3    H1 5691   2.555   2.671   0.176
 1909TIP3    H2 5692   2.591   2.809   0.225
 1910TIP3   OH2 5693   3.107   3.433   1.818
 1910TIP3    H1 5694   3.161   3.490   1.763
 1910TIP3    H2 5695   3.168   3.397   1.882
 1911TIP3   OH2 5696   5.183   0.356   4.731
 1911TIP3    H1 5697   5.099   0.397   4.749
 1911TIP3    H2 5698   5.248   0.420   4.761
 1912TIP3   OH2 5699   1.850   5.852   4.893
 1912TIP3    H1 5700   1.854   5.942   4.924
 1912TIP3    H2 5701   1.927   5.810   4.932
 1913TIP3   OH2 5702   0.247   5.940   5.327
 1913TIP3    H1 5703   0.277   5.938   5.418
 1913TIP3    H2 5704   0.325   5.962   5.276
 1914TIP3   OH2 5705   3.282   4.425   4.977
 1914TIP3    H1 5706   3.349   4.375   5.023
 1914TIP3    H2 5707   3.329   4.498   4.937
 1915TIP3   OH2 5708   4.964   1.804   1.618
 1915TIP3    H1 5709   5.040   1.753   1.589
 1915TIP3    H2 5710   5.000   1.888   1.644
 1916TIP3   OH2 5711   0.903   0.063   0.945
 1916TIP3    H1 5712   0.947   0.118   0.880
 1916TIP3    H2 5713   0.892   0.120   1.021
 1917TIP3   OH2 5714   7.013   0.207   1.818
 1917TIP3    H1 5715   7.108   0.205   1.811
 1917TIP3    H2 5716   6.994   0.176   1.907
 1918TIP3   OH2 5717   1.200   2.991   0.728
 1918TIP3    H1 5718   1.278   3.037   0.758
 1918TIP3    H2 5719   1.129   3.055   0.734
 1919TIP3   OH2 5720   6.987   5.229   3.750
 1919TIP3    H1 5721   6.960   5.197   3.836
 1919TIP3    H2 5722   6.941   5.312   3.740
 1920TIP3   OH2 5723   3.737   5.858   4.316
 1920TIP3    H1 5724   3.683   5.912   4.373
 1920TIP3    H2 5725   3.827   5.883   4.337
 1921TIP3   OH2 5726   1.820   3.341   4.481
 1921TIP3    H1 5727   1.762   3.400   4.432
 1921TIP3    H2 5728   1.761   3.289   4.535
 1922TIP3   OH2 5729   0.435   0.919   3.925
 1922TIP3    H1 5730   0.449   0.999   3.976
 1922TIP3    H2 5731   0.495   0.927   3.850
 1923TIP3   OH2 5732   5.731   4.740   3.121
 1923TIP3    H1 5733   5.722   4.821   3.071
 1923TIP3    H2 5734   5.712   4.670   3.058
 1924TIP3   OH2 5735   1.378   2.283   4.414
 1924TIP3    H1 5736   1.464   2.321   4.395
 1924TIP3    H2 5737   1.340   2.264   4.328
 1925TIP3   OH2 5738   2.743   2.635   5.557
 1925TIP3    H1 5739   2.730   2.561   5.498
 1925TIP3    H2 5740   2.759   2.594   5.642
 1926TIP3   OH2 5741   4.074   4.596   2.621
 1926TIP3    H1 5742   4.061   4.668   2.559
 1926TIP3    H2 5743   4.086   4.640   2.705
 1927TIP3   OH2 5744   4.408   6.424   0.295
 1927TIP3    H1 5745   4.362   6.382   0.222
 1927TIP3    H2 5746   4.500   6.405   0.279
 1928TIP3   OH2 5747   2.104   3.091   5.074
 1928TIP3    H1 5748   2.163   3.111   5.001
 1928TIP3    H2 5749   2.127   3.155   5.142
 1929TIP3   OH2 5750   5.275   5.232   2.383
 1929TIP3    H1 5751   5.336   5.234   2.457
 1929TIP3    H2 5752   5.190   5.212   2.422
 1930TIP3   OH2 5753   0.941   1.390   0.558
 1930TIP3    H1 5754   0.868   1.333   0.580
 1930TIP3    H2 5755   1.018   1.334   0.567
 1931TIP3   OH2 5756   1.747   2.240   3.072
 1931TIP3    H1 5757   1.816   2.266   3.133
 1931TIP3    H2 5758   1.769   2.150   3.048
 1932TIP3   OH2 5759   4.621   3.595   5.825
 1932TIP3    H1 5760   4.706   3.563   5.794
 1932TIP3    H2 5761   4.558   3.529   5.795
 1933TIP3   OH2 5762   4.258   6.390   3.188
 1933TIP3    H1 5763   4.284   6.323   3.250
 1933TIP3    H2 5764   4.278   6.473   3.232
 1934TIP3   OH2 5765   1.681   6.555   3.459
 1934TIP3    H1 5766   1.695   6.545   3.553
 1934TIP3    H2 5767   1.766   6.581   3.425
 1935TIP3   OH2 5768   4.791   1.384   5.348
 1935TIP3    H1 5769   4.725   1.355   5.284
 1935TIP3    H2 5770   4.784   1.320   5.419
 1936TIP3   OH2 5771   0.133   3.861   5.602
 1936TIP3    H1 5772   0.163   3.943   5.642
 1936TIP3    H2 5773   0.212   3.807   5.596
 1937TIP3   OH2 5774   4.377   3.984   4.069
 1937TIP3    H1 5775   4.306   4.035   4.031
 1937TIP3    H2 5776   4.407   4.036   4.143
 1938TIP3   OH2 5777   1.909   2.570   0.201
 1938TIP3    H1 5778   1.839   2.602   0.257
 1938TIP3    H2 5779   1.955   2.505   0.254
 1939TIP3   OH2 5780   1.282   3.620   4.942
 1939TIP3    H1 5781   1.245   3.683   5.004
 1939TIP3    H2 5782   1.353   3.578   4.991
 1940TIP3   OH2 5783   0.241   3.409   4.309
 1940TIP3    H1 5784   0.212   3.426   4.398
 1940TIP3    H2 5785   0.290   3.327   4.314
 1941TIP3   OH2 5786   1.230   0.383   2.048
 1941TIP3    H1 5787   1.250   0.362   2.139
 1941TIP3    H2 5788   1.134   0.379   2.043
 1942TIP3   OH2 5789   6.866   1.899   5.180
 1942TIP3    H1 5790   6.851   1.972   5.239
 1942TIP3    H2 5791   6.876   1.939   5.093
 1943TIP3   OH2 5792   5.208   6.129   0.392
 1943TIP3    H1 5793   5.260   6.140   0.313
 1943TIP3    H2 5794   5.254   6.060   0.441
 1944TIP3   OH2 5795   2.726   0.594   2.413
 1944TIP3    H1 5796   2.760   0.670   2.368
 1944TIP3    H2 5797   2.634   0.615   2.431
 1945TIP3   OH2 5798   3.040   3.438   5.527
 1945TIP3    H1 5799   2.972   3.485   5.576
 1945TIP3    H2 5800   3.076   3.375   5.589
 1946TIP3   OH2 5801   3.286   2.130   0.698
 1946TIP3    H1 5802   3.219   2.150   0.632
 1946TIP3    H2 5803   3.364   2.177   0.667
 1947TIP3   OH2 5804   2.945   0.683   0.886
 1947TIP3    H1 5805   2.947   0.734   0.967
 1947TIP3    H2 5806   2.960   0.593   0.914
 1948TIP3   OH2 5807   3.066   5.501   5.599
 1948TIP3    H1 5808   3.059   5.432   5.534
 1948TIP3    H2 5809   3.102   5.457   5.677
 1949TIP3   OH2 5810   7.192   1.114   1.391
 1949TIP3    H1 5811   7.152   1.170   1.325
 1949TIP3    H2 5812   7.256   1.062   1.343
 1950TIP3   OH2 5813   1.243   1.241   3.812
 1950TIP3    H1 5814   1.237   1.150   3.840
 1950TIP3    H2 5815   1.181   1.288   3.868
 1951TIP3   OH2 5816   0.110   0.934   3.590
 1951TIP3    H1 5817   0.134   0.876   3.662
 1951TIP3    H2 5818   0.044   0.886   3.541
 1952TIP3   OH2 5819   5.363   1.505   3.123
 1952TIP3    H1 5820   5.350   1.510   3.028
 1952TIP3    H2 5821   5.298   1.441   3.153
 1953TIP3   OH2 5822   3.533   5.483   4.519
 1953TIP3    H1 5823   3.468   5.455   4.583
 1953TIP3    H2 5824   3.508   5.573   4.497
 1954TIP3   OH2 5825   0.881   1.717   3.530
 1954TIP3    H1 5826   0.882   1.646   3.466
 1954TIP3    H2 5827   0.931   1.787   3.488
 1955TIP3   OH2 5828   2.357   3.757   2.141
 1955TIP3    H1 5829   2.420   3.752   2.214
 1955TIP3    H2 5830   2.374   3.843   2.102
 1956TIP3   OH2 5831   5.606   3.918   2.133
 1956TIP3    H1 5832   5.538   3.864   2.092
 1956TIP3    H2 5833   5.638   3.974   2.062
 1957TIP3   OH2 5834   2.039   6.630   5.254
 1957TIP3    H1 5835   2.013   6.626   5.346
 1957TIP3    H2 5836   2.129   6.663   5.256
 1958TIP3   OH2 5837   4.716   3.115   5.295
 1958TIP3    H1 5838   4.796   3.159   5.267
 1958TIP3    H2 5839   4.648   3.149   5.236
 1959TIP3   OH2 5840   3.376   0.381   2.303
 1959TIP3    H1 5841   3.386   0.435   2.225
 1959TIP3    H2 5842   3.429   0.303   2.286
 1960TIP3   OH2 5843   6.669   3.788   2.596
 1960TIP3    H1 5844   6.682   3.711   2.651
 1960TIP3    H2 5845   6.660   3.753   2.507
 1961TIP3   OH2 5846   2.417   4.328   2.098
 1961TIP3    H1 5847   2.464   4.324   2.014
 1961TIP3    H2 5848   2.482   4.305   2.163
 1962TIP3   OH2 5849   6.503   0.649   3.794
 1962TIP3    H1 5850   6.467   0.581   3.851
 1962TIP3    H2 5851   6.452   0.641   3.713
 1963TIP3   OH2 5852   5.140   3.341   1.716
 1963TIP3    H1 5853   5.142   3.417   1.774
 1963TIP3    H2 5854   5.073   3.362   1.651
 1964TIP3   OH2 5855   6.332   3.329   2.018
 1964TIP3    H1 5856   6.335   3.333   2.114
 1964TIP3    H2 5857   6.387   3.402   1.989
 1965TIP3   OH2 5858   5.407   0.521   2.105
 1965TIP3    H1 5859   5.413   0.481   2.192
 1965TIP3    H2 5860   5.439   0.611   2.118
 1966TIP3   OH2 5861   5.196   0.471   1.948
 1966TIP3    H1 5862   5.270   0.471   2.009
 1966TIP3    H2 5863   5.235   0.487   1.863
 1967TIP3   OH2 5864   4.248   0.362   2.518
 1967TIP3    H1 5865   4.161   0.397   2.536
 1967TIP3    H2 5866   4.288   0.351   2.604
 1968TIP3   OH2 5867   2.817   6.505   1.016
 1968TIP3    H1 5868   2.900   6.472   0.981
 1968TIP3    H2 5869   2.834   6.519   1.109
 1969TIP3   OH2 5870   5.546   0.088   3.346
 1969TIP3    H1 5871   5.543   0.059   3.438
 1969TIP3    H2 5872   5.546   0.007   3.296
 1970TIP3   OH2 5873   0.776   0.103   1.455
 1970TIP3    H1 5874   0.776   0.018   1.499
 1970TIP3    H2 5875   0.819   0.162   1.517
 1971TIP3   OH2 5876   2.499   6.260   3.033
 1971TIP3    H1 5877   2.512   6.352   3.009
 1971TIP3    H2 5878   2.412   6.258   3.072
 1972TIP3   OH2 5879   1.458   3.057   2.176
 1972TIP3    H1 5880   1.473   2.963   2.165
 1972TIP3    H2 5881   1.478   3.095   2.091
 1973TIP3   OH2 5882   7.066   6.785   1.578
 1973TIP3    H1 5883   7.160   6.787   1.597
 1973TIP3    H2 5884   7.061   6.756   1.487
 1974TIP3   OH2 5885   5.273   5.186   3.134
 1974TIP3    H1 5886   5.235   5.120   3.193
 1974TIP3    H2 5887   5.305   5.136   3.059
 1975TIP3   OH2 5888   2.533   3.993   1.095
 1975TIP3    H1 5889   2.487   3.933   1.153
 1975TIP3    H2 5890   2.555   4.068   1.150
 1976TIP3   OH2 5891   3.479   2.093   3.140
 1976TIP3    H1 5892   3.389   2.119   3.161
 1976TIP3    H2 5893   3.523   2.175   3.120
 1977TIP3   OH2 5894   2.348   3.456   0.464
 1977TIP3    H1 5895   2.385   3.412   0.540
 1977TIP3    H2 5896   2.424   3.493   0.418
 1978TIP3   OH2 5897   5.285   5.944   2.447
 1978TIP3    H1 5898   5.261   6.030   2.413
 1978TIP3    H2 5899   5.203   5.896   2.454
 1979TIP3   OH2 5900   1.758   5.588   3.364
 1979TIP3    H1 5901   1.843   5.612   3.401
 1979TIP3    H2 5902   1.733   5.664   3.311
 1980TIP3   OH2 5903   6.726   1.403   1.124
 1980TIP3    H1 5904   6.640   1.419   1.161
 1980TIP3    H2 5905   6.755   1.488   1.091
 1981TIP3   OH2 5906   3.338   2.283   2.138
 1981TIP3    H1 5907   3.372   2.206   2.183
 1981TIP3    H2 5908   3.244   2.283   2.158
 1982TIP3   OH2 5909   2.423   1.573   0.843
 1982TIP3    H1 5910   2.411   1.660   0.879
 1982TIP3    H2 5911   2.392   1.513   0.911
 1983TIP3   OH2 5912   4.389   2.703   0.343
 1983TIP3    H1 5913   4.418   2.614   0.363
 1983TIP3    H2 5914   4.318   2.720   0.404
 1984TIP3   OH2 5915   4.260   4.037   1.786
 1984TIP3    H1 5916   4.262   3.967   1.850
 1984TIP3    H2 5917   4.181   4.022   1.735
 1985TIP3   OH2 5918   6.626   4.857   2.408
 1985TIP3    H1 5919   6.676   4.776   2.404
 1985TIP3    H2 5920   6.556   4.839   2.471
 1986TIP3   OH2 5921   6.858   6.248   4.987
 1986TIP3    H1 5922   6.948   6.266   4.961
 1986TIP3    H2 5923   6.805   6.300   4.926
 1987TIP3   OH2 5924   6.952   1.492   4.279
 1987TIP3    H1 5925   6.944   1.496   4.184
 1987TIP3    H2 5926   6.862   1.489   4.311
 1988TIP3   OH2 5927   6.545   5.664   2.250
 1988TIP3    H1 5928   6.553   5.642   2.342
 1988TIP3    H2 5929   6.601   5.601   2.205
 1989TIP3   OH2 5930   4.504   5.597   2.389
 1989TIP3    H1 5931   4.538   5.557   2.310
 1989TIP3    H2 5932   4.421   5.636   2.362
 1990TIP3   OH2 5933   3.597   3.545   2.358
 1990TIP3    H1 5934   3.643   3.464   2.335
 1990TIP3    H2 5935   3.537   3.519   2.428
 1991TIP3   OH2 5936   5.620   3.852   0.020
 1991TIP3    H1 5937   5.560   3.906   0.072
 1991TIP3    H2 5938   5.707   3.890   0.037
 1992TIP3   OH2 5939   1.093   5.920   1.187
 1992TIP3    H1 5940   1.064   5.860   1.118
 1992TIP3    H2 5941   1.184   5.893   1.205
 1993TIP3   OH2 5942   1.887   3.368   1.917
 1993TIP3    H1 5943   1.916   3.335   2.002
 1993TIP3    H2 5944   1.873   3.462   1.931
 1994TIP3   OH2 5945   0.288   0.800   3.414
 1994TIP3    H1 5946   0.352   0.787   3.484
 1994TIP3    H2 5947   0.216   0.847   3.456
 1995TIP3   OH2 5948   6.283   6.468   4.054
 1995TIP3    H1 5949   6.335   6.401   4.010
 1995TIP3    H2 5950   6.288   6.545   3.997
 1996TIP3   OH2 5951   2.272   4.519   5.141
 1996TIP3    H1 5952   2.324   4.493   5.065
 1996TIP3    H2 5953   2.268   4.614   5.136
 1997TIP3   OH2 5954   6.841   1.403   2.400
 1997TIP3    H1 5955   6.767   1.442   2.446
 1997TIP3    H2 5956   6.903   1.382   2.469
 1998TIP3   OH2 5957   1.905   5.805   4.172
 1998TIP3    H1 5958   1.948   5.835   4.252
 1998TIP3    H2 5959   1.904   5.882   4.115
 1999TIP3   OH2 5960   4.909   1.422   0.466
 1999TIP3    H1 5961   4.909   1.374   0.549
 1999TIP3    H2 5962   4.995   1.403   0.428
 2000TIP3   OH2 5963   6.819   4.121   1.053
 2000TIP3    H1 5964   6.855   4.054   0.995
 2000TIP3    H2 5965   6.820   4.202   1.001
 2001TIP3   OH2 5966   3.000   1.880   3.121
 2001TIP3    H1 5967   2.923   1.903   3.070
 2001TIP3    H2 5968   3.043   1.964   3.139
 2002TIP3   OH2 5969   4.100   0.545   2.172
 2002TIP3    H1 5970   4.118   0.451   2.172
 2002TIP3    H2 5971   4.055   0.561   2.256
 2003TIP3   OH2 5972   3.805   1.048   5.262
 2003TIP3    H1 5973   3.871   1.039   5.330
 2003TIP3    H2 5974   3.837   0.995   5.189
 2004TIP3   OH2 5975   4.748   2.296   2.134
 2004TIP3    H1 5976   4.723   2.382   2.168
 2004TIP3    H2 5977   4.802   2.315   2.057
 2005TIP3   OH2 5978   1.460   0.095   2.877
 2005TIP3    H1 5979   1.453   0.186   2.848
 2005TIP3    H2 5980   1.455   0.100   2.972
 2006TIP3   OH2 5981   0.002   5.421   1.370
 2006TIP3    H1 5982   0.055   5.488   1.326
 2006TIP3    H2 5983   0.045   5.338   1.347
 2007TIP3   OH2 5984   6.629   2.684   3.445
 2007TIP3    H1 5985   6.705   2.692   3.388
 2007TIP3    H2 5986   6.577   2.613   3.406
 2008TIP3   OH2 5987   0.076   5.871   4.994
 2008TIP3    H1 5988   0.003   5.880   4.932
 2008TIP3    H2 5989   0.036   5.886   5.080
 2009TIP3   OH2 5990   5.705   6.335   3.137
 2009TIP3    H1 5991   5.651   6.406   3.172
 2009TIP3    H2 5992   5.790   6.348   3.180
 2010TIP3   OH2 5993   2.246   0.427   3.499
 2010TIP3    H1 5994   2.179   0.414   3.431
 2010TIP3    H2 5995   2.324   0.454   3.451
 2011TIP3   OH2 5996   3.457   5.386   5.001
 2011TIP3    H1 5997   3.521   5.447   4.964
 2011TIP3    H2 5998   3.490   5.299   4.977
 2012TIP3   OH2 5999   6.595   6.186   4.733
 2012TIP3    H1 6000   6.581   6.240   4.811
 2012TIP3    H2 6001   6.689   6.192   4.716
 2013TIP3   OH2 6002   0.773   4.376   1.979
 2013TIP3    H1 6003   0.735   4.463   1.992
 2013TIP3    H2 6004   0.702   4.315   2.000
 2014TIP3   OH2 6005   3.812   0.164   1.233
 2014TIP3    H1 6006   3.752   0.163   1.307
 2014TIP3    H2 6007   3.813   0.255   1.203
 2015TIP3   OH2 6008   6.491   6.434   1.417
 2015TIP3    H1 6009   6.549   6.453   1.343
 2015TIP3    H2 6010   6.407   6.473   1.392
 2016TIP3   OH2 6011   4.708   2.259   0.712
 2016TIP3    H1 6012   4.706   2.165   0.695
 2016TIP3    H2 6013   4.794   2.274   0.753
 2017TIP3   OH2 6014   5.515   0.810   3.415
 2017TIP3    H1 6015   5.449   0.783   3.352
 2017TIP3    H2 6016   5.518   0.906   3.407
 2018TIP3   OH2 6017   1.051   4.864   2.065
 2018TIP3    H1 6018   0.963   4.860   2.103
 2018TIP3    H2 6019   1.070   4.958   2.060
 2019TIP3   OH2 6020   7.057   0.337   5.457
 2019TIP3    H1 6021   7.101   0.252   5.446
 2019TIP3    H2 6022   7.040   0.342   5.551
 2020TIP3   OH2 6023   1.814   3.309   1.668
 2020TIP3    H1 6024   1.803   3.218   1.638
 2020TIP3    H2 6025   1.843   3.301   1.759
 2021TIP3   OH2 6026   6.059   4.216   1.259
 2021TIP3    H1 6027   6.102   4.277   1.199
 2021TIP3    H2 6028   6.115   4.215   1.337
 2022TIP3   OH2 6029   2.681   1.817   0.763
 2022TIP3    H1 6030   2.728   1.882   0.816
 2022TIP3    H2 6031   2.589   1.841   0.773
 2023TIP3   OH2 6032   6.336   3.224   5.795
 2023TIP3    H1 6033   6.260   3.173   5.824
 2023TIP3    H2 6034   6.402   3.207   5.862
 2024TIP3   OH2 6035   2.629   6.022   2.153
 2024TIP3    H1 6036   2.698   6.083   2.179
 2024TIP3    H2 6037   2.594   6.059   2.072
 2025TIP3   OH2 6038   2.250   2.622   5.167
 2025TIP3    H1 6039   2.270   2.715   5.160
 2025TIP3    H2 6040   2.233   2.594   5.076
 2026TIP3   OH2 6041   6.053   4.996   1.458
 2026TIP3    H1 6042   6.107   5.071   1.432
 2026TIP3    H2 6043   5.980   4.997   1.395
 2027TIP3   OH2 6044   2.567   3.021   0.714
 2027TIP3    H1 6045   2.552   2.930   0.690
 2027TIP3    H2 6046   2.530   3.030   0.802
 2028TIP3   OH2 6047   5.807   6.506   4.170
 2028TIP3    H1 6048   5.810   6.527   4.077
 2028TIP3    H2 6049   5.899   6.496   4.196
 2029TIP3   OH2 6050   2.872   1.276   5.634
 2029TIP3    H1 6051   2.967   1.271   5.634
 2029TIP3    H2 6052   2.854   1.368   5.612
 2030TIP3   OH2 6053   3.858   1.920   0.289
 2030TIP3    H1 6054   3.790   1.977   0.324
 2030TIP3    H2 6055   3.932   1.979   0.272
 2031TIP3   OH2 6056   0.187   2.478   3.061
 2031TIP3    H1 6057   0.232   2.555   3.094
 2031TIP3    H2 6058   0.252   2.433   3.006
 2032TIP3   OH2 6059   3.628   4.662   0.950
 2032TIP3    H1 6060   3.561   4.710   0.902
 2032TIP3    H2 6061   3.690   4.729   0.978
 2033TIP3   OH2 6062   1.639   3.797   2.019
 2033TIP3    H1 6063   1.601   3.721   1.975
 2033TIP3    H2 6064   1.563   3.842   2.057
 2034TIP3   OH2 6065   1.759   3.396   4.780
 2034TIP3    H1 6066   1.700   3.454   4.732
 2034TIP3    H2 6067   1.740   3.309   4.745
 2035TIP3   OH2 6068   2.627   4.603   0.579
 2035TIP3    H1 6069   2.552   4.599   0.639
 2035TIP3    H2 6070   2.675   4.681   0.607
 2036TIP3   OH2 6071   0.876   1.117   3.861
 2036TIP3    H1 6072   0.915   1.050   3.917
 2036TIP3    H2 6073   0.919   1.106   3.776
 2037TIP3   OH2 6074   2.980   5.903   0.181
 2037TIP3    H1 6075   3.072   5.893   0.205
 2037TIP3    H2 6076   2.958   5.992   0.206
 2038TIP3   OH2 6077   2.026   6.274   3.609
 2038TIP3    H1 6078   2.075   6.323   3.543
 2038TIP3    H2 6079   2.075   6.192   3.620
 2039TIP3   OH2 6080   4.653   6.285   5.629
 2039TIP3    H1 6081   4.586   6.247   5.573
 2039TIP3    H2 6082   4.641   6.380   5.621
 2040TIP3   OH2 6083   5.965   3.306   3.249
 2040TIP3    H1 6084   6.001   3.297   3.338
 2040TIP3    H2 6085   6.042   3.318   3.193
 2041TIP3   OH2 6086   6.479   3.163   5.399
 2041TIP3    H1 6087   6.516   3.198   5.479
 2041TIP3    H2 6088   6.535   3.088   5.378
 2042TIP3   OH2 6089   1.793   5.846   1.406
 2042TIP3    H1 6090   1.857   5.908   1.368
 2042TIP3    H2 6091   1.719   5.902   1.431
 2043TIP3   OH2 6092   1.503   4.548   3.549
 2043TIP3    H1 6093   1.580   4.582   3.504
 2043TIP3    H2 6094   1.537   4.512   3.631
 2044TIP3   OH2 6095   2.472   1.101   0.973
 2044TIP3    H1 6096   2.567   1.107   0.980
 2044TIP3    H2 6097   2.453   1.007   0.981
 2045TIP3   OH2 6098   0.314   4.744   0.515
 2045TIP3    H1 6099   0.379   4.708   0.455
 2045TIP3    H2 6100   0.312   4.684   0.589
 2046TIP3   OH2 6101   5.109   6.269   1.531
 2046TIP3    H1 6102   5.197   6.258   1.494
 2046TIP3    H2 6103   5.114   6.229   1.617
 2047TIP3   OH2 6104   1.874   5.737   4.634
 2047TIP3    H1 6105   1.834   5.654   4.659
 2047TIP3    H2 6106   1.860   5.794   4.709
 2048TIP3   OH2 6107   3.065   0.923   3.299
 2048TIP3    H1 6108   3.145   0.970   3.277
 2048TIP3    H2 6109   3.042   0.954   3.387
 2049TIP3   OH2 6110   0.794   4.887   4.758
 2049TIP3    H1 6111   0.826   4.815   4.811
 2049TIP3    H2 6112   0.843   4.964   4.788
 2050TIP3   OH2 6113   4.481   1.672   0.915
 2050TIP3    H1 6114   4.458   1.764   0.922
 2050TIP3    H2 6115   4.561   1.662   0.966
 2051TIP3   OH2 6116   1.252   1.377   3.003
 2051TIP3    H1 6117   1.284   1.293   2.970
 2051TIP3    H2 6118   1.322   1.439   2.982
 2052TIP3   OH2 6119   6.722   0.237   3.645
 2052TIP3    H1 6120   6.687   0.298   3.580
 2052TIP3    H2 6121   6.663   0.162   3.642
 2053TIP3   OH2 6122   1.218   0.532   2.794
 2053TIP3    H1 6123   1.128   0.500   2.796
 2053TIP3    H2 6124   1.227   0.573   2.707
 2054TIP3   OH2 6125   2.820   6.488   2.330
 2054TIP3    H1 6126   2.817   6.500   2.425
 2054TIP3    H2 6127   2.729   6.495   2.302
 2055TIP3   OH2 6128   7.126   2.483   1.627
 2055TIP3    H1 6129   7.142   2.555   1.566
 2055TIP3    H2 6130   7.173   2.409   1.590
 2056TIP3   OH2 6131   0.885   5.332   3.894
 2056TIP3    H1 6132   0.935   5.321   3.975
 2056TIP3    H2 6133   0.873   5.244   3.860
 2057TIP3   OH2 6134   4.820   6.811   1.550
 2057TIP3    H1 6135   4.832   6.791   1.457
 2057TIP3    H2 6136   4.766   6.740   1.583
 2058TIP3   OH2 6137   3.487   2.470   0.717
 2058TIP3    H1 6138   3.458   2.523   0.643
 2058TIP3    H2 6139   3.570   2.510   0.744
 2059TIP3   OH2 6140   2.758   1.985   3.854
 2059TIP3    H1 6141   2.738   1.993   3.760
 2059TIP3    H2 6142   2.732   2.069   3.891
 2060TIP3   OH2 6143   3.898   5.061   5.108
 2060TIP3    H1 6144   3.918   5.021   5.024
 2060TIP3    H2 6145   3.942   5.146   5.105
 2061TIP3   OH2 6146   5.885   3.906   5.877
 2061TIP3    H1 6147   5.878   3.864   5.791
 2061TIP3    H2 6148   5.898   3.835   5.939
 2062TIP3   OH2 6149   1.143   0.731   5.850
 2062TIP3    H1 6150   1.222   0.755   5.899
 2062TIP3    H2 6151   1.107   0.814   5.820
 2063TIP3   OH2 6152   0.883   3.949   4.580
 2063TIP3    H1 6153   0.863   3.894   4.655
 2063TIP3    H2 6154   0.851   3.900   4.505
 2064TIP3   OH2 6155   5.519   2.140   3.720
 2064TIP3    H1 6156   5.502   2.136   3.625
 2064TIP3    H2 6157   5.432   2.135   3.759
 2065TIP3   OH2 6158   5.999   0.883   4.552
 2065TIP3    H1 6159   6.091   0.886   4.577
 2065TIP3    H2 6160   5.952   0.884   4.635
 2066TIP3   OH2 6161   4.461   3.784   4.272
 2066TIP3    H1 6162   4.385   3.825   4.231
 2066TIP3    H2 6163   4.495   3.724   4.206
 2067TIP3   OH2 6164   5.974   0.614   3.549
 2067TIP3    H1 6165   5.945   0.576   3.631
 2067TIP3    H2 6166   5.897   0.656   3.512
 2068TIP3   OH2 6167   6.900   4.880   1.220
 2068TIP3    H1 6168   6.955   4.919   1.152
 2068TIP3    H2 6169   6.920   4.787   1.218
 2069TIP3   OH2 6170   0.718   2.333   3.057
 2069TIP3    H1 6171   0.668   2.401   3.012
 2069TIP3    H2 6172   0.804   2.373   3.073
 2070TIP3   OH2 6173   1.584   2.024   0.262
 2070TIP3    H1 6174   1.538   2.077   0.327
 2070TIP3    H2 6175   1.675   2.025   0.290
 2071TIP3   OH2 6176   1.738   5.723   5.583
 2071TIP3    H1 6177   1.691   5.758   5.507
 2071TIP3    H2 6178   1.669   5.695   5.643
 2072TIP3   OH2 6179   5.365   4.347   0.765
 2072TIP3    H1 6180   5.309   4.393   0.703
 2072TIP3    H2 6181   5.409   4.417   0.814
 2073TIP3   OH2 6182   5.323   1.996   2.911
 2073TIP3    H1 6183   5.267   1.924   2.941
 2073TIP3    H2 6184   5.295   2.012   2.821
 2074TIP3   OH2 6185   0.169   6.429   2.235
 2074TIP3    H1 6186   0.114   6.351   2.226
 2074TIP3    H2 6187   0.194   6.430   2.327
 2075TIP3   OH2 6188   1.122   3.753   2.182
 2075TIP3    H1 6189   1.097   3.680   2.239
 2075TIP3    H2 6190   1.062   3.824   2.207
 2076TIP3   OH2 6191   0.720   2.781   5.231
 2076TIP3    H1 6192   0.746   2.701   5.275
 2076TIP3    H2 6193   0.790   2.798   5.167
 2077TIP3   OH2 6194   5.446   3.672   2.569
 2077TIP3    H1 6195   5.495   3.753   2.558
 2077TIP3    H2 6196   5.354   3.699   2.571
 2078TIP3   OH2 6197   5.740   4.112   4.287
 2078TIP3    H1 6198   5.781   4.070   4.362
 2078TIP3    H2 6199   5.813   4.148   4.237
 2079TIP3   OH2 6200   4.407   1.387   0.910
 2079TIP3    H1 6201   4.462   1.337   0.970
 2079TIP3    H2 6202   4.441   1.476   0.916
 2080TIP3   OH2 6203   4.677   3.692   0.051
 2080TIP3    H1 6204   4.726   3.609   0.048
 2080TIP3    H2 6205   4.646   3.704  -0.039
 2081TIP3   OH2 6206   4.394   0.498   0.260
 2081TIP3    H1 6207   4.361   0.440   0.192
 2081TIP3    H2 6208   4.442   0.566   0.213
 2082TIP3   OH2 6209   0.550   6.146   5.430
 2082TIP3    H1 6210   0.571   6.054   5.415
 2082TIP3    H2 6211   0.527   6.151   5.523
 2083TIP3   OH2 6212   1.784   6.247   4.125
 2083TIP3    H1 6213   1.836   6.327   4.127
 2083TIP3    H2 6214   1.848   6.176   4.116
 2084TIP3   OH2 6215   3.463   2.966   1.923
 2084TIP3    H1 6216   3.398   3.028   1.888
 2084TIP3    H2 6217   3.547   3.001   1.894
 2085TIP3   OH2 6218   3.621   1.824   0.639
 2085TIP3    H1 6219   3.713   1.847   0.653
 2085TIP3    H2 6220   3.572   1.890   0.688
 2086TIP3   OH2 6221   4.080   2.028   5.067
 2086TIP3    H1 6222   4.011   2.022   5.133
 2086TIP3    H2 6223   4.047   2.089   5.002
 2087TIP3   OH2 6224   2.651   0.692   2.674
 2087TIP3    H1 6225   2.708   0.667   2.602
 2087TIP3    H2 6226   2.588   0.620   2.681
 2088TIP3   OH2 6227   4.542   6.121   0.900
 2088TIP3    H1 6228   4.497   6.113   0.984
 2088TIP3    H2 6229   4.541   6.032   0.864
 2089TIP3   OH2 6230   1.836   1.699   5.328
 2089TIP3    H1 6231   1.837   1.707   5.233
 2089TIP3    H2 6232   1.917   1.741   5.357
 2090TIP3   OH2 6233   6.739   0.073   4.710
 2090TIP3    H1 6234   6.770   0.016   4.639
 2090TIP3    H2 6235   6.645   0.081   4.695
 2091TIP3   OH2 6236   4.833   4.070   0.387
 2091TIP3    H1 6237   4.906   4.007   0.390
 2091TIP3    H2 6238   4.791   4.061   0.473
 2092TIP3   OH2 6239   5.900   1.217   2.046
 2092TIP3    H1 6240   5.814   1.174   2.046
 2092TIP3    H2 6241   5.888   1.293   1.990
 2093TIP3   OH2 6242   6.447   5.121   2.580
 2093TIP3    H1 6243   6.504   5.185   2.539
 2093TIP3    H2 6244   6.507   5.055   2.615
 2094TIP3   OH2 6245   4.367   5.430   2.092
 2094TIP3    H1 6246   4.446   5.409   2.141
 2094TIP3    H2 6247   4.319   5.347   2.086
 2095TIP3   OH2 6248   1.819   0.751   5.355
 2095TIP3    H1 6249   1.847   0.840   5.333
 2095TIP3    H2 6250   1.734   0.761   5.396
 2096TIP3   OH2 6251   3.384   5.487   3.351
 2096TIP3    H1 6252   3.306   5.528   3.314
 2096TIP3    H2 6253   3.448   5.487   3.280
 2097TIP3   OH2 6254   4.400   5.549   3.027
 2097TIP3    H1 6255   4.456   5.529   3.102
 2097TIP3    H2 6256   4.452   5.523   2.951
 2098TIP3   OH2 6257   0.827   5.485   4.498
 2098TIP3    H1 6258   0.913   5.515   4.527
 2098TIP3    H2 6259   0.779   5.565   4.477
 2099TIP3   OH2 6260   4.465   1.598   2.461
 2099TIP3    H1 6261   4.371   1.611   2.477
 2099TIP3    H2 6262   4.476   1.614   2.368
 2100TIP3   OH2 6263   4.783   5.544   5.847
 2100TIP3    H1 6264   4.742   5.613   5.900
 2100TIP3    H2 6265   4.836   5.495   5.910
 2101TIP3   OH2 6266   4.204   4.268   2.338
 2101TIP3    H1 6267   4.289   4.251   2.379
 2101TIP3    H2 6268   4.166   4.182   2.324
 2102TIP3   OH2 6269   3.872   3.970   4.780
 2102TIP3    H1 6270   3.897   3.971   4.687
 2102TIP3    H2 6271   3.922   3.897   4.817
 2103TIP3   OH2 6272   4.658   3.358   0.540
 2103TIP3    H1 6273   4.716   3.385   0.611
 2103TIP3    H2 6274   4.710   3.372   0.461
 2104TIP3   OH2 6275   3.879   5.468   0.166
 2104TIP3    H1 6276   3.815   5.501   0.229
 2104TIP3    H2 6277   3.900   5.545   0.112
 2105TIP3   OH2 6278   5.139   3.836   4.079
 2105TIP3    H1 6279   5.157   3.784   4.001
 2105TIP3    H2 6280   5.095   3.775   4.139
 2106TIP3   OH2 6281   1.508   5.711   1.662
 2106TIP3    H1 6282   1.560   5.655   1.720
 2106TIP3    H2 6283   1.496   5.792   1.712
 2107TIP3   OH2 6284   5.052   0.341   1.367
 2107TIP3    H1 6285   4.970   0.390   1.364
 2107TIP3    H2 6286   5.029   0.255   1.332
 2108TIP3   OH2 6287   6.936   1.856   2.385
 2108TIP3    H1 6288   6.939   1.880   2.478
 2108TIP3    H2 6289   6.850   1.887   2.356
 2109TIP3   OH2 6290   0.809   6.357   5.724
 2109TIP3    H1 6291   0.769   6.399   5.648
 2109TIP3    H2 6292   0.893   6.325   5.692
 2110TIP3   OH2 6293   2.167   4.959   4.018
 2110TIP3    H1 6294   2.235   4.891   4.020
 2110TIP3    H2 6295   2.150   4.978   4.111
 2111TIP3   OH2 6296   5.672   3.484   5.401
 2111TIP3    H1 6297   5.584   3.465   5.432
 2111TIP3    H2 6298   5.705   3.400   5.369
 2112TIP3   OH2 6299   0.945   5.873   4.461
 2112TIP3    H1 6300   0.930   5.943   4.397
 2112TIP3    H2 6301   0.882   5.805   4.437
 2113TIP3   OH2 6302   2.522   2.124   1.869
 2113TIP3    H1 6303   2.486   2.053   1.921
 2113TIP3    H2 6304   2.614   2.129   1.896
 2114TIP3   OH2 6305   4.664   0.037   3.121
 2114TIP3    H1 6306   4.759   0.038   3.133
 2114TIP3    H2 6307   4.631   0.103   3.182
 2115TIP3   OH2 6308   6.145   5.427   5.156
 2115TIP3    H1 6309   6.183   5.501   5.109
 2115TIP3    H2 6310   6.067   5.403   5.105
 2116TIP3   OH2 6311   2.834   4.921   2.713
 2116TIP3    H1 6312   2.926   4.894   2.706
 2116TIP3    H2 6313   2.811   4.950   2.625
 2117TIP3   OH2 6314   3.470   6.740   0.709
 2117TIP3    H1 6315   3.487   6.822   0.755
 2117TIP3    H2 6316   3.485   6.760   0.616
 2118TIP3   OH2 6317   3.870   0.384   4.837
 2118TIP3    H1 6318   3.808   0.457   4.840
 2118TIP3    H2 6319   3.897   0.372   4.928
 2119TIP3   OH2 6320  -0.020   6.754   2.699
 2119TIP3    H1 6321  -0.022   6.768   2.794
 2119TIP3    H2 6322   0.062   6.708   2.683
 2120TIP3   OH2 6323   2.821   5.841   3.747
 2120TIP3    H1 6324   2.911   5.833   3.715
 2120TIP3    H2 6325   2.790   5.925   3.711
 2121TIP3   OH2 6326   0.078   3.431   1.040
 2121TIP3    H1 6327   0.112   3.343   1.024
 2121TIP3    H2 6328   0.102   3.480   0.961
 2122TIP3   OH2 6329   3.778   4.071   2.319
 2122TIP3    H1 6330   3.838   4.079   2.393
 2122TIP3    H2 6331   3.766   3.977   2.307
 2123TIP3   OH2 6332   2.222   6.374   5.619
 2123TIP3    H1 6333   2.191   6.461   5.594
 2123TIP3    H2 6334   2.165   6.347   5.691
 2124TIP3   OH2 6335   1.244   5.001   5.795
 2124TIP3    H1 6336   1.311   4.983   5.728
 2124TIP3    H2 6337   1.165   5.021   5.744
 2125TIP3   OH2 6338   4.909   2.495   2.680
 2125TIP3    H1 6339   4.912   2.471   2.772
 2125TIP3    H2 6340   4.853   2.429   2.639
 2126TIP3   OH2 6341   5.336   6.433   4.067
 2126TIP3    H1 6342   5.373   6.377   3.999
 2126TIP3    H2 6343   5.359   6.522   4.038
 2127TIP3   OH2 6344   2.926   5.923   1.296
 2127TIP3    H1 6345   2.910   5.900   1.204
 2127TIP3    H2 6346   2.935   5.839   1.341
 2128TIP3   OH2 6347   3.610   0.638   3.543
 2128TIP3    H1 6348   3.585   0.675   3.627
 2128TIP3    H2 6349   3.640   0.549   3.564
 2129TIP3   OH2 6350   4.956   5.044   0.366
 2129TIP3    H1 6351   5.028   5.021   0.426
 2129TIP3    H2 6352   4.912   5.117   0.408
 2130TIP3   OH2 6353   0.242   2.408   5.077
 2130TIP3    H1 6354   0.215   2.428   5.166
 2130TIP3    H2 6355   0.197   2.327   5.055
 2131TIP3   OH2 6356   5.834   1.462   2.643
 2131TIP3    H1 6357   5.785   1.486   2.722
 2131TIP3    H2 6358   5.879   1.542   2.617
 2132TIP3   OH2 6359   0.254   0.364   1.864
 2132TIP3    H1 6360   0.195   0.291   1.846
 2132TIP3    H2 6361   0.302   0.377   1.783
 2133TIP3   OH2 6362   3.647   2.821   5.822
 2133TIP3    H1 6363   3.735   2.846   5.849
 2133TIP3    H2 6364   3.604   2.793   5.902
 2134TIP3   OH2 6365   2.615   3.517   0.034
 2134TIP3    H1 6366   2.691   3.490  -0.017
 2134TIP3    H2 6367   2.632   3.609   0.056
 2135TIP3   OH2 6368   3.196   0.251   1.777
 2135TIP3    H1 6369   3.206   0.196   1.855
 2135TIP3    H2 6370   3.124   0.311   1.798
 2136TIP3   OH2 6371   3.779  -0.005   2.754
 2136TIP3    H1 6372   3.867   0.031   2.762
 2136TIP3    H2 6373   3.721   0.062   2.791
 2137TIP3   OH2 6374   3.497   3.566   3.174
 2137TIP3    H1 6375   3.558   3.590   3.243
 2137TIP3    H2 6376   3.511   3.473   3.160
 2138TIP3   OH2 6377   5.000   0.488   1.019
 2138TIP3    H1 6378   5.075   0.493   1.078
 2138TIP3    H2 6379   4.948   0.415   1.053
 2139TIP3   OH2 6380   4.296   5.157   1.298
 2139TIP3    H1 6381   4.291   5.095   1.224
 2139TIP3    H2 6382   4.390   5.175   1.307
 2140TIP3   OH2 6383   4.909   5.443   1.496
 2140TIP3    H1 6384   5.003   5.458   1.497
 2140TIP3    H2 6385   4.888   5.417   1.586
 2141TIP3   OH2 6386   3.714   2.662   2.241
 2141TIP3    H1 6387   3.672   2.747   2.231
 2141TIP3    H2 6388   3.646   2.599   2.219
 2142TIP3   OH2 6389   1.946   5.087   1.767
 2142TIP3    H1 6390   1.944   5.103   1.861
 2142TIP3    H2 6391   2.024   5.035   1.752
 2143TIP3   OH2 6392   5.175   3.593   3.844
 2143TIP3    H1 6393   5.262   3.631   3.857
 2143TIP3    H2 6394   5.159   3.603   3.750
 2144TIP3   OH2 6395   6.878   3.772   2.924
 2144TIP3    H1 6396   6.966   3.739   2.906
 2144TIP3    H2 6397   6.819   3.707   2.886
 2145TIP3   OH2 6398   6.377   5.992   2.513
 2145TIP3    H1 6399   6.315   6.062   2.493
 2145TIP3    H2 6400   6.360   5.925   2.448
 2146TIP3   OH2 6401   2.915   2.614   1.135
 2146TIP3    H1 6402   2.915   2.705   1.162
 2146TIP3    H2 6403   3.000   2.579   1.163
 2147TIP3   OH2 6404   3.638   2.247   0.186
 2147TIP3    H1 6405   3.574   2.311   0.216
 2147TIP3    H2 6406   3.714   2.298   0.160
 2148TIP3   OH2 6407   6.688   0.953   4.044
 2148TIP3    H1 6408   6.699   0.970   3.950
 2148TIP3    H2 6409   6.748   0.882   4.063
 2149TIP3   OH2 6410   6.466   1.314   4.434
 2149TIP3    H1 6411   6.486   1.298   4.526
 2149TIP3    H2 6412   6.467   1.227   4.393
 2150TIP3   OH2 6413   6.727   3.552   4.074
 2150TIP3    H1 6414   6.785   3.603   4.017
 2150TIP3    H2 6415   6.653   3.611   4.092
 2151TIP3   OH2 6416   3.435   4.247   2.079
 2151TIP3    H1 6417   3.498   4.208   2.139
 2151TIP3    H2 6418   3.434   4.188   2.004
 2152TIP3   OH2 6419   2.476   0.139   1.083
 2152TIP3    H1 6420   2.387   0.170   1.065
 2152TIP3    H2 6421   2.480   0.132   1.179
 2153TIP3   OH2 6422   4.269   4.231   5.151
 2153TIP3    H1 6423   4.203   4.300   5.147
 2153TIP3    H2 6424   4.298   4.230   5.242
 2154TIP3   OH2 6425   4.597   2.704   3.965
 2154TIP3    H1 6426   4.596   2.636   4.032
 2154TIP3    H2 6427   4.658   2.672   3.899
 2155TIP3   OH2 6428   4.206   4.306   3.353
 2155TIP3    H1 6429   4.188   4.218   3.318
 2155TIP3    H2 6430   4.240   4.355   3.279
 2156TIP3   OH2 6431   1.155   6.515   5.674
 2156TIP3    H1 6432   1.083   6.542   5.731
 2156TIP3    H2 6433   1.125   6.433   5.635
 2157TIP3   OH2 6434   4.101   4.097   5.449
 2157TIP3    H1 6435   4.102   4.005   5.475
 2157TIP3    H2 6436   4.194   4.121   5.443
 2158TIP3   OH2 6437   1.704   1.984   3.779
 2158TIP3    H1 6438   1.795   1.962   3.760
 2158TIP3    H2 6439   1.696   1.973   3.874
 2159TIP3   OH2 6440   3.317   0.620   3.386
 2159TIP3    H1 6441   3.391   0.653   3.334
 2159TIP3    H2 6442   3.349   0.622   3.476
 2160TIP3   OH2 6443   0.469   2.844   5.260
 2160TIP3    H1 6444   0.555   2.806   5.279
 2160TIP3    H2 6445   0.406   2.779   5.291
 2161TIP3   OH2 6446   1.532   1.096   2.219
 2161TIP3    H1 6447   1.543   1.004   2.196
 2161TIP3    H2 6448   1.535   1.142   2.135
 2162TIP3   OH2 6449   5.185   6.749   0.691
 2162TIP3    H1 6450   5.236   6.681   0.646
 2162TIP3    H2 6451   5.099   6.748   0.650
 2163TIP3   OH2 6452   4.693   4.097   0.642
 2163TIP3    H1 6453   4.715   4.011   0.680
 2163TIP3    H2 6454   4.608   4.084   0.600
 2164TIP3   OH2 6455   1.941   0.414   0.067
 2164TIP3    H1 6456   1.894   0.379  -0.008
 2164TIP3    H2 6457   2.011   0.468   0.030
 2165TIP3   OH2 6458   4.798   3.875   4.551
 2165TIP3    H1 6459   4.782   3.789   4.590
 2165TIP3    H2 6460   4.711   3.905   4.524
 2166TIP3   OH2 6461   2.850   2.714   2.325
 2166TIP3    H1 6462   2.783   2.782   2.333
 2166TIP3    H2 6463   2.809   2.636   2.362
 2167TIP3   OH2 6464   3.349   1.946   5.751
 2167TIP3    H1 6465   3.313   1.881   5.689
 2167TIP3    H2 6466   3.381   2.017   5.695
 2168TIP3   OH2 6467   4.813   1.183   1.644
 2168TIP3    H1 6468   4.792   1.276   1.637
 2168TIP3    H2 6469   4.909   1.180   1.645
 2169TIP3   OH2 6470   2.085   3.654   2.905
 2169TIP3    H1 6471   2.098   3.621   2.995
 2169TIP3    H2 6472   1.990   3.646   2.891
 2170TIP3   OH2 6473   0.308   3.477   1.617
 2170TIP3    H1 6474   0.303   3.558   1.567
 2170TIP3    H2 6475   0.256   3.414   1.567
 2171TIP3   OH2 6476   1.011   2.246   5.592
 2171TIP3    H1 6477   1.002   2.336   5.560
 2171TIP3    H2 6478   1.026   2.255   5.686
 2172TIP3   OH2 6479   3.522   1.652   3.472
 2172TIP3    H1 6480   3.538   1.740   3.439
 2172TIP3    H2 6481   3.506   1.664   3.566
 2173TIP3   OH2 6482   2.383   0.261   4.521
 2173TIP3    H1 6483   2.439   0.239   4.446
 2173TIP3    H2 6484   2.324   0.186   4.530
 2174TIP3   OH2 6485   1.338   5.957   1.970
 2174TIP3    H1 6486   1.352   5.943   2.064
 2174TIP3    H2 6487   1.261   6.013   1.965
 2175TIP3   OH2 6488   1.015   3.773   3.924
 2175TIP3    H1 6489   0.967   3.852   3.946
 2175TIP3    H2 6490   0.962   3.702   3.960
 2176TIP3   OH2 6491   4.425   3.718   0.828
 2176TIP3    H1 6492   4.433   3.637   0.877
 2176TIP3    H2 6493   4.330   3.730   0.816
 2177TIP3   OH2 6494   0.550   2.441   2.289
 2177TIP3    H1 6495   0.539   2.357   2.333
 2177TIP3    H2 6496   0.462   2.479   2.287
 2178TIP3   OH2 6497   2.682   5.737   4.513
 2178TIP3    H1 6498   2.750   5.783   4.562
 2178TIP3    H2 6499   2.705   5.645   4.521
 2179TIP3   OH2 6500   2.717   0.516   0.989
 2179TIP3    H1 6501   2.800   0.469   0.983
 2179TIP3    H2 6502   2.734   0.601   0.948
 2180TIP3   OH2 6503   3.585   0.474   2.580
 2180TIP3    H1 6504   3.629   0.390   2.569
 2180TIP3    H2 6505   3.630   0.516   2.653
 2181TIP3   OH2 6506   6.130   0.071   3.592
 2181TIP3    H1 6507   6.208   0.039   3.638
 2181TIP3    H2 6508   6.067  -0.001   3.598
 2182TIP3   OH2 6509   4.432   1.200   4.708
 2182TIP3    H1 6510   4.389   1.227   4.627
 2182TIP3    H2 6511   4.419   1.274   4.768
 2183TIP3   OH2 6512   3.128   1.029   4.754
 2183TIP3    H1 6513   3.106   0.955   4.809
 2183TIP3    H2 6514   3.178   1.087   4.811
 2184TIP3   OH2 6515   1.652   2.843   2.130
 2184TIP3    H1 6516   1.663   2.861   2.036
 2184TIP3    H2 6517   1.717   2.776   2.149
 2185TIP3   OH2 6518   0.849   1.456   5.378
 2185TIP3    H1 6519   0.878   1.446   5.288
 2185TIP3    H2 6520   0.929   1.467   5.428
 2186TIP3   OH2 6521   6.002   4.083   3.782
 2186TIP3    H1 6522   6.024   4.007   3.836
 2186TIP3    H2 6523   6.060   4.152   3.812
 2187TIP3   OH2 6524   2.222   0.573   4.187
 2187TIP3    H1 6525   2.203   0.664   4.210
 2187TIP3    H2 6526   2.284   0.578   4.114
 2188TIP3   OH2 6527   4.814   0.231   5.505
 2188TIP3    H1 6528   4.893   0.202   5.549
 2188TIP3    H2 6529   4.826   0.325   5.494
 2189TIP3   OH2 6530   0.579   1.014   4.328
 2189TIP3    H1 6531   0.520   0.994   4.401
 2189TIP3    H2 6532   0.521   1.051   4.260
 2190TIP3   OH2 6533   5.965   4.619   2.507
 2190TIP3    H1 6534   5.936   4.564   2.435
 2190TIP3    H2 6535   6.057   4.638   2.487
 2191TIP3   OH2 6536   2.026   6.317   3.280
 2191TIP3    H1 6537   2.112   6.298   3.317
 2191TIP3    H2 6538   2.024   6.412   3.270
 2192TIP3   OH2 6539   6.581   0.406   3.448
 2192TIP3    H1 6540   6.537   0.400   3.363
 2192TIP3    H2 6541   6.530   0.349   3.505
 2193TIP3   OH2 6542   7.034   2.167   1.682
 2193TIP3    H1 6543   6.994   2.088   1.719
 2193TIP3    H2 6544   7.123   2.168   1.718
 2194TIP3   OH2 6545   4.781   0.211   5.832
 2194TIP3    H1 6546   4.851   0.258   5.787
 2194TIP3    H2 6547   4.825   0.140   5.879
 2195TIP3   OH2 6548   6.562   4.795   0.965
 2195TIP3    H1 6549   6.547   4.773   0.873
 2195TIP3    H2 6550   6.618   4.725   0.998
 2196TIP3   OH2 6551   1.466   4.190   3.583
 2196TIP3    H1 6552   1.486   4.097   3.582
 2196TIP3    H2 6553   1.518   4.226   3.511
 2197TIP3   OH2 6554   4.219   2.384   3.384
 2197TIP3    H1 6555   4.270   2.459   3.414
 2197TIP3    H2 6556   4.253   2.310   3.434
 2198TIP3   OH2 6557   5.807   3.426   1.160
 2198TIP3    H1 6558   5.839   3.516   1.152
 2198TIP3    H2 6559   5.885   3.376   1.186
 2199TIP3   OH2 6560   1.118   0.780   3.046
 2199TIP3    H1 6561   1.071   0.790   2.964
 2199TIP3    H2 6562   1.137   0.870   3.074
 2200TIP3   OH2 6563   1.339   3.823   4.694
 2200TIP3    H1 6564   1.400   3.879   4.645
 2200TIP3    H2 6565   1.270   3.801   4.631
 2201TIP3   OH2 6566   5.888   4.653   3.330
 2201TIP3    H1 6567   5.883   4.711   3.407
 2201TIP3    H2 6568   5.835   4.697   3.264
 2202TIP3   OH2 6569   1.349   6.607   5.360
 2202TIP3    H1 6570   1.254   6.613   5.350
 2202TIP3    H2 6571   1.368   6.648   5.444
 2203TIP3   OH2 6572   4.435   6.167   3.731
 2203TIP3    H1 6573   4.415   6.162   3.638
 2203TIP3    H2 6574   4.530   6.181   3.735
 2204TIP3   OH2 6575   3.802   1.869   3.015
 2204TIP3    H1 6576   3.844   1.788   2.986
 2204TIP3    H2 6577   3.720   1.841   3.056
 2205TIP3   OH2 6578   2.811   2.366   0.751
 2205TIP3    H1 6579   2.833   2.378   0.843
 2205TIP3    H2 6580   2.822   2.272   0.736
 2206TIP3   OH2 6581   5.580   3.101   2.142
 2206TIP3    H1 6582   5.578   3.015   2.183
 2206TIP3    H2 6583   5.582   3.083   2.048
 2207TIP3   OH2 6584   0.644   1.602   4.074
 2207TIP3    H1 6585   0.630   1.697   4.076
 2207TIP3    H2 6586   0.576   1.567   4.132
 2208TIP3   OH2 6587   5.607   5.504   1.096
 2208TIP3    H1 6588   5.642   5.589   1.068
 2208TIP3    H2 6589   5.536   5.526   1.156
 2209TIP3   OH2 6590   5.469   2.601   5.403
 2209TIP3    H1 6591   5.481   2.646   5.486
 2209TIP3    H2 6592   5.479   2.670   5.337
 2210TIP3   OH2 6593   6.959   4.741   5.259
 2210TIP3    H1 6594   7.049   4.764   5.283
 2210TIP3    H2 6595   6.907   4.818   5.284
 2211TIP3   OH2 6596   4.923   4.932   4.559
 2211TIP3    H1 6597   5.019   4.927   4.555
 2211TIP3    H2 6598   4.894   4.861   4.501
 2212TIP3   OH2 6599   6.961   2.808   5.688
 2212TIP3    H1 6600   6.984   2.780   5.777
 2212TIP3    H2 6601   7.045   2.832   5.648
 2213TIP3   OH2 6602   5.706   1.210   2.997
 2213TIP3    H1 6603   5.795   1.240   2.981
 2213TIP3    H2 6604   5.653   1.251   2.928
 2214TIP3   OH2 6605   3.008   1.498   2.032
 2214TIP3    H1 6606   3.032   1.589   2.049
 2214TIP3    H2 6607   2.939   1.504   1.966
 2215TIP3   OH2 6608   1.194   2.873   4.261
 2215TIP3    H1 6609   1.176   2.803   4.198
 2215TIP3    H2 6610   1.210   2.828   4.344
 2216TIP3   OH2 6611   6.688   2.224   3.422
 2216TIP3    H1 6612   6.725   2.165   3.357
 2216TIP3    H2 6613   6.633   2.284   3.372
 2217TIP3   OH2 6614   5.031   1.448   4.635
 2217TIP3    H1 6615   5.041   1.510   4.707
 2217TIP3    H2 6616   4.985   1.374   4.673
 2218TIP3   OH2 6617   4.709   1.287   4.425
 2218TIP3    H1 6618   4.664   1.203   4.418
 2218TIP3    H2 6619   4.739   1.291   4.516
 2219TIP3   OH2 6620   2.019   0.944   4.470
 2219TIP3    H1 6621   2.083   0.973   4.535
 2219TIP3    H2 6622   1.935   0.974   4.503
 2220TIP3   OH2 6623   0.333   5.929   5.595
 2220TIP3    H1 6624   0.262   5.932   5.659
 2220TIP3    H2 6625   0.411   5.952   5.645
 2221TIP3   OH2 6626   4.418   4.459   2.210
 2221TIP3    H1 6627   4.391   4.471   2.119
 2221TIP3    H2 6628   4.356   4.395   2.245
 2222TIP3   OH2 6629   2.976   0.377   5.120
 2222TIP3    H1 6630   3.022   0.338   5.194
 2222TIP3    H2 6631   3.011   0.331   5.044
 2223TIP3   OH2 6632   5.297   5.595   3.588
 2223TIP3    H1 6633   5.345   5.598   3.505
 2223TIP3    H2 6634   5.365   5.581   3.654
 2224TIP3   OH2 6635   3.196   1.802   1.831
 2224TIP3    H1 6636   3.148   1.870   1.785
 2224TIP3    H2 6637   3.158   1.801   1.919
 2225TIP3   OH2 6638   6.505   4.499   4.556
 2225TIP3    H1 6639   6.599   4.492   4.570
 2225TIP3    H2 6640   6.487   4.593   4.552
 2226TIP3   OH2 6641   6.449   4.671   0.707
 2226TIP3    H1 6642   6.386   4.633   0.768
 2226TIP3    H2 6643   6.398   4.732   0.655
 2227TIP3   OH2 6644   3.424   6.698   5.164
 2227TIP3    H1 6645   3.376   6.737   5.090
 2227TIP3    H2 6646   3.508   6.746   5.165
 2228TIP3   OH2 6647   5.867   6.058   2.896
 2228TIP3    H1 6648   5.775   6.045   2.919
 2228TIP3    H2 6649   5.872   6.150   2.869
 2229TIP3   OH2 6650   4.539   6.277   3.044
 2229TIP3    H1 6651   4.555   6.324   2.962
 2229TIP3    H2 6652   4.507   6.343   3.104
 2230TIP3   OH2 6653   2.088   5.715   3.165
 2230TIP3    H1 6654   2.080   5.808   3.184
 2230TIP3    H2 6655   2.174   5.706   3.125
 2231TIP3   OH2 6656   3.460   4.298   3.266
 2231TIP3    H1 6657   3.537   4.262   3.223
 2231TIP3    H2 6658   3.430   4.228   3.325
 2232TIP3   OH2 6659   1.759   0.147   3.964
 2232TIP3    H1 6660   1.805   0.225   3.933
 2232TIP3    H2 6661   1.668   0.161   3.937
 2233TIP3   OH2 6662   4.039   5.925   4.862
 2233TIP3    H1 6663   4.047   5.998   4.801
 2233TIP3    H2 6664   3.952   5.936   4.901
 2234TIP3   OH2 6665   5.811   1.822   1.308
 2234TIP3    H1 6666   5.852   1.906   1.331
 2234TIP3    H2 6667   5.732   1.846   1.260
 2235TIP3   OH2 6668   1.815   2.606   2.272
 2235TIP3    H1 6669   1.749   2.626   2.338
 2235TIP3    H2 6670   1.851   2.521   2.299
 2236TIP3   OH2 6671   4.974   0.815   3.558
 2236TIP3    H1 6672   5.013   0.863   3.485
 2236TIP3    H2 6673   4.965   0.881   3.627
 2237TIP3   OH2 6674   2.678   2.201   3.962
 2237TIP3    H1 6675   2.710   2.276   3.914
 2237TIP3    H2 6676   2.691   2.224   4.054
 2238TIP3   OH2 6677   5.509   0.139   1.136
 2238TIP3    H1 6678   5.529   0.231   1.120
 2238TIP3    H2 6679   5.502   0.101   1.048
 2239TIP3   OH2 6680   0.854   2.040   5.531
 2239TIP3    H1 6681   0.925   2.103   5.545
 2239TIP3    H2 6682   0.857   1.984   5.609
 2240TIP3   OH2 6683   6.164   4.769   3.006
 2240TIP3    H1 6684   6.152   4.683   2.966
 2240TIP3    H2 6685   6.123   4.760   3.093
 2241TIP3   OH2 6686   5.696   1.796   5.529
 2241TIP3    H1 6687   5.736   1.798   5.617
 2241TIP3    H2 6688   5.710   1.885   5.496
 2242TIP3   OH2 6689   1.979   2.975   0.075
 2242TIP3    H1 6690   2.053   2.916   0.058
 2242TIP3    H2 6691   2.016   3.044   0.130
 2243TIP3   OH2 6692   5.244   5.822   4.172
 2243TIP3    H1 6693   5.207   5.812   4.084
 2243TIP3    H2 6694   5.338   5.836   4.157
 2244TIP3   OH2 6695   4.276   3.494   2.945
 2244TIP3    H1 6696   4.225   3.549   3.004
 2244TIP3    H2 6697   4.365   3.529   2.951
 2245TIP3   OH2 6698   3.956   6.508   0.925
 2245TIP3    H1 6699   3.897   6.526   0.998
 2245TIP3    H2 6700   4.016   6.582   0.922
 2246TIP3   OH2 6701   2.440   6.638   1.370
 2246TIP3    H1 6702   2.411   6.659   1.281
 2246TIP3    H2 6703   2.505   6.569   1.358
 2247TIP3   OH2 6704   2.343   3.350   4.246
 2247TIP3    H1 6705   2.402   3.304   4.186
 2247TIP3    H2 6706   2.349   3.442   4.220
 2248TIP3   OH2 6707   4.764   2.859   5.497
 2248TIP3    H1 6708   4.796   2.872   5.407
 2248TIP3    H2 6709   4.715   2.938   5.516
 2249TIP3   OH2 6710   2.600   4.996   0.072
 2249TIP3    H1 6711   2.694   5.002   0.056
 2249TIP3    H2 6712   2.578   4.904   0.053
 2250TIP3   OH2 6713   4.413   2.105   2.730
 2250TIP3    H1 6714   4.336   2.150   2.696
 2250TIP3    H2 6715   4.399   2.013   2.707
 2251TIP3   OH2 6716   2.603   0.368   3.153
 2251TIP3    H1 6717   2.657   0.440   3.121
 2251TIP3    H2 6718   2.593   0.309   3.078
 2252TIP3   OH2 6719   6.456   1.222   4.990
 2252TIP3    H1 6720   6.397   1.155   4.957
 2252TIP3    H2 6721   6.425   1.240   5.079
 2253TIP3   OH2 6722   3.616   1.911   2.186
 2253TIP3    H1 6723   3.643   1.934   2.097
 2253TIP3    H2 6724   3.697   1.900   2.235
 2254TIP3   OH2 6725   2.075   1.555   2.769
 2254TIP3    H1 6726   2.126   1.515   2.699
 2254TIP3    H2 6727   2.044   1.637   2.732
 2255TIP3   OH2 6728   5.758   0.755   3.546
 2255TIP3    H1 6729   5.692   0.772   3.478
 2255TIP3    H2 6730   5.784   0.842   3.575
 2256TIP3   OH2 6731   4.103   4.025   3.329
 2256TIP3    H1 6732   4.150   3.941   3.326
 2256TIP3    H2 6733   4.055   4.028   3.247
 2257TIP3   OH2 6734   0.595   4.348   1.125
 2257TIP3    H1 6735   0.683   4.381   1.143
 2257TIP3    H2 6736   0.602   4.253   1.134
 2258TIP3   OH2 6737   6.895   3.337   1.666
 2258TIP3    H1 6738   6.963   3.281   1.704
 2258TIP3    H2 6739   6.931   3.365   1.582
 2259TIP3   OH2 6740   3.289   4.141   1.844
 2259TIP3    H1 6741   3.219   4.112   1.902
 2259TIP3    H2 6742   3.267   4.232   1.824
 2260TIP3   OH2 6743   4.889   2.545   4.875
 2260TIP3    H1 6744   4.814   2.602   4.891
 2260TIP3    H2 6745   4.892   2.486   4.950
 2261TIP3   OH2 6746   0.848   4.961   3.024
 2261TIP3    H1 6747   0.922   4.906   3.049
 2261TIP3    H2 6748   0.811   4.917   2.947
 2262TIP3   OH2 6749   6.185   3.868   5.190
 2262TIP3    H1 6750   6.218   3.914   5.113
 2262TIP3    H2 6751   6.249   3.886   5.259
 2263TIP3   OH2 6752   1.773   3.028   1.608
 2263TIP3    H1 6753   1.830   2.957   1.580
 2263TIP3    H2 6754   1.709   2.986   1.666
 2264TIP3   OH2 6755   0.917   3.529   0.217
 2264TIP3    H1 6756   0.906   3.590   0.145
 2264TIP3    H2 6757   0.990   3.474   0.192
 2265TIP3   OH2 6758   5.455   1.939   3.959
 2265TIP3    H1 6759   5.530   1.999   3.968
 2265TIP3    H2 6760   5.393   1.985   3.903
 2266TIP3   OH2 6761   3.050   4.287   2.263
 2266TIP3    H1 6762   2.975   4.295   2.204
 2266TIP3    H2 6763   3.018   4.320   2.347
 2267TIP3   OH2 6764   5.573   3.346   1.273
 2267TIP3    H1 6765   5.595   3.284   1.343
 2267TIP3    H2 6766   5.657   3.370   1.235
 2268TIP3   OH2 6767   2.118   5.656   2.134
 2268TIP3    H1 6768   2.033   5.631   2.099
 2268TIP3    H2 6769   2.135   5.592   2.203
 2269TIP3   OH2 6770   2.800   0.783   4.693
 2269TIP3    H1 6771   2.758   0.862   4.728
 2269TIP3    H2 6772   2.728   0.723   4.676
 2270TIP3   OH2 6773   3.284   3.437   5.385
 2270TIP3    H1 6774   3.248   3.393   5.308
 2270TIP3    H2 6775   3.208   3.459   5.438
 2271TIP3   OH2 6776   5.728   4.845   5.327
 2271TIP3    H1 6777   5.680   4.876   5.403
 2271TIP3    H2 6778   5.664   4.850   5.255
 2272TIP3   OH2 6779   2.245   2.836   0.288
 2272TIP3    H1 6780   2.236   2.819   0.194
 2272TIP3    H2 6781   2.187   2.911   0.304
 2273TIP3   OH2 6782   5.088   6.373   0.515
 2273TIP3    H1 6783   5.106   6.324   0.435
 2273TIP3    H2 6784   5.090   6.307   0.585
 2274TIP3   OH2 6785   0.753   2.785   1.952
 2274TIP3    H1 6786   0.707   2.714   1.906
 2274TIP3    H2 6787   0.741   2.861   1.896
 2275TIP3   OH2 6788   3.430   4.477   5.515
 2275TIP3    H1 6789   3.352   4.491   5.568
 2275TIP3    H2 6790   3.416   4.532   5.437
 2276TIP3   OH2 6791   4.416   5.817   3.121
 2276TIP3    H1 6792   4.501   5.824   3.077
 2276TIP3    H2 6793   4.382   5.731   3.094
 2277TIP3   OH2 6794   2.920   5.865   5.548
 2277TIP3    H1 6795   2.881   5.916   5.477
 2277TIP3    H2 6796   3.010   5.851   5.521
 2278TIP3   OH2 6797   6.336   1.626   3.266
 2278TIP3    H1 6798   6.407   1.689   3.256
 2278TIP3    H2 6799   6.331   1.610   3.360
 2279TIP3   OH2 6800   1.803   6.226   2.723
 2279TIP3    H1 6801   1.894   6.251   2.740
 2279TIP3    H2 6802   1.754   6.309   2.729
 2280TIP3   OH2 6803   3.800   6.028   0.492
 2280TIP3    H1 6804   3.891   5.999   0.485
 2280TIP3    H2 6805   3.749   5.954   0.457
 2281TIP3   OH2 6806   1.317   0.819   1.206
 2281TIP3    H1 6807   1.370   0.898   1.191
 2281TIP3    H2 6808   1.343   0.759   1.136
 2282TIP3   OH2 6809   5.549   6.664   3.643
 2282TIP3    H1 6810   5.533   6.731   3.577
 2282TIP3    H2 6811   5.608   6.602   3.601
 2283TIP3   OH2 6812   2.739   2.243   0.220
 2283TIP3    H1 6813   2.804   2.259   0.152
 2283TIP3    H2 6814   2.683   2.321   0.220
 2284TIP3   OH2 6815   2.403   5.463   0.550
 2284TIP3    H1 6816   2.342   5.391   0.535
 2284TIP3    H2 6817   2.400   5.514   0.470
 2285TIP3   OH2 6818   0.717   4.263   5.357
 2285TIP3    H1 6819   0.752   4.317   5.287
 2285TIP3    H2 6820   0.786   4.198   5.374
 2286TIP3   OH2 6821   6.577   3.712   1.584
 2286TIP3    H1 6822   6.534   3.761   1.653
 2286TIP3    H2 6823   6.525   3.731   1.505
 2287TIP3   OH2 6824   4.577   5.094   2.731
 2287TIP3    H1 6825   4.584   5.131   2.818
 2287TIP3    H2 6826   4.510   5.026   2.740
 2288TIP3   OH2 6827   2.517   6.706   4.349
 2288TIP3    H1 6828   2.513   6.648   4.425
 2288TIP3    H2 6829   2.549   6.651   4.278
 2289TIP3   OH2 6830   0.307   4.698   1.355
 2289TIP3    H1 6831   0.278   4.632   1.418
 2289TIP3    H2 6832   0.398   4.673   1.336
 2290TIP3   OH2 6833   0.227   1.191   0.522
 2290TIP3    H1 6834   0.256   1.100   0.525
 2290TIP3    H2 6835   0.232   1.215   0.430
 2291TIP3   OH2 6836   2.734   2.164   2.756
 2291TIP3    H1 6837   2.693   2.237   2.711
 2291TIP3    H2 6838   2.782   2.117   2.688
 2292TIP3   OH2 6839   2.788   1.518   2.916
 2292TIP3    H1 6840   2.706   1.470   2.927
 2292TIP3    H2 6841   2.765   1.595   2.865
 2293TIP3   OH2 6842   1.386   3.920   1.181
 2293TIP3    H1 6843   1.457   3.984   1.178
 2293TIP3    H2 6844   1.314   3.967   1.222
 2294TIP3   OH2 6845   5.057   1.861   0.314
 2294TIP3    H1 6846   5.107   1.857   0.232
 2294TIP3    H2 6847   5.123   1.880   0.381
 2295TIP3   OH2 6848   6.768   0.964   1.028
 2295TIP3    H1 6849   6.742   0.885   1.074
 2295TIP3    H2 6850   6.693   0.985   0.972
 2296TIP3   OH2 6851   6.666   6.224   1.516
 2296TIP3    H1 6852   6.584   6.272   1.521
 2296TIP3    H2 6853   6.679   6.190   1.604
 2297TIP3   OH2 6854   0.036   1.056   1.096
 2297TIP3    H1 6855   0.085   0.977   1.115
 2297TIP3    H2 6856  -0.044   1.026   1.053
 2298TIP3   OH2 6857   5.678   0.992   3.870
 2298TIP3    H1 6858   5.588   0.975   3.844
 2298TIP3    H2 6859   5.685   0.955   3.958
 2299TIP3   OH2 6860   6.971   6.229   4.168
 2299TIP3    H1 6861   6.940   6.220   4.078
 2299TIP3    H2 6862   6.971   6.324   4.183
 2300TIP3   OH2 6863   1.348   1.829   5.709
 2300TIP3    H1 6864   1.353   1.906   5.652
 2300TIP3    H2 6865   1.288   1.855   5.779
 2301TIP3   OH2 6866   1.728   2.472   3.355
 2301TIP3    H1 6867   1.815   2.441   3.332
 2301TIP3    H2 6868   1.741   2.530   3.430
 2302TIP3   OH2 6869   3.650   0.165   3.850
 2302TIP3    H1 6870   3.679   0.112   3.776
 2302TIP3    H2 6871   3.627   0.249   3.812
 2303TIP3   OH2 6872   5.024   3.442   2.199
 2303TIP3    H1 6873   5.015   3.376   2.268
 2303TIP3    H2 6874   4.938   3.447   2.158
 2304TIP3   OH2 6875   6.156   2.926   4.725
 2304TIP3    H1 6876   6.161   2.997   4.789
 2304TIP3    H2 6877   6.246   2.911   4.698
 2305TIP3   OH2 6878   3.861   4.441   4.180
 2305TIP3    H1 6879   3.902   4.383   4.244
 2305TIP3    H2 6880   3.826   4.513   4.232
 2306TIP3   OH2 6881   5.882   3.744   1.774
 2306TIP3    H1 6882   5.930   3.662   1.766
 2306TIP3    H2 6883   5.790   3.717   1.782
 2307TIP3   OH2 6884   7.136   4.453   5.419
 2307TIP3    H1 6885   7.179   4.368   5.427
 2307TIP3    H2 6886   7.116   4.478   5.509
 2308TIP3   OH2 6887   1.917   5.770   5.762
 2308TIP3    H1 6888   2.000   5.723   5.753
 2308TIP3    H2 6889   1.866   5.742   5.686
 2309TIP3   OH2 6890   4.754   4.837   3.206
 2309TIP3    H1 6891   4.727   4.856   3.116
 2309TIP3    H2 6892   4.672   4.820   3.253
 2310TIP3   OH2 6893   1.974   2.430   2.419
 2310TIP3    H1 6894   2.044   2.372   2.390
 2310TIP3    H2 6895   1.940   2.389   2.499
 2311TIP3   OH2 6896   4.378   0.664   1.203
 2311TIP3    H1 6897   4.371   0.696   1.113
 2311TIP3    H2 6898   4.416   0.576   1.194
 2312TIP3   OH2 6899   7.160   6.301   1.140
 2312TIP3    H1 6900   7.214   6.263   1.072
 2312TIP3    H2 6901   7.093   6.235   1.158
 2313TIP3   OH2 6902   0.761   1.637   2.465
 2313TIP3    H1 6903   0.756   1.647   2.560
 2313TIP3    H2 6904   0.826   1.567   2.451
 2314TIP3   OH2 6905   5.131   0.540   4.008
 2314TIP3    H1 6906   5.064   0.597   3.971
 2314TIP3    H2 6907   5.094   0.512   4.092
 2315TIP3   OH2 6908   6.491   1.083   3.132
 2315TIP3    H1 6909   6.474   1.100   3.040
 2315TIP3    H2 6910   6.419   1.027   3.160
 2316TIP3   OH2 6911   1.238   2.847   1.312
 2316TIP3    H1 6912   1.199   2.830   1.398
 2316TIP3    H2 6913   1.326   2.809   1.318
 2317TIP3   OH2 6914   5.373   5.789   5.571
 2317TIP3    H1 6915   5.292   5.838   5.560
 2317TIP3    H2 6916   5.435   5.853   5.608
 2318TIP3   OH2 6917   3.497   4.147   2.420
 2318TIP3    H1 6918   3.556   4.118   2.351
 2318TIP3    H2 6919   3.540   4.224   2.458
 2319TIP3   OH2 6920   2.807   0.585   0.284
 2319TIP3    H1 6921   2.897   0.554   0.289
 2319TIP3    H2 6922   2.754   0.505   0.280
 2320TIP3   OH2 6923   2.198   6.045   3.621
 2320TIP3    H1 6924   2.137   5.985   3.579
 2320TIP3    H2 6925   2.247   5.991   3.683
 2321TIP3   OH2 6926   1.595   4.788   1.223
 2321TIP3    H1 6927   1.664   4.822   1.280
 2321TIP3    H2 6928   1.591   4.852   1.151
 2322TIP3   OH2 6929   2.194   5.767   2.481
 2322TIP3    H1 6930   2.262   5.765   2.414
 2322TIP3    H2 6931   2.140   5.691   2.464
 2323TIP3   OH2 6932   5.824   4.631   5.519
 2323TIP3    H1 6933   5.734   4.629   5.488
 2323TIP3    H2 6934   5.846   4.539   5.536
 2324TIP3   OH2 6935   2.477   4.436   0.392
 2324TIP3    H1 6936   2.523   4.515   0.419
 2324TIP3    H2 6937   2.509   4.368   0.451
 2325TIP3   OH2 6938   3.426   3.065   1.555
 2325TIP3    H1 6939   3.511   3.032   1.584
 2325TIP3    H2 6940   3.429   3.057   1.459
 2326TIP3   OH2 6941   1.634   2.718   4.631
 2326TIP3    H1 6942   1.685   2.735   4.711
 2326TIP3    H2 6943   1.683   2.649   4.586
 2327TIP3   OH2 6944   1.004   5.087   4.708
 2327TIP3    H1 6945   0.996   5.134   4.626
 2327TIP3    H2 6946   1.031   4.999   4.683
 2328TIP3   OH2 6947   4.697   6.444   1.457
 2328TIP3    H1 6948   4.728   6.367   1.504
 2328TIP3    H2 6949   4.622   6.413   1.407
 2329TIP3   OH2 6950   1.800   5.169   0.143
 2329TIP3    H1 6951   1.778   5.203   0.230
 2329TIP3    H2 6952   1.716   5.155   0.101
 2330TIP3   OH2 6953   0.446   4.416   4.572
 2330TIP3    H1 6954   0.494   4.446   4.495
 2330TIP3    H2 6955   0.475   4.325   4.584
 2331TIP3   OH2 6956   5.644   2.094   5.503
 2331TIP3    H1 6957   5.638   2.098   5.407
 2331TIP3    H2 6958   5.717   2.153   5.524
 2332TIP3   OH2 6959   2.003   6.619   2.164
 2332TIP3    H1 6960   1.924   6.575   2.197
 2332TIP3    H2 6961   1.970   6.700   2.126
 2333TIP3   OH2 6962   1.687   6.807   2.255
 2333TIP3    H1 6963   1.761   6.830   2.311
 2333TIP3    H2 6964   1.674   6.713   2.271
 2334TIP3   OH2 6965   5.159   6.163   1.188
 2334TIP3    H1 6966   5.226   6.200   1.247
 2334TIP3    H2 6967   5.161   6.220   1.112
 2335TIP3   OH2 6968   5.152   3.342   0.838
 2335TIP3    H1 6969   5.232   3.384   0.807
 2335TIP3    H2 6970   5.084   3.408   0.826
 2336TIP3   OH2 6971   0.577   1.886   2.756
 2336TIP3    H1 6972   0.586   1.913   2.847
 2336TIP3    H2 6973   0.644   1.818   2.744
 2337TIP3   OH2 6974   0.012   6.370   0.295
 2337TIP3    H1 6975   0.016   6.336   0.206
 2337TIP3    H2 6976   0.062   6.452   0.292
 2338TIP3   OH2 6977   2.808   2.026   0.891
 2338TIP3    H1 6978   2.893   2.069   0.893
 2338TIP3    H2 6979   2.749   2.084   0.939
 2339TIP3   OH2 6980   6.373   2.289   0.210
 2339TIP3    H1 6981   6.309   2.347   0.169
 2339TIP3    H2 6982   6.402   2.336   0.288
 2340TIP3   OH2 6983   2.929   5.646   2.140
 2340TIP3    H1 6984   2.943   5.599   2.058
 2340TIP3    H2 6985   2.973   5.592   2.206
 2341TIP3   OH2 6986   0.446   5.973   4.276
 2341TIP3    H1 6987   0.474   5.891   4.235
 2341TIP3    H2 6988   0.528   6.017   4.300
 2342TIP3   OH2 6989   3.196   4.824   1.934
 2342TIP3    H1 6990   3.124   4.762   1.929
 2342TIP3    H2 6991   3.219   4.842   1.843
 2343TIP3   OH2 6992   4.297   4.629   1.467
 2343TIP3    H1 6993   4.278   4.663   1.380
 2343TIP3    H2 6994   4.239   4.677   1.526
 2344TIP3   OH2 6995   0.874   2.704   0.290
 2344TIP3    H1 6996   0.806   2.638   0.304
 2344TIP3    H2 6997   0.827   2.783   0.263
 2345TIP3   OH2 6998   6.549   5.091   5.568
 2345TIP3    H1 6999   6.556   5.002   5.532
 2345TIP3    H2 7000   6.464   5.092   5.614
 2346TIP3   OH2 7001   0.402   3.305   5.749
 2346TIP3    H1 7002   0.337   3.237   5.733
 2346TIP3    H2 7003   0.441   3.280   5.833
 2347TIP3   OH2 7004   1.581   2.804   4.068
 2347TIP3    H1 7005   1.533   2.736   4.114
 2347TIP3    H2 7006   1.523   2.880   4.071
 2348TIP3   OH2 7007   6.153   5.551   3.054
 2348TIP3    H1 7008   6.215   5.580   3.121
 2348TIP3    H2 7009   6.143   5.627   2.997
 2349TIP3   OH2 7010   0.310   5.973   4.505
 2349TIP3    H1 7011   0.357   5.978   4.422
 2349TIP3    H2 7012   0.221   5.947   4.482
 2350TIP3   OH2 7013   4.414   2.815   5.526
 2350TIP3    H1 7014   4.475   2.887   5.543
 2350TIP3    H2 7015   4.469   2.737   5.522
 2351TIP3   OH2 7016   3.499   1.959   4.553
 2351TIP3    H1 7017   3.456   1.988   4.472
 2351TIP3    H2 7018   3.431   1.968   4.620
 2352TIP3   OH2 7019   0.059   6.132   4.518
 2352TIP3    H1 7020   0.038   6.070   4.588
 2352TIP3    H2 7021   0.133   6.092   4.472
 2353TIP3   OH2 7022   1.346   4.306   3.244
 2353TIP3    H1 7023   1.294   4.383   3.221
 2353TIP3    H2 7024   1.307   4.274   3.325
 2354TIP3   OH2 7025   6.296   3.629   3.238
 2354TIP3    H1 7026   6.302   3.536   3.257
 2354TIP3    H2 7027   6.349   3.642   3.159
 2355TIP3   OH2 7028   2.732   0.626   4.285
 2355TIP3    H1 7029   2.748   0.703   4.231
 2355TIP3    H2 7030   2.642   0.637   4.317
 2356TIP3   OH2 7031   5.687   2.055   4.189
 2356TIP3    H1 7032   5.611   2.105   4.221
 2356TIP3    H2 7033   5.737   2.119   4.139
 2357TIP3   OH2 7034   4.369   3.147   0.969
 2357TIP3    H1 7035   4.375   3.168   0.876
 2357TIP3    H2 7036   4.454   3.107   0.990
 2358TIP3   OH2 7037   4.752   5.003   0.177
 2358TIP3    H1 7038   4.766   4.923   0.127
 2358TIP3    H2 7039   4.826   5.007   0.237
 2359TIP3   OH2 7040   3.984   0.238   3.732
 2359TIP3    H1 7041   3.941   0.180   3.795
 2359TIP3    H2 7042   4.031   0.179   3.673
 2360TIP3   OH2 7043   0.691   3.556   0.886
 2360TIP3    H1 7044   0.753   3.522   0.951
 2360TIP3    H2 7045   0.710   3.507   0.807
 2361TIP3   OH2 7046   3.639   2.079   1.961
 2361TIP3    H1 7047   3.716   2.098   1.908
 2361TIP3    H2 7048   3.629   2.154   2.019
 2362TIP3   OH2 7049   2.070   1.729   0.782
 2362TIP3    H1 7050   2.085   1.709   0.690
 2362TIP3    H2 7051   2.074   1.644   0.826
 2363TIP3   OH2 7052   6.732   3.442   2.530
 2363TIP3    H1 7053   6.689   3.368   2.572
 2363TIP3    H2 7054   6.713   3.431   2.437
 2364TIP3   OH2 7055   1.589   5.303   5.758
 2364TIP3    H1 7056   1.500   5.339   5.763
 2364TIP3    H2 7057   1.603   5.288   5.665
 2365TIP3   OH2 7058   2.844   2.959   1.543
 2365TIP3    H1 7059   2.772   2.939   1.604
 2365TIP3    H2 7060   2.918   2.908   1.576
 2366TIP3   OH2 7061   5.428   2.517   3.100
 2366TIP3    H1 7062   5.452   2.582   3.034
 2366TIP3    H2 7063   5.397   2.569   3.174
 2367TIP3   OH2 7064   7.175   0.042   0.845
 2367TIP3    H1 7065   7.266   0.020   0.865
 2367TIP3    H2 7066   7.138  -0.039   0.810
 2368TIP3   OH2 7067   1.948   4.694   2.033
 2368TIP3    H1 7068   1.910   4.607   2.018
 2368TIP3    H2 7069   2.026   4.696   1.977
 2369TIP3   OH2 7070   6.982   5.375   3.493
 2369TIP3    H1 7071   6.915   5.439   3.469
 2369TIP3    H2 7072   7.023   5.351   3.410
 2370TIP3   OH2 7073   3.839   4.955   5.816
 2370TIP3    H1 7074   3.796   5.038   5.798
 2370TIP3    H2 7075   3.931   4.970   5.793
 2371TIP3   OH2 7076   3.723   3.353   1.258
 2371TIP3    H1 7077   3.765   3.377   1.175
 2371TIP3    H2 7078   3.759   3.415   1.321
 2372TIP3   OH2 7079   0.473   3.843   2.877
 2372TIP3    H1 7080   0.526   3.890   2.941
 2372TIP3    H2 7081   0.482   3.751   2.901
 2373TIP3   OH2 7082   6.831   0.467   5.138
 2373TIP3    H1 7083   6.852   0.547   5.091
 2373TIP3    H2 7084   6.858   0.484   5.228
 2374TIP3   OH2 7085   1.679   3.670   0.640
 2374TIP3    H1 7086   1.688   3.589   0.690
 2374TIP3    H2 7087   1.766   3.685   0.602
 2375TIP3   OH2 7088   1.347   3.183   0.842
 2375TIP3    H1 7089   1.331   3.274   0.865
 2375TIP3    H2 7090   1.372   3.186   0.749
 2376TIP3   OH2 7091   3.728   3.334   3.307
 2376TIP3    H1 7092   3.763   3.246   3.317
 2376TIP3    H2 7093   3.644   3.321   3.263
 2377TIP3   OH2 7094   5.544   0.506   2.964
 2377TIP3    H1 7095   5.623   0.508   2.910
 2377TIP3    H2 7096   5.567   0.451   3.039
 2378TIP3   OH2 7097   4.868   6.657   4.087
 2378TIP3    H1 7098   4.885   6.614   4.171
 2378TIP3    H2 7099   4.889   6.749   4.104
 2379TIP3   OH2 7100   2.559   5.071   2.194
 2379TIP3    H1 7101   2.555   5.165   2.212
 2379TIP3    H2 7102   2.584   5.032   2.278
 2380TIP3   OH2 7103   4.301   0.783   0.440
 2380TIP3    H1 7104   4.312   0.822   0.527
 2380TIP3    H2 7105   4.379   0.728   0.428
 2381TIP3   OH2 7106   1.667   6.458   2.752
 2381TIP3    H1 7107   1.646   6.519   2.822
 2381TIP3    H2 7108   1.583   6.421   2.725
 2382TIP3   OH2 7109   4.340   0.581   5.748
 2382TIP3    H1 7110   4.348   0.652   5.811
 2382TIP3    H2 7111   4.251   0.587   5.715
 2383TIP3   OH2 7112   6.229   0.131   4.438
 2383TIP3    H1 7113   6.141   0.150   4.471
 2383TIP3    H2 7114   6.224   0.151   4.344
 2384TIP3   OH2 7115   6.945   0.529   3.154
 2384TIP3    H1 7116   6.973   0.504   3.066
 2384TIP3    H2 7117   6.944   0.447   3.203
 2385TIP3   OH2 7118   6.606   4.921   5.914
 2385TIP3    H1 7119   6.641   4.963   5.835
 2385TIP3    H2 7120   6.590   4.830   5.887
 2386TIP3   OH2 7121   1.749   5.326   0.740
 2386TIP3    H1 7122   1.740   5.376   0.659
 2386TIP3    H2 7123   1.670   5.346   0.791
 2387TIP3   OH2 7124   4.957   0.794   5.814
 2387TIP3    H1 7125   4.938   0.701   5.806
 2387TIP3    H2 7126   4.956   0.812   5.908
 2388TIP3   OH2 7127   4.028   1.673   0.634
 2388TIP3    H1 7128   4.123   1.685   0.635
 2388TIP3    H2 7129   4.013   1.599   0.574
 2389TIP3   OH2 7130   1.721   2.235   3.496
 2389TIP3    H1 7131   1.678   2.286   3.427
 2389TIP3    H2 7132   1.808   2.274   3.503
 2390TIP3   OH2 7133   5.380   4.486   2.054
 2390TIP3    H1 7134   5.472   4.481   2.079
 2390TIP3    H2 7135   5.373   4.428   1.978
 2391TIP3   OH2 7136   1.542   5.332   4.285
 2391TIP3    H1 7137   1.630   5.369   4.270
 2391TIP3    H2 7138   1.495   5.350   4.204
 2392TIP3   OH2 7139   6.839   4.009   5.543
 2392TIP3    H1 7140   6.891   4.059   5.480
 2392TIP3    H2 7141   6.882   4.024   5.627
 2393TIP3   OH2 7142   2.830   2.967   3.192
 2393TIP3    H1 7143   2.904   2.992   3.246
 2393TIP3    H2 7144   2.780   2.905   3.246
 2394TIP3   OH2 7145   5.577   0.642   3.763
 2394TIP3    H1 7146   5.648   0.689   3.719
 2394TIP3    H2 7147   5.555   0.571   3.704
 2395TIP3   OH2 7148   2.070   1.770   4.991
 2395TIP3    H1 7149   2.060   1.853   4.945
 2395TIP3    H2 7150   2.140   1.724   4.944
 2396TIP3   OH2 7151   2.662   0.323   4.544
 2396TIP3    H1 7152   2.579   0.284   4.571
 2396TIP3    H2 7153   2.726   0.288   4.606
 2397TIP3   OH2 7154   3.667   1.726   4.607
 2397TIP3    H1 7155   3.751   1.752   4.569
 2397TIP3    H2 7156   3.601   1.768   4.552
 2398TIP3   OH2 7157   5.249   6.636   1.507
 2398TIP3    H1 7158   5.307   6.626   1.431
 2398TIP3    H2 7159   5.161   6.642   1.470
 2399TIP3   OH2 7160   1.663   4.005   1.296
 2399TIP3    H1 7161   1.632   4.096   1.299
 2399TIP3    H2 7162   1.656   3.974   1.387
 2400TIP3   OH2 7163   1.387   4.514   1.675
 2400TIP3    H1 7164   1.437   4.593   1.656
 2400TIP3    H2 7165   1.360   4.481   1.590
 2401TIP3   OH2 7166   6.479   6.480   5.656
 2401TIP3    H1 7167   6.544   6.447   5.593
 2401TIP3    H2 7168   6.483   6.419   5.729
 2402TIP3   OH2 7169   2.224   4.955   1.688
 2402TIP3    H1 7170   2.253   5.027   1.745
 2402TIP3    H2 7171   2.277   4.964   1.609
 2403TIP3   OH2 7172   4.597   4.277   4.684
 2403TIP3    H1 7173   4.661   4.207   4.695
 2403TIP3    H2 7174   4.603   4.301   4.592
 2404TIP3   OH2 7175   4.030   2.362   1.844
 2404TIP3    H1 7176   4.040   2.428   1.775
 2404TIP3    H2 7177   4.088   2.290   1.818
 2405TIP3   OH2 7178   5.303   3.285   0.413
 2405TIP3    H1 7179   5.318   3.349   0.482
 2405TIP3    H2 7180   5.298   3.201   0.458
 2406TIP3   OH2 7181   2.891   6.567   2.878
 2406TIP3    H1 7182   2.853   6.653   2.897
 2406TIP3    H2 7183   2.841   6.506   2.931
 2407TIP3   OH2 7184   3.465   2.408   1.631
 2407TIP3    H1 7185   3.518   2.329   1.620
 2407TIP3    H2 7186   3.501   2.450   1.708
 2408TIP3   OH2 7187   5.844   6.731   0.166
 2408TIP3    H1 7188   5.771   6.685   0.206
 2408TIP3    H2 7189   5.903   6.661   0.136
 2409TIP3   OH2 7190   3.940   1.499   5.039
 2409TIP3    H1 7191   3.853   1.537   5.040
 2409TIP3    H2 7192   3.970   1.510   4.948
 2410TIP3   OH2 7193   1.895   2.554   1.088
 2410TIP3    H1 7194   1.947   2.560   1.008
 2410TIP3    H2 7195   1.865   2.644   1.103
 2411TIP3   OH2 7196   7.121   2.062   0.664
 2411TIP3    H1 7197   7.129   1.967   0.656
 2411TIP3    H2 7198   7.132   2.079   0.758
 2412TIP3   OH2 7199   2.342   5.684   4.585
 2412TIP3    H1 7200   2.422   5.736   4.579
 2412TIP3    H2 7201   2.300   5.715   4.666
 2413TIP3   OH2 7202   0.121   4.420   4.405
 2413TIP3    H1 7203   0.125   4.384   4.494
 2413TIP3    H2 7204   0.196   4.479   4.400
 2414TIP3   OH2 7205   3.579   2.739   5.043
 2414TIP3    H1 7206   3.542   2.757   5.129
 2414TIP3    H2 7207   3.525   2.669   5.007
 2415TIP3   OH2 7208   5.675   1.479   2.423
 2415TIP3    H1 7209   5.731   1.476   2.500
 2415TIP3    H2 7210   5.586   1.464   2.456
 2416TIP3   OH2 7211   2.446   6.565   1.649
 2416TIP3    H1 7212   2.369   6.614   1.676
 2416TIP3    H2 7213   2.445   6.571   1.553
 2417TIP3   OH2 7214   0.380   5.664   2.938
 2417TIP3    H1 7215   0.291   5.682   2.909
 2417TIP3    H2 7216   0.374   5.579   2.982
 2418TIP3   OH2 7217   6.685   0.714   5.426
 2418TIP3    H1 7218   6.754   0.658   5.392
 2418TIP3    H2 7219   6.731   0.785   5.470
 2419TIP3   OH2 7220   1.708   6.465   1.892
 2419TIP3    H1 7221   1.620   6.436   1.918
 2419TIP3    H2 7222   1.696   6.555   1.863
 2420TIP3   OH2 7223   5.973   4.601   0.867
 2420TIP3    H1 7224   5.958   4.616   0.961
 2420TIP3    H2 7225   5.887   4.579   0.832
 2421TIP3   OH2 7226   3.532   2.962   3.666
 2421TIP3    H1 7227   3.615   3.003   3.690
 2421TIP3    H2 7228   3.554   2.870   3.653
 2422TIP3   OH2 7229   2.770   5.531   4.866
 2422TIP3    H1 7230   2.786   5.621   4.838
 2422TIP3    H2 7231   2.856   5.499   4.893
 2423TIP3   OH2 7232   4.314   1.239   1.440
 2423TIP3    H1 7233   4.369   1.311   1.410
 2423TIP3    H2 7234   4.325   1.238   1.535
 2424TIP3   OH2 7235   1.591   2.848   2.630
 2424TIP3    H1 7236   1.564   2.939   2.619
 2424TIP3    H2 7237   1.516   2.805   2.670
 2425TIP3   OH2 7238   3.972   2.059   4.714
 2425TIP3    H1 7239   3.899   2.051   4.652
 2425TIP3    H2 7240   3.930   2.088   4.796
 2426TIP3   OH2 7241   1.725   3.951   0.352
 2426TIP3    H1 7242   1.768   3.983   0.431
 2426TIP3    H2 7243   1.653   4.012   0.337
 2427TIP3   OH2 7244   6.052   0.500   1.435
 2427TIP3    H1 7245   6.101   0.420   1.453
 2427TIP3    H2 7246   5.987   0.505   1.505
 2428TIP3   OH2 7247   4.955   5.833   1.601
 2428TIP3    H1 7248   4.896   5.829   1.526
 2428TIP3    H2 7249   5.042   5.817   1.566
 2429TIP3   OH2 7250   7.124   0.368   3.546
 2429TIP3    H1 7251   7.207   0.355   3.500
 2429TIP3    H2 7252   7.058   0.367   3.477
 2430TIP3   OH2 7253   6.093   0.852   4.984
 2430TIP3    H1 7254   6.033   0.877   4.915
 2430TIP3    H2 7255   6.157   0.794   4.942
 2431TIP3   OH2 7256   3.304   5.413   5.231
 2431TIP3    H1 7257   3.350   5.386   5.152
 2431TIP3    H2 7258   3.302   5.509   5.225
 2432TIP3   OH2 7259   3.413   5.948   2.527
 2432TIP3    H1 7260   3.496   5.971   2.569
 2432TIP3    H2 7261   3.434   5.944   2.434
 2433TIP3   OH2 7262   6.518   4.135   1.498
 2433TIP3    H1 7263   6.542   4.102   1.411
 2433TIP3    H2 7264   6.422   4.141   1.496
 2434TIP3   OH2 7265   3.877   2.449   2.982
 2434TIP3    H1 7266   3.945   2.470   3.045
 2434TIP3    H2 7267   3.811   2.402   3.033
 2435TIP3   OH2 7268   5.727   6.752   4.690
 2435TIP3    H1 7269   5.751   6.793   4.773
 2435TIP3    H2 7270   5.670   6.816   4.648
 2436TIP3   OH2 7271   0.575   1.431   0.506
 2436TIP3    H1 7272   0.482   1.434   0.526
 2436TIP3    H2 7273   0.608   1.356   0.556
 2437TIP3   OH2 7274   2.266   4.050   2.345
 2437TIP3    H1 7275   2.241   3.993   2.418
 2437TIP3    H2 7276   2.314   4.122   2.386
 2438TIP3   OH2 7277   6.347   0.877   5.170
 2438TIP3    H1 7278   6.367   0.964   5.203
 2438TIP3    H2 7279   6.252   0.871   5.172
 2439TIP3   OH2 7280   0.470   4.760   1.615
 2439TIP3    H1 7281   0.439   4.672   1.591
 2439TIP3    H2 7282   0.415   4.819   1.564
 2440TIP3   OH2 7283   1.648   4.620   3.989
 2440TIP3    H1 7284   1.660   4.693   3.929
 2440TIP3    H2 7285   1.634   4.662   4.074
 2441TIP3   OH2 7286   3.689   5.617   4.188
 2441TIP3    H1 7287   3.714   5.699   4.230
 2441TIP3    H2 7288   3.731   5.620   4.102
 2442TIP3   OH2 7289   5.237   5.157   0.082
 2442TIP3    H1 7290   5.293   5.208   0.024
 2442TIP3    H2 7291   5.213   5.080   0.030
 2443TIP3   OH2 7292   2.884   5.233   5.154
 2443TIP3    H1 7293   2.815   5.212   5.217
 2443TIP3    H2 7294   2.905   5.149   5.113
 2444TIP3   OH2 7295   5.457   5.430   0.202
 2444TIP3    H1 7296   5.502   5.479   0.133
 2444TIP3    H2 7297   5.370   5.470   0.207
 2445TIP3   OH2 7298   2.892   4.282   5.205
 2445TIP3    H1 7299   2.870   4.366   5.244
 2445TIP3    H2 7300   2.968   4.301   5.150
 2446TIP3   OH2 7301   4.098   2.035   5.451
 2446TIP3    H1 7302   4.105   1.940   5.441
 2446TIP3    H2 7303   4.016   2.058   5.407
 2447TIP3   OH2 7304   6.993   6.706   0.627
 2447TIP3    H1 7305   6.935   6.780   0.611
 2447TIP3    H2 7306   6.941   6.646   0.681
 2448TIP3   OH2 7307   5.289   3.375   2.744
 2448TIP3    H1 7308   5.320   3.379   2.653
 2448TIP3    H2 7309   5.257   3.464   2.762
 2449TIP3   OH2 7310   4.297   0.400   3.221
 2449TIP3    H1 7311   4.370   0.338   3.217
 2449TIP3    H2 7312   4.219   0.344   3.225
 2450TIP3   OH2 7313   6.341   1.873   3.023
 2450TIP3    H1 7314   6.249   1.846   3.025
 2450TIP3    H2 7315   6.338   1.968   3.011
 2451TIP3   OH2 7316   3.598   5.237   1.288
 2451TIP3    H1 7317   3.668   5.192   1.240
 2451TIP3    H2 7318   3.561   5.298   1.224
 2452TIP3   OH2 7319   2.948   5.834   2.830
 2452TIP3    H1 7320   3.036   5.797   2.839
 2452TIP3    H2 7321   2.947   5.908   2.891
 2453TIP3   OH2 7322   4.754   4.546   3.167
 2453TIP3    H1 7323   4.802   4.607   3.111
 2453TIP3    H2 7324   4.724   4.599   3.241
 2454TIP3   OH2 7325   1.370   3.537   3.286
 2454TIP3    H1 7326   1.404   3.595   3.354
 2454TIP3    H2 7327   1.346   3.457   3.333
 2455TIP3   OH2 7328   5.056   5.598   5.429
 2455TIP3    H1 7329   5.006   5.517   5.417
 2455TIP3    H2 7330   4.991   5.667   5.427
 2456TIP3   OH2 7331   6.910   6.616   4.823
 2456TIP3    H1 7332   6.838   6.569   4.865
 2456TIP3    H2 7333   6.931   6.686   4.884
 2457TIP3   OH2 7334   2.658   0.772   0.179
 2457TIP3    H1 7335   2.715   0.716   0.231
 2457TIP3    H2 7336   2.719   0.827   0.129
 2458TIP3   OH2 7337   0.983   2.690   5.142
 2458TIP3    H1 7338   0.956   2.598   5.138
 2458TIP3    H2 7339   1.066   2.688   5.189
 2459TIP3   OH2 7340   2.817   3.445   0.812
 2459TIP3    H1 7341   2.898   3.469   0.857
 2459TIP3    H2 7342   2.801   3.355   0.840
 2460TIP3   OH2 7343   6.926   5.220   1.908
 2460TIP3    H1 7344   6.892   5.155   1.970
 2460TIP3    H2 7345   6.967   5.167   1.839
 2461TIP3   OH2 7346   1.063   0.923   1.156
 2461TIP3    H1 7347   1.072   0.853   1.091
 2461TIP3    H2 7348   1.149   0.928   1.198
 2462TIP3   OH2 7349   1.662   0.781   4.574
 2462TIP3    H1 7350   1.694   0.711   4.632
 2462TIP3    H2 7351   1.577   0.748   4.543
 2463TIP3   OH2 7352   5.111   3.767   1.009
 2463TIP3    H1 7353   5.146   3.746   0.923
 2463TIP3    H2 7354   5.047   3.698   1.027
 2464TIP3   OH2 7355   0.315   2.661   5.387
 2464TIP3    H1 7356   0.357   2.603   5.450
 2464TIP3    H2 7357   0.229   2.622   5.373
 2465TIP3   OH2 7358   5.747   3.905   3.010
 2465TIP3    H1 7359   5.710   3.904   2.921
 2465TIP3    H2 7360   5.833   3.863   3.001
 2466TIP3   OH2 7361   2.420   0.555   3.976
 2466TIP3    H1 7362   2.425   0.536   3.882
 2466TIP3    H2 7363   2.510   0.570   4.003
 2467TIP3   OH2 7364   4.941   5.967   3.631
 2467TIP3    H1 7365   4.887   6.045   3.639
 2467TIP3    H2 7366   5.023   5.990   3.675
 2468TIP3   OH2 7367   5.781   5.108   3.149
 2468TIP3    H1 7368   5.826   5.192   3.159
 2468TIP3    H2 7369   5.761   5.081   3.238
 2469TIP3   OH2 7370   6.744   6.222   3.936
 2469TIP3    H1 7371   6.715   6.136   3.965
 2469TIP3    H2 7372   6.831   6.206   3.899
 2470TIP3   OH2 7373   3.856   4.710   4.964
 2470TIP3    H1 7374   3.919   4.740   4.899
 2470TIP3    H2 7375   3.896   4.633   5.003
 2471TIP3   OH2 7376   6.388   5.442   4.813
 2471TIP3    H1 7377   6.307   5.396   4.794
 2471TIP3    H2 7378   6.441   5.432   4.734
 2472TIP3   OH2 7379   0.868   1.639   4.242
 2472TIP3    H1 7380   0.894   1.565   4.296
 2472TIP3    H2 7381   0.820   1.600   4.169
 2473TIP3   OH2 7382   5.007   4.249   1.877
 2473TIP3    H1 7383   5.033   4.276   1.965
 2473TIP3    H2 7384   5.043   4.161   1.867
 2474TIP3   OH2 7385   6.105   0.772   0.960
 2474TIP3    H1 7386   6.020   0.804   0.931
 2474TIP3    H2 7387   6.085   0.698   1.017
 2475TIP3   OH2 7388   6.113   2.779   5.391
 2475TIP3    H1 7389   6.076   2.703   5.345
 2475TIP3    H2 7390   6.207   2.771   5.378
 2476TIP3   OH2 7391   0.849   4.515   2.433
 2476TIP3    H1 7392   0.866   4.423   2.453
 2476TIP3    H2 7393   0.927   4.561   2.462
 2477TIP3   OH2 7394   6.925   5.538   1.053
 2477TIP3    H1 7395   7.007   5.583   1.075
 2477TIP3    H2 7396   6.870   5.605   1.015
 2478TIP3   OH2 7397   1.772   0.360   5.018
 2478TIP3    H1 7398   1.766   0.451   5.049
 2478TIP3    H2 7399   1.856   0.357   4.972
 2479TIP3   OH2 7400   6.466   1.674   5.383
 2479TIP3    H1 7401   6.534   1.611   5.409
 2479TIP3    H2 7402   6.492   1.755   5.428
 2480TIP3   OH2 7403   5.303   2.738   1.281
 2480TIP3    H1 7404   5.276   2.761   1.370
 2480TIP3    H2 7405   5.390   2.775   1.271
 2481TIP3   OH2 7406   0.216   1.343   3.770
 2481TIP3    H1 7407   0.202   1.305   3.684
 2481TIP3    H2 7408   0.158   1.419   3.772
 2482TIP3   OH2 7409   3.551   4.266   5.662
 2482TIP3    H1 7410   3.455   4.256   5.659
 2482TIP3    H2 7411   3.579   4.249   5.572
 2483TIP3   OH2 7412   5.426   2.796   0.687
 2483TIP3    H1 7413   5.466   2.826   0.606
 2483TIP3    H2 7414   5.492   2.738   0.726
 2484TIP3   OH2 7415   1.423   0.988   2.515
 2484TIP3    H1 7416   1.462   1.067   2.552
 2484TIP3    H2 7417   1.424   1.002   2.420
 2485TIP3   OH2 7418   4.157   2.003   5.727
 2485TIP3    H1 7419   4.234   2.044   5.767
 2485TIP3    H2 7420   4.159   2.030   5.635
 2486TIP3   OH2 7421   5.325   4.222   5.000
 2486TIP3    H1 7422   5.386   4.174   5.056
 2486TIP3    H2 7423   5.381   4.278   4.946
 2487TIP3   OH2 7424   5.652   2.746   3.154
 2487TIP3    H1 7425   5.575   2.706   3.114
 2487TIP3    H2 7426   5.636   2.840   3.146
 2488TIP3   OH2 7427   0.330   0.327   5.007
 2488TIP3    H1 7428   0.403   0.350   4.950
 2488TIP3    H2 7429   0.327   0.232   5.006
 2489TIP3   OH2 7430   3.323   3.724   2.198
 2489TIP3    H1 7431   3.300   3.739   2.289
 2489TIP3    H2 7432   3.284   3.638   2.178
 2490TIP3   OH2 7433   3.701   0.206   0.746
 2490TIP3    H1 7434   3.735   0.158   0.671
 2490TIP3    H2 7435   3.704   0.298   0.720
 2491TIP3   OH2 7436   2.285   5.321   3.078
 2491TIP3    H1 7437   2.287   5.412   3.048
 2491TIP3    H2 7438   2.341   5.274   3.017
 2492TIP3   OH2 7439   1.036   2.407   0.514
 2492TIP3    H1 7440   1.051   2.389   0.421
 2492TIP3    H2 7441   1.117   2.380   0.557
 2493TIP3   OH2 7442   3.143   4.861   4.591
 2493TIP3    H1 7443   3.132   4.837   4.499
 2493TIP3    H2 7444   3.056   4.849   4.629
 2494TIP3   OH2 7445   5.596   2.683   1.346
 2494TIP3    H1 7446   5.653   2.690   1.423
 2494TIP3    H2 7447   5.519   2.635   1.378
 2495TIP3   OH2 7448   3.279   0.185   4.363
 2495TIP3    H1 7449   3.195   0.158   4.327
 2495TIP3    H2 7450   3.258   0.262   4.417
 2496TIP3   OH2 7451   2.628   2.926   3.672
 2496TIP3    H1 7452   2.595   2.999   3.620
 2496TIP3    H2 7453   2.721   2.920   3.648
 2497TIP3   OH2 7454   6.064   0.690   4.356
 2497TIP3    H1 7455   6.031   0.762   4.409
 2497TIP3    H2 7456   5.986   0.654   4.313
 2498TIP3   OH2 7457   3.451   3.349   2.093
 2498TIP3    H1 7458   3.363   3.386   2.083
 2498TIP3    H2 7459   3.497   3.374   2.013
 2499TIP3   OH2 7460   4.898   5.088   2.141
 2499TIP3    H1 7461   4.897   5.023   2.071
 2499TIP3    H2 7462   4.904   5.172   2.097
 2500TIP3   OH2 7463   1.723   0.345   5.526
 2500TIP3    H1 7464   1.761   0.431   5.512
 2500TIP3    H2 7465   1.759   0.291   5.456
 2501TIP3   OH2 7466   3.748   0.654   5.087
 2501TIP3    H1 7467   3.693   0.644   5.010
 2501TIP3    H2 7468   3.781   0.743   5.082
 2502TIP3   OH2 7469   4.124   6.694   2.700
 2502TIP3    H1 7470   4.212   6.723   2.725
 2502TIP3    H2 7471   4.067   6.766   2.725
 2503TIP3   OH2 7472   5.786   2.258   1.633
 2503TIP3    H1 7473   5.856   2.317   1.605
 2503TIP3    H2 7474   5.706   2.306   1.612
 2504TIP3   OH2 7475   0.615   1.300  -0.011
 2504TIP3    H1 7476   0.533   1.342   0.012
 2504TIP3    H2 7477   0.670   1.308   0.067
 2505TIP3   OH2 7478   6.445   1.319   4.097
 2505TIP3    H1 7479   6.439   1.232   4.057
 2505TIP3    H2 7480   6.419   1.305   4.188
 2506TIP3   OH2 7481   0.446   5.756   2.294
 2506TIP3    H1 7482   0.469   5.820   2.226
 2506TIP3    H2 7483   0.527   5.746   2.344
 2507TIP3   OH2 7484   3.369   4.286   5.306
 2507TIP3    H1 7485   3.284   4.248   5.329
 2507TIP3    H2 7486   3.394   4.336   5.384
 2508TIP3   OH2 7487   2.626   3.633   2.044
 2508TIP3    H1 7488   2.600   3.692   2.115
 2508TIP3    H2 7489   2.544   3.607   2.003
 2509TIP3   OH2 7490   6.455   0.301   3.024
 2509TIP3    H1 7491   6.550   0.296   3.028
 2509TIP3    H2 7492   6.430   0.340   3.108
 2510TIP3   OH2 7493   6.733   4.319   0.451
 2510TIP3    H1 7494   6.804   4.342   0.392
 2510TIP3    H2 7495   6.664   4.382   0.432
 2511TIP3   OH2 7496   6.726   5.875   2.165
 2511TIP3    H1 7497   6.786   5.852   2.236
 2511TIP3    H2 7498   6.647   5.824   2.183
 2512TIP3   OH2 7499   4.951   6.571   3.041
 2512TIP3    H1 7500   4.951   6.605   2.951
 2512TIP3    H2 7501   4.970   6.477   3.031
 2513TIP3   OH2 7502   5.043   3.644   4.637
 2513TIP3    H1 7503   5.060   3.682   4.552
 2513TIP3    H2 7504   4.998   3.562   4.618
 2514TIP3   OH2 7505   0.212   0.408   4.194
 2514TIP3    H1 7506   0.227   0.448   4.279
 2514TIP3    H2 7507   0.140   0.347   4.208
 2515TIP3   OH2 7508   0.824   6.724   4.885
 2515TIP3    H1 7509   0.835   6.771   4.803
 2515TIP3    H2 7510   0.898   6.664   4.889
 2516TIP3   OH2 7511   4.137   1.956   3.882
 2516TIP3    H1 7512   4.152   2.051   3.884
 2516TIP3    H2 7513   4.062   1.945   3.824
 2517TIP3   OH2 7514   5.319   5.523   2.282
 2517TIP3    H1 7515   5.273   5.441   2.300
 2517TIP3    H2 7516   5.398   5.497   2.235
 2518TIP3   OH2 7517   4.953   6.309   1.977
 2518TIP3    H1 7518   4.979   6.337   1.889
 2518TIP3    H2 7519   5.025   6.254   2.007
 2519TIP3   OH2 7520   4.436   3.174   3.843
 2519TIP3    H1 7521   4.507   3.215   3.892
 2519TIP3    H2 7522   4.473   3.159   3.756
 2520TIP3   OH2 7523   1.377   2.125   2.644
 2520TIP3    H1 7524   1.446   2.192   2.636
 2520TIP3    H2 7525   1.424   2.044   2.661
 2521TIP3   OH2 7526   1.001   5.465   0.092
 2521TIP3    H1 7527   0.957   5.386   0.061
 2521TIP3    H2 7528   0.936   5.534   0.082
 2522TIP3   OH2 7529   3.349   4.646   5.247
 2522TIP3    H1 7530   3.330   4.709   5.177
 2522TIP3    H2 7531   3.420   4.593   5.213
 2523TIP3   OH2 7532   3.578   6.139   1.384
 2523TIP3    H1 7533   3.565   6.217   1.438
 2523TIP3    H2 7534   3.638   6.167   1.315
 2524TIP3   OH2 7535   7.174   6.352   4.660
 2524TIP3    H1 7536   7.199   6.268   4.622
 2524TIP3    H2 7537   7.245   6.411   4.634
 2525TIP3   OH2 7538   4.483   1.687   2.204
 2525TIP3    H1 7539   4.427   1.762   2.221
 2525TIP3    H2 7540   4.428   1.626   2.155
 2526TIP3   OH2 7541   4.810   0.323   0.740
 2526TIP3    H1 7542   4.806   0.413   0.771
 2526TIP3    H2 7543   4.724   0.307   0.701
 2527TIP3   OH2 7544   0.053   1.852   5.741
 2527TIP3    H1 7545   0.098   1.883   5.663
 2527TIP3    H2 7546   0.111   1.875   5.813
 2528TIP3   OH2 7547  -0.007   1.577   5.675
 2528TIP3    H1 7548   0.021   1.655   5.723
 2528TIP3    H2 7549   0.057   1.568   5.604
 2529TIP3   OH2 7550   0.498   3.583   0.353
 2529TIP3    H1 7551   0.532   3.530   0.281
 2529TIP3    H2 7552   0.566   3.649   0.368
 2530TIP3   OH2 7553   4.952   4.180   2.986
 2530TIP3    H1 7554   4.930   4.114   3.052
 2530TIP3    H2 7555   4.891   4.164   2.914
 2531TIP3   OH2 7556   1.607   4.847   4.202
 2531TIP3    H1 7557   1.557   4.889   4.132
 2531TIP3    H2 7558   1.613   4.914   4.270
 2532TIP3   OH2 7559   4.320   2.911   2.966
 2532TIP3    H1 7560   4.239   2.877   2.928
 2532TIP3    H2 7561   4.295   2.941   3.053
 2533TIP3   OH2 7562   4.342   5.750   5.822
 2533TIP3    H1 7563   4.302   5.804   5.754
 2533TIP3    H2 7564   4.283   5.675   5.830
 2534TIP3   OH2 7565   7.008   2.262   1.417
 2534TIP3    H1 7566   7.012   2.258   1.513
 2534TIP3    H2 7567   6.919   2.233   1.396
 2535TIP3   OH2 7568   4.483   4.145   4.998
 2535TIP3    H1 7569   4.562   4.190   5.026
 2535TIP3    H2 7570   4.416   4.171   5.062
 2536TIP3   OH2 7571   3.875   0.420   0.306
 2536TIP3    H1 7572   3.962   0.456   0.323
 2536TIP3    H2 7573   3.864   0.427   0.211
 2537TIP3   OH2 7574   6.128   4.500   2.939
 2537TIP3    H1 7575   6.046   4.452   2.929
 2537TIP3    H2 7576   6.192   4.434   2.966
 2538TIP3   OH2 7577   5.510   4.386   1.198
 2538TIP3    H1 7578   5.486   4.478   1.194
 2538TIP3    H2 7579   5.487   4.359   1.288
 2539TIP3   OH2 7580   4.082   4.300   4.827
 2539TIP3    H1 7581   4.149   4.278   4.762
 2539TIP3    H2 7582   4.016   4.350   4.778
 2540TIP3   OH2 7583   0.317   0.181   4.556
 2540TIP3    H1 7584   0.374   0.175   4.480
 2540TIP3    H2 7585   0.374   0.209   4.628
 2541TIP3   OH2 7586   5.855   1.538   4.262
 2541TIP3    H1 7587   5.797   1.606   4.297
 2541TIP3    H2 7588   5.795   1.474   4.224
 2542TIP3   OH2 7589   0.778   2.335   3.388
 2542TIP3    H1 7590   0.760   2.366   3.299
 2542TIP3    H2 7591   0.792   2.240   3.378
 2543TIP3   OH2 7592   1.743   1.935   4.050
 2543TIP3    H1 7593   1.688   1.924   4.127
 2543TIP3    H2 7594   1.833   1.931   4.084
 2544TIP3   OH2 7595   6.379   4.332   5.505
 2544TIP3    H1 7596   6.422   4.255   5.543
 2544TIP3    H2 7597   6.412   4.336   5.415
 2545TIP3   OH2 7598   6.820   2.172   5.247
 2545TIP3    H1 7599   6.746   2.234   5.240
 2545TIP3    H2 7600   6.836   2.164   5.341
 2546TIP3   OH2 7601   7.231   2.905   4.019
 2546TIP3    H1 7602   7.213   2.997   4.001
 2546TIP3    H2 7603   7.193   2.858   3.944
 2547TIP3   OH2 7604   0.762   6.298   5.346
 2547TIP3    H1 7605   0.744   6.379   5.394
 2547TIP3    H2 7606   0.684   6.244   5.359
 2548TIP3   OH2 7607   4.474   4.301   1.243
 2548TIP3    H1 7608   4.487   4.347   1.327
 2548TIP3    H2 7609   4.496   4.210   1.263
 2549TIP3   OH2 7610   1.727   0.216   5.768
 2549TIP3    H1 7611   1.733   0.261   5.684
 2549TIP3    H2 7612   1.809   0.237   5.813
 2550TIP3   OH2 7613   6.061   1.548   3.218
 2550TIP3    H1 7614   6.155   1.558   3.232
 2550TIP3    H2 7615   6.021   1.606   3.284
 2551TIP3   OH2 7616   7.103   1.320   0.337
 2551TIP3    H1 7617   7.182   1.274   0.306
 2551TIP3    H2 7618   7.094   1.295   0.428
 2552TIP3   OH2 7619   0.712   4.901   1.590
 2552TIP3    H1 7620   0.653   4.828   1.607
 2552TIP3    H2 7621   0.774   4.899   1.663
 2553TIP3   OH2 7622   4.764   4.248   1.668
 2553TIP3    H1 7623   4.721   4.297   1.739
 2553TIP3    H2 7624   4.817   4.314   1.623
 2554TIP3   OH2 7625   5.738   6.225   4.502
 2554TIP3    H1 7626   5.821   6.255   4.465
 2554TIP3    H2 7627   5.760   6.143   4.547
 2555TIP3   OH2 7628   5.971   2.906   1.166
 2555TIP3    H1 7629   5.904   2.973   1.174
 2555TIP3    H2 7630   5.934   2.829   1.209
 2556TIP3   OH2 7631   1.866   2.808   2.645
 2556TIP3    H1 7632   1.901   2.894   2.621
 2556TIP3    H2 7633   1.777   2.807   2.610
 2557TIP3   OH2 7634   4.956   0.149   4.981
 2557TIP3    H1 7635   4.946   0.240   5.011
 2557TIP3    H2 7636   4.866   0.117   4.973
 2558TIP3   OH2 7637   7.165   1.384   3.580
 2558TIP3    H1 7638   7.151   1.387   3.675
 2558TIP3    H2 7639   7.077   1.382   3.543
 2559TIP3   OH2 7640   2.630   3.375   1.847
 2559TIP3    H1 7641   2.544   3.411   1.825
 2559TIP3    H2 7642   2.615   3.326   1.927
 2560TIP3   OH2 7643   3.885   2.356   1.563
 2560TIP3    H1 7644   3.817   2.289   1.559
 2560TIP3    H2 7645   3.866   2.414   1.490
 2561TIP3   OH2 7646   2.951   6.351   0.091
 2561TIP3    H1 7647   2.985   6.390   0.010
 2561TIP3    H2 7648   2.932   6.427   0.147
 2562TIP3   OH2 7649   5.509   0.663   4.659
 2562TIP3    H1 7650   5.430   0.706   4.628
 2562TIP3    H2 7651   5.580   0.724   4.640
 2563TIP3   OH2 7652   0.855   0.653   1.354
 2563TIP3    H1 7653   0.857   0.748   1.344
 2563TIP3    H2 7654   0.880   0.620   1.267
 2564TIP3   OH2 7655   0.551   1.383   3.394
 2564TIP3    H1 7656   0.588   1.346   3.314
 2564TIP3    H2 7657   0.527   1.306   3.446
 2565TIP3   OH2 7658   3.438   0.857   5.065
 2565TIP3    H1 7659   3.475   0.893   4.984
 2565TIP3    H2 7660   3.388   0.930   5.102
 2566TIP3   OH2 7661   5.741   0.611   1.019
 2566TIP3    H1 7662   5.768   0.544   0.957
 2566TIP3    H2 7663   5.779   0.692   0.984
 2567TIP3   OH2 7664   3.537   6.293   5.869
 2567TIP3    H1 7665   3.487   6.368   5.899
 2567TIP3    H2 7666   3.497   6.268   5.785
 2568TIP3   OH2 7667   0.786   5.275   0.711
 2568TIP3    H1 7668   0.741   5.294   0.629
 2568TIP3    H2 7669   0.876   5.303   0.696
 2569TIP3   OH2 7670   5.957   6.761   1.323
 2569TIP3    H1 7671   5.947   6.781   1.416
 2569TIP3    H2 7672   6.038   6.806   1.298
 2570TIP3   OH2 7673   4.821   2.325   5.533
 2570TIP3    H1 7674   4.754   2.257   5.533
 2570TIP3    H2 7675   4.796   2.383   5.462
 2571TIP3   OH2 7676   2.754   0.581   3.047
 2571TIP3    H1 7677   2.775   0.570   2.954
 2571TIP3    H2 7678   2.835   0.614   3.086
 2572TIP3   OH2 7679   4.707   4.542   5.763
 2572TIP3    H1 7680   4.706   4.620   5.819
 2572TIP3    H2 7681   4.791   4.501   5.780
 2573TIP3   OH2 7682   5.312   6.625   2.218
 2573TIP3    H1 7683   5.263   6.576   2.284
 2573TIP3    H2 7684   5.245   6.672   2.169
 2574TIP3   OH2 7685   4.625   3.957   5.214
 2574TIP3    H1 7686   4.554   4.008   5.176
 2574TIP3    H2 7687   4.615   3.969   5.308
 2575TIP3   OH2 7688   3.162   2.761   3.433
 2575TIP3    H1 7689   3.132   2.690   3.375
 2575TIP3    H2 7690   3.109   2.836   3.408
 2576TIP3   OH2 7691   5.828   0.189   2.760
 2576TIP3    H1 7692   5.817   0.202   2.665
 2576TIP3    H2 7693   5.905   0.133   2.767
 2577TIP3   OH2 7694   6.036   3.328   1.276
 2577TIP3    H1 7695   6.087   3.403   1.305
 2577TIP3    H2 7696   6.027   3.272   1.353
 2578TIP3   OH2 7697   5.941   6.746   1.004
 2578TIP3    H1 7698   5.947   6.734   1.099
 2578TIP3    H2 7699   5.860   6.795   0.991
 2579TIP3   OH2 7700   7.042   4.714   3.752
 2579TIP3    H1 7701   6.953   4.739   3.731
 2579TIP3    H2 7702   7.093   4.740   3.675
 2580TIP3   OH2 7703   0.859   3.992   2.081
 2580TIP3    H1 7704   0.938   4.043   2.061
 2580TIP3    H2 7705   0.871   3.964   2.172
 2581TIP3   OH2 7706   4.876   6.012   3.932
 2581TIP3    H1 7707   4.967   5.999   3.908
 2581TIP3    H2 7708   4.878   6.030   4.026
 2582TIP3   OH2 7709   4.712   2.469   5.328
 2582TIP3    H1 7710   4.779   2.485   5.262
 2582TIP3    H2 7711   4.643   2.421   5.281
 2583TIP3   OH2 7712   4.561   1.723   4.008
 2583TIP3    H1 7713   4.582   1.805   3.963
 2583TIP3    H2 7714   4.472   1.701   3.979
 2584TIP3   OH2 7715   5.585   4.071   4.073
 2584TIP3    H1 7716   5.638   4.057   4.152
 2584TIP3    H2 7717   5.543   4.155   4.087
 2585TIP3   OH2 7718   6.187   3.998   0.067
 2585TIP3    H1 7719   6.272   3.954   0.076
 2585TIP3    H2 7720   6.124   3.927   0.062
 2586TIP3   OH2 7721   3.996   6.442   3.784
 2586TIP3    H1 7722   4.004   6.515   3.845
 2586TIP3    H2 7723   4.063   6.380   3.813
 2587TIP3   OH2 7724   0.160   4.612   2.663
 2587TIP3    H1 7725   0.114   4.536   2.628
 2587TIP3    H2 7726   0.239   4.619   2.609
 2588TIP3   OH2 7727   6.592   1.967   4.663
 2588TIP3    H1 7728   6.674   1.991   4.620
 2588TIP3    H2 7729   6.610   1.975   4.756
 2589TIP3   OH2 7730   4.482   5.972   0.169
 2589TIP3    H1 7731   4.423   6.006   0.236
 2589TIP3    H2 7732   4.565   6.019   0.185
 2590TIP3   OH2 7733   4.842   2.727   5.746
 2590TIP3    H1 7734   4.794   2.781   5.684
 2590TIP3    H2 7735   4.789   2.648   5.755
 2591TIP3   OH2 7736   0.666   5.826   3.220
 2591TIP3    H1 7737   0.728   5.896   3.239
 2591TIP3    H2 7738   0.711   5.771   3.156
 2592TIP3   OH2 7739   6.752   0.626   4.085
 2592TIP3    H1 7740   6.743   0.542   4.038
 2592TIP3    H2 7741   6.767   0.601   4.176
 2593TIP3   OH2 7742   2.795   3.635   2.333
 2593TIP3    H1 7743   2.704   3.662   2.323
 2593TIP3    H2 7744   2.841   3.713   2.364
 2594TIP3   OH2 7745   4.097   3.862   1.622
 2594TIP3    H1 7746   4.070   3.792   1.682
 2594TIP3    H2 7747   4.016   3.889   1.580
 2595TIP3   OH2 7748   1.830   0.241   0.792
 2595TIP3    H1 7749   1.768   0.172   0.814
 2595TIP3    H2 7750   1.777   0.309   0.751
 2596TIP3   OH2 7751   7.089   4.734   2.551
 2596TIP3    H1 7752   7.081   4.695   2.464
 2596TIP3    H2 7753   7.177   4.710   2.580
 2597TIP3   OH2 7754   6.944   5.658   3.297
 2597TIP3    H1 7755   6.877   5.600   3.262
 2597TIP3    H2 7756   6.941   5.643   3.392
 2598TIP3   OH2 7757   3.805   4.449   5.590
 2598TIP3    H1 7758   3.713   4.469   5.573
 2598TIP3    H2 7759   3.802   4.371   5.646
 2599TIP3   OH2 7760   3.105   3.860   1.441
 2599TIP3    H1 7761   3.113   3.820   1.527
 2599TIP3    H2 7762   3.055   3.797   1.389
 2600TIP3   OH2 7763   2.726   5.696   3.240
 2600TIP3    H1 7764   2.679   5.731   3.316
 2600TIP3    H2 7765   2.672   5.624   3.209
 2601TIP3   OH2 7766   6.286   6.702   5.722
 2601TIP3    H1 7767   6.356   6.639   5.701
 2601TIP3    H2 7768   6.206   6.660   5.690
 2602TIP3   OH2 7769   5.470   0.994   2.816
 2602TIP3    H1 7770   5.427   1.079   2.807
 2602TIP3    H2 7771   5.479   0.981   2.911
 2603TIP3   OH2 7772   0.630   0.047   3.491
 2603TIP3    H1 7773   0.691   0.069   3.420
 2603TIP3    H2 7774   0.561   0.113   3.484
 2604TIP3   OH2 7775   0.593   1.066   3.079
 2604TIP3    H1 7776   0.522   1.042   3.137
 2604TIP3    H2 7777   0.648   0.988   3.073
 2605TIP3   OH2 7778   0.376   0.724   3.657
 2605TIP3    H1 7779   0.306   0.749   3.717
 2605TIP3    H2 7780   0.365   0.629   3.647
 2606TIP3   OH2 7781   4.121   5.056   0.522
 2606TIP3    H1 7782   4.066   5.127   0.490
 2606TIP3    H2 7783   4.203   5.064   0.473
 2607TIP3   OH2 7784   1.572   1.243   0.683
 2607TIP3    H1 7785   1.603   1.333   0.674
 2607TIP3    H2 7786   1.607   1.197   0.607
 2608TIP3   OH2 7787   5.583   4.299   3.709
 2608TIP3    H1 7788   5.509   4.256   3.752
 2608TIP3    H2 7789   5.638   4.227   3.678
 2609TIP3   OH2 7790   1.389   2.173   0.770
 2609TIP3    H1 7791   1.361   2.251   0.723
 2609TIP3    H2 7792   1.320   2.157   0.834
 2610TIP3   OH2 7793   5.285   3.101   5.596
 2610TIP3    H1 7794   5.273   3.089   5.690
 2610TIP3    H2 7795   5.370   3.142   5.587
 2611TIP3   OH2 7796   6.947   5.761   2.322
 2611TIP3    H1 7797   6.974   5.810   2.244
 2611TIP3    H2 7798   6.969   5.671   2.301
 2612TIP3   OH2 7799   2.534   6.710   2.711
 2612TIP3    H1 7800   2.452   6.741   2.748
 2612TIP3    H2 7801   2.511   6.678   2.624
 2613TIP3   OH2 7802   5.897   3.859   2.280
 2613TIP3    H1 7803   5.907   3.814   2.196
 2613TIP3    H2 7804   5.842   3.800   2.331
 2614TIP3   OH2 7805   5.101   0.947   1.332
 2614TIP3    H1 7806   5.012   0.945   1.367
 2614TIP3    H2 7807   5.092   0.914   1.243
 2615TIP3   OH2 7808   5.625   3.291   0.979
 2615TIP3    H1 7809   5.579   3.223   1.029
 2615TIP3    H2 7810   5.717   3.282   1.007
 2616TIP3   OH2 7811   3.105   6.491   0.976
 2616TIP3    H1 7812   3.182   6.488   1.032
 2616TIP3    H2 7813   3.125   6.559   0.911
 2617TIP3   OH2 7814   1.281   6.715   4.097
 2617TIP3    H1 7815   1.186   6.717   4.107
 2617TIP3    H2 7816   1.297   6.649   4.030
 2618TIP3   OH2 7817   4.662   3.373   5.505
 2618TIP3    H1 7818   4.599   3.444   5.518
 2618TIP3    H2 7819   4.722   3.380   5.579
 2619TIP3   OH2 7820   5.130   3.402   5.505
 2619TIP3    H1 7821   5.049   3.414   5.456
 2619TIP3    H2 7822   5.179   3.335   5.457
 2620TIP3   OH2 7823   1.896   5.055   1.251
 2620TIP3    H1 7824   1.878   5.094   1.337
 2620TIP3    H2 7825   1.869   4.963   1.260
 2621TIP3   OH2 7826   2.207   2.034   5.891
 2621TIP3    H1 7827   2.184   2.127   5.888
 2621TIP3    H2 7828   2.184   2.001   5.805
 2622TIP3   OH2 7829   7.169   4.157   4.444
 2622TIP3    H1 7830   7.185   4.068   4.412
 2622TIP3    H2 7831   7.227   4.212   4.391
 2623TIP3   OH2 7832   5.865   4.243   1.968
 2623TIP3    H1 7833   5.876   4.174   2.034
 2623TIP3    H2 7834   5.848   4.196   1.886
 2624TIP3   OH2 7835   1.572   0.054   5.472
 2624TIP3    H1 7836   1.568   0.030   5.565
 2624TIP3    H2 7837   1.661   0.031   5.445
 2625TIP3   OH2 7838   7.036   3.448   5.397
 2625TIP3    H1 7839   7.001   3.375   5.346
 2625TIP3    H2 7840   7.052   3.517   5.332
 2626TIP3   OH2 7841   1.013   4.991   5.614
 2626TIP3    H1 7842   1.067   5.012   5.537
 2626TIP3    H2 7843   0.926   4.976   5.579
 2627TIP3   OH2 7844   3.414   0.243   3.556
 2627TIP3    H1 7845   3.359   0.167   3.537
 2627TIP3    H2 7846   3.485   0.238   3.493
 2628TIP3   OH2 7847   3.302   2.955   5.042
 2628TIP3    H1 7848   3.268   2.873   5.005
 2628TIP3    H2 7849   3.288   3.020   4.973
 2629TIP3   OH2 7850   0.844   4.908   5.829
 2629TIP3    H1 7851   0.846   4.964   5.907
 2629TIP3    H2 7852   0.925   4.929   5.782
 2630TIP3   OH2 7853   4.699   1.732   1.642
 2630TIP3    H1 7854   4.675   1.711   1.551
 2630TIP3    H2 7855   4.792   1.752   1.639
 2631TIP3   OH2 7856   4.527   1.523   5.318
 2631TIP3    H1 7857   4.565   1.484   5.239
 2631TIP3    H2 7858   4.601   1.533   5.378
 2632TIP3   OH2 7859   6.256   4.567   0.045
 2632TIP3    H1 7860   6.252   4.564   0.141
 2632TIP3    H2 7861   6.193   4.503   0.016
 2633TIP3   OH2 7862   5.020   0.806   5.251
 2633TIP3    H1 7863   5.092   0.820   5.312
 2633TIP3    H2 7864   5.048   0.733   5.197
 2634TIP3   OH2 7865   5.606   0.396   4.695
 2634TIP3    H1 7866   5.533   0.388   4.756
 2634TIP3    H2 7867   5.595   0.483   4.655
 2635TIP3   OH2 7868   3.823   1.350   2.879
 2635TIP3    H1 7869   3.736   1.343   2.917
 2635TIP3    H2 7870   3.867   1.269   2.905
 2636TIP3   OH2 7871   3.980   2.820   5.295
 2636TIP3    H1 7872   4.074   2.811   5.311
 2636TIP3    H2 7873   3.943   2.734   5.315
 2637TIP3   OH2 7874   3.279   1.412   4.416
 2637TIP3    H1 7875   3.315   1.499   4.429
 2637TIP3    H2 7876   3.305   1.362   4.493
 2638TIP3   OH2 7877   4.566   0.878   5.501
 2638TIP3    H1 7878   4.656   0.884   5.532
 2638TIP3    H2 7879   4.551   0.784   5.488
 2639TIP3   OH2 7880   6.019   2.752   3.535
 2639TIP3    H1 7881   6.057   2.838   3.513
 2639TIP3    H2 7882   5.973   2.726   3.456
 2640TIP3   OH2 7883   6.661   2.990   5.270
 2640TIP3    H1 7884   6.674   2.970   5.177
 2640TIP3    H2 7885   6.732   2.943   5.314
 2641TIP3   OH2 7886   7.076   1.626   2.436
 2641TIP3    H1 7887   7.036   1.601   2.519
 2641TIP3    H2 7888   7.004   1.630   2.374
 2642TIP3   OH2 7889   5.339   5.190   5.482
 2642TIP3    H1 7890   5.348   5.228   5.394
 2642TIP3    H2 7891   5.312   5.264   5.537
 2643TIP3   OH2 7892   6.490   2.034   0.205
 2643TIP3    H1 7893   6.545   2.043   0.283
 2643TIP3    H2 7894   6.463   2.123   0.185
 2644TIP3   OH2 7895   4.274   2.538   4.003
 2644TIP3    H1 7896   4.358   2.493   4.009
 2644TIP3    H2 7897   4.248   2.528   3.911
 2645TIP3   OH2 7898   6.647   2.140   1.881
 2645TIP3    H1 7899   6.604   2.163   1.963
 2645TIP3    H2 7900   6.735   2.178   1.889
 2646TIP3   OH2 7901   1.849   3.645   5.684
 2646TIP3    H1 7902   1.884   3.631   5.772
 2646TIP3    H2 7903   1.866   3.737   5.666
 2647TIP3   OH2 7904   0.675   3.812   0.303
 2647TIP3    H1 7905   0.719   3.876   0.360
 2647TIP3    H2 7906   0.637   3.865   0.233
 2648TIP3   OH2 7907   2.583   2.524   3.149
 2648TIP3    H1 7908   2.569   2.563   3.062
 2648TIP3    H2 7909   2.627   2.441   3.131
 2649TIP3   OH2 7910   3.207   3.458   3.050
 2649TIP3    H1 7911   3.170   3.372   3.070
 2649TIP3    H2 7912   3.135   3.507   3.010
 2650TIP3   OH2 7913   5.456   4.018   5.175
 2650TIP3    H1 7914   5.469   3.925   5.193
 2650TIP3    H2 7915   5.498   4.032   5.090
 2651TIP3   OH2 7916   1.588   3.505   4.588
 2651TIP3    H1 7917   1.576   3.502   4.493
 2651TIP3    H2 7918   1.500   3.516   4.624
 2652TIP3   OH2 7919   5.399   2.477   1.969
 2652TIP3    H1 7920   5.309   2.503   1.987
 2652TIP3    H2 7921   5.426   2.532   1.896
 2653TIP3   OH2 7922   2.941   0.698   3.566
 2653TIP3    H1 7923   2.883   0.773   3.555
 2653TIP3    H2 7924   2.893   0.625   3.527
 2654TIP3   OH2 7925   2.087   1.593   2.029
 2654TIP3    H1 7926   2.044   1.667   1.986
 2654TIP3    H2 7927   2.084   1.523   1.964
 2655TIP3   OH2 7928   7.174   6.047   1.341
 2655TIP3    H1 7929   7.260   6.087   1.337
 2655TIP3    H2 7930   7.157   6.037   1.435
 2656TIP3   OH2 7931   4.731   1.163   5.535
 2656TIP3    H1 7932   4.647   1.135   5.572
 2656TIP3    H2 7933   4.756   1.093   5.476
 2657TIP3   OH2 7934   4.226   0.066   4.394
 2657TIP3    H1 7935   4.219  -0.013   4.448
 2657TIP3    H2 7936   4.140   0.108   4.403
 2658TIP3   OH2 7937   3.064   5.122   2.331
 2658TIP3    H1 7938   3.128   5.189   2.307
 2658TIP3    H2 7939   3.061   5.063   2.256
 2659TIP3   OH2 7940   0.176   3.614   5.291
 2659TIP3    H1 7941   0.241   3.635   5.358
 2659TIP3    H2 7942   0.142   3.528   5.316
 2660TIP3   OH2 7943   0.177   0.708   4.974
 2660TIP3    H1 7944   0.101   0.697   5.031
 2660TIP3    H2 7945   0.176   0.800   4.949
 2661TIP3   OH2 7946   4.365   3.108   5.732
 2661TIP3    H1 7947   4.424   3.099   5.657
 2661TIP3    H2 7948   4.277   3.099   5.694
 2662TIP3   OH2 7949   2.826   3.158   3.529
 2662TIP3    H1 7950   2.783   3.240   3.551
 2662TIP3    H2 7951   2.908   3.184   3.488
 2663TIP3   OH2 7952   3.204   5.071   3.052
 2663TIP3    H1 7953   3.294   5.100   3.063
 2663TIP3    H2 7954   3.192   5.067   2.957
 2664TIP3   OH2 7955   1.536   5.076   1.116
 2664TIP3    H1 7956   1.575   5.160   1.138
 2664TIP3    H2 7957   1.507   5.086   1.025
 2665TIP3   OH2 7958   5.472   4.813   0.022
 2665TIP3    H1 7959   5.393   4.789   0.070
 2665TIP3    H2 7960   5.503   4.730  -0.015
 2666TIP3   OH2 7961   6.195   2.884   5.104
 2666TIP3    H1 7962   6.144   2.955   5.143
 2666TIP3    H2 7963   6.263   2.865   5.168
 2667TIP3   OH2 7964   1.970   6.463   2.895
 2667TIP3    H1 7965   1.936   6.383   2.935
 2667TIP3    H2 7966   1.959   6.449   2.801
 2668TIP3   OH2 7967   1.771   0.838   3.087
 2668TIP3    H1 7968   1.788   0.755   3.041
 2668TIP3    H2 7969   1.841   0.844   3.152
 2669TIP3   OH2 7970   0.236   3.760   2.366
 2669TIP3    H1 7971   0.176   3.685   2.366
 2669TIP3    H2 7972   0.320   3.723   2.390
 2670TIP3   OH2 7973   1.997   0.395   2.425
 2670TIP3    H1 7974   1.967   0.346   2.348
 2670TIP3    H2 7975   2.074   0.443   2.394
 2671TIP3   OH2 7976   6.229   2.855   1.699
 2671TIP3    H1 7977   6.164   2.902   1.750
 2671TIP3    H2 7978   6.197   2.765   1.696
 2672TIP3   OH2 7979   0.064   2.455   4.664
 2672TIP3    H1 7980   0.098   2.535   4.705
 2672TIP3    H2 7981  -0.020   2.441   4.706
 2673TIP3   OH2 7982   6.997   4.332   0.199
 2673TIP3    H1 7983   6.975   4.415   0.155
 2673TIP3    H2 7984   7.049   4.358   0.275
 2674TIP3   OH2 7985   6.257   4.588   0.883
 2674TIP3    H1 7986   6.303   4.522   0.935
 2674TIP3    H2 7987   6.166   4.561   0.885
 2675TIP3   OH2 7988   6.845   2.736   1.896
 2675TIP3    H1 7989   6.835   2.828   1.871
 2675TIP3    H2 7990   6.772   2.719   1.957
 2676TIP3   OH2 7991   6.434   5.478   1.062
 2676TIP3    H1 7992   6.429   5.429   0.980
 2676TIP3    H2 7993   6.356   5.453   1.110
 2677TIP3   OH2 7994   4.287   6.079   0.325
 2677TIP3    H1 7995   4.359   6.120   0.373
 2677TIP3    H2 7996   4.220   6.148   0.319
 2678TIP3   OH2 7997   0.775   0.186   2.129
 2678TIP3    H1 7998   0.739   0.159   2.214
 2678TIP3    H2 7999   0.815   0.106   2.094
 2679TIP3   OH2 8000   2.055   4.615   1.164
 2679TIP3    H1 8001   1.973   4.590   1.207
 2679TIP3    H2 8002   2.095   4.679   1.224
 2680TIP3   OH2 8003   7.054   5.583   2.800
 2680TIP3    H1 8004   7.055   5.561   2.893
 2680TIP3    H2 8005   7.054   5.679   2.798
 2681TIP3   OH2 8006   2.981   3.751   1.205
 2681TIP3    H1 8007   2.892   3.725   1.182
 2681TIP3    H2 8008   3.035   3.677   1.178
 2682TIP3   OH2 8009   0.568   1.600   1.553
 2682TIP3    H1 8010   0.513   1.678   1.559
 2682TIP3    H2 8011   0.651   1.626   1.593
 2683TIP3   OH2 8012   3.668   4.503   1.411
 2683TIP3    H1 8013   3.700   4.441   1.345
 2683TIP3    H2 8014   3.729   4.494   1.484
 2684TIP3   OH2 8015   6.586   2.683   2.350
 2684TIP3    H1 8016   6.595   2.729   2.433
 2684TIP3    H2 8017   6.645   2.730   2.290
 2685TIP3   OH2 8018   5.264   5.824   0.805
 2685TIP3    H1 8019   5.318   5.887   0.854
 2685TIP3    H2 8020   5.321   5.795   0.734
 2686TIP3   OH2 8021   6.575   3.107   3.724
 2686TIP3    H1 8022   6.606   3.017   3.733
 2686TIP3    H2 8023   6.620   3.140   3.646
 2687TIP3   OH2 8024   4.649   2.534   4.225
 2687TIP3    H1 8025   4.617   2.576   4.305
 2687TIP3    H2 8026   4.737   2.504   4.247
 2688TIP3   OH2 8027   5.363   6.620   1.761
 2688TIP3    H1 8028   5.298   6.674   1.806
 2688TIP3    H2 8029   5.328   6.609   1.673
 2689TIP3   OH2 8030   6.754   5.898   4.352
 2689TIP3    H1 8031   6.740   5.992   4.356
 2689TIP3    H2 8032   6.795   5.876   4.435
 2690TIP3   OH2 8033   3.310   4.141   3.439
 2690TIP3    H1 8034   3.225   4.123   3.399
 2690TIP3    H2 8035   3.327   4.066   3.496
 2691TIP3   OH2 8036   5.475   4.582   4.838
 2691TIP3    H1 8037   5.541   4.628   4.786
 2691TIP3    H2 8038   5.473   4.494   4.801
 2692TIP3   OH2 8039   4.378   6.662   1.471
 2692TIP3    H1 8040   4.449   6.619   1.424
 2692TIP3    H2 8041   4.312   6.593   1.483
 2693TIP3   OH2 8042   7.009   2.888   1.041
 2693TIP3    H1 8043   6.992   2.796   1.022
 2693TIP3    H2 8044   7.062   2.888   1.121
 2694TIP3   OH2 8045   4.404   3.700   1.463
 2694TIP3    H1 8046   4.334   3.635   1.467
 2694TIP3    H2 8047   4.359   3.784   1.467
 2695TIP3   OH2 8048   0.412   4.152   3.703
 2695TIP3    H1 8049   0.416   4.065   3.742
 2695TIP3    H2 8050   0.318   4.170   3.694
 2696TIP3   OH2 8051   4.505   2.467   0.323
 2696TIP3    H1 8052   4.465   2.390   0.362
 2696TIP3    H2 8053   4.485   2.460   0.229
 2697TIP3   OH2 8054   5.024   1.526   3.508
 2697TIP3    H1 8055   4.973   1.470   3.567
 2697TIP3    H2 8056   5.032   1.609   3.555
 2698TIP3   OH2 8057   3.289   4.892   1.668
 2698TIP3    H1 8058   3.383   4.892   1.684
 2698TIP3    H2 8059   3.278   4.946   1.590
 2699TIP3   OH2 8060   2.260   3.361   1.190
 2699TIP3    H1 8061   2.251   3.287   1.251
 2699TIP3    H2 8062   2.240   3.323   1.105
 2700TIP3   OH2 8063   2.485   2.326   5.656
 2700TIP3    H1 8064   2.579   2.343   5.653
 2700TIP3    H2 8065   2.464   2.295   5.568
 2701TIP3   OH2 8066   0.224   2.725   3.564
 2701TIP3    H1 8067   0.194   2.634   3.575
 2701TIP3    H2 8068   0.197   2.748   3.475
 2702TIP3   OH2 8069   0.489   2.814   3.575
 2702TIP3    H1 8070   0.483   2.870   3.652
 2702TIP3    H2 8071   0.411   2.759   3.578
 2703TIP3   OH2 8072   3.237   5.772   3.324
 2703TIP3    H1 8073   3.229   5.802   3.234
 2703TIP3    H2 8074   3.156   5.725   3.341
 2704TIP3   OH2 8075   1.379   0.410   5.699
 2704TIP3    H1 8076   1.357   0.332   5.648
 2704TIP3    H2 8077   1.300   0.430   5.749
 2705TIP3   OH2 8078   3.403   1.063   4.575
 2705TIP3    H1 8079   3.456   1.106   4.508
 2705TIP3    H2 8080   3.375   1.135   4.633
 2706TIP3   OH2 8081   1.779   1.287   5.728
 2706TIP3    H1 8082   1.847   1.222   5.745
 2706TIP3    H2 8083   1.739   1.302   5.814
 2707TIP3   OH2 8084   5.271   4.531   3.361
 2707TIP3    H1 8085   5.318   4.467   3.307
 2707TIP3    H2 8086   5.269   4.491   3.448
 2708TIP3   OH2 8087   1.712   3.986   4.304
 2708TIP3    H1 8088   1.670   4.058   4.256
 2708TIP3    H2 8089   1.789   4.025   4.345
 2709TIP3   OH2 8090   5.024   5.163   1.865
 2709TIP3    H1 8091   5.072   5.155   1.783
 2709TIP3    H2 8092   5.089   5.145   1.933
 2710TIP3   OH2 8093   6.771   3.308   3.954
 2710TIP3    H1 8094   6.759   3.394   3.992
 2710TIP3    H2 8095   6.808   3.324   3.867
 2711TIP3   OH2 8096   3.964   0.836   5.080
 2711TIP3    H1 8097   4.036   0.898   5.090
 2711TIP3    H2 8098   3.966   0.812   4.988
 2712TIP3   OH2 8099   3.603   0.456   3.150
 2712TIP3    H1 8100   3.655   0.536   3.149
 2712TIP3    H2 8101   3.611   0.421   3.061
 2713TIP3   OH2 8102   0.187   2.356   0.602
 2713TIP3    H1 8103   0.247   2.357   0.528
 2713TIP3    H2 8104   0.130   2.281   0.586
 2714TIP3   OH2 8105   4.399   1.939   3.510
 2714TIP3    H1 8106   4.414   1.999   3.437
 2714TIP3    H2 8107   4.470   1.875   3.503
 2715TIP3   OH2 8108   3.021   2.785   1.701
 2715TIP3    H1 8109   2.975   2.701   1.696
 2715TIP3    H2 8110   3.072   2.779   1.782
 2716TIP3   OH2 8111   5.040   2.625   4.086
 2716TIP3    H1 8112   5.016   2.683   4.158
 2716TIP3    H2 8113   5.064   2.684   4.015
 2717TIP3   OH2 8114   1.712   5.496   4.784
 2717TIP3    H1 8115   1.791   5.451   4.812
 2717TIP3    H2 8116   1.687   5.451   4.703
 2718TIP3   OH2 8117   7.134   0.425   1.167
 2718TIP3    H1 8118   7.077   0.350   1.149
 2718TIP3    H2 8119   7.220   0.386   1.186
 2719TIP3   OH2 8120   4.037   4.700   1.820
 2719TIP3    H1 8121   4.068   4.612   1.798
 2719TIP3    H2 8122   4.064   4.754   1.746
 2720TIP3   OH2 8123   7.154   0.580   1.620
 2720TIP3    H1 8124   7.099   0.655   1.645
 2720TIP3    H2 8125   7.197   0.554   1.701
 2721TIP3   OH2 8126   4.018   4.909   2.640
 2721TIP3    H1 8127   4.014   4.927   2.734
 2721TIP3    H2 8128   4.064   4.985   2.603
 2722TIP3   OH2 8129   1.568   3.772   4.217
 2722TIP3    H1 8130   1.625   3.836   4.261
 2722TIP3    H2 8131   1.499   3.825   4.178
 2723TIP3   OH2 8132   3.370   5.045   0.770
 2723TIP3    H1 8133   3.425   5.102   0.822
 2723TIP3    H2 8134   3.328   4.986   0.833
 2724TIP3   OH2 8135   3.222   6.586   5.654
 2724TIP3    H1 8136   3.204   6.631   5.737
 2724TIP3    H2 8137   3.282   6.645   5.608
 2725TIP3   OH2 8138  -0.022   1.000   4.091
 2725TIP3    H1 8139   0.039   0.929   4.074
 2725TIP3    H2 8140  -0.006   1.025   4.182
 2726TIP3   OH2 8141   2.314   2.151   5.494
 2726TIP3    H1 8142   2.408   2.145   5.511
 2726TIP3    H2 8143   2.305   2.135   5.400
 2727TIP3   OH2 8144   1.620   6.692   1.484
 2727TIP3    H1 8145   1.676   6.616   1.469
 2727TIP3    H2 8146   1.572   6.702   1.401
 2728TIP3   OH2 8147   0.838   5.994   1.268
 2728TIP3    H1 8148   0.842   5.980   1.363
 2728TIP3    H2 8149   0.926   6.024   1.244
 2729TIP3   OH2 8150   0.837   4.205   3.300
 2729TIP3    H1 8151   0.768   4.220   3.365
 2729TIP3    H2 8152   0.915   4.246   3.339
 2730TIP3   OH2 8153   6.320   0.849   3.451
 2730TIP3    H1 8154   6.383   0.778   3.458
 2730TIP3    H2 8155   6.303   0.857   3.357
 2731TIP3   OH2 8156   4.083   3.853   0.162
 2731TIP3    H1 8157   4.043   3.766   0.153
 2731TIP3    H2 8158   4.056   3.900   0.084
 2732TIP3   OH2 8159   5.997   1.530   5.299
 2732TIP3    H1 8160   6.019   1.566   5.385
 2732TIP3    H2 8161   6.035   1.591   5.236
 2733TIP3   OH2 8162   5.156   1.764   3.290
 2733TIP3    H1 8163   5.211   1.759   3.367
 2733TIP3    H2 8164   5.158   1.856   3.264
 2734TIP3   OH2 8165   3.795   1.236   1.803
 2734TIP3    H1 8166   3.841   1.164   1.760
 2734TIP3    H2 8167   3.860   1.276   1.861
 2735TIP3   OH2 8168   3.089   0.478   3.512
 2735TIP3    H1 8169   3.183   0.494   3.515
 2735TIP3    H2 8170   3.050   0.562   3.535
 2736TIP3   OH2 8171   2.775   5.571   0.758
 2736TIP3    H1 8172   2.740   5.556   0.671
 2736TIP3    H2 8173   2.808   5.661   0.756
 2737TIP3   OH2 8174   2.827   0.354   2.536
 2737TIP3    H1 8175   2.844   0.284   2.473
 2737TIP3    H2 8176   2.769   0.415   2.490
 2738TIP3   OH2 8177   2.424   4.649   5.574
 2738TIP3    H1 8178   2.410   4.606   5.658
 2738TIP3    H2 8179   2.384   4.590   5.510
 2739TIP3   OH2 8180   1.753   1.025   1.355
 2739TIP3    H1 8181   1.784   1.059   1.439
 2739TIP3    H2 8182   1.815   1.058   1.290
 2740TIP3   OH2 8183   3.144   0.664   4.792
 2740TIP3    H1 8184   3.087   0.724   4.743
 2740TIP3    H2 8185   3.122   0.577   4.757
 2741TIP3   OH2 8186   2.488   3.502   2.410
 2741TIP3    H1 8187   2.512   3.504   2.503
 2741TIP3    H2 8188   2.520   3.585   2.375
 2742TIP3   OH2 8189   2.890   3.738   2.093
 2742TIP3    H1 8190   2.876   3.798   2.166
 2742TIP3    H2 8191   2.962   3.682   2.121
 2743TIP3   OH2 8192   6.742   2.855   2.232
 2743TIP3    H1 8193   6.741   2.925   2.166
 2743TIP3    H2 8194   6.830   2.861   2.271
 2744TIP3   OH2 8195   5.338   5.764   0.176
 2744TIP3    H1 8196   5.432   5.758   0.189
 2744TIP3    H2 8197   5.328   5.820   0.098
 2745TIP3   OH2 8198   4.610   0.548   3.045
 2745TIP3    H1 8199   4.690   0.582   3.087
 2745TIP3    H2 8200   4.539   0.580   3.100
 2746TIP3   OH2 8201   6.083   3.964   2.043
 2746TIP3    H1 8202   6.162   3.965   1.989
 2746TIP3    H2 8203   6.113   3.988   2.131
 2747TIP3   OH2 8204   1.267   3.829   4.021
 2747TIP3    H1 8205   1.330   3.789   3.961
 2747TIP3    H2 8206   1.183   3.793   3.995
 2748TIP3   OH2 8207   4.238   4.341   5.719
 2748TIP3    H1 8208   4.190   4.418   5.689
 2748TIP3    H2 8209   4.322   4.345   5.673
 2749TIP3   OH2 8210   0.284   2.002   3.704
 2749TIP3    H1 8211   0.331   2.084   3.686
 2749TIP3    H2 8212   0.293   1.951   3.623
 2750TIP3   OH2 8213   6.937   5.298   0.932
 2750TIP3    H1 8214   6.944   5.390   0.957
 2750TIP3    H2 8215   6.851   5.291   0.891
 2751TIP3   OH2 8216   1.672   6.020   2.170
 2751TIP3    H1 8217   1.635   6.046   2.254
 2751TIP3    H2 8218   1.707   6.101   2.133
 2752TIP3   OH2 8219   5.588   6.362   1.483
 2752TIP3    H1 8220   5.668   6.393   1.441
 2752TIP3    H2 8221   5.571   6.427   1.552
 2753TIP3   OH2 8222   4.206   2.380   1.475
 2753TIP3    H1 8223   4.139   2.317   1.449
 2753TIP3    H2 8224   4.260   2.391   1.396
 2754TIP3   OH2 8225   0.869   0.089   5.802
 2754TIP3    H1 8226   0.939   0.145   5.768
 2754TIP3    H2 8227   0.914   0.013   5.837
 2755TIP3   OH2 8228   3.043   0.457   0.381
 2755TIP3    H1 8229   3.027   0.484   0.472
 2755TIP3    H2 8230   3.136   0.475   0.367
 2756TIP3   OH2 8231   5.979   3.729   4.574
 2756TIP3    H1 8232   6.061   3.712   4.528
 2756TIP3    H2 8233   6.004   3.743   4.665
 2757TIP3   OH2 8234   0.385   2.012   0.305
 2757TIP3    H1 8235   0.356   2.100   0.328
 2757TIP3    H2 8236   0.472   2.025   0.267
 2758TIP3   OH2 8237   2.275   1.582   3.952
 2758TIP3    H1 8238   2.346   1.539   3.904
 2758TIP3    H2 8239   2.320   1.646   4.008
 2759TIP3   OH2 8240   2.548   2.340   2.118
 2759TIP3    H1 8241   2.533   2.302   2.031
 2759TIP3    H2 8242   2.578   2.430   2.100
 2760TIP3   OH2 8243   4.398   2.373   0.933
 2760TIP3    H1 8244   4.493   2.367   0.945
 2760TIP3    H2 8245   4.386   2.445   0.871
 2761TIP3   OH2 8246   2.454   1.590   1.561
 2761TIP3    H1 8247   2.423   1.670   1.603
 2761TIP3    H2 8248   2.383   1.563   1.504
 2762TIP3   OH2 8249   5.578   5.523   0.448
 2762TIP3    H1 8250   5.541   5.450   0.498
 2762TIP3    H2 8251   5.546   5.509   0.359
 2763TIP3   OH2 8252   2.815   5.315   1.793
 2763TIP3    H1 8253   2.772   5.358   1.718
 2763TIP3    H2 8254   2.756   5.333   1.867
 2764TIP3   OH2 8255   4.929   4.618   5.293
 2764TIP3    H1 8256   4.859   4.632   5.356
 2764TIP3    H2 8257   5.010   4.625   5.345
 2765TIP3   OH2 8258   1.626   4.912   0.327
 2765TIP3    H1 8259   1.624   4.865   0.244
 2765TIP3    H2 8260   1.543   4.959   0.331
 2766TIP3   OH2 8261   4.508   0.300   5.568
 2766TIP3    H1 8262   4.588   0.248   5.572
 2766TIP3    H2 8263   4.538   0.391   5.576
 2767TIP3   OH2 8264   1.336   1.591   5.363
 2767TIP3    H1 8265   1.350   1.499   5.384
 2767TIP3    H2 8266   1.415   1.618   5.317
 2768TIP3   OH2 8267   2.264   2.028   1.882
 2768TIP3    H1 8268   2.298   1.978   1.807
 2768TIP3    H2 8269   2.224   1.962   1.939
 2769TIP3   OH2 8270   1.747   0.411   3.881
 2769TIP3    H1 8271   1.814   0.474   3.908
 2769TIP3    H2 8272   1.664   0.456   3.894
 2770TIP3   OH2 8273   0.833   3.369   1.044
 2770TIP3    H1 8274   0.799   3.296   1.096
 2770TIP3    H2 8275   0.917   3.338   1.012
 2771TIP3   OH2 8276   6.473   6.287   2.084
 2771TIP3    H1 8277   6.410   6.224   2.119
 2771TIP3    H2 8278   6.555   6.238   2.078
 2772TIP3   OH2 8279   7.102   2.588   1.058
 2772TIP3    H1 8280   7.127   2.496   1.048
 2772TIP3    H2 8281   7.177   2.637   1.023
 2773TIP3   OH2 8282   2.842   3.865   3.940
 2773TIP3    H1 8283   2.884   3.783   3.913
 2773TIP3    H2 8284   2.762   3.838   3.985
 2774TIP3   OH2 8285   5.026   2.058   2.047
 2774TIP3    H1 8286   5.052   2.082   2.136
 2774TIP3    H2 8287   4.986   1.971   2.056
 2775TIP3   OH2 8288   2.303   2.523   4.117
 2775TIP3    H1 8289   2.244   2.546   4.045
 2775TIP3    H2 8290   2.293   2.428   4.127
 2776TIP3   OH2 8291   5.466   1.076   3.354
 2776TIP3    H1 8292   5.393   1.135   3.333
 2776TIP3    H2 8293   5.534   1.133   3.390
 2777TIP3   OH2 8294   2.291   0.819   5.761
 2777TIP3    H1 8295   2.323   0.762   5.832
 2777TIP3    H2 8296   2.367   0.872   5.737
 2778TIP3   OH2 8297   6.142   1.673   2.841
 2778TIP3    H1 8298   6.220   1.648   2.890
 2778TIP3    H2 8299   6.093   1.728   2.902
 2779TIP3   OH2 8300   1.189   5.055   3.016
 2779TIP3    H1 8301   1.152   5.114   3.082
 2779TIP3    H2 8302   1.226   5.114   2.950
 2780TIP3   OH2 8303   5.545   5.471   2.761
 2780TIP3    H1 8304   5.630   5.451   2.722
 2780TIP3    H2 8305   5.498   5.520   2.693
 2781TIP3   OH2 8306   2.931   4.806   2.121
 2781TIP3    H1 8307   2.971   4.893   2.113
 2781TIP3    H2 8308   2.836   4.823   2.116
 2782TIP3   OH2 8309   3.452   1.424   3.747
 2782TIP3    H1 8310   3.432   1.518   3.743
 2782TIP3    H2 8311   3.445   1.402   3.840
 2783TIP3   OH2 8312   6.705   4.790   0.383
 2783TIP3    H1 8313   6.700   4.723   0.451
 2783TIP3    H2 8314   6.754   4.862   0.424
 2784TIP3   OH2 8315   2.433   3.158   4.615
 2784TIP3    H1 8316   2.364   3.143   4.680
 2784TIP3    H2 8317   2.514   3.159   4.666
 2785TIP3   OH2 8318   2.987   6.531   4.597
 2785TIP3    H1 8319   2.961   6.446   4.560
 2785TIP3    H2 8320   3.073   6.548   4.558
 2786TIP3   OH2 8321   0.205   3.524   1.257
 2786TIP3    H1 8322   0.148   3.500   1.184
 2786TIP3    H2 8323   0.284   3.558   1.215
 2787TIP3   OH2 8324   1.661   1.191   3.218
 2787TIP3    H1 8325   1.708   1.172   3.300
 2787TIP3    H2 8326   1.725   1.176   3.149
 2788TIP3   OH2 8327   1.017   4.918   4.096
 2788TIP3    H1 8328   1.004   4.998   4.044
 2788TIP3    H2 8329   0.965   4.932   4.175
 2789TIP3   OH2 8330   1.228   1.595   5.812
 2789TIP3    H1 8331   1.255   1.625   5.899
 2789TIP3    H2 8332   1.247   1.668   5.754
 2790TIP3   OH2 8333   3.968   5.780   3.252
 2790TIP3    H1 8334   3.994   5.798   3.162
 2790TIP3    H2 8335   4.021   5.705   3.278
 2791TIP3   OH2 8336   4.670   4.941   5.409
 2791TIP3    H1 8337   4.695   4.848   5.407
 2791TIP3    H2 8338   4.717   4.980   5.336
 2792TIP3   OH2 8339   7.132   4.741   4.190
 2792TIP3    H1 8340   7.097   4.687   4.261
 2792TIP3    H2 8341   7.093   4.704   4.110
 2793TIP3   OH2 8342   5.413   0.407   3.345
 2793TIP3    H1 8343   5.357   0.484   3.352
 2793TIP3    H2 8344   5.378   0.345   3.409
 2794TIP3   OH2 8345   5.602   3.168   1.474
 2794TIP3    H1 8346   5.648   3.242   1.514
 2794TIP3    H2 8347   5.587   3.106   1.545
 2795TIP3   OH2 8348   1.886   2.173   5.773
 2795TIP3    H1 8349   1.961   2.195   5.717
 2795TIP3    H2 8350   1.829   2.120   5.718
 2796TIP3   OH2 8351   4.189   5.063   1.531
 2796TIP3    H1 8352   4.131   5.028   1.464
 2796TIP3    H2 8353   4.239   5.131   1.487
 2797TIP3   OH2 8354   1.624   6.707   1.777
 2797TIP3    H1 8355   1.625   6.684   1.684
 2797TIP3    H2 8356   1.541   6.752   1.790
 2798TIP3   OH2 8357   7.026   3.370   3.402
 2798TIP3    H1 8358   6.953   3.432   3.405
 2798TIP3    H2 8359   7.089   3.405   3.465
 2799TIP3   OH2 8360   2.929   1.926   4.518
 2799TIP3    H1 8361   2.856   1.905   4.576
 2799TIP3    H2 8362   2.891   1.926   4.430
 2800TIP3   OH2 8363   4.548   2.593   5.530
 2800TIP3    H1 8364   4.534   2.512   5.579
 2800TIP3    H2 8365   4.615   2.569   5.465
 2801TIP3   OH2 8366   0.235   0.570   0.154
 2801TIP3    H1 8367   0.256   0.542   0.243
 2801TIP3    H2 8368   0.143   0.599   0.159
 2802TIP3   OH2 8369   3.754   5.719   3.564
 2802TIP3    H1 8370   3.824   5.654   3.572
 2802TIP3    H2 8371   3.767   5.777   3.640
 2803TIP3   OH2 8372   2.622   1.258   2.883
 2803TIP3    H1 8373   2.713   1.238   2.905
 2803TIP3    H2 8374   2.571   1.186   2.920
 2804TIP3   OH2 8375   0.348   1.841   3.448
 2804TIP3    H1 8376   0.414   1.837   3.517
 2804TIP3    H2 8377   0.344   1.752   3.413
 2805TIP3   OH2 8378   6.196   1.005   4.232
 2805TIP3    H1 8379   6.130   0.984   4.166
 2805TIP3    H2 8380   6.176   1.096   4.257
 2806TIP3   OH2 8381   2.647   6.108   1.436
 2806TIP3    H1 8382   2.682   6.033   1.485
 2806TIP3    H2 8383   2.722   6.140   1.386
 2807TIP3   OH2 8384   5.911   4.441   2.757
 2807TIP3    H1 8385   5.857   4.495   2.815
 2807TIP3    H2 8386   5.921   4.494   2.678
 2808TIP3   OH2 8387   4.046   0.976   4.690
 2808TIP3    H1 8388   3.950   0.977   4.693
 2808TIP3    H2 8389   4.068   1.011   4.604
 2809TIP3   OH2 8390   5.406   2.416   5.206
 2809TIP3    H1 8391   5.499   2.417   5.183
 2809TIP3    H2 8392   5.399   2.475   5.280
 2810TIP3   OH2 8393   5.917   4.133   5.011
 2810TIP3    H1 8394   5.959   4.048   5.004
 2810TIP3    H2 8395   5.977   4.193   4.965
 2811TIP3   OH2 8396   3.135   6.131   0.656
 2811TIP3    H1 8397   3.228   6.154   0.661
 2811TIP3    H2 8398   3.101   6.149   0.743
 2812TIP3   OH2 8399   4.649   4.240   5.428
 2812TIP3    H1 8400   4.741   4.233   5.455
 2812TIP3    H2 8401   4.613   4.307   5.486
 2813TIP3   OH2 8402   3.345   0.477   0.883
 2813TIP3    H1 8403   3.330   0.388   0.914
 2813TIP3    H2 8404   3.343   0.531   0.962
 2814TIP3   OH2 8405   0.504   0.163   1.110
 2814TIP3    H1 8406   0.551   0.240   1.079
 2814TIP3    H2 8407   0.505   0.103   1.035
 2815TIP3   OH2 8408   1.957   1.734   2.287
 2815TIP3    H1 8409   1.999   1.675   2.350
 2815TIP3    H2 8410   1.960   1.687   2.204
 2816TIP3   OH2 8411   3.219   3.908   3.781
 2816TIP3    H1 8412   3.154   3.941   3.719
 2816TIP3    H2 8413   3.215   3.813   3.772
 2817TIP3   OH2 8414   0.969   3.078   2.467
 2817TIP3    H1 8415   1.010   2.994   2.487
 2817TIP3    H2 8416   1.022   3.143   2.513
 2818TIP3   OH2 8417   2.647   6.307   5.788
 2818TIP3    H1 8418   2.704   6.230   5.790
 2818TIP3    H2 8419   2.657   6.346   5.875
 2819TIP3   OH2 8420   6.904   4.639   5.010
 2819TIP3    H1 8421   6.927   4.688   5.089
 2819TIP3    H2 8422   6.906   4.705   4.941
 2820TIP3   OH2 8423   1.535   0.741   2.548
 2820TIP3    H1 8424   1.560   0.728   2.640
 2820TIP3    H2 8425   1.494   0.827   2.547
 2821TIP3   OH2 8426   1.799   4.214   5.750
 2821TIP3    H1 8427   1.736   4.280   5.781
 2821TIP3    H2 8428   1.748   4.133   5.745
 2822TIP3   OH2 8429   3.297   5.048   3.555
 2822TIP3    H1 8430   3.308   5.008   3.642
 2822TIP3    H2 8431   3.370   5.013   3.504
 2823TIP3   OH2 8432   2.894   6.305   4.483
 2823TIP3    H1 8433   2.970   6.260   4.519
 2823TIP3    H2 8434   2.844   6.236   4.439
 2824TIP3   OH2 8435   2.400   4.869   2.796
 2824TIP3    H1 8436   2.482   4.834   2.832
 2824TIP3    H2 8437   2.410   4.860   2.701
 2825TIP3   OH2 8438   4.290   5.781   1.896
 2825TIP3    H1 8439   4.216   5.759   1.952
 2825TIP3    H2 8440   4.254   5.782   1.808
 2826TIP3   OH2 8441   4.895   0.262   4.147
 2826TIP3    H1 8442   4.847   0.235   4.224
 2826TIP3    H2 8443   4.828   0.296   4.087
 2827TIP3   OH2 8444   3.224   3.600   1.246
 2827TIP3    H1 8445   3.209   3.532   1.180
 2827TIP3    H2 8446   3.252   3.552   1.324
 2828TIP3   OH2 8447   0.660   3.567   2.649
 2828TIP3    H1 8448   0.699   3.651   2.622
 2828TIP3    H2 8449   0.684   3.506   2.579
 2829TIP3   OH2 8450   3.715   6.536   0.044
 2829TIP3    H1 8451   3.681   6.626   0.041
 2829TIP3    H2 8452   3.766   6.526  -0.036
 2830TIP3   OH2 8453   2.091   0.537   5.085
 2830TIP3    H1 8454   2.091   0.548   5.180
 2830TIP3    H2 8455   2.104   0.625   5.050
 2831TIP3   OH2 8456   6.999   1.079   5.407
 2831TIP3    H1 8457   7.086   1.039   5.398
 2831TIP3    H2 8458   7.017   1.170   5.429
 2832TIP3   OH2 8459   1.411   3.754   3.452
 2832TIP3    H1 8460   1.483   3.815   3.469
 2832TIP3    H2 8461   1.333   3.804   3.474
 2833TIP3   OH2 8462   0.560   0.551   1.815
 2833TIP3    H1 8463   0.525   0.480   1.762
 2833TIP3    H2 8464   0.566   0.515   1.904
 2834TIP3   OH2 8465   1.321   5.525   2.247
 2834TIP3    H1 8466   1.363   5.573   2.320
 2834TIP3    H2 8467   1.354   5.569   2.168
 2835TIP3   OH2 8468   0.491   1.724   2.423
 2835TIP3    H1 8469   0.562   1.711   2.485
 2835TIP3    H2 8470   0.470   1.817   2.429
 2836TIP3   OH2 8471   0.165   1.016   4.299
 2836TIP3    H1 8472   0.140   0.926   4.278
 2836TIP3    H2 8473   0.145   1.026   4.392
 2837TIP3   OH2 8474   2.767   5.357   2.096
 2837TIP3    H1 8475   2.677   5.386   2.086
 2837TIP3    H2 8476   2.782   5.356   2.190
 2838TIP3   OH2 8477   0.301   5.319   4.870
 2838TIP3    H1 8478   0.310   5.261   4.794
 2838TIP3    H2 8479   0.339   5.402   4.842
 2839TIP3   OH2 8480   3.913   4.645   2.057
 2839TIP3    H1 8481   3.958   4.683   1.981
 2839TIP3    H2 8482   3.870   4.566   2.023
 2840TIP3   OH2 8483   5.019   2.611   3.386
 2840TIP3    H1 8484   5.010   2.632   3.293
 2840TIP3    H2 8485   5.092   2.550   3.390
 2841TIP3   OH2 8486   5.384   1.900   4.254
 2841TIP3    H1 8487   5.397   1.982   4.302
 2841TIP3    H2 8488   5.379   1.928   4.162
 2842TIP3   OH2 8489   5.749   2.931   4.612
 2842TIP3    H1 8490   5.725   3.023   4.619
 2842TIP3    H2 8491   5.684   2.894   4.552
 2843TIP3   OH2 8492   2.346   2.906   1.502
 2843TIP3    H1 8493   2.293   2.985   1.510
 2843TIP3    H2 8494   2.295   2.848   1.446
 2844TIP3   OH2 8495   1.277   4.543   5.840
 2844TIP3    H1 8496   1.275   4.629   5.882
 2844TIP3    H2 8497   1.316   4.558   5.754
 2845TIP3   OH2 8498   4.117   5.265   3.300
 2845TIP3    H1 8499   4.046   5.202   3.295
 2845TIP3    H2 8500   4.129   5.296   3.210
 2846TIP3   OH2 8501   2.303   2.571   3.718
 2846TIP3    H1 8502   2.272   2.616   3.639
 2846TIP3    H2 8503   2.392   2.604   3.731
 2847TIP3   OH2 8504   2.840   2.689   3.774
 2847TIP3    H1 8505   2.835   2.739   3.856
 2847TIP3    H2 8506   2.874   2.751   3.710
 2848TIP3   OH2 8507   1.352   2.821   4.688
 2848TIP3    H1 8508   1.430   2.768   4.675
 2848TIP3    H2 8509   1.330   2.809   4.781
 2849TIP3   OH2 8510   2.017   3.338   4.911
 2849TIP3    H1 8511   2.046   3.333   5.002
 2849TIP3    H2 8512   2.074   3.277   4.864
 2850TIP3   OH2 8513   1.624   3.243   3.342
 2850TIP3    H1 8514   1.636   3.156   3.305
 2850TIP3    H2 8515   1.573   3.228   3.422
 2851TIP3   OH2 8516   0.384   4.933   5.753
 2851TIP3    H1 8517   0.397   4.922   5.659
 2851TIP3    H2 8518   0.425   5.017   5.773
 2852TIP3   OH2 8519   2.442   4.247   0.733
 2852TIP3    H1 8520   2.508   4.267   0.666
 2852TIP3    H2 8521   2.427   4.153   0.724
 2853TIP3   OH2 8522   6.323   6.387   1.142
 2853TIP3    H1 8523   6.341   6.304   1.186
 2853TIP3    H2 8524   6.282   6.361   1.060
 2854TIP3   OH2 8525   6.114   1.012   5.339
 2854TIP3    H1 8526   6.091   1.104   5.331
 2854TIP3    H2 8527   6.160   1.005   5.422
 2855TIP3   OH2 8528   5.107   5.383   3.283
 2855TIP3    H1 8529   5.156   5.317   3.234
 2855TIP3    H2 8530   5.167   5.411   3.352
 2856TIP3   OH2 8531   0.547   0.920   5.560
 2856TIP3    H1 8532   0.589   0.835   5.552
 2856TIP3    H2 8533   0.550   0.940   5.654
 2857TIP3   OH2 8534   1.475   0.720   3.262
 2857TIP3    H1 8535   1.387   0.743   3.291
 2857TIP3    H2 8536   1.474   0.733   3.167
 2858TIP3   OH2 8537   2.015   4.260   4.748
 2858TIP3    H1 8538   1.993   4.235   4.838
 2858TIP3    H2 8539   1.931   4.259   4.702
 2859TIP3   OH2 8540   1.053   2.261   1.828
 2859TIP3    H1 8541   0.982   2.225   1.773
 2859TIP3    H2 8542   1.012   2.275   1.913
 2860TIP3   OH2 8543   5.000   0.613   0.765
 2860TIP3    H1 8544   5.028   0.562   0.689
 2860TIP3    H2 8545   5.028   0.562   0.841
 2861TIP3   OH2 8546   2.461   6.005   2.437
 2861TIP3    H1 8547   2.492   5.981   2.524
 2861TIP3    H2 8548   2.422   5.925   2.402
 2862TIP3   OH2 8549   2.925   2.882   3.614
 2862TIP3    H1 8550   2.903   2.975   3.614
 2862TIP3    H2 8551   3.019   2.879   3.596
 2863TIP3   OH2 8552   2.195   1.334   5.020
 2863TIP3    H1 8553   2.127   1.366   5.080
 2863TIP3    H2 8554   2.203   1.403   4.954
 2864TIP3   OH2 8555   1.737   3.281   3.958
 2864TIP3    H1 8556   1.799   3.351   3.940
 2864TIP3    H2 8557   1.651   3.319   3.939
 2865TIP3   OH2 8558   5.233   0.066   2.006
 2865TIP3    H1 8559   5.144   0.100   2.017
 2865TIP3    H2 8560   5.221  -0.026   1.983
 2866TIP3   OH2 8561   0.263   5.751   0.373
 2866TIP3    H1 8562   0.215   5.802   0.307
 2866TIP3    H2 8563   0.288   5.815   0.439
 2867TIP3   OH2 8564   1.439   4.771   3.234
 2867TIP3    H1 8565   1.373   4.762   3.165
 2867TIP3    H2 8566   1.487   4.688   3.232
 2868TIP3   OH2 8567   5.259   5.722   1.755
 2868TIP3    H1 8568   5.185   5.696   1.810
 2868TIP3    H2 8569   5.313   5.777   1.812
 2869TIP3   OH2 8570   6.745   0.338   1.341
 2869TIP3    H1 8571   6.739   0.247   1.309
 2869TIP3    H2 8572   6.785   0.330   1.427
 2870TIP3   OH2 8573   0.260   3.034   1.357
 2870TIP3    H1 8574   0.242   3.009   1.267
 2870TIP3    H2 8575   0.243   3.128   1.360
 2871TIP3   OH2 8576   6.109   3.741   3.396
 2871TIP3    H1 8577   6.197   3.753   3.432
 2871TIP3    H2 8578   6.120   3.672   3.330
 2872TIP3   OH2 8579   1.005   3.633   4.595
 2872TIP3    H1 8580   1.064   3.698   4.556
 2872TIP3    H2 8581   0.988   3.666   4.683
 2873TIP3   OH2 8582   3.364   5.894   4.193
 2873TIP3    H1 8583   3.344   5.937   4.276
 2873TIP3    H2 8584   3.285   5.905   4.140
 2874TIP3   OH2 8585   1.980   1.169   3.644
 2874TIP3    H1 8586   1.985   1.081   3.682
 2874TIP3    H2 8587   1.917   1.215   3.699
 2875TIP3   OH2 8588   1.004   0.693   0.426
 2875TIP3    H1 8589   1.075   0.629   0.420
 2875TIP3    H2 8590   0.942   0.667   0.359
 2876TIP3   OH2 8591   3.709   5.578   0.356
 2876TIP3    H1 8592   3.627   5.566   0.308
 2876TIP3    H2 8593   3.723   5.673   0.354
 2877TIP3   OH2 8594   5.889   6.563   2.841
 2877TIP3    H1 8595   5.909   6.583   2.932
 2877TIP3    H2 8596   5.959   6.605   2.791
 2878TIP3   OH2 8597   3.177   4.915   3.341
 2878TIP3    H1 8598   3.157   4.979   3.273
 2878TIP3    H2 8599   3.189   4.968   3.420
 2879TIP3   OH2 8600   0.055   6.419   5.580
 2879TIP3    H1 8601   0.080   6.329   5.600
 2879TIP3    H2 8602   0.052   6.463   5.665
 2880TIP3   OH2 8603   4.836   4.098   4.817
 2880TIP3    H1 8604   4.849   4.004   4.801
 2880TIP3    H2 8605   4.870   4.112   4.906
 2881TIP3   OH2 8606   3.705   5.507   4.842
 2881TIP3    H1 8607   3.794   5.499   4.876
 2881TIP3    H2 8608   3.712   5.480   4.750
 2882TIP3   OH2 8609   6.915   3.082   5.538
 2882TIP3    H1 8610   7.002   3.098   5.502
 2882TIP3    H2 8611   6.915   3.127   5.622
 2883TIP3   OH2 8612   2.031   3.512   4.630
 2883TIP3    H1 8613   2.050   3.433   4.580
 2883TIP3    H2 8614   2.050   3.584   4.569
 2884TIP3   OH2 8615   1.824   4.566   1.355
 2884TIP3    H1 8616   1.888   4.535   1.419
 2884TIP3    H2 8617   1.795   4.650   1.389
 2885TIP3   OH2 8618   5.092   6.715   5.484
 2885TIP3    H1 8619   5.087   6.619   5.487
 2885TIP3    H2 8620   5.166   6.736   5.541
 2886TIP3   OH2 8621   6.069   0.083   4.841
 2886TIP3    H1 8622   6.126   0.073   4.765
 2886TIP3    H2 8623   6.002   0.016   4.830
 2887TIP3   OH2 8624   3.758   2.608   5.601
 2887TIP3    H1 8625   3.705   2.651   5.668
 2887TIP3    H2 8626   3.716   2.630   5.519
 2888TIP3   OH2 8627   3.887   1.297   4.769
 2888TIP3    H1 8628   3.929   1.244   4.837
 2888TIP3    H2 8629   3.923   1.385   4.781
 2889TIP3   OH2 8630   4.222   4.216   4.201
 2889TIP3    H1 8631   4.192   4.301   4.169
 2889TIP3    H2 8632   4.313   4.231   4.227
 2890TIP3   OH2 8633   0.125   6.176   2.077
 2890TIP3    H1 8634   0.077   6.097   2.053
 2890TIP3    H2 8635   0.192   6.147   2.138
 2891TIP3   OH2 8636   6.524   4.547   4.835
 2891TIP3    H1 8637   6.494   4.519   4.749
 2891TIP3    H2 8638   6.565   4.633   4.819
 2892TIP3   OH2 8639   3.437   1.825   1.150
 2892TIP3    H1 8640   3.394   1.758   1.097
 2892TIP3    H2 8641   3.517   1.846   1.101
 2893TIP3   OH2 8642   3.603   1.143   3.419
 2893TIP3    H1 8643   3.540   1.216   3.421
 2893TIP3    H2 8644   3.549   1.065   3.429
 2894TIP3   OH2 8645   5.639   3.167   3.356
 2894TIP3    H1 8646   5.584   3.210   3.291
 2894TIP3    H2 8647   5.596   3.184   3.439
 2895TIP3   OH2 8648   3.548   6.389   1.840
 2895TIP3    H1 8649   3.637   6.423   1.828
 2895TIP3    H2 8650   3.533   6.396   1.935
 2896TIP3   OH2 8651   2.520   0.381   0.798
 2896TIP3    H1 8652   2.463   0.455   0.817
 2896TIP3    H2 8653   2.581   0.377   0.872
 2897TIP3   OH2 8654   6.697   5.890   5.226
 2897TIP3    H1 8655   6.713   5.985   5.232
 2897TIP3    H2 8656   6.602   5.881   5.234
 2898TIP3   OH2 8657   6.279   3.042   3.688
 2898TIP3    H1 8658   6.286   2.950   3.664
 2898TIP3    H2 8659   6.369   3.069   3.706
 2899TIP3   OH2 8660   2.739   3.657   1.552
 2899TIP3    H1 8661   2.759   3.660   1.645
 2899TIP3    H2 8662   2.689   3.737   1.535
 2900TIP3   OH2 8663   1.339   4.861   4.904
 2900TIP3    H1 8664   1.308   4.883   4.992
 2900TIP3    H2 8665   1.402   4.790   4.918
 2901TIP3   OH2 8666   3.987   5.770   2.786
 2901TIP3    H1 8667   3.912   5.734   2.834
 2901TIP3    H2 8668   4.008   5.851   2.832
 2902TIP3   OH2 8669   5.665   5.997   5.411
 2902TIP3    H1 8670   5.591   6.051   5.437
 2902TIP3    H2 8671   5.656   5.988   5.316
 2903TIP3   OH2 8672   6.297   3.906   3.767
 2903TIP3    H1 8673   6.305   3.817   3.733
 2903TIP3    H2 8674   6.214   3.906   3.816
 2904TIP3   OH2 8675   3.883   1.214   2.305
 2904TIP3    H1 8676   3.883   1.274   2.380
 2904TIP3    H2 8677   3.973   1.216   2.273
 2905TIP3   OH2 8678   5.347   1.161   4.503
 2905TIP3    H1 8679   5.253   1.157   4.519
 2905TIP3    H2 8680   5.358   1.118   4.418
 2906TIP3   OH2 8681   2.108   0.543   2.981
 2906TIP3    H1 8682   2.184   0.574   2.931
 2906TIP3    H2 8683   2.134   0.457   3.013
 2907TIP3   OH2 8684   0.168   3.293   1.426
 2907TIP3    H1 8685   0.086   3.275   1.381
 2907TIP3    H2 8686   0.189   3.384   1.403
 2908TIP3   OH2 8687   2.248   5.266   4.104
 2908TIP3    H1 8688   2.170   5.322   4.111
 2908TIP3    H2 8689   2.226   5.202   4.037
 2909TIP3   OH2 8690   6.681   3.334   3.266
 2909TIP3    H1 8691   6.638   3.254   3.296
 2909TIP3    H2 8692   6.649   3.402   3.325
 2910TIP3   OH2 8693   5.912   5.047   5.586
 2910TIP3    H1 8694   5.882   5.014   5.502
 2910TIP3    H2 8695   5.918   4.970   5.642
 2911TIP3   OH2 8696   2.592   1.784   2.913
 2911TIP3    H1 8697   2.590   1.743   2.999
 2911TIP3    H2 8698   2.507   1.828   2.905
 2912TIP3   OH2 8699   0.652   5.349   4.696
 2912TIP3    H1 8700   0.635   5.398   4.777
 2912TIP3    H2 8701   0.728   5.393   4.658
 2913TIP3   OH2 8702   3.971   6.617   5.335
 2913TIP3    H1 8703   4.043   6.657   5.288
 2913TIP3    H2 8704   4.007   6.536   5.371
 2914TIP3   OH2 8705   2.308   6.723   2.236
 2914TIP3    H1 8706   2.253   6.646   2.222
 2914TIP3    H2 8707   2.318   6.762   2.149
 2915TIP3   OH2 8708   0.815   3.083   4.596
 2915TIP3    H1 8709   0.811   3.020   4.523
 2915TIP3    H2 8710   0.893   3.135   4.579
 2916TIP3   OH2 8711   0.328   2.069   2.744
 2916TIP3    H1 8712   0.343   2.051   2.836
 2916TIP3    H2 8713   0.252   2.014   2.721
 2917TIP3   OH2 8714   5.354   5.299   4.779
 2917TIP3    H1 8715   5.264   5.329   4.766
 2917TIP3    H2 8716   5.404   5.379   4.792
 2918TIP3   OH2 8717   5.772   0.959   0.522
 2918TIP3    H1 8718   5.825   0.928   0.595
 2918TIP3    H2 8719   5.689   0.912   0.531
 2919TIP3   OH2 8720   3.237   4.021   0.866
 2919TIP3    H1 8721   3.171   3.983   0.924
 2919TIP3    H2 8722   3.287   4.081   0.921
 2920TIP3   OH2 8723   2.340   0.931   3.295
 2920TIP3    H1 8724   2.304   0.844   3.276
 2920TIP3    H2 8725   2.264   0.983   3.319
 2921TIP3   OH2 8726   1.396   0.668   4.598
 2921TIP3    H1 8727   1.352   0.661   4.513
 2921TIP3    H2 8728   1.429   0.580   4.615
 2922TIP3   OH2 8729   5.314   1.617   0.794
 2922TIP3    H1 8730   5.285   1.613   0.703
 2922TIP3    H2 8731   5.402   1.579   0.793
 2923TIP3   OH2 8732   2.870   2.364   1.935
 2923TIP3    H1 8733   2.828   2.287   1.974
 2923TIP3    H2 8734   2.801   2.429   1.928
 2924TIP3   OH2 8735   2.102   2.078   1.550
 2924TIP3    H1 8736   2.129   2.160   1.591
 2924TIP3    H2 8737   2.181   2.045   1.508
 2925TIP3   OH2 8738   3.203   2.087   3.133
 2925TIP3    H1 8739   3.224   2.063   3.043
 2925TIP3    H2 8740   3.171   2.177   3.127
 2926TIP3   OH2 8741   0.392   6.771   4.032
 2926TIP3    H1 8742   0.447   6.692   4.031
 2926TIP3    H2 8743   0.355   6.776   3.944
 2927TIP3   OH2 8744   6.891   2.266   1.934
 2927TIP3    H1 8745   6.939   2.239   1.856
 2927TIP3    H2 8746   6.948   2.240   2.007
 2928TIP3   OH2 8747   5.201   1.090   2.687
 2928TIP3    H1 8748   5.225   1.001   2.710
 2928TIP3    H2 8749   5.178   1.085   2.594
 2929TIP3   OH2 8750   5.737   1.416   1.493
 2929TIP3    H1 8751   5.666   1.373   1.541
 2929TIP3    H2 8752   5.815   1.402   1.546
 2930TIP3   OH2 8753   2.165   0.599   0.004
 2930TIP3    H1 8754   2.172   0.674   0.063
 2930TIP3    H2 8755   2.237   0.542   0.029
 2931TIP3   OH2 8756   4.236   1.782   3.034
 2931TIP3    H1 8757   4.161   1.791   3.094
 2931TIP3    H2 8758   4.266   1.692   3.047
 2932TIP3   OH2 8759   3.220   2.996   2.546
 2932TIP3    H1 8760   3.315   3.004   2.542
 2932TIP3    H2 8761   3.201   2.915   2.498
 2933TIP3   OH2 8762   4.048   1.532   3.189
 2933TIP3    H1 8763   4.032   1.626   3.192
 2933TIP3    H2 8764   3.964   1.493   3.213
 2934TIP3   OH2 8765   6.244   4.272   2.704
 2934TIP3    H1 8766   6.157   4.310   2.687
 2934TIP3    H2 8767   6.260   4.217   2.628
 2935TIP3   OH2 8768   5.601   4.965   5.550
 2935TIP3    H1 8769   5.666   4.931   5.613
 2935TIP3    H2 8770   5.529   4.995   5.605
 2936TIP3   OH2 8771   3.543   5.457   5.685
 2936TIP3    H1 8772   3.537   5.445   5.780
 2936TIP3    H2 8773   3.626   5.503   5.672
 2937TIP3   OH2 8774   6.696   2.689   2.966
 2937TIP3    H1 8775   6.739   2.661   2.885
 2937TIP3    H2 8776   6.722   2.624   3.031
 2938TIP3   OH2 8777   6.677   2.776   1.063
 2938TIP3    H1 8778   6.718   2.691   1.050
 2938TIP3    H2 8779   6.690   2.795   1.156
 2939TIP3   OH2 8780   2.560   5.647   1.445
 2939TIP3    H1 8781   2.566   5.716   1.378
 2939TIP3    H2 8782   2.547   5.695   1.527
 2940TIP3   OH2 8783   1.878   6.649   4.542
 2940TIP3    H1 8784   1.866   6.638   4.637
 2940TIP3    H2 8785   1.971   6.669   4.533
 2941TIP3   OH2 8786   1.562   2.809   5.078
 2941TIP3    H1 8787   1.493   2.875   5.089
 2941TIP3    H2 8788   1.524   2.745   5.017
 2942TIP3   OH2 8789   6.380   4.843   4.160
 2942TIP3    H1 8790   6.422   4.893   4.229
 2942TIP3    H2 8791   6.332   4.908   4.109
 2943TIP3   OH2 8792   1.384   3.021   5.044
 2943TIP3    H1 8793   1.327   3.032   4.968
 2943TIP3    H2 8794   1.449   3.091   5.035
 2944TIP3   OH2 8795   3.436   5.999   5.849
 2944TIP3    H1 8796   3.509   5.941   5.868
 2944TIP3    H2 8797   3.364   5.965   5.903
 2945TIP3   OH2 8798   6.717   5.096   2.662
 2945TIP3    H1 8799   6.771   5.172   2.681
 2945TIP3    H2 8800   6.778   5.033   2.623
 2946TIP3   OH2 8801   2.664   4.651   2.133
 2946TIP3    H1 8802   2.698   4.661   2.222
 2946TIP3    H2 8803   2.571   4.636   2.144
 2947TIP3   OH2 8804   1.453   6.672   5.069
 2947TIP3    H1 8805   1.417   6.614   5.137
 2947TIP3    H2 8806   1.410   6.756   5.084
 2948TIP3   OH2 8807   0.833   0.839   1.751
 2948TIP3    H1 8808   0.877   0.821   1.668
 2948TIP3    H2 8809   0.903   0.840   1.816
 2949TIP3   OH2 8810   5.647   1.399   3.200
 2949TIP3    H1 8811   5.569   1.443   3.167
 2949TIP3    H2 8812   5.664   1.330   3.136
 2950TIP3   OH2 8813   2.808   6.775   4.528
 2950TIP3    H1 8814   2.780   6.785   4.619
 2950TIP3    H2 8815   2.892   6.729   4.533
 2951TIP3   OH2 8816   3.060   4.350   1.298
 2951TIP3    H1 8817   2.973   4.376   1.267
 2951TIP3    H2 8818   3.051   4.257   1.319
 2952TIP3   OH2 8819   5.101   1.833   2.894
 2952TIP3    H1 8820   5.031   1.852   2.831
 2952TIP3    H2 8821   5.077   1.748   2.930
 2953TIP3   OH2 8822   4.726   4.119   0.160
 2953TIP3    H1 8823   4.641   4.153   0.188
 2953TIP3    H2 8824   4.777   4.111   0.240
 2954TIP3   OH2 8825   4.747   5.475   1.969
 2954TIP3    H1 8826   4.791   5.445   1.889
 2954TIP3    H2 8827   4.673   5.527   1.938
 2955TIP3   OH2 8828   5.862   6.312   2.769
 2955TIP3    H1 8829   5.862   6.399   2.809
 2955TIP3    H2 8830   5.922   6.319   2.695
 2956TIP3   OH2 8831   2.541   6.464   5.568
 2956TIP3    H1 8832   2.555   6.412   5.647
 2956TIP3    H2 8833   2.492   6.541   5.599
 2957TIP3   OH2 8834   1.094   4.673   2.413
 2957TIP3    H1 8835   1.156   4.611   2.453
 2957TIP3    H2 8836   1.128   4.688   2.325
 2958TIP3   OH2 8837   2.838   1.084   4.791
 2958TIP3    H1 8838   2.911   1.120   4.740
 2958TIP3    H2 8839   2.877   1.018   4.847
 2959TIP3   OH2 8840   5.291   1.091   5.854
 2959TIP3    H1 8841   5.230   1.132   5.916
 2959TIP3    H2 8842   5.377   1.124   5.879
 2960TIP3   OH2 8843   5.608   1.333   3.924
 2960TIP3    H1 8844   5.516   1.325   3.949
 2960TIP3    H2 8845   5.612   1.298   3.835
 2961TIP3   OH2 8846   5.167   2.249   5.249
 2961TIP3    H1 8847   5.181   2.162   5.286
 2961TIP3    H2 8848   5.255   2.281   5.229
 2962TIP3   OH2 8849   0.604   4.055   2.577
 2962TIP3    H1 8850   0.635   4.018   2.495
 2962TIP3    H2 8851   0.513   4.026   2.583
 2963TIP3   OH2 8852   3.707   2.882   3.351
 2963TIP3    H1 8853   3.691   2.903   3.260
 2963TIP3    H2 8854   3.622   2.890   3.394
 2964TIP3   OH2 8855   4.627   0.542   5.725
 2964TIP3    H1 8856   4.563   0.588   5.671
 2964TIP3    H2 8857   4.613   0.575   5.813
 2965TIP3   OH2 8858   4.520   4.614   5.370
 2965TIP3    H1 8859   4.427   4.636   5.375
 2965TIP3    H2 8860   4.532   4.579   5.281
 2966TIP3   OH2 8861   3.663   0.605   4.805
 2966TIP3    H1 8862   3.575   0.644   4.814
 2966TIP3    H2 8863   3.669   0.581   4.713
 2967TIP3   OH2 8864   1.818   6.735   2.779
 2967TIP3    H1 8865   1.912   6.738   2.758
 2967TIP3    H2 8866   1.814   6.682   2.859
 2968TIP3   OH2 8867   6.285   0.912   3.171
 2968TIP3    H1 8868   6.197   0.875   3.168
 2968TIP3    H2 8869   6.340   0.847   3.128
 2969TIP3   OH2 8870   0.443   3.532   3.650
 2969TIP3    H1 8871   0.537   3.551   3.653
 2969TIP3    H2 8872   0.423   3.496   3.736
 2970TIP3   OH2 8873   0.494   0.643   4.029
 2970TIP3    H1 8874   0.416   0.648   4.084
 2970TIP3    H2 8875   0.474   0.698   3.953
 2971TIP3   OH2 8876   2.467   5.794   1.688
 2971TIP3    H1 8877   2.383   5.823   1.722
 2971TIP3    H2 8878   2.524   5.789   1.765
 2972TIP3   OH2 8879   6.644   4.010   0.502
 2972TIP3    H1 8880   6.696   4.086   0.474
 2972TIP3    H2 8881   6.685   3.936   0.457
 2973TIP3   OH2 8882   4.964   3.172   5.669
 2973TIP3    H1 8883   4.996   3.105   5.608
 2973TIP3    H2 8884   5.040   3.192   5.724
 2974TIP3   OH2 8885   7.095   1.653   3.197
 2974TIP3    H1 8886   7.056   1.567   3.214
 2974TIP3    H2 8887   7.173   1.635   3.146
 2975TIP3   OH2 8888   0.483   2.075   0.615
 2975TIP3    H1 8889   0.510   2.027   0.537
 2975TIP3    H2 8890   0.387   2.079   0.608
 2976TIP3   OH2 8891   2.089   3.447   3.458
 2976TIP3    H1 8892   1.995   3.433   3.450
 2976TIP3    H2 8893   2.128   3.363   3.436
 2977TIP3   OH2 8894   4.183   2.722   0.545
 2977TIP3    H1 8895   4.176   2.680   0.631
 2977TIP3    H2 8896   4.215   2.811   0.564
 2978TIP3   OH2 8897   1.156   3.491   0.128
 2978TIP3    H1 8898   1.213   3.567   0.128
 2978TIP3    H2 8899   1.196   3.431   0.065
 2979TIP3   OH2 8900   0.050   0.417   3.778
 2979TIP3    H1 8901  -0.013   0.383   3.714
 2979TIP3    H2 8902   0.009   0.497   3.811
 2980TIP3   OH2 8903   3.725   1.704   3.799
 2980TIP3    H1 8904   3.634   1.731   3.785
 2980TIP3    H2 8905   3.728   1.677   3.890
 2981TIP3   OH2 8906   2.820   3.503   1.199
 2981TIP3    H1 8907   2.781   3.559   1.132
 2981TIP3    H2 8908   2.827   3.417   1.157
 2982TIP3   OH2 8909   5.279   2.106   1.573
 2982TIP3    H1 8910   5.340   2.177   1.595
 2982TIP3    H2 8911   5.225   2.096   1.651
 2983TIP3   OH2 8912   2.271   2.257   3.620
 2983TIP3    H1 8913   2.346   2.286   3.567
 2983TIP3    H2 8914   2.240   2.337   3.662
 2984TIP3   OH2 8915   4.883   2.205   5.817
 2984TIP3    H1 8916   4.908   2.124   5.774
 2984TIP3    H2 8917   4.949   2.269   5.791
 2985TIP3   OH2 8918   3.618   4.076   1.417
 2985TIP3    H1 8919   3.654   4.110   1.499
 2985TIP3    H2 8920   3.557   4.007   1.443
 2986TIP3   OH2 8921   3.549   0.412   1.207
 2986TIP3    H1 8922   3.487   0.484   1.223
 2986TIP3    H2 8923   3.495   0.333   1.212
 2987TIP3   OH2 8924   2.653   5.050   3.695
 2987TIP3    H1 8925   2.688   5.130   3.735
 2987TIP3    H2 8926   2.664   4.982   3.761
 2988TIP3   OH2 8927   6.944   3.834   1.260
 2988TIP3    H1 8928   6.987   3.844   1.175
 2988TIP3    H2 8929   6.905   3.746   1.257
 2989TIP3   OH2 8930   7.134   1.036   1.686
 2989TIP3    H1 8931   7.169   1.079   1.609
 2989TIP3    H2 8932   7.209   0.994   1.728
 2990TIP3   OH2 8933   3.326   5.398   5.527
 2990TIP3    H1 8934   3.409   5.433   5.558
 2990TIP3    H2 8935   3.322   5.423   5.435
 2991TIP3   OH2 8936   1.533   3.152   1.099
 2991TIP3    H1 8937   1.617   3.167   1.055
 2991TIP3    H2 8938   1.471   3.138   1.028
 2992TIP3   OH2 8939   3.244   4.472   0.828
 2992TIP3    H1 8940   3.214   4.449   0.915
 2992TIP3    H2 8941   3.190   4.420   0.769
 2993TIP3   OH2 8942   4.153   6.760   0.900
 2993TIP3    H1 8943   4.141   6.834   0.958
 2993TIP3    H2 8944   4.245   6.735   0.911
 2994TIP3   OH2 8945   1.408   4.286   2.738
 2994TIP3    H1 8946   1.401   4.223   2.810
 2994TIP3    H2 8947   1.500   4.313   2.739
 2995TIP3   OH2 8948   3.701   2.009   3.914
 2995TIP3    H1 8949   3.741   2.096   3.907
 2995TIP3    H2 8950   3.769   1.955   3.955
 2996TIP3   OH2 8951   7.079   0.693   2.228
 2996TIP3    H1 8952   7.034   0.737   2.156
 2996TIP3    H2 8953   7.133   0.761   2.268
 2997TIP3   OH2 8954   2.157   2.338   1.642
 2997TIP3    H1 8955   2.124   2.335   1.552
 2997TIP3    H2 8956   2.250   2.358   1.632
 2998TIP3   OH2 8957   3.719   4.366   2.257
 2998TIP3    H1 8958   3.725   4.275   2.287
 2998TIP3    H2 8959   3.685   4.413   2.333
 2999TIP3   OH2 8960   2.277   4.971   3.366
 2999TIP3    H1 8961   2.265   4.933   3.279
 2999TIP3    H2 8962   2.364   5.012   3.362
 3000TIP3   OH2 8963   4.881   0.969   4.404
 3000TIP3    H1 8964   4.911   0.885   4.439
 3000TIP3    H2 8965   4.786   0.967   4.415
 3001TIP3   OH2 8966   4.455   2.980   4.062
 3001TIP3    H1 8967   4.385   3.012   4.006
 3001TIP3    H2 8968   4.458   2.885   4.047
 3002TIP3   OH2 8969   6.003   2.276   3.018
 3002TIP3    H1 8970   5.982   2.369   3.022
 3002TIP3    H2 8971   6.007   2.256   2.925
 3003TIP3   OH2 8972   0.052   5.086   2.628
 3003TIP3    H1 8973   0.015   5.175   2.626
 3003TIP3    H2 8974   0.028   5.049   2.543
 3004TIP3   OH2 8975   1.649   1.517   0.727
 3004TIP3    H1 8976   1.727   1.544   0.678
 3004TIP3    H2 8977   1.582   1.580   0.701
 3005TIP3   OH2 8978   6.229   6.470   2.908
 3005TIP3    H1 8979   6.295   6.538   2.891
 3005TIP3    H2 8980   6.169   6.511   2.970
 3006TIP3   OH2 8981   4.099   5.557   5.532
 3006TIP3    H1 8982   4.180   5.607   5.518
 3006TIP3    H2 8983   4.063   5.545   5.444
 3007TIP3   OH2 8984   5.569   0.094   4.677
 3007TIP3    H1 8985   5.484   0.103   4.634
 3007TIP3    H2 8986   5.556   0.134   4.763
 3008TIP3   OH2 8987   0.459   1.531   5.678
 3008TIP3    H1 8988   0.470   1.581   5.597
 3008TIP3    H2 8989   0.541   1.542   5.725
 3009TIP3   OH2 8990   2.695   2.103   5.109
 3009TIP3    H1 8991   2.683   2.119   5.016
 3009TIP3    H2 8992   2.779   2.143   5.131
 3010TIP3   OH2 8993   4.465   6.414   0.573
 3010TIP3    H1 8994   4.397   6.368   0.623
 3010TIP3    H2 8995   4.450   6.386   0.482
 3011TIP3   OH2 8996   4.918   5.878   5.272
 3011TIP3    H1 8997   4.844   5.820   5.291
 3011TIP3    H2 8998   4.981   5.822   5.227
 3012TIP3   OH2 8999   0.902   0.604   1.072
 3012TIP3    H1 9000   0.840   0.581   1.003
 3012TIP3    H2 9001   0.980   0.636   1.025
 3013TIP3   OH2 9002   2.210   4.522   2.426
 3013TIP3    H1 9003   2.238   4.601   2.380
 3013TIP3    H2 9004   2.291   4.472   2.439
 3014TIP3   OH2 9005   1.434   5.661   2.975
 3014TIP3    H1 9006   1.401   5.730   3.033
 3014TIP3    H2 9007   1.461   5.591   3.034
 3015TIP3   OH2 9008   2.707   5.168   0.373
 3015TIP3    H1 9009   2.637   5.140   0.432
 3015TIP3    H2 9010   2.691   5.261   0.359
 3016TIP3   OH2 9011   5.526   5.782   4.842
 3016TIP3    H1 9012   5.557   5.871   4.834
 3016TIP3    H2 9013   5.591   5.738   4.897
 3017TIP3   OH2 9014   1.976   6.422   2.604
 3017TIP3    H1 9015   2.050   6.454   2.553
 3017TIP3    H2 9016   1.898   6.452   2.557
 3018TIP3   OH2 9017   6.858   1.530   3.702
 3018TIP3    H1 9018   6.767   1.503   3.694
 3018TIP3    H2 9019   6.863   1.615   3.659
 3019TIP3   OH2 9020   6.378   0.089   5.142
 3019TIP3    H1 9021   6.449   0.146   5.169
 3019TIP3    H2 9022   6.317   0.088   5.216
 3020TIP3   OH2 9023   4.021   6.533   3.302
 3020TIP3    H1 9024   4.030   6.532   3.207
 3020TIP3    H2 9025   3.963   6.607   3.320
 3021TIP3   OH2 9026   1.931   5.670   1.122
 3021TIP3    H1 9027   1.865   5.658   1.054
 3021TIP3    H2 9028   1.990   5.737   1.086
 3022TIP3   OH2 9029   6.921   3.764   0.589
 3022TIP3    H1 9030   6.940   3.696   0.525
 3022TIP3    H2 9031   6.829   3.750   0.612
 3023TIP3   OH2 9032   3.780   5.207   5.780
 3023TIP3    H1 9033   3.788   5.268   5.707
 3023TIP3    H2 9034   3.706   5.240   5.832
 3024TIP3   OH2 9035   1.632   5.786   0.609
 3024TIP3    H1 9036   1.697   5.804   0.542
 3024TIP3    H2 9037   1.672   5.820   0.690
 3025TIP3   OH2 9038   6.239   0.483   1.776
 3025TIP3    H1 9039   6.329   0.516   1.780
 3025TIP3    H2 9040   6.185   0.562   1.787
 3026TIP3   OH2 9041   0.868   6.688   0.279
 3026TIP3    H1 9042   0.890   6.760   0.220
 3026TIP3    H2 9043   0.793   6.720   0.330
 3027TIP3   OH2 9044   3.310   3.205   4.911
 3027TIP3    H1 9045   3.276   3.294   4.908
 3027TIP3    H2 9046   3.403   3.214   4.892
 3028TIP3   OH2 9047   5.996   4.549   4.822
 3028TIP3    H1 9048   5.999   4.610   4.895
 3028TIP3    H2 9049   5.976   4.603   4.746
 3029TIP3   OH2 9050   0.362   3.178   4.934
 3029TIP3    H1 9051   0.317   3.095   4.955
 3029TIP3    H2 9052   0.453   3.162   4.956
 3030TIP3   OH2 9053   2.704   2.727   4.969
 3030TIP3    H1 9054   2.714   2.803   4.912
 3030TIP3    H2 9055   2.659   2.760   5.047
 3031TIP3   OH2 9056   1.960   3.200   5.434
 3031TIP3    H1 9057   1.953   3.284   5.479
 3031TIP3    H2 9058   2.014   3.147   5.491
 3032TIP3   OH2 9059   4.574   0.704   0.451
 3032TIP3    H1 9060   4.575   0.758   0.372
 3032TIP3    H2 9061   4.599   0.616   0.420
 3033TIP3   OH2 9062   1.646   4.237   1.989
 3033TIP3    H1 9063   1.558   4.205   1.970
 3033TIP3    H2 9064   1.674   4.187   2.065
 3034TIP3   OH2 9065   0.624   2.203   2.803
 3034TIP3    H1 9066   0.699   2.253   2.772
 3034TIP3    H2 9067   0.647   2.176   2.892
 3035TIP3   OH2 9068   0.768   6.237   2.728
 3035TIP3    H1 9069   0.812   6.254   2.811
 3035TIP3    H2 9070   0.711   6.162   2.746
 3036TIP3   OH2 9071   0.034   1.479   3.054
 3036TIP3    H1 9072   0.002   1.478   2.964
 3036TIP3    H2 9073   0.118   1.433   3.049
 3037TIP3   OH2 9074   3.851   0.851   5.866
 3037TIP3    H1 9075   3.839   0.756   5.863
 3037TIP3    H2 9076   3.763   0.886   5.876
 3038TIP3   OH2 9077   0.278   6.316   2.458
 3038TIP3    H1 9078   0.333   6.352   2.527
 3038TIP3    H2 9079   0.188   6.334   2.487
 3039TIP3   OH2 9080   2.438   1.933   0.797
 3039TIP3    H1 9081   2.444   2.028   0.792
 3039TIP3    H2 9082   2.397   1.916   0.882
 3040TIP3   OH2 9083   5.419   4.629   5.136
 3040TIP3    H1 9084   5.410   4.724   5.144
 3040TIP3    H2 9085   5.419   4.612   5.042
 3041TIP3   OH2 9086   4.807   6.138   1.111
 3041TIP3    H1 9087   4.806   6.234   1.112
 3041TIP3    H2 9088   4.717   6.113   1.132
 3042TIP3   OH2 9089   5.207   0.069   3.814
 3042TIP3    H1 9090   5.190  -0.022   3.790
 3042TIP3    H2 9091   5.274   0.064   3.882
 3043TIP3   OH2 9092   1.796   6.542   4.259
 3043TIP3    H1 9093   1.713   6.554   4.307
 3043TIP3    H2 9094   1.863   6.545   4.326
 3044TIP3   OH2 9095   4.637   6.142   4.304
 3044TIP3    H1 9096   4.608   6.232   4.320
 3044TIP3    H2 9097   4.719   6.151   4.256
 3045TIP3   OH2 9098   2.465   2.200   0.799
 3045TIP3    H1 9099   2.403   2.258   0.844
 3045TIP3    H2 9100   2.476   2.240   0.713
 3046TIP3   OH2 9101   0.470   3.563   2.894
 3046TIP3    H1 9102   0.521   3.547   2.815
 3046TIP3    H2 9103   0.503   3.499   2.957
 3047TIP3   OH2 9104   4.398   3.403   0.378
 3047TIP3    H1 9105   4.382   3.488   0.420
 3047TIP3    H2 9106   4.483   3.376   0.412
 3048TIP3   OH2 9107   5.217   4.327   5.897
 3048TIP3    H1 9108   5.310   4.332   5.916
 3048TIP3    H2 9109   5.210   4.263   5.826
 3049TIP3   OH2 9110   0.428   6.674   5.781
 3049TIP3    H1 9111   0.524   6.672   5.783
 3049TIP3    H2 9112   0.406   6.729   5.706
 3050TIP3   OH2 9113   3.270   6.212   0.892
 3050TIP3    H1 9114   3.331   6.185   0.823
 3050TIP3    H2 9115   3.283   6.306   0.900
 3051TIP3   OH2 9116   3.912   3.105   0.618
 3051TIP3    H1 9117   3.861   3.164   0.562
 3051TIP3    H2 9118   3.853   3.081   0.688
 3052TIP3   OH2 9119   0.439   5.034   3.651
 3052TIP3    H1 9120   0.364   4.990   3.693
 3052TIP3    H2 9121   0.427   5.126   3.672
 3053TIP3   OH2 9122   2.933   2.496   0.155
 3053TIP3    H1 9123   2.857   2.466   0.106
 3053TIP3    H2 9124   2.943   2.588   0.130
 3054TIP3   OH2 9125   0.079   5.554   5.635
 3054TIP3    H1 9126   0.142   5.557   5.563
 3054TIP3    H2 9127   0.018   5.625   5.616
 3055TIP3   OH2 9128   2.731   6.091   4.411
 3055TIP3    H1 9129   2.765   6.022   4.468
 3055TIP3    H2 9130   2.649   6.055   4.376
 3056TIP3   OH2 9131   6.109   0.848   3.585
 3056TIP3    H1 9132   6.091   0.754   3.577
 3056TIP3    H2 9133   6.191   0.860   3.537
 3057TIP3   OH2 9134   2.909   4.089   5.497
 3057TIP3    H1 9135   2.896   4.027   5.425
 3057TIP3    H2 9136   2.863   4.168   5.468
 3058TIP3   OH2 9137   1.404   0.045   3.732
 3058TIP3    H1 9138   1.482   0.016   3.780
 3058TIP3    H2 9139   1.366   0.113   3.788
 3059TIP3   OH2 9140   2.776   1.748   3.980
 3059TIP3    H1 9141   2.730   1.684   3.926
 3059TIP3    H2 9142   2.751   1.833   3.942
 3060TIP3   OH2 9143   6.872   1.675   2.652
 3060TIP3    H1 9144   6.816   1.620   2.598
 3060TIP3    H2 9145   6.836   1.667   2.740
 3061TIP3   OH2 9146   1.235   5.656   1.945
 3061TIP3    H1 9147   1.238   5.745   1.911
 3061TIP3    H2 9148   1.152   5.651   1.993
 3062TIP3   OH2 9149   3.638   6.218   5.422
 3062TIP3    H1 9150   3.656   6.152   5.490
 3062TIP3    H2 9151   3.565   6.269   5.457
 3063TIP3   OH2 9152   2.961   1.261   2.184
 3063TIP3    H1 9153   2.986   1.338   2.132
 3063TIP3    H2 9154   3.002   1.277   2.269
 3064TIP3   OH2 9155   0.571   5.155   5.788
 3064TIP3    H1 9156   0.661   5.128   5.768
 3064TIP3    H2 9157   0.572   5.250   5.777
 3065TIP3   OH2 9158   1.168   2.163   0.923
 3065TIP3    H1 9159   1.160   2.214   1.004
 3065TIP3    H2 9160   1.111   2.208   0.861
 3066TIP3   OH2 9161   5.246   4.146   5.669
 3066TIP3    H1 9162   5.247   4.073   5.607
 3066TIP3    H2 9163   5.206   4.218   5.621
 3067TIP3   OH2 9164   1.487   1.760   2.477
 3067TIP3    H1 9165   1.483   1.667   2.456
 3067TIP3    H2 9166   1.417   1.800   2.425
 3068TIP3   OH2 9167   2.392   5.773   2.294
 3068TIP3    H1 9168   2.483   5.766   2.266
 3068TIP3    H2 9169   2.341   5.737   2.222
 3069TIP3   OH2 9170   1.060   6.748   1.890
 3069TIP3    H1 9171   1.101   6.833   1.908
 3069TIP3    H2 9172   1.020   6.758   1.804
 3070TIP3   OH2 9173   0.488   1.255   2.928
 3070TIP3    H1 9174   0.405   1.260   2.975
 3070TIP3    H2 9175   0.536   1.184   2.971
 3071TIP3   OH2 9176   1.121   1.578   4.982
 3071TIP3    H1 9177   1.185   1.508   4.994
 3071TIP3    H2 9178   1.125   1.598   4.889
 3072TIP3   OH2 9179   3.067   6.243   3.947
 3072TIP3    H1 9180   3.065   6.196   3.863
 3072TIP3    H2 9181   3.040   6.333   3.924
 3073TIP3   OH2 9182   5.556   3.976   5.599
 3073TIP3    H1 9183   5.595   3.897   5.562
 3073TIP3    H2 9184   5.468   3.978   5.563
 3074TIP3   OH2 9185   2.684   3.172   4.302
 3074TIP3    H1 9186   2.672   3.097   4.243
 3074TIP3    H2 9187   2.644   3.245   4.255
 3075TIP3   OH2 9188   5.630   1.675   1.114
 3075TIP3    H1 9189   5.597   1.623   1.041
 3075TIP3    H2 9190   5.564   1.666   1.182
 3076TIP3   OH2 9191   2.563   5.212   3.034
 3076TIP3    H1 9192   2.632   5.158   2.996
 3076TIP3    H2 9193   2.491   5.151   3.051
 3077TIP3   OH2 9194   5.612   1.597   5.770
 3077TIP3    H1 9195   5.659   1.554   5.699
 3077TIP3    H2 9196   5.628   1.541   5.847
 3078TIP3   OH2 9197   0.686   5.718   4.419
 3078TIP3    H1 9198   0.651   5.736   4.332
 3078TIP3    H2 9199   0.610   5.718   4.477
 3079TIP3   OH2 9200   1.373   5.143   3.492
 3079TIP3    H1 9201   1.435   5.154   3.421
 3079TIP3    H2 9202   1.329   5.059   3.473
 3080TIP3   OH2 9203   5.232   5.334   0.913
 3080TIP3    H1 9204   5.194   5.373   0.834
 3080TIP3    H2 9205   5.259   5.410   0.966
 3081TIP3   OH2 9206   4.501   5.446   4.496
 3081TIP3    H1 9207   4.483   5.531   4.456
 3081TIP3    H2 9208   4.425   5.392   4.472
 3082TIP3   OH2 9209   5.160   2.074   3.438
 3082TIP3    H1 9210   5.068   2.050   3.433
 3082TIP3    H2 9211   5.203   1.999   3.478
 3083TIP3   OH2 9212   0.895   2.691   5.750
 3083TIP3    H1 9213   0.841   2.723   5.822
 3083TIP3    H2 9214   0.984   2.689   5.786
 3084TIP3   OH2 9215   2.338   6.025   2.173
 3084TIP3    H1 9216   2.408   6.023   2.238
 3084TIP3    H2 9217   2.358   6.101   2.118
 3085TIP3   OH2 9218   2.235   4.305   1.277
 3085TIP3    H1 9219   2.176   4.304   1.202
 3085TIP3    H2 9220   2.192   4.360   1.342
 3086TIP3   OH2 9221   3.933   2.203   5.812
 3086TIP3    H1 9222   3.962   2.123   5.856
 3086TIP3    H2 9223   3.842   2.185   5.788
 3087TIP3   OH2 9224   0.311   5.663   5.448
 3087TIP3    H1 9225   0.324   5.721   5.523
 3087TIP3    H2 9226   0.284   5.721   5.377
 3088TIP3   OH2 9227   0.044   3.268   3.170
 3088TIP3    H1 9228   0.000   3.221   3.099
 3088TIP3    H2 9229   0.065   3.201   3.234
 3089TIP3   OH2 9230   0.848   2.573   0.605
 3089TIP3    H1 9231   0.888   2.659   0.615
 3089TIP3    H2 9232   0.919   2.517   0.574
 3090TIP3   OH2 9233   3.658   0.975   0.323
 3090TIP3    H1 9234   3.566   0.984   0.296
 3090TIP3    H2 9235   3.680   0.884   0.304
 3091TIP3   OH2 9236   6.203   1.931   4.308
 3091TIP3    H1 9237   6.125   1.909   4.256
 3091TIP3    H2 9238   6.189   1.887   4.392
 3092TIP3   OH2 9239   6.219   6.505   2.590
 3092TIP3    H1 9240   6.176   6.578   2.634
 3092TIP3    H2 9241   6.253   6.542   2.508
 3093TIP3   OH2 9242   4.781   1.399   5.660
 3093TIP3    H1 9243   4.871   1.367   5.666
 3093TIP3    H2 9244   4.731   1.324   5.628
 3094TIP3   OH2 9245   3.384   5.808   3.871
 3094TIP3    H1 9246   3.399   5.717   3.898
 3094TIP3    H2 9247   3.472   5.844   3.861
 3095TIP3   OH2 9248   6.280   0.130   0.822
 3095TIP3    H1 9249   6.194   0.105   0.791
 3095TIP3    H2 9250   6.338   0.115   0.748
 3096TIP3   OH2 9251   6.541   5.193   0.282
 3096TIP3    H1 9252   6.465   5.241   0.249
 3096TIP3    H2 9253   6.506   5.108   0.309
 3097TIP3   OH2 9254   6.636   4.803   5.511
 3097TIP3    H1 9255   6.700   4.823   5.579
 3097TIP3    H2 9256   6.637   4.708   5.504
 3098TIP3   OH2 9257   4.694   2.908   5.913
 3098TIP3    H1 9258   4.705   2.975   5.846
 3098TIP3    H2 9259   4.755   2.838   5.888
 3099TIP3   OH2 9260   7.237   3.396   3.963
 3099TIP3    H1 9261   7.229   3.459   3.891
 3099TIP3    H2 9262   7.158   3.411   4.016
 3100TIP3   OH2 9263   1.293   5.067   4.245
 3100TIP3    H1 9264   1.278   4.973   4.233
 3100TIP3    H2 9265   1.373   5.085   4.196
 3101TIP3   OH2 9266   3.414   1.076   0.897
 3101TIP3    H1 9267   3.397   1.047   0.986
 3101TIP3    H2 9268   3.448   0.999   0.852
 3102TIP3   OH2 9269   6.731   5.241   5.710
 3102TIP3    H1 9270   6.820   5.238   5.676
 3102TIP3    H2 9271   6.677   5.206   5.639
 3103TIP3   OH2 9272   2.286   2.619   0.445
 3103TIP3    H1 9273   2.271   2.697   0.392
 3103TIP3    H2 9274   2.203   2.572   0.443
 3104TIP3   OH2 9275   3.671   5.838   0.316
 3104TIP3    H1 9276   3.744   5.867   0.261
 3104TIP3    H2 9277   3.596   5.889   0.285
 3105TIP3   OH2 9278   6.765   3.405   0.465
 3105TIP3    H1 9279   6.839   3.465   0.469
 3105TIP3    H2 9280   6.805   3.318   0.454
 3106TIP3   OH2 9281   0.300   5.867   2.676
 3106TIP3    H1 9282   0.342   5.922   2.609
 3106TIP3    H2 9283   0.303   5.920   2.756
 3107TIP3   OH2 9284   5.271   0.575   1.160
 3107TIP3    H1 9285   5.347   0.633   1.160
 3107TIP3    H2 9286   5.280   0.524   1.240
 3108TIP3   OH2 9287   5.085   4.654   4.793
 3108TIP3    H1 9288   5.118   4.567   4.815
 3108TIP3    H2 9289   5.002   4.662   4.840
 3109TIP3   OH2 9290   3.017   5.653   0.542
 3109TIP3    H1 9291   3.011   5.730   0.598
 3109TIP3    H2 9292   2.933   5.650   0.497
 3110TIP3   OH2 9293   2.313   4.401   1.703
 3110TIP3    H1 9294   2.241   4.420   1.644
 3110TIP3    H2 9295   2.390   4.441   1.660
 3111TIP3   OH2 9296   3.554   6.655   3.548
 3111TIP3    H1 9297   3.468   6.614   3.544
 3111TIP3    H2 9298   3.564   6.699   3.463
 3112TIP3   OH2 9299   3.063   2.245   2.168
 3112TIP3    H1 9300   3.008   2.299   2.112
 3112TIP3    H2 9301   3.003   2.208   2.232
 3113TIP3   OH2 9302   2.957   5.271   2.812
 3113TIP3    H1 9303   3.023   5.235   2.753
 3113TIP3    H2 9304   2.904   5.329   2.757
 3114TIP3   OH2 9305   5.756   4.884   5.766
 3114TIP3    H1 9306   5.699   4.829   5.820
 3114TIP3    H2 9307   5.804   4.822   5.711
 3115TIP3   OH2 9308   2.889   3.104   2.972
 3115TIP3    H1 9309   2.883   3.042   2.900
 3115TIP3    H2 9310   2.890   3.050   3.051
 3116TIP3   OH2 9311   1.110   5.265   3.197
 3116TIP3    H1 9312   1.122   5.334   3.262
 3116TIP3    H2 9313   1.072   5.192   3.245
 3117TIP3   OH2 9314   3.607   5.770   5.695
 3117TIP3    H1 9315   3.650   5.803   5.775
 3117TIP3    H2 9316   3.674   5.717   5.653
 3118TIP3   OH2 9317   4.000   6.041   0.901
 3118TIP3    H1 9318   4.071   5.998   0.948
 3118TIP3    H2 9319   4.034   6.129   0.883
 3119TIP3   OH2 9320   6.050   3.303   1.657
 3119TIP3    H1 9321   6.120   3.260   1.707
 3119TIP3    H2 9322   6.040   3.249   1.579
 3120TIP3   OH2 9323   1.645   6.621   4.021
 3120TIP3    H1 9324   1.674   6.609   3.930
 3120TIP3    H2 9325   1.722   6.598   4.073
 3121TIP3   OH2 9326   4.604   4.888   2.431
 3121TIP3    H1 9327   4.563   4.814   2.476
 3121TIP3    H2 9328   4.588   4.870   2.338
 3122TIP3   OH2 9329   3.746   6.330   0.514
 3122TIP3    H1 9330   3.794   6.368   0.440
 3122TIP3    H2 9331   3.786   6.243   0.526
 3123TIP3   OH2 9332   3.875   2.061   1.213
 3123TIP3    H1 9333   3.916   2.034   1.130
 3123TIP3    H2 9334   3.889   2.156   1.217
 3124TIP3   OH2 9335   3.026   0.104   4.215
 3124TIP3    H1 9336   3.066   0.167   4.155
 3124TIP3    H2 9337   2.969   0.051   4.160
 3125TIP3   OH2 9338   1.710   0.091   3.458
 3125TIP3    H1 9339   1.675   0.029   3.521
 3125TIP3    H2 9340   1.759   0.038   3.396
 3126TIP3   OH2 9341   0.391   0.533   3.151
 3126TIP3    H1 9342   0.441   0.594   3.206
 3126TIP3    H2 9343   0.305   0.574   3.141
 3127TIP3   OH2 9344   6.372   1.080   3.606
 3127TIP3    H1 9345   6.347   1.008   3.548
 3127TIP3    H2 9346   6.367   1.043   3.694
 3128TIP3   OH2 9347   0.338   3.040   2.006
 3128TIP3    H1 9348   0.387   2.981   2.063
 3128TIP3    H2 9349   0.306   2.983   1.935
 3129TIP3   OH2 9350   0.045   0.130   0.508
 3129TIP3    H1 9351   0.025   0.211   0.555
 3129TIP3    H2 9352   0.085   0.160   0.426
 3130TIP3   OH2 9353   3.394   2.305   5.805
 3130TIP3    H1 9354   3.406   2.393   5.770
 3130TIP3    H2 9355   3.369   2.252   5.729
 3131TIP3   OH2 9356   1.566   3.263   5.517
 3131TIP3    H1 9357   1.616   3.229   5.591
 3131TIP3    H2 9358   1.513   3.188   5.487
 3132TIP3   OH2 9359   4.860   3.205   0.943
 3132TIP3    H1 9360   4.801   3.132   0.926
 3132TIP3    H2 9361   4.948   3.167   0.937
 3133TIP3   OH2 9362   5.978   0.123   4.548
 3133TIP3    H1 9363   5.917   0.146   4.478
 3133TIP3    H2 9364   5.929   0.061   4.603
 3134TIP3   OH2 9365   4.136   1.249   5.847
 3134TIP3    H1 9366   4.170   1.171   5.891
 3134TIP3    H2 9367   4.041   1.241   5.855
 3135TIP3   OH2 9368   5.724   3.028   3.889
 3135TIP3    H1 9369   5.726   3.026   3.793
 3135TIP3    H2 9370   5.712   3.120   3.911
 3136TIP3   OH2 9371   2.749   4.314   5.471
 3136TIP3    H1 9372   2.666   4.272   5.449
 3136TIP3    H2 9373   2.733   4.408   5.461
 3137TIP3   OH2 9374   1.173   1.149   4.759
 3137TIP3    H1 9375   1.163   1.103   4.675
 3137TIP3    H2 9376   1.177   1.242   4.734
 3138TIP3   OH2 9377   5.688   4.349   5.779
 3138TIP3    H1 9378   5.768   4.333   5.729
 3138TIP3    H2 9379   5.629   4.393   5.717
 3139TIP3   OH2 9380   4.880   5.128   5.724
 3139TIP3    H1 9381   4.825   5.172   5.659
 3139TIP3    H2 9382   4.966   5.167   5.713
 3140TIP3   OH2 9383   4.978   6.554   2.634
 3140TIP3    H1 9384   4.890   6.517   2.638
 3140TIP3    H2 9385   4.966   6.648   2.645
 3141TIP3   OH2 9386   1.613   3.510   0.178
 3141TIP3    H1 9387   1.581   3.590   0.220
 3141TIP3    H2 9388   1.698   3.494   0.218
 3142TIP3   OH2 9389   3.488   4.136   0.534
 3142TIP3    H1 9390   3.456   4.144   0.444
 3142TIP3    H2 9391   3.554   4.067   0.530
 3143TIP3   OH2 9392   5.894   5.501   4.246
 3143TIP3    H1 9393   5.839   5.431   4.282
 3143TIP3    H2 9394   5.971   5.502   4.303
 3144TIP3   OH2 9395   4.919   4.702   2.988
 3144TIP3    H1 9396   4.999   4.697   3.040
 3144TIP3    H2 9397   4.944   4.665   2.903
 3145TIP3   OH2 9398   4.939   3.792   4.843
 3145TIP3    H1 9399   4.968   3.736   4.770
 3145TIP3    H2 9400   4.892   3.734   4.901
 3146TIP3   OH2 9401   3.403   4.647   4.853
 3146TIP3    H1 9402   3.420   4.721   4.912
 3146TIP3    H2 9403   3.413   4.684   4.765
 3147TIP3   OH2 9404   6.369   4.206   4.773
 3147TIP3    H1 9405   6.414   4.165   4.699
 3147TIP3    H2 9406   6.300   4.259   4.732
 3148TIP3   OH2 9407   2.496   1.408   4.091
 3148TIP3    H1 9408   2.451   1.474   4.144
 3148TIP3    H2 9409   2.486   1.440   4.001
 3149TIP3   OH2 9410   4.038   3.454   2.363
 3149TIP3    H1 9411   4.010   3.543   2.343
 3149TIP3    H2 9412   4.088   3.462   2.445
 3150TIP3   OH2 9413   5.437   1.579   4.796
 3150TIP3    H1 9414   5.522   1.603   4.760
 3150TIP3    H2 9415   5.451   1.496   4.840
 3151TIP3   OH2 9416   5.339   1.669   5.757
 3151TIP3    H1 9417   5.353   1.709   5.671
 3151TIP3    H2 9418   5.416   1.613   5.769
 3152TIP3   OH2 9419   7.017   4.347   3.978
 3152TIP3    H1 9420   7.015   4.323   3.885
 3152TIP3    H2 9421   7.104   4.321   4.008
 3153TIP3   OH2 9422   7.102   0.040   2.753
 3153TIP3    H1 9423   7.191   0.041   2.787
 3153TIP3    H2 9424   7.113   0.029   2.658
 3154TIP3   OH2 9425   0.601   2.737   0.133
 3154TIP3    H1 9426   0.636   2.649   0.126
 3154TIP3    H2 9427   0.590   2.766   0.042
 3155TIP3   OH2 9428   0.712   5.321   5.315
 3155TIP3    H1 9429   0.707   5.225   5.313
 3155TIP3    H2 9430   0.621   5.349   5.303
 3156TIP3   OH2 9431   5.070   5.602   2.582
 3156TIP3    H1 9432   5.000   5.537   2.585
 3156TIP3    H2 9433   5.030   5.682   2.614
 3157TIP3   OH2 9434   4.536   0.280   2.121
 3157TIP3    H1 9435   4.565   0.245   2.205
 3157TIP3    H2 9436   4.486   0.358   2.144
 3158TIP3   OH2 9437   0.797   2.885   3.620
 3158TIP3    H1 9438   0.745   2.947   3.672
 3158TIP3    H2 9439   0.831   2.938   3.548
 3159TIP3   OH2 9440   6.231   2.216   2.372
 3159TIP3    H1 9441   6.260   2.202   2.282
 3159TIP3    H2 9442   6.273   2.147   2.422
 3160TIP3   OH2 9443   6.816   6.129   5.216
 3160TIP3    H1 9444   6.765   6.198   5.258
 3160TIP3    H2 9445   6.842   6.166   5.132
 3161TIP3   OH2 9446   3.815   2.945   2.841
 3161TIP3    H1 9447   3.889   2.924   2.785
 3161TIP3    H2 9448   3.743   2.961   2.781
 3162TIP3   OH2 9449   1.245   1.082   1.383
 3162TIP3    H1 9450   1.292   1.102   1.464
 3162TIP3    H2 9451   1.311   1.096   1.314
 3163TIP3   OH2 9452   7.044   5.612   4.528
 3163TIP3    H1 9453   7.006   5.541   4.580
 3163TIP3    H2 9454   7.134   5.619   4.559
 3164TIP3   OH2 9455   1.681   1.998   5.708
 3164TIP3    H1 9456   1.678   1.963   5.619
 3164TIP3    H2 9457   1.590   2.018   5.730
 3165TIP3   OH2 9458   5.517   2.994   1.036
 3165TIP3    H1 9459   5.431   2.955   1.021
 3165TIP3    H2 9460   5.570   2.966   0.962
 3166TIP3   OH2 9461   0.318   4.583   0.203
 3166TIP3    H1 9462   0.384   4.653   0.206
 3166TIP3    H2 9463   0.235   4.630   0.202
 3167TIP3   OH2 9464   4.703   0.173   4.368
 3167TIP3    H1 9465   4.676   0.119   4.295
 3167TIP3    H2 9466   4.689   0.118   4.446
 3168TIP3   OH2 9467   2.079   6.369   5.849
 3168TIP3    H1 9468   1.997   6.356   5.801
 3168TIP3    H2 9469   2.053   6.375   5.941
 3169TIP3   OH2 9470   1.730   3.951   1.570
 3169TIP3    H1 9471   1.752   4.013   1.639
 3169TIP3    H2 9472   1.722   3.867   1.615
 3170TIP3   OH2 9473   6.181   1.064   1.241
 3170TIP3    H1 9474   6.117   1.040   1.174
 3170TIP3    H2 9475   6.265   1.038   1.204
 3171TIP3   OH2 9476   0.286   2.704   4.264
 3171TIP3    H1 9477   0.219   2.769   4.285
 3171TIP3    H2 9478   0.304   2.661   4.348
 3172TIP3   OH2 9479   0.929   1.465   2.350
 3172TIP3    H1 9480   0.940   1.481   2.256
 3172TIP3    H2 9481   0.843   1.424   2.357
 3173TIP3   OH2 9482   2.166   1.684   1.487
 3173TIP3    H1 9483   2.082   1.637   1.490
 3173TIP3    H2 9484   2.145   1.773   1.514
 3174TIP3   OH2 9485   3.807   5.583   5.628
 3174TIP3    H1 9486   3.854   5.549   5.704
 3174TIP3    H2 9487   3.867   5.646   5.588
 3175TIP3   OH2 9488   2.639   3.722   4.630
 3175TIP3    H1 9489   2.625   3.646   4.573
 3175TIP3    H2 9490   2.717   3.699   4.681
 3176TIP3   OH2 9491   6.330   1.694   4.555
 3176TIP3    H1 9492   6.411   1.715   4.508
 3176TIP3    H2 9493   6.350   1.712   4.647
 3177TIP3   OH2 9494   3.936   3.697   5.729
 3177TIP3    H1 9495   3.936   3.602   5.736
 3177TIP3    H2 9496   3.893   3.715   5.645
 3178TIP3   OH2 9497   5.249   1.565   2.850
 3178TIP3    H1 9498   5.216   1.492   2.799
 3178TIP3    H2 9499   5.172   1.599   2.896
 3179TIP3   OH2 9500   2.683   5.905   0.285
 3179TIP3    H1 9501   2.740   5.982   0.285
 3179TIP3    H2 9502   2.737   5.834   0.251
 3180TIP3   OH2 9503   1.213   3.401   4.480
 3180TIP3    H1 9504   1.165   3.480   4.453
 3180TIP3    H2 9505   1.275   3.433   4.546
 3181TIP3   OH2 9506   6.102   4.523   3.254
 3181TIP3    H1 9507   6.032   4.577   3.289
 3181TIP3    H2 9508   6.077   4.507   3.163
 3182TIP3   OH2 9509   7.128   5.185   4.311
 3182TIP3    H1 9510   7.157   5.122   4.245
 3182TIP3    H2 9511   7.186   5.170   4.386
 3183TIP3   OH2 9512   4.911   6.224   5.842
 3183TIP3    H1 9513   4.984   6.273   5.804
 3183TIP3    H2 9514   4.879   6.278   5.913
 3184TIP3   OH2 9515   0.977   5.670   2.064
 3184TIP3    H1 9516   0.916   5.621   2.009
 3184TIP3    H2 9517   0.935   5.755   2.077
 3185TIP3   OH2 9518   6.199   4.109   0.847
 3185TIP3    H1 9519   6.128   4.046   0.859
 3185TIP3    H2 9520   6.160   4.180   0.795
 3186TIP3   OH2 9521   4.881   5.482   3.410
 3186TIP3    H1 9522   4.912   5.445   3.328
 3186TIP3    H2 9523   4.960   5.514   3.454
 3187TIP3   OH2 9524   0.173   5.452   4.142
 3187TIP3    H1 9525   0.079   5.435   4.130
 3187TIP3    H2 9526   0.196   5.513   4.071
 3188TIP3   OH2 9527   6.782   2.997   1.830
 3188TIP3    H1 9528   6.722   3.001   1.756
 3188TIP3    H2 9529   6.746   3.059   1.894
 3189TIP3   OH2 9530   5.998   2.493   0.941
 3189TIP3    H1 9531   6.048   2.412   0.946
 3189TIP3    H2 9532   5.917   2.468   0.896
 3190TIP3   OH2 9533   5.230   4.935   5.585
 3190TIP3    H1 9534   5.248   4.936   5.679
 3190TIP3    H2 9535   5.280   5.009   5.551
 3191TIP3   OH2 9536   4.746   1.337   3.453
 3191TIP3    H1 9537   4.654   1.311   3.456
 3191TIP3    H2 9538   4.771   1.347   3.545
 3192TIP3   OH2 9539   0.095   1.586   5.034
 3192TIP3    H1 9540   0.117   1.565   4.943
 3192TIP3    H2 9541   0.180   1.607   5.074
 3193TIP3   OH2 9542   6.854   3.726   1.598
 3193TIP3    H1 9543   6.763   3.702   1.578
 3193TIP3    H2 9544   6.903   3.701   1.519
 3194TIP3   OH2 9545   2.628   3.569   4.409
 3194TIP3    H1 9546   2.664   3.499   4.355
 3194TIP3    H2 9547   2.545   3.591   4.367
 3195TIP3   OH2 9548   0.567   3.253   0.652
 3195TIP3    H1 9549   0.543   3.196   0.725
 3195TIP3    H2 9550   0.486   3.300   0.631
 3196TIP3   OH2 9551   3.640   4.734   4.617
 3196TIP3    H1 9552   3.553   4.772   4.607
 3196TIP3    H2 9553   3.624   4.642   4.637
 3197TIP3   OH2 9554   0.292   1.480   2.799
 3197TIP3    H1 9555   0.234   1.555   2.788
 3197TIP3    H2 9556   0.270   1.444   2.885
 3198TIP3   OH2 9557   3.689   2.998   1.614
 3198TIP3    H1 9558   3.751   3.056   1.569
 3198TIP3    H2 9559   3.696   3.022   1.706
 3199TIP3   OH2 9560   1.989   6.047   0.513
 3199TIP3    H1 9561   2.076   6.072   0.482
 3199TIP3    H2 9562   1.976   5.958   0.482
 3200TIP3   OH2 9563   1.552   0.162   1.883
 3200TIP3    H1 9564   1.460   0.177   1.861
 3200TIP3    H2 9565   1.550   0.130   1.974
 3201TIP3   OH2 9566   5.385   4.837   4.786
 3201TIP3    H1 9567   5.468   4.867   4.751
 3201TIP3    H2 9568   5.393   4.741   4.789
 3202TIP3   OH2 9569   7.025   5.619   5.442
 3202TIP3    H1 9570   6.964   5.629   5.370
 3202TIP3    H2 9571   7.067   5.534   5.426
 3203TIP3   OH2 9572   3.383   4.709   3.083
 3203TIP3    H1 9573   3.416   4.685   3.170
 3203TIP3    H2 9574   3.319   4.778   3.101
 3204TIP3   OH2 9575   1.598   3.446   1.051
 3204TIP3    H1 9576   1.634   3.368   1.009
 3204TIP3    H2 9577   1.542   3.485   0.984
 3205TIP3   OH2 9578   2.467   5.364   2.782
 3205TIP3    H1 9579   2.415   5.441   2.806
 3205TIP3    H2 9580   2.488   5.322   2.865
 3206TIP3   OH2 9581   3.021   3.272   2.057
 3206TIP3    H1 9582   2.942   3.291   2.107
 3206TIP3    H2 9583   3.031   3.177   2.061
 3207TIP3   OH2 9584   5.691   6.493   0.015
 3207TIP3    H1 9585   5.781   6.521   0.033
 3207TIP3    H2 9586   5.696   6.397   0.011
 3208TIP3   OH2 9587   4.935   3.497   4.106
 3208TIP3    H1 9588   5.027   3.471   4.111
 3208TIP3    H2 9589   4.913   3.493   4.013
 3209TIP3   OH2 9590   1.452   6.283   2.651
 3209TIP3    H1 9591   1.469   6.262   2.559
 3209TIP3    H2 9592   1.357   6.275   2.660
 3210TIP3   OH2 9593   1.689   0.301   0.256
 3210TIP3    H1 9594   1.726   0.371   0.310
 3210TIP3    H2 9595   1.682   0.340   0.169
 3211TIP3   OH2 9596   0.194   2.429   3.882
 3211TIP3    H1 9597   0.263   2.465   3.937
 3211TIP3    H2 9598   0.200   2.334   3.895
 3212TIP3   OH2 9599   4.350   0.014   0.538
 3212TIP3    H1 9600   4.353  -0.011   0.631
 3212TIP3    H2 9601   4.256   0.026   0.520
 3213TIP3   OH2 9602   7.168   4.433   2.061
 3213TIP3    H1 9603   7.257   4.441   2.096
 3213TIP3    H2 9604   7.180   4.415   1.968
 3214TIP3   OH2 9605   2.639   1.139   4.980
 3214TIP3    H1 9606   2.574   1.077   4.946
 3214TIP3    H2 9607   2.695   1.159   4.904
 3215TIP3   OH2 9608   7.236   2.577   5.392
 3215TIP3    H1 9609   7.172   2.542   5.330
 3215TIP3    H2 9610   7.198   2.661   5.420
 3216TIP3   OH2 9611   1.502   0.605   0.789
 3216TIP3    H1 9612   1.536   0.686   0.829
 3216TIP3    H2 9613   1.574   0.543   0.798
 3217TIP3   OH2 9614   5.062   4.759   1.818
 3217TIP3    H1 9615   5.120   4.764   1.894
 3217TIP3    H2 9616   4.985   4.809   1.842
 3218TIP3   OH2 9617   1.809   2.253   5.073
 3218TIP3    H1 9618   1.838   2.207   5.152
 3218TIP3    H2 9619   1.866   2.219   5.004
 3219TIP3   OH2 9620   3.182   3.105   0.689
 3219TIP3    H1 9621   3.140   3.024   0.720
 3219TIP3    H2 9622   3.272   3.080   0.671
 3220TIP3   OH2 9623   4.802   0.471   4.793
 3220TIP3    H1 9624   4.774   0.559   4.819
 3220TIP3    H2 9625   4.802   0.422   4.875
 3221TIP3   OH2 9626   2.005   2.825   1.867
 3221TIP3    H1 9627   2.052   2.909   1.859
 3221TIP3    H2 9628   2.055   2.765   1.812
 3222TIP3   OH2 9629   0.175   0.014   2.710
 3222TIP3    H1 9630   0.253  -0.007   2.762
 3222TIP3    H2 9631   0.181   0.108   2.694
 3223TIP3   OH2 9632   5.035   2.645   1.706
 3223TIP3    H1 9633   4.946   2.639   1.742
 3223TIP3    H2 9634   5.049   2.562   1.661
 3224TIP3   OH2 9635   5.567   5.018   1.276
 3224TIP3    H1 9636   5.630   4.981   1.338
 3224TIP3    H2 9637   5.609   5.097   1.243
 3225TIP3   OH2 9638   7.108   5.215   0.572
 3225TIP3    H1 9639   7.044   5.170   0.516
 3225TIP3    H2 9640   7.114   5.303   0.535
 3226TIP3   OH2 9641   4.835   3.737   2.919
 3226TIP3    H1 9642   4.795   3.652   2.898
 3226TIP3    H2 9643   4.768   3.801   2.897
 3227TIP3   OH2 9644   0.813   3.412   4.554
 3227TIP3    H1 9645   0.873   3.352   4.509
 3227TIP3    H2 9646   0.861   3.494   4.562
 3228TIP3   OH2 9647   0.076   0.552   3.126
 3228TIP3    H1 9648   0.049   0.490   3.059
 3228TIP3    H2 9649   0.017   0.626   3.115
 3229TIP3   OH2 9650   5.514   0.398   5.387
 3229TIP3    H1 9651   5.586   0.453   5.417
 3229TIP3    H2 9652   5.464   0.454   5.328
 3230TIP3   OH2 9653   7.033   1.749   1.655
 3230TIP3    H1 9654   7.016   1.819   1.718
 3230TIP3    H2 9655   7.066   1.677   1.708
 3231TIP3   OH2 9656   0.565   2.174   3.908
 3231TIP3    H1 9657   0.619   2.231   3.963
 3231TIP3    H2 9658   0.605   2.179   3.822
 3232TIP3   OH2 9659   6.414   2.017   5.028
 3232TIP3    H1 9660   6.481   2.058   4.973
 3232TIP3    H2 9661   6.380   1.946   4.974
 3233TIP3   OH2 9662   0.741   2.061   0.293
 3233TIP3    H1 9663   0.786   2.109   0.363
 3233TIP3    H2 9664   0.736   1.971   0.326
 3234TIP3   OH2 9665   5.601   1.654   4.538
 3234TIP3    H1 9666   5.595   1.561   4.558
 3234TIP3    H2 9667   5.572   1.661   4.447
 3235TIP3   OH2 9668   3.705   6.693   4.191
 3235TIP3    H1 9669   3.670   6.695   4.280
 3235TIP3    H2 9670   3.663   6.617   4.150
 3236TIP3   OH2 9671   3.826   5.892   3.809
 3236TIP3    H1 9672   3.762   5.958   3.836
 3236TIP3    H2 9673   3.906   5.941   3.794
 3237TIP3   OH2 9674   0.314   2.191   1.354
 3237TIP3    H1 9675   0.307   2.232   1.267
 3237TIP3    H2 9676   0.408   2.178   1.367
 3238TIP3   OH2 9677   0.796   4.507   1.623
 3238TIP3    H1 9678   0.875   4.534   1.670
 3238TIP3    H2 9679   0.733   4.576   1.641
 3239TIP3   OH2 9680   6.153   3.873   2.528
 3239TIP3    H1 9681   6.073   3.823   2.543
 3239TIP3    H2 9682   6.176   3.908   2.614
 3240TIP3   OH2 9683   6.568   2.619   4.558
 3240TIP3    H1 9684   6.563   2.558   4.632
 3240TIP3    H2 9685   6.591   2.703   4.597
 3241TIP3   OH2 9686   6.415   2.874   4.955
 3241TIP3    H1 9687   6.422   2.960   4.913
 3241TIP3    H2 9688   6.332   2.878   5.004
 3242TIP3   OH2 9689   2.873   6.516   1.285
 3242TIP3    H1 9690   2.905   6.606   1.283
 3242TIP3    H2 9691   2.917   6.476   1.359
 3243TIP3   OH2 9692   6.560   4.119   5.583
 3243TIP3    H1 9693   6.549   4.042   5.527
 3243TIP3    H2 9694   6.553   4.086   5.672
 3244TIP3   OH2 9695   3.737   0.752   1.756
 3244TIP3    H1 9696   3.761   0.774   1.846
 3244TIP3    H2 9697   3.649   0.715   1.763
 3245TIP3   OH2 9698   1.990   2.003   3.183
 3245TIP3    H1 9699   2.058   1.942   3.214
 3245TIP3    H2 9700   1.916   1.987   3.241
 3246TIP3   OH2 9701   3.522   6.067   3.810
 3246TIP3    H1 9702   3.560   6.091   3.894
 3246TIP3    H2 9703   3.486   6.149   3.775
 3247TIP3   OH2 9704   3.997   0.224   4.447
 3247TIP3    H1 9705   3.917   0.216   4.499
 3247TIP3    H2 9706   3.968   0.265   4.365
 3248TIP3   OH2 9707   6.134   3.297   5.536
 3248TIP3    H1 9708   6.057   3.244   5.555
 3248TIP3    H2 9709   6.204   3.233   5.522
 3249TIP3   OH2 9710  -0.005   2.863   1.237
 3249TIP3    H1 9711   0.044   2.795   1.191
 3249TIP3    H2 9712   0.035   2.945   1.208
 3250TIP3   OH2 9713   1.250   5.312   2.443
 3250TIP3    H1 9714   1.328   5.331   2.495
 3250TIP3    H2 9715   1.262   5.364   2.363
 3251TIP3   OH2 9716   1.207   3.557   1.668
 3251TIP3    H1 9717   1.197   3.643   1.628
 3251TIP3    H2 9718   1.226   3.576   1.760
 3252TIP3   OH2 9719   3.618   5.947   4.079
 3252TIP3    H1 9720   3.527   5.944   4.108
 3252TIP3    H2 9721   3.662   5.879   4.129
 3253TIP3   OH2 9722   4.736   5.364   0.754
 3253TIP3    H1 9723   4.700   5.435   0.701
 3253TIP3    H2 9724   4.801   5.406   0.811
 3254TIP3   OH2 9725   3.737   1.146   0.115
 3254TIP3    H1 9726   3.683   1.222   0.139
 3254TIP3    H2 9727   3.710   1.077   0.176
 3255TIP3   OH2 9728   5.601   0.483   1.646
 3255TIP3    H1 9729   5.576   0.398   1.681
 3255TIP3    H2 9730   5.559   0.546   1.705
 3256TIP3   OH2 9731   6.789   1.849   2.006
 3256TIP3    H1 9732   6.819   1.759   2.010
 3256TIP3    H2 9733   6.700   1.847   2.041
 3257TIP3   OH2 9734   1.395   2.660   1.521
 3257TIP3    H1 9735   1.442   2.577   1.523
 3257TIP3    H2 9736   1.307   2.638   1.553
 3258TIP3   OH2 9737   3.428   3.167   5.200
 3258TIP3    H1 9738   3.350   3.206   5.161
 3258TIP3    H2 9739   3.500   3.223   5.172
 3259TIP3   OH2 9740   3.508   0.160   4.730
 3259TIP3    H1 9741   3.417   0.138   4.709
 3259TIP3    H2 9742   3.502   0.233   4.790
 3260TIP3   OH2 9743   4.855   6.783   1.981
 3260TIP3    H1 9744   4.776   6.756   2.029
 3260TIP3    H2 9745   4.926   6.775   2.044
 3261TIP3   OH2 9746   5.202   3.205   2.972
 3261TIP3    H1 9747   5.175   3.121   2.935
 3261TIP3    H2 9748   5.230   3.256   2.897
 3262TIP3   OH2 9749   3.600   3.591   1.073
 3262TIP3    H1 9750   3.536   3.557   1.009
 3262TIP3    H2 9751   3.551   3.658   1.121
 3263TIP3   OH2 9752   7.146   6.769   4.735
 3263TIP3    H1 9753   7.168   6.813   4.817
 3263TIP3    H2 9754   7.085   6.700   4.760
 3264TIP3   OH2 9755   5.810   0.832   2.034
 3264TIP3    H1 9756   5.797   0.739   2.051
 3264TIP3    H2 9757   5.756   0.851   1.958
 3265TIP3   OH2 9758   1.523   6.398   0.695
 3265TIP3    H1 9759   1.526   6.431   0.605
 3265TIP3    H2 9760   1.487   6.310   0.687
 3266TIP3   OH2 9761   0.635   3.728   4.087
 3266TIP3    H1 9762   0.684   3.672   4.027
 3266TIP3    H2 9763   0.547   3.731   4.049
 3267TIP3   OH2 9764   5.718   2.919   1.970
 3267TIP3    H1 9765   5.791   2.981   1.970
 3267TIP3    H2 9766   5.704   2.899   1.878
 3268TIP3   OH2 9767   1.472   1.502   3.459
 3268TIP3    H1 9768   1.392   1.454   3.480
 3268TIP3    H2 9769   1.497   1.471   3.371
 3269TIP3   OH2 9770   5.999   2.872   5.646
 3269TIP3    H1 9771   6.043   2.814   5.584
 3269TIP3    H2 9772   5.924   2.905   5.597
 3270TIP3   OH2 9773   3.962   4.001   4.516
 3270TIP3    H1 9774   3.964   4.095   4.537
 3270TIP3    H2 9775   3.912   3.996   4.435
 3271TIP3   OH2 9776   0.610   3.134   1.382
 3271TIP3    H1 9777   0.554   3.152   1.306
 3271TIP3    H2 9778   0.579   3.050   1.414
 3272TIP3   OH2 9779   4.387   4.455   4.768
 3272TIP3    H1 9780   4.407   4.528   4.708
 3272TIP3    H2 9781   4.466   4.401   4.767
 3273TIP3   OH2 9782   1.199   2.195   0.182
 3273TIP3    H1 9783   1.209   2.130   0.252
 3273TIP3    H2 9784   1.126   2.250   0.211
 3274TIP3   OH2 9785   4.384   5.704   4.839
 3274TIP3    H1 9786   4.441   5.761   4.789
 3274TIP3    H2 9787   4.429   5.619   4.839
 3275TIP3   OH2 9788   5.712   5.929   4.627
 3275TIP3    H1 9789   5.789   5.872   4.637
 3275TIP3    H2 9790   5.658   5.884   4.562
 3276TIP3   OH2 9791   3.411   2.917   0.768
 3276TIP3    H1 9792   3.438   2.886   0.681
 3276TIP3    H2 9793   3.320   2.889   0.776
 3277TIP3   OH2 9794   0.347   1.793   1.132
 3277TIP3    H1 9795   0.434   1.795   1.171
 3277TIP3    H2 9796   0.362   1.809   1.039
 3278TIP3   OH2 9797   1.475   2.162   3.022
 3278TIP3    H1 9798   1.542   2.228   3.040
 3278TIP3    H2 9799   1.472   2.109   3.102
 3279TIP3   OH2 9800   6.265   3.492   5.682
 3279TIP3    H1 9801   6.297   3.412   5.723
 3279TIP3    H2 9802   6.210   3.461   5.610
 3280TIP3   OH2 9803   0.360   4.535   2.457
 3280TIP3    H1 9804   0.433   4.563   2.402
 3280TIP3    H2 9805   0.287   4.522   2.397
 3281TIP3   OH2 9806   5.163   3.920   4.984
 3281TIP3    H1 9807   5.068   3.925   4.974
 3281TIP3    H2 9808   5.192   4.011   4.988
 3282TIP3   OH2 9809   5.502   0.034   0.481
 3282TIP3    H1 9810   5.496   0.116   0.531
 3282TIP3    H2 9811   5.544   0.059   0.399
 3283TIP3   OH2 9812   6.383   5.120   4.482
 3283TIP3    H1 9813   6.477   5.134   4.471
 3283TIP3    H2 9814   6.343   5.203   4.457
 3284TIP3   OH2 9815   2.137   6.638   5.523
 3284TIP3    H1 9816   2.193   6.649   5.447
 3284TIP3    H2 9817   2.152   6.717   5.576
 3285TIP3   OH2 9818   0.415   5.816   4.878
 3285TIP3    H1 9819   0.379   5.848   4.961
 3285TIP3    H2 9820   0.466   5.889   4.844
 3286TIP3   OH2 9821   1.978   0.104   0.584
 3286TIP3    H1 9822   1.996   0.167   0.513
 3286TIP3    H2 9823   1.936   0.156   0.652
 3287TIP3   OH2 9824   4.361   4.565   0.610
 3287TIP3    H1 9825   4.445   4.573   0.653
 3287TIP3    H2 9826   4.297   4.564   0.681
 3288TIP3   OH2 9827   4.716   4.239   3.987
 3288TIP3    H1 9828   4.649   4.302   3.961
 3288TIP3    H2 9829   4.757   4.212   3.906
 3289TIP3   OH2 9830   3.323   6.308   2.628
 3289TIP3    H1 9831   3.347   6.241   2.692
 3289TIP3    H2 9832   3.399   6.366   2.624
 3290TIP3   OH2 9833   5.598   2.036   2.975
 3290TIP3    H1 9834   5.604   2.129   2.953
 3290TIP3    H2 9835   5.511   2.009   2.943
 3291TIP3   OH2 9836   0.252   6.024   4.035
 3291TIP3    H1 9837   0.220   5.936   4.016
 3291TIP3    H2 9838   0.246   6.032   4.130
 3292TIP3   OH2 9839   5.074   5.323   4.526
 3292TIP3    H1 9840   5.014   5.273   4.581
 3292TIP3    H2 9841   5.099   5.398   4.579
 3293TIP3   OH2 9842   6.561   5.876   3.710
 3293TIP3    H1 9843   6.502   5.950   3.721
 3293TIP3    H2 9844   6.519   5.804   3.758
 3294TIP3   OH2 9845   2.333   1.860   0.562
 3294TIP3    H1 9846   2.361   1.883   0.651
 3294TIP3    H2 9847   2.271   1.788   0.575
 3295TIP3   OH2 9848   5.610   5.417   5.746
 3295TIP3    H1 9849   5.635   5.508   5.729
 3295TIP3    H2 9850   5.606   5.411   5.841
 3296TIP3   OH2 9851   4.573   3.337  -0.016
 3296TIP3    H1 9852   4.592   3.267   0.046
 3296TIP3    H2 9853   4.641   3.403  -0.001
 3297TIP3   OH2 9854   1.689   1.142   0.920
 3297TIP3    H1 9855   1.770   1.180   0.887
 3297TIP3    H2 9856   1.621   1.175   0.861
 3298TIP3   OH2 9857   1.606   4.448   2.590
 3298TIP3    H1 9858   1.598   4.368   2.538
 3298TIP3    H2 9859   1.554   4.513   2.542
 3299TIP3   OH2 9860   0.872   5.958   0.686
 3299TIP3    H1 9861   0.824   6.000   0.615
 3299TIP3    H2 9862   0.841   5.868   0.687
 3300TIP3   OH2 9863   1.932   6.620   3.390
 3300TIP3    H1 9864   1.956   6.708   3.417
 3300TIP3    H2 9865   1.995   6.598   3.320
 3301TIP3   OH2 9866   2.465   3.278   3.569
 3301TIP3    H1 9867   2.424   3.334   3.635
 3301TIP3    H2 9868   2.549   3.319   3.551
 3302TIP3   OH2 9869   2.879   0.500   2.778
 3302TIP3    H1 9870   2.868   0.442   2.702
 3302TIP3    H2 9871   2.918   0.444   2.845
 3303TIP3   OH2 9872   2.164   4.029   4.627
 3303TIP3    H1 9873   2.151   4.123   4.642
 3303TIP3    H2 9874   2.162   3.990   4.714
 3304TIP3   OH2 9875   1.950   2.638   4.132
 3304TIP3    H1 9876   1.869   2.685   4.111
 3304TIP3    H2 9877   2.005   2.649   4.055
 3305TIP3   OH2 9878   6.849   6.397   3.137
 3305TIP3    H1 9879   6.898   6.436   3.209
 3305TIP3    H2 9880   6.782   6.462   3.116
 3306TIP3   OH2 9881   4.637   3.309   3.999
 3306TIP3    H1 9882   4.659   3.272   4.085
 3306TIP3    H2 9883   4.721   3.332   3.960
 3307TIP3   OH2 9884   5.177   4.694   2.423
 3307TIP3    H1 9885   5.233   4.624   2.389
 3307TIP3    H2 9886   5.228   4.774   2.410
 3308TIP3   OH2 9887   6.307   0.460   5.617
 3308TIP3    H1 9888   6.366   0.469   5.692
 3308TIP3    H2 9889   6.363   0.430   5.545
 3309TIP3   OH2 9890   3.478   3.385   0.928
 3309TIP3    H1 9891   3.394   3.365   0.970
 3309TIP3    H2 9892   3.500   3.306   0.879
 3310TIP3   OH2 9893   0.102   5.552   4.621
 3310TIP3    H1 9894   0.186   5.559   4.666
 3310TIP3    H2 9895   0.125   5.564   4.528
 3311TIP3   OH2 9896   3.239   0.035   4.631
 3311TIP3    H1 9897   3.194  -0.046   4.605
 3311TIP3    H2 9898   3.272   0.071   4.549
 3312TIP3   OH2 9899   2.077   4.371   2.912
 3312TIP3    H1 9900   2.062   4.317   2.990
 3312TIP3    H2 9901   2.152   4.330   2.869
 3313TIP3   OH2 9902   4.941   1.984   5.696
 3313TIP3    H1 9903   5.013   1.975   5.633
 3313TIP3    H2 9904   4.882   1.912   5.676
 3314TIP3   OH2 9905   6.867   4.361   3.235
 3314TIP3    H1 9906   6.893   4.452   3.220
 3314TIP3    H2 9907   6.775   4.366   3.259
 3315TIP3   OH2 9908   0.526   5.636   1.795
 3315TIP3    H1 9909   0.519   5.582   1.874
 3315TIP3    H2 9910   0.450   5.694   1.799
 3316TIP3   OH2 9911   6.395   1.575   2.994
 3316TIP3    H1 9912   6.407   1.657   3.043
 3316TIP3    H2 9913   6.394   1.507   3.062
 3317TIP3   OH2 9914   2.824   0.434   5.669
 3317TIP3    H1 9915   2.834   0.348   5.709
 3317TIP3    H2 9916   2.914   0.462   5.652
 3318TIP3   OH2 9917   2.849   6.084   2.392
 3318TIP3    H1 9918   2.929   6.044   2.359
 3318TIP3    H2 9919   2.807   6.123   2.315
 3319TIP3   OH2 9920   4.166   6.089   2.606
 3319TIP3    H1 9921   4.207   6.037   2.676
 3319TIP3    H2 9922   4.073   6.090   2.629
 3320TIP3   OH2 9923   4.245   3.299   3.231
 3320TIP3    H1 9924   4.179   3.292   3.162
 3320TIP3    H2 9925   4.327   3.278   3.186
 3321TIP3   OH2 9926   0.313   1.878   5.870
 3321TIP3    H1 9927   0.334   1.880   5.777
 3321TIP3    H2 9928   0.369   1.809   5.906
 3322TIP3   OH2 9929   3.665   0.689   5.541
 3322TIP3    H1 9930   3.652   0.686   5.636
 3322TIP3    H2 9931   3.633   0.775   5.515
 3323TIP3   OH2 9932   3.787   3.333   0.783
 3323TIP3    H1 9933   3.731   3.338   0.706
 3323TIP3    H2 9934   3.774   3.245   0.817
 3324TIP3   OH2 9935   0.474   2.046   4.657
 3324TIP3    H1 9936   0.431   1.980   4.711
 3324TIP3    H2 9937   0.561   2.010   4.639
 3325TIP3   OH2 9938   6.937   5.391   0.103
 3325TIP3    H1 9939   6.894   5.363   0.184
 3325TIP3    H2 9940   6.999   5.320   0.084
 3326TIP3   OH2 9941   5.923   0.427   4.218
 3326TIP3    H1 9942   6.007   0.455   4.182
 3326TIP3    H2 9943   5.881   0.508   4.247
 3327TIP3   OH2 9944   2.243   0.305   1.061
 3327TIP3    H1 9945   2.154   0.317   1.029
 3327TIP3    H2 9946   2.235   0.303   1.156
 3328TIP3   OH2 9947   4.570   4.892   0.413
 3328TIP3    H1 9948   4.551   4.935   0.330
 3328TIP3    H2 9949   4.590   4.802   0.390
 3329TIP3   OH2 9950   6.177   3.358   3.070
 3329TIP3    H1 9951   6.238   3.308   3.015
 3329TIP3    H2 9952   6.229   3.382   3.147
 3330TIP3   OH2 9953   3.849   5.231   3.889
 3330TIP3    H1 9954   3.796   5.311   3.886
 3330TIP3    H2 9955   3.875   5.216   3.798
 3331TIP3   OH2 9956   4.236   1.480   3.771
 3331TIP3    H1 9957   4.171   1.429   3.723
 3331TIP3    H2 9958   4.292   1.517   3.702
 3332TIP3   OH2 9959   0.174   2.739   4.591
 3332TIP3    H1 9960   0.236   2.807   4.617
 3332TIP3    H2 9961   0.226   2.659   4.590
 3333TIP3   OH2 9962   2.447   6.335   4.930
 3333TIP3    H1 9963   2.530   6.326   4.883
 3333TIP3    H2 9964   2.411   6.246   4.932
 3334TIP3   OH2 9965   2.111   0.656   3.577
 3334TIP3    H1 9966   2.023   0.633   3.547
 3334TIP3    H2 9967   2.162   0.576   3.566
 3335TIP3   OH2 9968   6.861   6.643   4.120
 3335TIP3    H1 9969   6.847   6.675   4.209
 3335TIP3    H2 9970   6.941   6.592   4.125
 3336TIP3   OH2 9971   1.743   2.921   2.378
 3336TIP3    H1 9972   1.737   2.882   2.290
 3336TIP3    H2 9973   1.688   3.000   2.373
 3337TIP3   OH2 9974   6.594   5.340   5.235
 3337TIP3    H1 9975   6.675   5.336   5.184
 3337TIP3    H2 9976   6.581   5.434   5.250
 3338TIP3   OH2 9977   2.744   1.156   0.951
 3338TIP3    H1 9978   2.744   1.219   0.879
 3338TIP3    H2 9979   2.736   1.071   0.908
 3339TIP3   OH2 9980   5.095   1.097   4.762
 3339TIP3    H1 9981   5.148   1.028   4.803
 3339TIP3    H2 9982   5.115   1.090   4.669
 3340TIP3   OH2 9983   6.664   4.912   4.327
 3340TIP3    H1 9984   6.736   4.874   4.378
 3340TIP3    H2 9985   6.585   4.888   4.376
 3341TIP3   OH2 9986   5.769   0.381   1.186
 3341TIP3    H1 9987   5.715   0.367   1.263
 3341TIP3    H2 9988   5.750   0.471   1.159
 3342TIP3   OH2 9989   1.648   5.502   3.604
 3342TIP3    H1 9990   1.667   5.524   3.513
 3342TIP3    H2 9991   1.581   5.565   3.630
 3343TIP3   OH2 9992   3.186   2.659   1.439
 3343TIP3    H1 9993   3.276   2.676   1.469
 3343TIP3    H2 9994   3.132   2.675   1.516
 3344TIP3   OH2 9995   5.505   0.720   1.450
 3344TIP3    H1 9996   5.508   0.635   1.493
 3344TIP3    H2 9997   5.542   0.781   1.514
 3345TIP3   OH2 9998   3.209   1.819   5.555
 3345TIP3    H1 9999   3.158   1.738   5.564
 3345TIP3    H210000   3.203   1.841   5.462
 3346TIP3   OH210001   3.167   4.294   3.724
 3346TIP3    H110002   3.078   4.319   3.698
 3346TIP3    H210003   3.215   4.289   3.641
 3347TIP3   OH210004   4.502   2.228   0.539
 3347TIP3    H110005   4.560   2.253   0.611
 3347TIP3    H210006   4.560   2.194   0.472
 3348TIP3   OH210007   2.898   5.466   3.032
 3348TIP3    H110008   2.923   5.397   2.970
 3348TIP3    H210009   2.833   5.517   2.985
 3349TIP3   OH210010   3.000   2.332   2.607
 3349TIP3    H110011   2.946   2.371   2.676
 3349TIP3    H210012   3.090   2.347   2.635
 3350TIP3   OH210013   6.886   0.979   2.896
 3350TIP3    H110014   6.822   1.013   2.833
 3350TIP3    H210015   6.833   0.939   2.965
 3351TIP3   OH210016   3.558   5.965   4.582
 3351TIP3    H110017   3.575   5.906   4.655
 3351TIP3    H210018   3.609   6.043   4.601
 3352TIP3   OH210019   3.689   6.377   3.219
 3352TIP3    H110020   3.656   6.329   3.295
 3352TIP3    H210021   3.610   6.412   3.177
 3353TIP3   OH210022   0.327   4.373   2.675
 3353TIP3    H110023   0.413   4.343   2.704
 3353TIP3    H210024   0.345   4.425   2.597
 3354TIP3   OH210025   3.173   2.761   3.723
 3354TIP3    H110026   3.178   2.751   3.628
 3354TIP3    H210027   3.205   2.678   3.758
 3355TIP3   OH210028   3.346   3.141   1.037
 3355TIP3    H110029   3.361   3.195   1.114
 3355TIP3    H210030   3.407   3.068   1.047
 3356TIP3   OH210031   3.864   3.594   0.040
 3356TIP3    H110032   3.794   3.532   0.017
 3356TIP3    H210033   3.928   3.583  -0.031
 3357TIP3   OH210034   2.379   6.539   4.591
 3357TIP3    H110035   2.456   6.497   4.553
 3357TIP3    H210036   2.413   6.593   4.662
 3358TIP3   OH210037   6.303   3.594   0.953
 3358TIP3    H110038   6.220   3.638   0.970
 3358TIP3    H210039   6.320   3.544   1.033
 3359TIP3   OH210040   0.162   2.697   1.103
 3359TIP3    H110041   0.205   2.669   1.022
 3359TIP3    H210042   0.232   2.694   1.169
 3360TIP3   OH210043   3.349   3.727   3.608
 3360TIP3    H110044   3.334   3.688   3.522
 3360TIP3    H210045   3.286   3.684   3.666
 3361TIP3   OH210046   1.947   4.025   3.328
 3361TIP3    H110047   2.011   3.959   3.354
 3361TIP3    H210048   1.905   3.988   3.250
 3362TIP3   OH210049   4.216   5.594   0.139
 3362TIP3    H110050   4.255   5.580   0.053
 3362TIP3    H210051   4.258   5.529   0.196
 3363TIP3   OH210052   0.679   1.826   3.294
 3363TIP3    H110053   0.736   1.750   3.307
 3363TIP3    H210054   0.591   1.791   3.304
 3364TIP3   OH210055   0.386   4.995   1.458
 3364TIP3    H110056   0.401   5.039   1.375
 3364TIP3    H210057   0.297   5.020   1.483
 3365TIP3   OH210058   1.300   4.146   5.601
 3365TIP3    H110059   1.223   4.094   5.581
 3365TIP3    H210060   1.295   4.221   5.541
 3366TIP3   OH210061   0.780   2.730   4.875
 3366TIP3    H110062   0.871   2.756   4.891
 3366TIP3    H210063   0.763   2.661   4.938
 3367TIP3   OH210064   0.399   3.798   4.257
 3367TIP3    H110065   0.437   3.710   4.251
 3367TIP3    H210066   0.441   3.847   4.186
 3368TIP3   OH210067   2.717   3.275   2.719
 3368TIP3    H110068   2.704   3.205   2.655
 3368TIP3    H210069   2.648   3.261   2.784
 3369TIP3   OH210070   2.564   5.768   3.472
 3369TIP3    H110071   2.494   5.813   3.425
 3369TIP3    H210072   2.520   5.694   3.515
 3370TIP3   OH210073   6.033   1.986   0.033
 3370TIP3    H110074   5.999   2.054   0.090
 3370TIP3    H210075   6.085   2.032  -0.032
 3371TIP3   OH210076   6.729   1.839   0.178
 3371TIP3    H110077   6.643   1.805   0.154
 3371TIP3    H210078   6.711   1.906   0.243
 3372TIP3   OH210079   3.268   3.125   1.858
 3372TIP3    H110080   3.174   3.134   1.867
 3372TIP3    H210081   3.292   3.188   1.790
 3373TIP3   OH210082   5.740   2.898   2.858
 3373TIP3    H110083   5.725   2.951   2.936
 3373TIP3    H210084   5.830   2.916   2.833
 3374TIP3   OH210085   6.111   4.701   4.119
 3374TIP3    H110086   6.164   4.773   4.152
 3374TIP3    H210087   6.168   4.624   4.125
 3375TIP3   OH210088   1.916   5.380   4.451
 3375TIP3    H110089   1.875   5.424   4.377
 3375TIP3    H210090   1.992   5.433   4.472
 3376TIP3   OH210091   5.057   5.886   1.124
 3376TIP3    H110092   5.078   5.976   1.147
 3376TIP3    H210093   5.101   5.833   1.191
 3377TIP3   OH210094   3.688   6.122   2.828
 3377TIP3    H110095   3.628   6.047   2.822
 3377TIP3    H210096   3.730   6.112   2.913
 3378TIP3   OH210097   7.126   2.018   1.284
 3378TIP3    H110098   7.096   2.105   1.257
 3378TIP3    H210099   7.150   2.028   1.376
 3379TIP3   OH210100   5.362   3.754   1.138
 3379TIP3    H110101   5.273   3.763   1.102
 3379TIP3    H210102   5.359   3.672   1.188
 3380TIP3   OH210103   1.040   4.352   3.386
 3380TIP3    H110104   1.123   4.370   3.431
 3380TIP3    H210105   1.048   4.395   3.301
 3381TIP3   OH210106   0.014   0.937   2.236
 3381TIP3    H110107  -0.050   1.008   2.236
 3381TIP3    H210108   0.096   0.978   2.263
 3382TIP3   OH210109   5.289   1.141   0.701
 3382TIP3    H110110   5.347   1.157   0.775
 3382TIP3    H210111   5.324   1.196   0.631
 3383TIP3   OH210112   6.985   4.618   3.999
 3383TIP3    H110113   6.971   4.523   3.995
 3383TIP3    H210114   6.997   4.645   3.908
 3384TIP3   OH210115   4.088   6.129   4.673
 3384TIP3    H110116   4.070   6.168   4.587
 3384TIP3    H210117   4.164   6.177   4.705
 3385TIP3   OH210118   5.596   6.691   0.707
 3385TIP3    H110119   5.672   6.637   0.726
 3385TIP3    H210120   5.581   6.741   0.787
 3386TIP3   OH210121   2.608   2.805   2.989
 3386TIP3    H110122   2.640   2.876   2.933
 3386TIP3    H210123   2.665   2.807   3.065
 3387TIP3   OH210124   0.628   1.941   1.983
 3387TIP3    H110125   0.598   1.853   1.962
 3387TIP3    H210126   0.671   1.972   1.903
 3388TIP3   OH210127   1.377   5.484   4.075
 3388TIP3    H110128   1.394   5.523   4.160
 3388TIP3    H210129   1.403   5.551   4.012
 3389TIP3   OH210130   6.364   1.048   5.809
 3389TIP3    H110131   6.416   1.128   5.806
 3389TIP3    H210132   6.403   0.992   5.741
 3390TIP3   OH210133   5.647   0.137   2.179
 3390TIP3    H110134   5.645   0.223   2.136
 3390TIP3    H210135   5.596   0.081   2.121
 3391TIP3   OH210136   5.866   4.625   3.701
 3391TIP3    H110137   5.820   4.708   3.692
 3391TIP3    H210138   5.899   4.626   3.791
 3392TIP3   OH210139   4.650   1.362   0.091
 3392TIP3    H110140   4.576   1.310   0.125
 3392TIP3    H210141   4.723   1.338   0.147
 3393TIP3   OH210142   2.667   1.768   4.236
 3393TIP3    H110143   2.714   1.845   4.268
 3393TIP3    H210144   2.721   1.736   4.163
 3394TIP3   OH210145   3.741   4.024   5.723
 3394TIP3    H110146   3.708   4.073   5.648
 3394TIP3    H210147   3.686   3.946   5.728
 3395TIP3   OH210148   2.374   4.963   0.895
 3395TIP3    H110149   2.322   4.992   0.969
 3395TIP3    H210150   2.437   4.901   0.932
 3396TIP3   OH210151   6.750   0.615   1.347
 3396TIP3    H110152   6.752   0.519   1.338
 3396TIP3    H210153   6.746   0.630   1.441
 3397TIP3   OH210154   5.952   2.521   3.864
 3397TIP3    H110155   5.963   2.441   3.813
 3397TIP3    H210156   5.915   2.584   3.803
 3398TIP3   OH210157   1.660   1.885   5.456
 3398TIP3    H110158   1.624   1.946   5.392
 3398TIP3    H210159   1.720   1.830   5.406
 3399TIP3   OH210160   2.832   1.540   5.525
 3399TIP3    H110161   2.793   1.591   5.596
 3399TIP3    H210162   2.821   1.595   5.448
 3400TIP3   OH210163   0.740   4.388   4.077
 3400TIP3    H110164   0.796   4.424   4.145
 3400TIP3    H210165   0.676   4.457   4.058
 3401TIP3   OH210166   0.640   2.068   4.356
 3401TIP3    H110167   0.552   2.034   4.340
 3401TIP3    H210168   0.692   1.990   4.375
 3402TIP3   OH210169   4.246   2.074   0.497
 3402TIP3    H110170   4.275   2.088   0.407
 3402TIP3    H210171   4.318   2.106   0.551
 3403TIP3   OH210172   2.720   4.335   4.284
 3403TIP3    H110173   2.670   4.315   4.205
 3403TIP3    H210174   2.695   4.267   4.346
 3404TIP3   OH210175   1.360   3.164   1.553
 3404TIP3    H110176   1.364   3.259   1.565
 3404TIP3    H210177   1.426   3.145   1.487
 3405TIP3   OH210178   0.918   3.852   0.696
 3405TIP3    H110179   0.936   3.787   0.627
 3405TIP3    H210180   0.861   3.916   0.655
 3406TIP3   OH210181   3.080   0.410   1.989
 3406TIP3    H110182   3.005   0.424   1.932
 3406TIP3    H210183   3.056   0.334   2.042
 3407TIP3   OH210184   6.173   0.658   3.877
 3407TIP3    H110185   6.081   0.631   3.875
 3407TIP3    H210186   6.204   0.628   3.963
 3408TIP3   OH210187   2.097   6.564   4.233
 3408TIP3    H110188   2.086   6.515   4.152
 3408TIP3    H210189   2.086   6.656   4.207
 3409TIP3   OH210190   4.459   2.185   3.016
 3409TIP3    H110191   4.486   2.269   2.980
 3409TIP3    H210192   4.426   2.136   2.941
 3410TIP3   OH210193   0.425   3.361   2.408
 3410TIP3    H110194   0.495   3.296   2.401
 3410TIP3    H210195   0.378   3.354   2.325
 3411TIP3   OH210196   4.705   6.438   3.807
 3411TIP3    H110197   4.698   6.344   3.791
 3411TIP3    H210198   4.692   6.478   3.721
 3412TIP3   OH210199   5.769   2.620   2.654
 3412TIP3    H110200   5.726   2.671   2.586
 3412TIP3    H210201   5.855   2.659   2.664
 3413TIP3   OH210202   5.698   5.469   3.093
 3413TIP3    H110203   5.749   5.550   3.094
 3413TIP3    H210204   5.709   5.436   3.004
 3414TIP3   OH210205   3.063   0.425   1.269
 3414TIP3    H110206   2.990   0.369   1.240
 3414TIP3    H210207   3.097   0.382   1.347
 3415TIP3   OH210208   0.430   3.413   3.897
 3415TIP3    H110209   0.367   3.348   3.929
 3415TIP3    H210210   0.486   3.364   3.837
 3416TIP3   OH210211   5.227   1.323   0.065
 3416TIP3    H110212   5.254   1.401   0.016
 3416TIP3    H210213   5.178   1.271   0.002
 3417TIP3   OH210214   0.740   6.544   1.274
 3417TIP3    H110215   0.648   6.545   1.247
 3417TIP3    H210216   0.784   6.494   1.206
 3418TIP3   OH210217   2.256   2.296   0.152
 3418TIP3    H110218   2.198   2.239   0.204
 3418TIP3    H210219   2.196   2.352   0.103
 3419TIP3   OH210220   4.278   0.353   0.047
 3419TIP3    H110221   4.359   0.308   0.022
 3419TIP3    H210222   4.209   0.290   0.030
 3420TIP3   OH210223   0.698   5.903   5.355
 3420TIP3    H110224   0.651   5.914   5.272
 3420TIP3    H210225   0.695   5.808   5.371
 3421TIP3   OH210226   5.380   3.559   5.388
 3421TIP3    H110227   5.352   3.629   5.329
 3421TIP3    H210228   5.300   3.509   5.406
 3422TIP3   OH210229   6.635   2.358   5.812
 3422TIP3    H110230   6.677   2.355   5.898
 3422TIP3    H210231   6.676   2.434   5.768
 3423TIP3   OH210232   3.269   6.778   1.310
 3423TIP3    H110233   3.284   6.691   1.272
 3423TIP3    H210234   3.229   6.828   1.239
 3424TIP3   OH210235   3.758   5.326   4.559
 3424TIP3    H110236   3.703   5.398   4.529
 3424TIP3    H210237   3.715   5.247   4.525
 3425TIP3   OH210238   1.888   0.667   4.881
 3425TIP3    H110239   1.806   0.649   4.928
 3425TIP3    H210240   1.889   0.762   4.871
 3426TIP3   OH210241   5.079   3.854   2.908
 3426TIP3    H110242   4.991   3.844   2.944
 3426TIP3    H210243   5.070   3.923   2.842
 3427TIP3   OH210244   6.509   1.329   2.193
 3427TIP3    H110245   6.491   1.338   2.099
 3427TIP3    H210246   6.604   1.315   2.197
 3428TIP3   OH210247   6.858   0.776   0.009
 3428TIP3    H110248   6.888   0.865   0.024
 3428TIP3    H210249   6.771   0.785  -0.030
 3429TIP3   OH210250   0.845   4.018   0.467
 3429TIP3    H110251   0.912   3.949   0.462
 3429TIP3    H210252   0.868   4.078   0.397
 3430TIP3   OH210253   4.202   0.709   5.271
 3430TIP3    H110254   4.136   0.685   5.206
 3430TIP3    H210255   4.155   0.705   5.354
 3431TIP3   OH210256   0.413   0.560   0.955
 3431TIP3    H110257   0.497   0.553   1.000
 3431TIP3    H210258   0.401   0.653   0.940
 3432TIP3   OH210259   6.976   6.688   1.322
 3432TIP3    H110260   6.955   6.596   1.340
 3432TIP3    H210261   7.038   6.684   1.249
 3433TIP3   OH210262   4.329   1.955   1.751
 3433TIP3    H110263   4.236   1.939   1.767
 3433TIP3    H210264   4.357   2.012   1.824
 3434TIP3   OH210265   2.051   3.091   3.587
 3434TIP3    H110266   2.051   2.995   3.580
 3434TIP3    H210267   2.097   3.120   3.508
 3435TIP3   OH210268   3.654   0.152   2.501
 3435TIP3    H110269   3.744   0.171   2.527
 3435TIP3    H210270   3.653   0.168   2.406
 3436TIP3   OH210271   4.584   1.015   4.377
 3436TIP3    H110272   4.498   1.052   4.359
 3436TIP3    H210273   4.568   0.922   4.391
 3437TIP3   OH210274   2.411   5.136   1.511
 3437TIP3    H110275   2.487   5.167   1.460
 3437TIP3    H210276   2.336   5.175   1.468
 3438TIP3   OH210277   4.255   3.255   0.581
 3438TIP3    H110278   4.227   3.286   0.668
 3438TIP3    H210279   4.203   3.307   0.520
 3439TIP3   OH210280   2.452   5.473   4.817
 3439TIP3    H110281   2.548   5.481   4.824
 3439TIP3    H210282   2.427   5.543   4.756
 3440TIP3   OH210283   4.868   3.577   5.000
 3440TIP3    H110284   4.819   3.615   5.073
 3440TIP3    H210285   4.837   3.487   4.994
 3441TIP3   OH210286   6.063   4.301   1.712
 3441TIP3    H110287   5.974   4.276   1.691
 3441TIP3    H210288   6.056   4.353   1.793
 3442TIP3   OH210289   6.700   2.867   5.721
 3442TIP3    H110290   6.794   2.849   5.710
 3442TIP3    H210291   6.697   2.955   5.758
 3443TIP3   OH210292   2.592   4.223   2.292
 3443TIP3    H110293   2.602   4.128   2.290
 3443TIP3    H210294   2.557   4.242   2.379
 3444TIP3   OH210295   6.265   2.408   4.922
 3444TIP3    H110296   6.194   2.407   4.858
 3444TIP3    H210297   6.234   2.354   4.994
 3445TIP3   OH210298   5.726   1.682   3.339
 3445TIP3    H110299   5.748   1.605   3.391
 3445TIP3    H210300   5.808   1.731   3.332
 3446TIP3   OH210301   1.932   1.312   0.584
 3446TIP3    H110302   1.928   1.235   0.527
 3446TIP3    H210303   1.987   1.374   0.536
 3447TIP3   OH210304   3.353   1.586   2.408
 3447TIP3    H110305   3.355   1.618   2.498
 3447TIP3    H210306   3.263   1.600   2.379
 3448TIP3   OH210307   3.813   2.362   4.485
 3448TIP3    H110308   3.754   2.346   4.559
 3448TIP3    H210309   3.799   2.454   4.463
 3449TIP3   OH210310   5.206   4.203   3.188
 3449TIP3    H110311   5.152   4.282   3.189
 3449TIP3    H210312   5.144   4.133   3.167
 3450TIP3   OH210313   6.398   0.747   5.430
 3450TIP3    H110314   6.331   0.681   5.408
 3450TIP3    H210315   6.459   0.744   5.356
 3451TIP3   OH210316   3.449   2.695   1.837
 3451TIP3    H110317   3.450   2.784   1.873
 3451TIP3    H210318   3.361   2.662   1.856
 3452TIP3   OH210319   5.912   0.061   3.960
 3452TIP3    H110320   5.985   0.005   3.934
 3452TIP3    H210321   5.937   0.148   3.929
 3453TIP3   OH210322   6.886   3.716   3.928
 3453TIP3    H110323   6.927   3.801   3.938
 3453TIP3    H210324   6.803   3.734   3.884
 3454TIP3   OH210325   6.942   5.792   5.012
 3454TIP3    H110326   6.856   5.832   5.002
 3454TIP3    H210327   6.988   5.850   5.073
 3455TIP3   OH210328   1.201   1.001   3.944
 3455TIP3    H110329   1.220   1.018   4.036
 3455TIP3    H210330   1.141   0.926   3.946
 3456TIP3   OH210331   6.877   3.870   4.899
 3456TIP3    H110332   6.913   3.789   4.861
 3456TIP3    H210333   6.845   3.844   4.985
 3457TIP3   OH210334   4.412   4.809   1.888
 3457TIP3    H110335   4.506   4.827   1.885
 3457TIP3    H210336   4.380   4.859   1.962
 3458TIP3   OH210337   2.458   2.185   3.215
 3458TIP3    H110338   2.500   2.102   3.194
 3458TIP3    H210339   2.427   2.218   3.131
 3459TIP3   OH210340   2.409   3.905   2.991
 3459TIP3    H110341   2.419   3.999   3.007
 3459TIP3    H210342   2.499   3.872   2.992
 3460TIP3   OH210343   3.478   4.379   4.298
 3460TIP3    H110344   3.476   4.472   4.276
 3460TIP3    H210345   3.389   4.349   4.285
 3461TIP3   OH210346   4.755   1.532   4.696
 3461TIP3    H110347   4.813   1.561   4.625
 3461TIP3    H210348   4.784   1.581   4.773
 3462TIP3   OH210349   6.391   4.919   3.130
 3462TIP3    H110350   6.327   4.982   3.165
 3462TIP3    H210351   6.337   4.850   3.092
 3463TIP3   OH210352   6.588   0.217   0.594
 3463TIP3    H110353   6.499   0.226   0.560
 3463TIP3    H210354   6.609   0.303   0.630
 3464TIP3   OH210355   5.040   2.202   4.262
 3464TIP3    H110356   5.028   2.266   4.331
 3464TIP3    H210357   5.124   2.226   4.222
 3465TIP3   OH210358   6.077   1.307   2.497
 3465TIP3    H110359   6.094   1.277   2.407
 3465TIP3    H210360   6.089   1.229   2.551
 3466TIP3   OH210361   1.059   4.138   4.514
 3466TIP3    H110362   1.032   4.209   4.456
 3466TIP3    H210363   0.977   4.106   4.552
 3467TIP3   OH210364   1.115   0.697   0.938
 3467TIP3    H110365   1.137   0.730   0.851
 3467TIP3    H210366   1.199   0.690   0.983
 3468TIP3   OH210367   3.933   4.390   3.409
 3468TIP3    H110368   3.930   4.353   3.497
 3468TIP3    H210369   4.024   4.378   3.381
 3469TIP3   OH210370   0.136   4.102   4.849
 3469TIP3    H110371   0.199   4.035   4.877
 3469TIP3    H210372   0.072   4.105   4.920
 3470TIP3   OH210373   0.738   1.800   4.452
 3470TIP3    H110374   0.796   1.741   4.404
 3470TIP3    H210375   0.787   1.823   4.531
 3471TIP3   OH210376   0.191   1.815   2.499
 3471TIP3    H110377   0.219   1.796   2.589
 3471TIP3    H210378   0.107   1.859   2.510
 3472TIP3   OH210379   2.899   1.294   0.447
 3472TIP3    H110380   2.942   1.233   0.388
 3472TIP3    H210381   2.904   1.251   0.533
 3473TIP3   OH210382   6.428   1.373   2.754
 3473TIP3    H110383   6.443   1.446   2.694
 3473TIP3    H210384   6.339   1.386   2.786
 3474TIP3   OH210385   6.313   0.350   5.084
 3474TIP3    H110386   6.331   0.256   5.091
 3474TIP3    H210387   6.244   0.356   5.019
 3475TIP3   OH210388   4.596   6.300   4.716
 3475TIP3    H110389   4.665   6.363   4.736
 3475TIP3    H210390   4.637   6.239   4.654
 3476TIP3   OH210391   6.799   2.171   0.551
 3476TIP3    H110392   6.784   2.113   0.626
 3476TIP3    H210393   6.747   2.249   0.570
 3477TIP3   OH210394   7.142   5.369   5.390
 3477TIP3    H110395   7.217   5.420   5.359
 3477TIP3    H210396   7.168   5.278   5.378
 3478TIP3   OH210397   6.225   5.599   2.207
 3478TIP3    H110398   6.297   5.537   2.196
 3478TIP3    H210399   6.166   5.581   2.134
 3479TIP3   OH210400   5.965   0.287   3.604
 3479TIP3    H110401   6.027   0.215   3.590
 3479TIP3    H210402   5.880   0.249   3.583
 3480TIP3   OH210403   6.142   2.406   4.450
 3480TIP3    H110404   6.179   2.482   4.406
 3480TIP3    H210405   6.216   2.346   4.461
 3481TIP3   OH210406   6.559   5.701   0.658
 3481TIP3    H110407   6.643   5.687   0.701
 3481TIP3    H210408   6.583   5.740   0.573
 3482TIP3   OH210409   2.439   6.179   1.976
 3482TIP3    H110410   2.376   6.245   1.947
 3482TIP3    H210411   2.465   6.134   1.895
 3483TIP3   OH210412   2.761   4.074   4.115
 3483TIP3    H110413   2.838   4.113   4.156
 3483TIP3    H210414   2.796   3.999   4.066
 3484TIP3   OH210415   4.221   2.388   3.029
 3484TIP3    H110416   4.151   2.402   3.093
 3484TIP3    H210417   4.298   2.371   3.082
 3485TIP3   OH210418   3.586   0.204   0.985
 3485TIP3    H110419   3.642   0.207   0.908
 3485TIP3    H210420   3.629   0.261   1.049
 3486TIP3   OH210421   2.833   3.574   1.789
 3486TIP3    H110422   2.770   3.506   1.812
 3486TIP3    H210423   2.918   3.538   1.814
 3487TIP3   OH210424   0.093   3.724   1.435
 3487TIP3    H110425   0.051   3.803   1.403
 3487TIP3    H210426   0.124   3.679   1.356
 3488TIP3   OH210427   3.935   1.559   2.296
 3488TIP3    H110428   3.957   1.645   2.332
 3488TIP3    H210429   3.841   1.550   2.313
 3489TIP3   OH210430   0.537   3.529   5.903
 3489TIP3    H110431   0.602   3.574   5.849
 3489TIP3    H210432   0.537   3.439   5.871
 3490TIP3   OH210433   1.952   5.790   0.161
 3490TIP3    H110434   2.034   5.830   0.191
 3490TIP3    H210435   1.886   5.857   0.176
 3491TIP3   OH210436   1.506   3.071   1.916
 3491TIP3    H110437   1.589   3.024   1.908
 3491TIP3    H210438   1.442   3.014   1.874
 3492TIP3   OH210439   6.970   3.748   0.031
 3492TIP3    H110440   7.040   3.684   0.045
 3492TIP3    H210441   6.996   3.794  -0.049
 3493TIP3   OH210442   1.136   6.450   0.920
 3493TIP3    H110443   1.197   6.465   0.847
 3493TIP3    H210444   1.056   6.496   0.894
 3494TIP3   OH210445   3.581   1.942   3.649
 3494TIP3    H110446   3.490   1.968   3.656
 3494TIP3    H210447   3.624   1.985   3.724
 3495TIP3   OH210448   5.303   6.412   5.053
 3495TIP3    H110449   5.343   6.491   5.016
 3495TIP3    H210450   5.376   6.353   5.069
 3496TIP3   OH210451   2.383   3.047   1.922
 3496TIP3    H110452   2.361   3.044   2.015
 3496TIP3    H210453   2.341   2.970   1.884
 3497TIP3   OH210454   6.423   1.898   2.761
 3497TIP3    H110455   6.480   1.972   2.781
 3497TIP3    H210456   6.359   1.896   2.832
 3498TIP3   OH210457   4.803   5.693   5.637
 3498TIP3    H110458   4.781   5.641   5.714
 3498TIP3    H210459   4.737   5.762   5.634
 3499TIP3   OH210460   0.368   1.572   3.308
 3499TIP3    H110461   0.436   1.522   3.352
 3499TIP3    H210462   0.286   1.536   3.343
 3500TIP3   OH210463   1.794   4.216   4.589
 3500TIP3    H110464   1.720   4.174   4.633
 3500TIP3    H210465   1.754   4.268   4.519
 3501TIP3   OH210466   4.512   6.053   2.721
 3501TIP3    H110467   4.427   6.015   2.743
 3501TIP3    H210468   4.571   6.024   2.791
 3502TIP3   OH210469   2.394   1.319   0.247
 3502TIP3    H110470   2.477   1.272   0.256
 3502TIP3    H210471   2.416   1.411   0.263
 3503TIP3   OH210472   0.212   0.275   0.075
 3503TIP3    H110473   0.299   0.235   0.079
 3503TIP3    H210474   0.214   0.344   0.141
 3504TIP3   OH210475   1.680   1.093   5.495
 3504TIP3    H110476   1.707   1.043   5.572
 3504TIP3    H210477   1.709   1.040   5.421
 3505TIP3   OH210478   3.410   5.717   4.495
 3505TIP3    H110479   3.464   5.786   4.534
 3505TIP3    H210480   3.372   5.757   4.416
 3506TIP3   OH210481   5.708   1.311   5.327
 3506TIP3    H110482   5.699   1.344   5.416
 3506TIP3    H210483   5.633   1.348   5.280
 3507TIP3   OH210484   5.308   2.649   0.338
 3507TIP3    H110485   5.286   2.604   0.256
 3507TIP3    H210486   5.233   2.634   0.395
 3508TIP3   OH210487   4.325   6.098   3.121
 3508TIP3    H110488   4.358   6.011   3.142
 3508TIP3    H210489   4.401   6.145   3.088
 3509TIP3   OH210490   1.047   2.026   3.094
 3509TIP3    H110491   1.097   2.051   3.016
 3509TIP3    H210492   1.043   2.107   3.146
 3510TIP3   OH210493   5.435   3.277   4.374
 3510TIP3    H110494   5.423   3.186   4.349
 3510TIP3    H210495   5.511   3.306   4.325
 3511TIP3   OH210496   4.787   5.675   5.016
 3511TIP3    H110497   4.812   5.674   4.924
 3511TIP3    H210498   4.865   5.705   5.062
 3512TIP3   OH210499   6.442   4.373   2.240
 3512TIP3    H110500   6.408   4.284   2.228
 3512TIP3    H210501   6.387   4.410   2.310
 3513TIP3   OH210502   5.873   2.187   0.399
 3513TIP3    H110503   5.834   2.269   0.427
 3513TIP3    H210504   5.868   2.189   0.303
 3514TIP3   OH210505   0.954   1.120   4.960
 3514TIP3    H110506   0.886   1.065   4.921
 3514TIP3    H210507   1.031   1.106   4.906
 3515TIP3   OH210508   4.264   0.024   3.841
 3515TIP3    H110509   4.178  -0.005   3.812
 3515TIP3    H210510   4.311   0.048   3.761
 3516TIP3   OH210511   4.251   4.686   4.222
 3516TIP3    H110512   4.208   4.755   4.273
 3516TIP3    H210513   4.311   4.733   4.164
 3517TIP3   OH210514   0.367   5.549   4.757
 3517TIP3    H110515   0.376   5.631   4.806
 3517TIP3    H210516   0.420   5.561   4.679
 3518TIP3   OH210517   1.946   2.360   0.667
 3518TIP3    H110518   1.868   2.329   0.620
 3518TIP3    H210519   1.927   2.342   0.759
 3519TIP3   OH210520   2.047   5.426   2.652
 3519TIP3    H110521   2.124   5.370   2.661
 3519TIP3    H210522   2.010   5.430   2.740
 3520TIP3   OH210523   6.909   6.011   2.503
 3520TIP3    H110524   6.918   5.931   2.450
 3520TIP3    H210525   6.959   6.077   2.455
 3521TIP3   OH210526   6.924   0.394   2.358
 3521TIP3    H110527   6.862   0.461   2.329
 3521TIP3    H210528   7.010   0.428   2.331
 3522TIP3   OH210529   1.485   0.180   4.025
 3522TIP3    H110530   1.489   0.231   4.106
 3522TIP3    H210531   1.407   0.213   3.980
 3523TIP3   OH210532   1.839   2.800   3.926
 3523TIP3    H110533   1.776   2.870   3.910
 3523TIP3    H210534   1.914   2.821   3.871
 3524TIP3   OH210535   4.057   3.065   5.020
 3524TIP3    H110536   4.021   2.990   4.972
 3524TIP3    H210537   4.005   3.068   5.101
 3525TIP3   OH210538   4.289   6.243   0.667
 3525TIP3    H110539   4.252   6.269   0.751
 3525TIP3    H210540   4.326   6.156   0.683
 3526TIP3   OH210541   4.472   0.555   4.995
 3526TIP3    H110542   4.482   0.650   5.000
 3526TIP3    H210543   4.385   0.541   4.958
 3527TIP3   OH210544   5.243   4.243   3.482
 3527TIP3    H110545   5.262   4.190   3.559
 3527TIP3    H210546   5.323   4.240   3.430
 3528TIP3   OH210547   1.521   5.716   2.084
 3528TIP3    H110548   1.443   5.684   2.039
 3528TIP3    H210549   1.492   5.797   2.126
 3529TIP3   OH210550   4.766   6.494   2.063
 3529TIP3    H110551   4.835   6.455   2.009
 3529TIP3    H210552   4.803   6.499   2.151
 3530TIP3   OH210553   5.277   1.487   4.465
 3530TIP3    H110554   5.201   1.480   4.523
 3530TIP3    H210555   5.349   1.447   4.515
 3531TIP3   OH210556   6.751   1.738   5.353
 3531TIP3    H110557   6.711   1.664   5.308
 3531TIP3    H210558   6.809   1.777   5.288
 3532TIP3   OH210559   4.438   0.974   1.336
 3532TIP3    H110560   4.388   0.972   1.254
 3532TIP3    H210561   4.438   1.066   1.363
 3533TIP3   OH210562   4.625   3.365   1.525
 3533TIP3    H110563   4.603   3.413   1.444
 3533TIP3    H210564   4.590   3.277   1.511
 3534TIP3   OH210565   5.065   5.704   5.104
 3534TIP3    H110566   5.113   5.744   5.031
 3534TIP3    H210567   5.121   5.633   5.134
 3535TIP3   OH210568   4.833   4.875   5.190
 3535TIP3    H110569   4.850   4.785   5.217
 3535TIP3    H210570   4.821   4.870   5.095
 3536TIP3   OH210571   4.315   4.457   3.123
 3536TIP3    H110572   4.401   4.440   3.084
 3536TIP3    H210573   4.252   4.432   3.055
 3537TIP3   OH210574   4.831   2.462   1.262
 3537TIP3    H110575   4.788   2.408   1.328
 3537TIP3    H210576   4.848   2.545   1.307
 3538TIP3   OH210577   0.744   4.247   0.583
 3538TIP3    H110578   0.680   4.232   0.652
 3538TIP3    H210579   0.777   4.159   0.562
 3539TIP3   OH210580   3.079   4.089   3.293
 3539TIP3    H110581   3.013   4.047   3.237
 3539TIP3    H210582   3.042   4.175   3.314
 3540TIP3   OH210583   2.871   5.043   0.059
 3540TIP3    H110584   2.895   5.003   0.143
 3540TIP3    H210585   2.953   5.045   0.009
 3541TIP3   OH210586   5.429   4.860   2.296
 3541TIP3    H110587   5.486   4.784   2.287
 3541TIP3    H210588   5.490   4.934   2.301
 3542TIP3   OH210589   3.746   4.989   2.556
 3542TIP3    H110590   3.840   4.994   2.542
 3542TIP3    H210591   3.723   4.899   2.532
 3543TIP3   OH210592   5.803   2.465   0.541
 3543TIP3    H110593   5.865   2.537   0.548
 3543TIP3    H210594   5.737   2.496   0.479
 3544TIP3   OH210595   7.114   3.810   3.251
 3544TIP3    H110596   7.167   3.756   3.191
 3544TIP3    H210597   7.176   3.839   3.318
 3545TIP3   OH210598   3.660   0.106   1.454
 3545TIP3    H110599   3.720   0.036   1.479
 3545TIP3    H210600   3.575   0.077   1.487
 3546TIP3   OH210601   3.090   5.588   2.371
 3546TIP3    H110602   3.048   5.580   2.456
 3546TIP3    H210603   3.160   5.652   2.385
 3547TIP3   OH210604   6.735   3.573   2.796
 3547TIP3    H110605   6.641   3.556   2.804
 3547TIP3    H210606   6.763   3.522   2.721
 3548TIP3   OH210607   5.925   2.169   5.114
 3548TIP3    H110608   6.016   2.187   5.089
 3548TIP3    H210609   5.901   2.240   5.172
 3549TIP3   OH210610   4.986   2.696   1.366
 3549TIP3    H110611   5.063   2.752   1.380
 3549TIP3    H210612   4.958   2.715   1.276
 3550TIP3   OH210613   2.338   0.240   2.577
 3550TIP3    H110614   2.326   0.199   2.491
 3550TIP3    H210615   2.367   0.169   2.633
 3551TIP3   OH210616   5.986   5.788   5.223
 3551TIP3    H110617   6.050   5.776   5.293
 3551TIP3    H210618   5.979   5.883   5.214
 3552TIP3   OH210619   5.157   2.586   2.021
 3552TIP3    H110620   5.186   2.598   2.111
 3552TIP3    H210621   5.113   2.668   1.999
 3553TIP3   OH210622   5.155   4.026   1.971
 3553TIP3    H110623   5.213   4.070   2.034
 3553TIP3    H210624   5.212   3.964   1.926
 3554TIP3   OH210625   3.774   0.308   5.864
 3554TIP3    H110626   3.847   0.248   5.880
 3554TIP3    H210627   3.803   0.363   5.791
 3555TIP3   OH210628   3.657   3.239   5.550
 3555TIP3    H110629   3.565   3.231   5.575
 3555TIP3    H210630   3.678   3.331   5.566
 3556TIP3   OH210631   0.966   1.522   5.744
 3556TIP3    H110632   0.988   1.435   5.712
 3556TIP3    H210633   1.043   1.549   5.795
 3557TIP3   OH210634   5.602   0.656   4.080
 3557TIP3    H110635   5.583   0.661   3.986
 3557TIP3    H210636   5.515   0.655   4.121
 3558TIP3   OH210637   6.381   3.107   4.271
 3558TIP3    H110638   6.469   3.142   4.284
 3558TIP3    H210639   6.325   3.158   4.331
 3559TIP3   OH210640   7.019   3.425   1.076
 3559TIP3    H110641   6.989   3.334   1.070
 3559TIP3    H210642   7.113   3.420   1.058
 3560TIP3   OH210643   1.198   0.241   1.616
 3560TIP3    H110644   1.178   0.147   1.612
 3560TIP3    H210645   1.149   0.279   1.543
 3561TIP3   OH210646   1.861   0.791   0.326
 3561TIP3    H110647   1.872   0.808   0.232
 3561TIP3    H210648   1.950   0.773   0.358
 3562TIP3   OH210649   4.439   6.704   0.228
 3562TIP3    H110650   4.401   6.623   0.262
 3562TIP3    H210651   4.417   6.704   0.135
 3563TIP3   OH210652   0.956   4.726   4.507
 3563TIP3    H110653   1.016   4.652   4.499
 3563TIP3    H210654   1.001   4.789   4.564
 3564TIP3   OH210655   1.179   1.025   3.097
 3564TIP3    H110656   1.245   1.083   3.136
 3564TIP3    H210657   1.123   1.084   3.047
 3565TIP3   OH210658   4.111   2.556   2.181
 3565TIP3    H110659   4.160   2.516   2.252
 3565TIP3    H210660   4.043   2.492   2.160
 3566TIP3   OH210661   4.630   3.621   1.916
 3566TIP3    H110662   4.554   3.665   1.955
 3566TIP3    H210663   4.616   3.627   1.822
 3567TIP3   OH210664   1.601   2.332   0.878
 3567TIP3    H110665   1.523   2.285   0.850
 3567TIP3    H210666   1.670   2.266   0.879
 3568TIP3   OH210667   4.721   2.951   4.022
 3568TIP3    H110668   4.640   2.993   4.051
 3568TIP3    H210669   4.695   2.860   4.003
 3569TIP3   OH210670   0.888   3.304   4.181
 3569TIP3    H110671   0.866   3.275   4.092
 3569TIP3    H210672   0.952   3.240   4.211
 3570TIP3   OH210673   0.410   1.059   5.174
 3570TIP3    H110674   0.479   1.097   5.228
 3570TIP3    H210675   0.361   1.002   5.234
 3571TIP3   OH210676   3.850   4.010   3.794
 3571TIP3    H110677   3.923   4.000   3.855
 3571TIP3    H210678   3.784   3.949   3.825
 3572TIP3   OH210679   1.871   5.133   1.504
 3572TIP3    H110680   1.868   5.091   1.590
 3572TIP3    H210681   1.915   5.217   1.520
 3573TIP3   OH210682   5.610   4.355   5.058
 3573TIP3    H110683   5.643   4.437   5.022
 3573TIP3    H210684   5.656   4.345   5.141
 3574TIP3   OH210685   1.695   4.398   5.101
 3574TIP3    H110686   1.767   4.430   5.047
 3574TIP3    H210687   1.616   4.432   5.059
 3575TIP3   OH210688   1.718   6.565   0.998
 3575TIP3    H110689   1.726   6.513   1.078
 3575TIP3    H210690   1.624   6.585   0.993
 3576TIP3   OH210691   4.167   0.958   1.445
 3576TIP3    H110692   4.250   0.917   1.469
 3576TIP3    H210693   4.114   0.886   1.410
 3577TIP3   OH210694   1.764   2.413   1.747
 3577TIP3    H110695   1.802   2.477   1.807
 3577TIP3    H210696   1.792   2.328   1.781
 3578TIP3   OH210697   6.846   4.949   4.894
 3578TIP3    H110698   6.813   5.002   4.967
 3578TIP3    H210699   6.941   4.950   4.905
 3579TIP3   OH210700   3.898   6.352   5.159
 3579TIP3    H110701   3.983   6.395   5.163
 3579TIP3    H210702   3.836   6.417   5.194
 3580TIP3   OH210703   2.930   2.396   2.878
 3580TIP3    H110704   2.951   2.489   2.881
 3580TIP3    H210705   3.007   2.353   2.913
 3581TIP3   OH210706   1.493   4.412   0.702
 3581TIP3    H110707   1.566   4.360   0.668
 3581TIP3    H210708   1.530   4.458   0.777
 3582TIP3   OH210709   5.320   5.333   1.681
 3582TIP3    H110710   5.326   5.381   1.764
 3582TIP3    H210711   5.295   5.244   1.707
 3583TIP3   OH210712   4.959   4.797   3.409
 3583TIP3    H110713   4.910   4.818   3.330
 3583TIP3    H210714   4.948   4.703   3.420
 3584TIP3   OH210715   1.608   4.290   3.386
 3584TIP3    H110716   1.613   4.218   3.323
 3584TIP3    H210717   1.697   4.298   3.419
 3585TIP3   OH210718   0.919   4.488   4.246
 3585TIP3    H110719   0.937   4.546   4.173
 3585TIP3    H210720   1.004   4.472   4.286
 3586TIP3   OH210721   5.438   3.745   3.925
 3586TIP3    H110722   5.471   3.683   3.990
 3586TIP3    H210723   5.504   3.814   3.922
 3587TIP3   OH210724   4.899   1.053   1.950
 3587TIP3    H110725   4.920   0.981   1.891
 3587TIP3    H210726   4.984   1.091   1.973
 3588TIP3   OH210727   1.135   5.957   4.047
 3588TIP3    H110728   1.119   5.865   4.027
 3588TIP3    H210729   1.119   5.965   4.141
 3589TIP3   OH210730   2.472   1.395   2.652
 3589TIP3    H110731   2.512   1.384   2.738
 3589TIP3    H210732   2.474   1.308   2.613
 3590TIP3   OH210733   4.634   6.616   0.785
 3590TIP3    H110734   4.682   6.582   0.709
 3590TIP3    H210735   4.566   6.550   0.802
 3591TIP3   OH210736   1.866   3.099   4.920
 3591TIP3    H110737   1.941   3.063   4.967
 3591TIP3    H210738   1.884   3.193   4.916
 3592TIP3   OH210739   1.075   2.776   4.835
 3592TIP3    H110740   1.129   2.854   4.849
 3592TIP3    H210741   1.113   2.709   4.892
 3593TIP3   OH210742   2.669   5.180   4.308
 3593TIP3    H110743   2.705   5.159   4.394
 3593TIP3    H210744   2.712   5.262   4.283
 3594TIP3   OH210745   6.948   3.676   5.840
 3594TIP3    H110746   6.941   3.741   5.771
 3594TIP3    H210747   7.037   3.686   5.874
 3595TIP3   OH210748   3.661   1.367   4.503
 3595TIP3    H110749   3.629   1.411   4.581
 3595TIP3    H210750   3.696   1.437   4.448
 3596TIP3   OH210751   4.127   4.119   3.603
 3596TIP3    H110752   4.064   4.191   3.607
 3596TIP3    H210753   4.126   4.090   3.511
 3597TIP3   OH210754   4.206   1.415   4.870
 3597TIP3    H110755   4.155   1.334   4.866
 3597TIP3    H210756   4.291   1.389   4.906
 3598TIP3   OH210757   6.910   6.009   5.626
 3598TIP3    H110758   6.955   6.081   5.581
 3598TIP3    H210759   6.839   6.052   5.675
 3599TIP3   OH210760   0.858   0.543   1.765
 3599TIP3    H110761   0.777   0.589   1.786
 3599TIP3    H210762   0.921   0.573   1.830
 3600TIP3   OH210763   3.506   2.070   0.346
 3600TIP3    H110764   3.510   2.123   0.425
 3600TIP3    H210765   3.550   2.122   0.279
 3601TIP3   OH210766   0.952   2.356   1.476
 3601TIP3    H110767   1.045   2.379   1.476
 3601TIP3    H210768   0.907   2.437   1.499
 3602TIP3   OH210769   7.015   4.875   2.871
 3602TIP3    H110770   7.033   4.825   2.951
 3602TIP3    H210771   6.926   4.908   2.882
 3603TIP3   OH210772   3.885   2.921   1.051
 3603TIP3    H110773   3.849   2.922   1.139
 3603TIP3    H210774   3.929   2.836   1.044
 3604TIP3   OH210775   3.032   1.140   1.831
 3604TIP3    H110776   2.980   1.126   1.752
 3604TIP3    H210777   3.111   1.087   1.817
 3605TIP3   OH210778   7.145   3.373   2.753
 3605TIP3    H110779   7.150   3.456   2.800
 3605TIP3    H210780   7.230   3.365   2.708
 3606TIP3   OH210781   6.493   5.814   0.187
 3606TIP3    H110782   6.435   5.740   0.203
 3606TIP3    H210783   6.569   5.797   0.242
 3607TIP3   OH210784   2.630   6.018   5.527
 3607TIP3    H110785   2.587   5.975   5.453
 3607TIP3    H210786   2.558   6.055   5.578
 3608TIP3   OH210787   4.165   5.808   3.567
 3608TIP3    H110788   4.146   5.864   3.643
 3608TIP3    H210789   4.256   5.828   3.545
 3609TIP3   OH210790   2.630   1.183   1.456
 3609TIP3    H110791   2.678   1.212   1.378
 3609TIP3    H210792   2.597   1.096   1.433
 3610TIP3   OH210793   0.230   1.809   3.889
 3610TIP3    H110794   0.259   1.885   3.838
 3610TIP3    H210795   0.142   1.833   3.920
 3611TIP3   OH210796   0.769   4.777   2.428
 3611TIP3    H110797   0.810   4.692   2.414
 3611TIP3    H210798   0.675   4.759   2.421
 3612TIP3   OH210799   3.920   2.798   4.098
 3612TIP3    H110800   3.892   2.717   4.141
 3612TIP3    H210801   4.015   2.791   4.094
 3613TIP3   OH210802   0.846   0.607   5.014
 3613TIP3    H110803   0.903   0.625   5.089
 3613TIP3    H210804   0.902   0.565   4.950
 3614TIP3   OH210805   4.649   1.043   3.631
 3614TIP3    H110806   4.695   1.020   3.550
 3614TIP3    H210807   4.662   1.137   3.640
 3615TIP3   OH210808   5.619   3.562   0.899
 3615TIP3    H110809   5.683   3.549   0.829
 3615TIP3    H210810   5.609   3.476   0.939
 3616TIP3   OH210811   4.640   3.556   2.374
 3616TIP3    H110812   4.603   3.643   2.359
 3616TIP3    H210813   4.579   3.515   2.435
 3617TIP3   OH210814   1.959   6.115   4.878
 3617TIP3    H110815   2.054   6.123   4.873
 3617TIP3    H210816   1.925   6.193   4.835
 3618TIP3   OH210817   1.230   1.458   0.784
 3618TIP3    H110818   1.289   1.472   0.710
 3618TIP3    H210819   1.264   1.379   0.827
 3619TIP3   OH210820   0.210   3.616   2.823
 3619TIP3    H110821   0.303   3.604   2.843
 3619TIP3    H210822   0.187   3.539   2.770
 3620TIP3   OH210823   1.836   5.012   2.991
 3620TIP3    H110824   1.761   5.005   2.933
 3620TIP3    H210825   1.886   5.087   2.957
 3621TIP3   OH210826   5.708   1.121   0.292
 3621TIP3    H110827   5.672   1.047   0.242
 3621TIP3    H210828   5.759   1.080   0.362
 3622TIP3   OH210829   5.496   5.109   4.605
 3622TIP3    H110830   5.451   5.142   4.682
 3622TIP3    H210831   5.589   5.122   4.624
 3623TIP3   OH210832   3.510   3.967   2.091
 3623TIP3    H110833   3.553   3.974   2.005
 3623TIP3    H210834   3.418   3.986   2.073
 3624TIP3   OH210835   3.368   0.040   1.638
 3624TIP3    H110836   3.307   0.107   1.667
 3624TIP3    H210837   3.324  -0.004   1.565
 3625TIP3   OH210838   4.312   1.067   2.606
 3625TIP3    H110839   4.294   1.104   2.519
 3625TIP3    H210840   4.326   0.974   2.590
 3626TIP3   OH210841   5.326   4.538   0.318
 3626TIP3    H110842   5.363   4.606   0.373
 3626TIP3    H210843   5.292   4.584   0.241
 3627TIP3   OH210844   4.469   1.924   5.580
 3627TIP3    H110845   4.466   1.846   5.636
 3627TIP3    H210846   4.396   1.912   5.519
 3628TIP3   OH210847   4.871   0.121   1.260
 3628TIP3    H110848   4.826   0.182   1.202
 3628TIP3    H210849   4.857   0.035   1.220
 3629TIP3   OH210850   5.236   2.767   1.555
 3629TIP3    H110851   5.317   2.746   1.601
 3629TIP3    H210852   5.167   2.727   1.608
 3630TIP3   OH210853   6.990   6.464   4.282
 3630TIP3    H110854   6.965   6.465   4.374
 3630TIP3    H210855   7.085   6.452   4.282
 3631TIP3   OH210856   4.628   5.105   4.015
 3631TIP3    H110857   4.672   5.027   3.981
 3631TIP3    H210858   4.649   5.174   3.952
 3632TIP3   OH210859   6.323   4.806   3.628
 3632TIP3    H110860   6.384   4.853   3.686
 3632TIP3    H210861   6.236   4.824   3.665
 3633TIP3   OH210862   5.158   6.019   5.015
 3633TIP3    H110863   5.197   6.003   5.101
 3633TIP3    H210864   5.233   6.028   4.956
 3634TIP3   OH210865   2.659   5.761   2.208
 3634TIP3    H110866   2.753   5.754   2.188
 3634TIP3    H210867   2.640   5.854   2.200
 3635TIP3   OH210868   2.993   0.904   4.983
 3635TIP3    H110869   3.040   0.827   5.015
 3635TIP3    H210870   2.927   0.922   5.050
 3636TIP3   OH210871   5.720   1.220   3.404
 3636TIP3    H110872   5.731   1.305   3.361
 3636TIP3    H210873   5.787   1.164   3.364
 3637TIP3   OH210874   5.661   1.482   0.899
 3637TIP3    H110875   5.748   1.473   0.937
 3637TIP3    H210876   5.601   1.454   0.968
 3638TIP3   OH210877   4.988   3.201   5.301
 3638TIP3    H110878   4.945   3.281   5.333
 3638TIP3    H210879   5.055   3.234   5.241
 3639TIP3   OH210880   4.404   4.587   5.854
 3639TIP3    H110881   4.459   4.615   5.781
 3639TIP3    H210882   4.465   4.552   5.918
 3640TIP3   OH210883   1.439   2.122   0.018
 3640TIP3    H110884   1.347   2.131   0.042
 3640TIP3    H210885   1.478   2.074   0.092
 3641TIP3   OH210886   1.500   2.497   2.873
 3641TIP3    H110887   1.414   2.457   2.860
 3641TIP3    H210888   1.482   2.591   2.878
 3642TIP3   OH210889   6.373   1.872   5.698
 3642TIP3    H110890   6.444   1.879   5.634
 3642TIP3    H210891   6.367   1.960   5.736
 3643TIP3   OH210892   3.135   2.889   1.290
 3643TIP3    H110893   3.134   2.960   1.355
 3643TIP3    H210894   3.142   2.809   1.342
 3644TIP3   OH210895   2.333   3.402   4.515
 3644TIP3    H110896   2.361   3.327   4.566
 3644TIP3    H210897   2.347   3.376   4.424
 3645TIP3   OH210898   1.082   6.598   0.453
 3645TIP3    H110899   1.022   6.615   0.380
 3645TIP3    H210900   1.150   6.542   0.415
 3646TIP3   OH210901   1.361   5.764   4.556
 3646TIP3    H110902   1.327   5.689   4.606
 3646TIP3    H210903   1.420   5.808   4.617
 3647TIP3   OH210904   3.103   6.639   1.699
 3647TIP3    H110905   3.122   6.545   1.704
 3647TIP3    H210906   3.118   6.671   1.788
 3648TIP3   OH210907   7.046   0.266   3.164
 3648TIP3    H110908   7.013   0.289   3.077
 3648TIP3    H210909   7.135   0.235   3.148
 3649TIP3   OH210910   1.030   5.902   2.922
 3649TIP3    H110911   1.097   5.967   2.943
 3649TIP3    H210912   1.034   5.840   2.995
 3650TIP3   OH210913   5.173   1.287   4.224
 3650TIP3    H110914   5.231   1.305   4.298
 3650TIP3    H210915   5.088   1.320   4.253
 3651TIP3   OH210916   0.300   1.430   1.008
 3651TIP3    H110917   0.365   1.404   0.942
 3651TIP3    H210918   0.348   1.488   1.067
 3652TIP3   OH210919   3.435   4.897   4.139
 3652TIP3    H110920   3.473   4.984   4.151
 3652TIP3    H210921   3.460   4.873   4.050
 3653TIP3   OH210922   6.363   1.454   1.485
 3653TIP3    H110923   6.298   1.388   1.463
 3653TIP3    H210924   6.313   1.525   1.525
 3654TIP3   OH210925   0.782   5.840   1.682
 3654TIP3    H110926   0.760   5.849   1.774
 3654TIP3    H210927   0.839   5.763   1.678
 3655TIP3   OH210928   6.270   0.470   2.399
 3655TIP3    H110929   6.207   0.518   2.453
 3655TIP3    H210930   6.356   0.499   2.431
 3656TIP3   OH210931   5.770   4.469   0.499
 3656TIP3    H110932   5.713   4.521   0.442
 3656TIP3    H210933   5.787   4.525   0.574
 3657TIP3   OH210934   0.321   2.596   2.166
 3657TIP3    H110935   0.250   2.656   2.189
 3657TIP3    H210936   0.286   2.545   2.093
 3658TIP3   OH210937   0.722   5.613   5.422
 3658TIP3    H110938   0.635   5.579   5.403
 3658TIP3    H210939   0.777   5.535   5.432
 3659TIP3   OH210940   4.060   3.205   3.573
 3659TIP3    H110941   4.025   3.166   3.493
 3659TIP3    H210942   4.130   3.146   3.600
 3660TIP3   OH210943   1.928   5.444   3.168
 3660TIP3    H110944   1.861   5.451   3.236
 3660TIP3    H210945   1.977   5.526   3.174
 3661TIP3   OH210946   2.947   4.180   2.804
 3661TIP3    H110947   3.008   4.220   2.866
 3661TIP3    H210948   2.975   4.089   2.798
 3662TIP3   OH210949   3.132   6.362   0.465
 3662TIP3    H110950   3.102   6.431   0.405
 3662TIP3    H210951   3.182   6.408   0.532
 3663TIP3   OH210952   1.300   5.308   0.224
 3663TIP3    H110953   1.234   5.372   0.251
 3663TIP3    H210954   1.381   5.338   0.264
 3664TIP3   OH210955   1.876   1.996   0.256
 3664TIP3    H110956   1.912   1.975   0.170
 3664TIP3    H210957   1.855   1.912   0.296
 3665TIP3   OH210958   4.044   5.460   1.474
 3665TIP3    H110959   4.105   5.449   1.547
 3665TIP3    H210960   3.970   5.507   1.511
 3666TIP3   OH210961   5.356   1.067   3.834
 3666TIP3    H110962   5.292   1.126   3.794
 3666TIP3    H210963   5.366   0.996   3.770
 3667TIP3   OH210964   0.277   2.901   3.114
 3667TIP3    H110965   0.342   2.832   3.119
 3667TIP3    H210966   0.328   2.982   3.114
 3668TIP3   OH210967   3.285   5.438   0.859
 3668TIP3    H110968   3.260   5.510   0.916
 3668TIP3    H210969   3.207   5.384   0.853
 3669TIP3   OH210970   5.371   2.322   0.893
 3669TIP3    H110971   5.331   2.236   0.901
 3669TIP3    H210972   5.399   2.344   0.982
 3670TIP3   OH210973   6.631   2.118   4.910
 3670TIP3    H110974   6.718   2.089   4.937
 3670TIP3    H210975   6.647   2.190   4.849
 3671TIP3   OH210976   6.334   4.505   1.524
 3671TIP3    H110977   6.413   4.523   1.474
 3671TIP3    H210978   6.289   4.589   1.530
 3672TIP3   OH210979   6.719   1.448   3.283
 3672TIP3    H110980   6.712   1.356   3.309
 3672TIP3    H210981   6.706   1.447   3.188
 3673TIP3   OH210982   6.453   3.619   5.382
 3673TIP3    H110983   6.545   3.594   5.377
 3673TIP3    H210984   6.439   3.644   5.473
 3674TIP3   OH210985   5.345   6.133   1.725
 3674TIP3    H110986   5.320   6.211   1.775
 3674TIP3    H210987   5.306   6.060   1.775
 3675TIP3   OH210988   5.404   6.515   0.145
 3675TIP3    H110989   5.341   6.540   0.212
 3675TIP3    H210990   5.370   6.554   0.064
 3676TIP3   OH210991   2.622   4.370   3.921
 3676TIP3    H110992   2.712   4.401   3.931
 3676TIP3    H210993   2.568   4.439   3.960
 3677TIP3   OH210994   3.349   6.088   2.794
 3677TIP3    H110995   3.287   6.031   2.749
 3677TIP3    H210996   3.388   6.034   2.862
 3678TIP3   OH210997   4.966   5.893   2.926
 3678TIP3    H110998   5.010   5.808   2.923
 3678TIP3    H210999   5.023   5.948   2.980
 3679TIP3   OH211000   6.524   1.838   0.986
 3679TIP3    H111001   6.463   1.901   0.948
 3679TIP3    H211002   6.471   1.761   1.005
 3680TIP3   OH211003   0.866   4.489   0.851
 3680TIP3    H111004   0.916   4.446   0.782
 3680TIP3    H211005   0.830   4.568   0.810
 3681TIP3   OH211006   2.455   0.505   3.699
 3681TIP3    H111007   2.538   0.510   3.652
 3681TIP3    H211008   2.390   0.540   3.638
 3682TIP3   OH211009   4.371   4.135   5.405
 3682TIP3    H111010   4.389   4.047   5.438
 3682TIP3    H211011   4.456   4.178   5.402
 3683TIP3   OH211012   4.599   5.396   2.203
 3683TIP3    H111013   4.633   5.322   2.254
 3683TIP3    H211014   4.648   5.394   2.121
 3684TIP3   OH211015   0.166   3.415   0.002
 3684TIP3    H111016   0.169   3.398   0.096
 3684TIP3    H211017   0.258   3.414  -0.026
 3685TIP3   OH211018   0.277   4.178   0.633
 3685TIP3    H111019   0.352   4.218   0.677
 3685TIP3    H211020   0.237   4.123   0.699
 3686TIP3   OH211021   0.592   4.506   4.840
 3686TIP3    H111022   0.658   4.463   4.785
 3686TIP3    H211023   0.531   4.436   4.863
 3687TIP3   OH211024   6.342   0.706   4.871
 3687TIP3    H111025   6.323   0.762   4.796
 3687TIP3    H211026   6.347   0.618   4.835
 3688TIP3   OH211027   7.200   5.300   0.829
 3688TIP3    H111028   7.200   5.271   0.738
 3688TIP3    H211029   7.108   5.299   0.855
 3689TIP3   OH211030   2.447   6.026   0.190
 3689TIP3    H111031   2.430   6.092   0.257
 3689TIP3    H211032   2.508   5.964   0.232
 3690TIP3   OH211033   4.594   2.818   0.037
 3690TIP3    H111034   4.505   2.789   0.017
 3690TIP3    H211035   4.647   2.739   0.026
 3691TIP3   OH211036   6.615   0.736   4.553
 3691TIP3    H111037   6.628   0.701   4.465
 3691TIP3    H211038   6.668   0.679   4.609
 3692TIP3   OH211039   4.017   5.709   0.308
 3692TIP3    H111040   4.086   5.649   0.278
 3692TIP3    H211041   3.997   5.681   0.397
 3693TIP3   OH211042   5.851   2.033   3.133
 3693TIP3    H111043   5.886   2.082   3.058
 3693TIP3    H211044   5.758   2.057   3.136
 3694TIP3   OH211045   1.600   5.976   5.860
 3694TIP3    H111046   1.553   5.920   5.922
 3694TIP3    H211047   1.550   5.968   5.779
 3695TIP3   OH211048   4.527   1.518   4.534
 3695TIP3    H111049   4.515   1.464   4.456
 3695TIP3    H211050   4.614   1.496   4.565
 3696TIP3   OH211051   1.444   6.499   4.187
 3696TIP3    H111052   1.517   6.546   4.147
 3696TIP3    H211053   1.366   6.537   4.147
 3697TIP3   OH211054   3.926   4.213   0.885
 3697TIP3    H111055   3.992   4.166   0.835
 3697TIP3    H211056   3.948   4.195   0.977
 3698TIP3   OH211057   6.890   2.133   5.595
 3698TIP3    H111058   6.827   2.155   5.664
 3698TIP3    H211059   6.957   2.200   5.602
 3699TIP3   OH211060   0.966   0.726   5.524
 3699TIP3    H111061   1.017   0.658   5.569
 3699TIP3    H211062   0.949   0.690   5.437
 3700TIP3   OH211063   6.783   6.772   1.900
 3700TIP3    H111064   6.817   6.830   1.832
 3700TIP3    H211065   6.854   6.708   1.914
 3701TIP3   OH211066   0.096   6.796   2.164
 3701TIP3    H111067   0.184   6.769   2.189
 3701TIP3    H211068   0.038   6.735   2.210
 3702TIP3   OH211069   1.865   1.258   2.690
 3702TIP3    H111070   1.925   1.239   2.762
 3702TIP3    H211071   1.789   1.202   2.706
 3703TIP3   OH211072   5.515   1.321   2.857
 3703TIP3    H111073   5.497   1.403   2.902
 3703TIP3    H211074   5.489   1.338   2.766
 3704TIP3   OH211075   5.445   5.876   1.416
 3704TIP3    H111076   5.450   5.957   1.468
 3704TIP3    H211077   5.452   5.806   1.481
 3705TIP3   OH211078   1.346   4.781   5.424
 3705TIP3    H111079   1.268   4.807   5.376
 3705TIP3    H211080   1.412   4.765   5.356
 3706TIP3   OH211081   2.566   0.078   1.327
 3706TIP3    H111082   2.550   0.159   1.376
 3706TIP3    H211083   2.554   0.008   1.391
 3707TIP3   OH211084   2.209   1.154   1.236
 3707TIP3    H111085   2.181   1.089   1.301
 3707TIP3    H211086   2.127   1.187   1.199
 3708TIP3   OH211087   6.084   1.287   5.296
 3708TIP3    H111088   6.056   1.378   5.282
 3708TIP3    H211089   6.147   1.271   5.225
 3709TIP3   OH211090   4.996   4.464   5.792
 3709TIP3    H111091   5.048   4.521   5.735
 3709TIP3    H211092   5.060   4.428   5.854
 3710TIP3   OH211093   1.406   2.543   1.219
 3710TIP3    H111094   1.422   2.637   1.209
 3710TIP3    H211095   1.488   2.502   1.194
 3711TIP3   OH211096   7.071   0.992   4.790
 3711TIP3    H111097   7.054   0.905   4.825
 3711TIP3    H211098   7.007   1.003   4.720
 3712TIP3   OH211099   6.106   6.033   3.014
 3712TIP3    H111100   6.017   6.025   2.979
 3712TIP3    H211101   6.154   5.960   2.975
 3713TIP3   OH211102   6.890   3.877   3.640
 3713TIP3    H111103   6.956   3.945   3.650
 3713TIP3    H211104   6.838   3.905   3.564
 3714TIP3   OH211105   3.389   2.057   2.248
 3714TIP3    H111106   3.470   2.019   2.213
 3714TIP3    H211107   3.376   2.013   2.332
 3715TIP3   OH211108   5.059   2.842   1.917
 3715TIP3    H111109   5.082   2.908   1.852
 3715TIP3    H211110   5.011   2.775   1.868
 3716TIP3   OH211111   3.628   2.857   0.523
 3716TIP3    H111112   3.670   2.798   0.586
 3716TIP3    H211113   3.700   2.890   0.470
 3717TIP3   OH211114   2.822   2.577   4.654
 3717TIP3    H111115   2.893   2.516   4.676
 3717TIP3    H211116   2.858   2.663   4.675
 3718TIP3   OH211117   3.405   0.965   3.447
 3718TIP3    H111118   3.387   0.909   3.371
 3718TIP3    H211119   3.388   0.908   3.523
 3719TIP3   OH211120   6.726   4.411   3.808
 3719TIP3    H111121   6.720   4.350   3.735
 3719TIP3    H211122   6.762   4.360   3.880
 3720TIP3   OH211123   1.092   1.955   5.813
 3720TIP3    H111124   1.105   2.044   5.845
 3720TIP3    H211125   1.033   1.915   5.876
 3721TIP3   OH211126   5.438   1.791   1.489
 3721TIP3    H111127   5.381   1.866   1.474
 3721TIP3    H211128   5.504   1.824   1.550
 3722TIP3   OH211129   0.789   6.610   3.965
 3722TIP3    H111130   0.790   6.696   4.007
 3722TIP3    H211131   0.798   6.628   3.872
 3723TIP3   OH211132   2.001   0.066   0.920
 3723TIP3    H111133   1.946   0.123   0.866
 3723TIP3    H211134   2.090   0.085   0.892
 3724TIP3   OH211135   5.619   6.068   3.184
 3724TIP3    H111136   5.634   6.157   3.153
 3724TIP3    H211137   5.698   6.046   3.233
 3725TIP3   OH211138   0.507   4.331   0.707
 3725TIP3    H111139   0.509   4.418   0.747
 3725TIP3    H211140   0.544   4.345   0.619
 3726TIP3   OH211141   1.683   3.844   2.591
 3726TIP3    H111142   1.616   3.778   2.609
 3726TIP3    H211143   1.707   3.830   2.499
 3727TIP3   OH211144   7.114   2.929   2.770
 3727TIP3    H111145   7.082   2.998   2.828
 3727TIP3    H211146   7.081   2.954   2.683
 3728TIP3   OH211147   2.926   2.288   5.142
 3728TIP3    H111148   2.965   2.237   5.071
 3728TIP3    H211149   2.879   2.358   5.097
 3729TIP3   OH211150   4.100   1.262   1.656
 3729TIP3    H111151   4.168   1.280   1.721
 3729TIP3    H211152   4.068   1.175   1.679
 3730TIP3   OH211153   0.691   3.508   3.404
 3730TIP3    H111154   0.665   3.424   3.443
 3730TIP3    H211155   0.625   3.526   3.338
 3731TIP3   OH211156   5.004   4.964   3.097
 3731TIP3    H111157   4.973   5.036   3.042
 3731TIP3    H211158   4.924   4.916   3.119
 3732TIP3   OH211159   4.776   5.653   5.364
 3732TIP3    H111160   4.764   5.658   5.459
 3732TIP3    H211161   4.697   5.607   5.333
 3733TIP3   OH211162   3.254   2.378   4.083
 3733TIP3    H111163   3.322   2.341   4.138
 3733TIP3    H211164   3.292   2.380   3.995
 3734TIP3   OH211165   0.255   3.321   0.241
 3734TIP3    H111166   0.304   3.248   0.203
 3734TIP3    H211167   0.313   3.356   0.309
 3735TIP3   OH211168   2.085   3.134   1.936
 3735TIP3    H111169   2.018   3.201   1.952
 3735TIP3    H211170   2.127   3.122   2.021
 3736TIP3   OH211171   2.154   5.636   5.775
 3736TIP3    H111172   2.204   5.560   5.744
 3736TIP3    H211173   2.209   5.711   5.755
 3737TIP3   OH211174   3.260   4.848   0.339
 3737TIP3    H111175   3.259   4.943   0.344
 3737TIP3    H211176   3.187   4.820   0.395
 3738TIP3   OH211177   1.642   1.256   4.658
 3738TIP3    H111178   1.674   1.167   4.650
 3738TIP3    H211179   1.697   1.296   4.726
 3739TIP3   OH211180   0.091   4.211   5.474
 3739TIP3    H111181   0.112   4.179   5.562
 3739TIP3    H211182   0.175   4.237   5.437
 3740TIP3   OH211183   5.652   4.215   0.457
 3740TIP3    H111184   5.707   4.285   0.494
 3740TIP3    H211185   5.600   4.259   0.390
 3741TIP3   OH211186   6.252   4.847   0.007
 3741TIP3    H111187   6.203   4.860   0.088
 3741TIP3    H211188   6.251   4.753  -0.007
 3742TIP3   OH211189   4.199   3.812   1.968
 3742TIP3    H111190   4.132   3.790   2.033
 3742TIP3    H211191   4.281   3.805   2.016
 3743TIP3   OH211192   4.723   1.723   5.032
 3743TIP3    H111193   4.650   1.773   5.067
 3743TIP3    H211194   4.772   1.786   4.980
 3744TIP3   OH211195   2.499   3.625   5.601
 3744TIP3    H111196   2.582   3.637   5.647
 3744TIP3    H211197   2.433   3.656   5.663
 3745TIP3   OH211198   0.794   5.558   2.796
 3745TIP3    H111199   0.778   5.503   2.720
 3745TIP3    H211200   0.858   5.509   2.848
 3746TIP3   OH211201   3.476   5.859   5.210
 3746TIP3    H111202   3.538   5.798   5.170
 3746TIP3    H211203   3.512   5.877   5.296
 3747TIP3   OH211204   2.561   1.944   1.149
 3747TIP3    H111205   2.573   2.034   1.118
 3747TIP3    H211206   2.615   1.939   1.228
 3748TIP3   OH211207   1.497   6.219   2.952
 3748TIP3    H111208   1.579   6.182   2.985
 3748TIP3    H211209   1.504   6.212   2.857
 3749TIP3   OH211210   3.298   4.646   1.168
 3749TIP3    H111211   3.351   4.719   1.200
 3749TIP3    H211212   3.347   4.568   1.192
 3750TIP3   OH211213   4.758   2.308   2.530
 3750TIP3    H111214   4.727   2.381   2.476
 3750TIP3    H211215   4.833   2.274   2.482
 3751TIP3   OH211216   6.550   0.499   0.069
 3751TIP3    H111217   6.597   0.416   0.068
 3751TIP3    H211218   6.558   0.531   0.158
 3752TIP3   OH211219   0.503   2.637   1.571
 3752TIP3    H111220   0.426   2.583   1.554
 3752TIP3    H211221   0.490   2.714   1.515
 3753TIP3   OH211222   4.956   1.500   0.032
 3753TIP3    H111223   5.044   1.501  -0.004
 3753TIP3    H211224   4.938   1.408   0.052
 3754TIP3   OH211225   6.909   0.057   5.153
 3754TIP3    H111226   6.948   0.140   5.123
 3754TIP3    H211227   6.848   0.083   5.221
 3755TIP3   OH211228   3.819   0.978   3.389
 3755TIP3    H111229   3.757   1.050   3.394
 3755TIP3    H211230   3.850   0.965   3.478
 3756TIP3   OH211231   3.451   3.129   0.427
 3756TIP3    H111232   3.524   3.135   0.365
 3756TIP3    H211233   3.388   3.195   0.396
 3757TIP3   OH211234   5.247   0.091   0.726
 3757TIP3    H111235   5.244   0.142   0.645
 3757TIP3    H211236   5.182   0.022   0.713
 3758TIP3   OH211237   3.581   6.325   0.184
 3758TIP3    H111238   3.504   6.319   0.127
 3758TIP3    H211239   3.634   6.394   0.144
 3759TIP3   OH211240   4.127   5.489   2.750
 3759TIP3    H111241   4.148   5.570   2.796
 3759TIP3    H211242   4.046   5.508   2.703
 3760TIP3   OH211243   4.155   1.686   4.202
 3760TIP3    H111244   4.200   1.679   4.286
 3760TIP3    H211245   4.197   1.761   4.158
 3761TIP3   OH211246   0.898   5.330   0.318
 3761TIP3    H111247   0.965   5.389   0.284
 3761TIP3    H211248   0.947   5.256   0.354
 3762TIP3   OH211249   1.297   4.533   3.041
 3762TIP3    H111250   1.285   4.627   3.023
 3762TIP3    H211251   1.367   4.530   3.107
 3763TIP3   OH211252   2.070   3.317   4.211
 3763TIP3    H111253   2.027   3.323   4.296
 3763TIP3    H211254   2.164   3.323   4.230
 3764TIP3   OH211255   0.587   4.076   0.853
 3764TIP3    H111256   0.546   4.161   0.841
 3764TIP3    H211257   0.610   4.074   0.946
 3765TIP3   OH211258   1.348   2.020   5.505
 3765TIP3    H111259   1.376   1.972   5.427
 3765TIP3    H211260   1.323   2.107   5.473
 3766TIP3   OH211261   2.136   6.642   1.728
 3766TIP3    H111262   2.057   6.621   1.777
 3766TIP3    H211263   2.205   6.647   1.794
 3767TIP3   OH211264   0.066   1.091   5.384
 3767TIP3    H111265   0.156   1.059   5.394
 3767TIP3    H211266   0.071   1.185   5.399
 3768TIP3   OH211267   2.880   4.727   3.400
 3768TIP3    H111268   2.797   4.773   3.414
 3768TIP3    H211269   2.925   4.780   3.334
 3769TIP3   OH211270   3.236   3.188   3.075
 3769TIP3    H111271   3.310   3.166   3.018
 3769TIP3    H211272   3.180   3.110   3.074
 3770TIP3   OH211273   2.651   1.162   5.537
 3770TIP3    H111274   2.570   1.203   5.568
 3770TIP3    H211275   2.717   1.188   5.602
 3771TIP3   OH211276   2.384   1.684   2.095
 3771TIP3    H111277   2.434   1.618   2.143
 3771TIP3    H211278   2.352   1.638   2.017
 3772TIP3   OH211279   7.069   2.222   4.823
 3772TIP3    H111280   7.015   2.287   4.868
 3772TIP3    H211281   7.041   2.227   4.731
 3773TIP3   OH211282   4.997   6.636   5.825
 3773TIP3    H111283   4.923   6.643   5.765
 3773TIP3    H211284   5.030   6.547   5.813
 3774TIP3   OH211285   1.876   4.402   0.568
 3774TIP3    H111286   1.890   4.388   0.662
 3774TIP3    H211287   1.805   4.343   0.545
 3775TIP3   OH211288   3.224   5.788   1.400
 3775TIP3    H111289   3.253   5.704   1.365
 3775TIP3    H211290   3.299   5.847   1.385
 3776TIP3   OH211291   5.249   0.843   4.908
 3776TIP3    H111292   5.233   0.773   4.971
 3776TIP3    H211293   5.306   0.905   4.955
 3777TIP3   OH211294   4.456   6.133   5.483
 3777TIP3    H111295   4.443   6.071   5.411
 3777TIP3    H211296   4.398   6.101   5.552
 3778TIP3   OH211297   3.744   3.565   3.921
 3778TIP3    H111298   3.757   3.474   3.894
 3778TIP3    H211299   3.824   3.588   3.967
 3779TIP3   OH211300   3.738   2.989   4.998
 3779TIP3    H111301   3.676   2.917   5.012
 3779TIP3    H211302   3.784   2.965   4.918
 3780TIP3   OH211303   5.764   0.969   5.515
 3780TIP3    H111304   5.742   1.018   5.435
 3780TIP3    H211305   5.725   1.021   5.585
 3781TIP3   OH211306   6.407   1.877   1.526
 3781TIP3    H111307   6.461   1.907   1.600
 3781TIP3    H211308   6.466   1.821   1.475
 3782TIP3   OH211309   1.750   6.820   5.497
 3782TIP3    H111310   1.800   6.744   5.527
 3782TIP3    H211311   1.748   6.811   5.401
 3783TIP3   OH211312   0.011   0.711   4.312
 3783TIP3    H111313  -0.054   0.723   4.382
 3783TIP3    H211314   0.093   0.696   4.358
 3784TIP3   OH211315   7.038   6.435   1.363
 3784TIP3    H111316   7.115   6.448   1.418
 3784TIP3    H211317   7.072   6.402   1.280
 3785TIP3   OH211318   7.027   6.056   1.128
 3785TIP3    H111319   6.944   6.074   1.173
 3785TIP3    H211320   7.092   6.051   1.199
 3786TIP3   OH211321   3.976   4.148   1.140
 3786TIP3    H111322   3.977   4.059   1.177
 3786TIP3    H211323   4.068   4.172   1.133
 3787TIP3   OH211324   2.453   2.444   0.330
 3787TIP3    H111325   2.398   2.517   0.356
 3787TIP3    H211326   2.401   2.397   0.264
 3788TIP3   OH211327   5.367   1.049   5.368
 3788TIP3    H111328   5.394   1.001   5.446
 3788TIP3    H211329   5.305   1.115   5.401
 3789TIP3   OH211330   0.365   4.001   4.433
 3789TIP3    H111331   0.395   3.947   4.359
 3789TIP3    H211332   0.309   3.942   4.483
 3790TIP3   OH211333   0.070   5.591   5.000
 3790TIP3    H111334   0.103   5.679   5.014
 3790TIP3    H211335   0.113   5.538   5.067
 3791TIP3   OH211336   4.546   5.452   3.244
 3791TIP3    H111337   4.465   5.401   3.251
 3791TIP3    H211338   4.568   5.474   3.334
 3792TIP3   OH211339   3.139   1.111   3.887
 3792TIP3    H111340   3.101   1.024   3.898
 3792TIP3    H211341   3.232   1.099   3.909
 3793TIP3   OH211342   7.078   1.615   1.051
 3793TIP3    H111343   7.066   1.600   1.145
 3793TIP3    H211344   7.144   1.683   1.046
 3794TIP3   OH211345   6.563   1.841   0.614
 3794TIP3    H111346   6.468   1.850   0.618
 3794TIP3    H211347   6.578   1.769   0.553
 3795TIP3   OH211348   3.997   0.673   5.475
 3795TIP3    H111349   3.903   0.657   5.480
 3795TIP3    H211350   4.032   0.633   5.554
 3796TIP3   OH211351   3.210   1.871   3.510
 3796TIP3    H111352   3.163   1.821   3.576
 3796TIP3    H211353   3.141   1.915   3.460
 3797TIP3   OH211354   6.146   2.349   3.278
 3797TIP3    H111355   6.167   2.266   3.321
 3797TIP3    H211356   6.075   2.328   3.217
 3798TIP3   OH211357   0.246   3.223   4.003
 3798TIP3    H111358   0.229   3.173   4.083
 3798TIP3    H211359   0.172   3.284   3.997
 3799TIP3   OH211360   2.354   1.801   3.021
 3799TIP3    H111361   2.320   1.842   3.101
 3799TIP3    H211362   2.314   1.714   3.022
 3800TIP3   OH211363   2.705   6.660   0.460
 3800TIP3    H111364   2.687   6.755   0.457
 3800TIP3    H211365   2.696   6.632   0.369
 3801TIP3   OH211366   3.124   0.476   5.652
 3801TIP3    H111367   3.190   0.544   5.638
 3801TIP3    H211368   3.146   0.438   5.737
 3802TIP3   OH211369   4.929   2.883   3.104
 3802TIP3    H111370   4.999   2.863   3.042
 3802TIP3    H211371   4.853   2.836   3.071
 3803TIP3   OH211372   0.063   2.186   5.034
 3803TIP3    H111373   0.004   2.139   5.093
 3803TIP3    H211374   0.014   2.192   4.952
 3804TIP3   OH211375   6.779   4.412   5.058
 3804TIP3    H111376   6.706   4.393   4.999
 3804TIP3    H211377   6.809   4.499   5.033
 3805TIP3   OH211378   3.269   2.422   0.863
 3805TIP3    H111379   3.341   2.469   0.822
 3805TIP3    H211380   3.197   2.427   0.800
 3806TIP3   OH211381   6.362   3.394   2.280
 3806TIP3    H111382   6.290   3.450   2.307
 3806TIP3    H211383   6.421   3.392   2.356
 3807TIP3   OH211384   1.509   1.439   3.186
 3807TIP3    H111385   1.495   1.433   3.092
 3807TIP3    H211386   1.590   1.391   3.201
 3808TIP3   OH211387   7.024   4.495   5.676
 3808TIP3    H111388   6.936   4.483   5.713
 3808TIP3    H211389   7.042   4.588   5.689
 3809TIP3   OH211390   1.773   0.317   1.653
 3809TIP3    H111391   1.683   0.294   1.673
 3809TIP3    H211392   1.767   0.381   1.582
 3810TIP3   OH211393   2.956   0.002   5.192
 3810TIP3    H111394   2.875   0.051   5.209
 3810TIP3    H211395   2.992   0.041   5.112
 3811TIP3   OH211396   0.932   5.572   3.647
 3811TIP3    H111397   0.881   5.517   3.587
 3811TIP3    H211398   0.921   5.530   3.733
 3812TIP3   OH211399   6.094   6.704   2.719
 3812TIP3    H111400   6.058   6.770   2.660
 3812TIP3    H211401   6.152   6.752   2.777
 3813TIP3   OH211402   6.636   4.227   3.640
 3813TIP3    H111403   6.689   4.188   3.570
 3813TIP3    H211404   6.550   4.187   3.630
 3814TIP3   OH211405   4.449   3.180   1.413
 3814TIP3    H111406   4.453   3.233   1.334
 3814TIP3    H211407   4.436   3.091   1.382
 3815TIP3   OH211408   4.010   1.482   4.094
 3815TIP3    H111409   4.080   1.420   4.071
 3815TIP3    H211410   4.055   1.562   4.120
 3816TIP3   OH211411   2.208   4.093   5.085
 3816TIP3    H111412   2.214   4.043   5.167
 3816TIP3    H211413   2.297   4.127   5.072
 3817TIP3   OH211414   3.350   2.720   4.269
 3817TIP3    H111415   3.331   2.788   4.334
 3817TIP3    H211416   3.278   2.658   4.277
 3818TIP3   OH211417   1.779   4.789   5.190
 3818TIP3    H111418   1.796   4.877   5.158
 3818TIP3    H211419   1.816   4.731   5.123
 3819TIP3   OH211420   5.119   0.494   0.532
 3819TIP3    H111421   5.194   0.446   0.568
 3819TIP3    H211422   5.156   0.551   0.465
 3820TIP3   OH211423   5.513   3.521   5.626
 3820TIP3    H111424   5.432   3.532   5.676
 3820TIP3    H211425   5.492   3.554   5.539
 3821TIP3   OH211426   5.518   6.257   3.953
 3821TIP3    H111427   5.482   6.188   3.898
 3821TIP3    H211428   5.530   6.216   4.039
 3822TIP3   OH211429   0.097   5.949   1.615
 3822TIP3    H111430   0.062   5.867   1.580
 3822TIP3    H211431   0.020   5.999   1.640
 3823TIP3   OH211432   2.168   1.091   0.154
 3823TIP3    H111433   2.218   1.159   0.198
 3823TIP3    H211434   2.222   1.012   0.163
 3824TIP3   OH211435   3.996   4.942   2.251
 3824TIP3    H111436   4.089   4.938   2.227
 3824TIP3    H211437   3.981   4.864   2.304
 3825TIP3   OH211438   3.922   1.512   5.366
 3825TIP3    H111439   3.899   1.541   5.454
 3825TIP3    H211440   3.989   1.574   5.337
 3826TIP3   OH211441   4.369   4.295   0.867
 3826TIP3    H111442   4.314   4.261   0.796
 3826TIP3    H211443   4.454   4.312   0.825
 3827TIP3   OH211444   4.484   5.515   0.731
 3827TIP3    H111445   4.418   5.534   0.798
 3827TIP3    H211446   4.491   5.420   0.730
 3828TIP3   OH211447   5.635   2.145   1.344
 3828TIP3    H111448   5.727   2.147   1.320
 3828TIP3    H211449   5.633   2.173   1.435
 3829TIP3   OH211450   1.962   4.088   4.412
 3829TIP3    H111451   2.041   4.070   4.464
 3829TIP3    H211452   1.915   4.154   4.463
 3830TIP3   OH211453   6.531   3.277   5.142
 3830TIP3    H111454   6.530   3.259   5.236
 3830TIP3    H211455   6.463   3.221   5.106
 3831TIP3   OH211456   7.218   0.531   5.133
 3831TIP3    H111457   7.264   0.466   5.186
 3831TIP3    H211458   7.138   0.487   5.106
 3832TIP3   OH211459   1.646   2.977   5.318
 3832TIP3    H111460   1.691   2.962   5.235
 3832TIP3    H211461   1.713   2.961   5.384
 3833TIP3   OH211462   4.318   5.986   4.350
 3833TIP3    H111463   4.305   6.077   4.321
 3833TIP3    H211464   4.316   5.935   4.270
 3834TIP3   OH211465   6.713   1.692   4.507
 3834TIP3    H111466   6.653   1.656   4.573
 3834TIP3    H211467   6.676   1.777   4.486
 3835TIP3   OH211468   6.647   0.852   0.401
 3835TIP3    H111469   6.659   0.875   0.493
 3835TIP3    H211470   6.712   0.904   0.354
 3836TIP3   OH211471   5.472   3.782   4.588
 3836TIP3    H111472   5.533   3.817   4.653
 3836TIP3    H211473   5.386   3.815   4.616
 3837TIP3   OH211474   5.285   4.580   3.890
 3837TIP3    H111475   5.300   4.669   3.861
 3837TIP3    H211476   5.296   4.583   3.985
 3838TIP3   OH211477   1.095   1.336   1.352
 3838TIP3    H111478   1.168   1.399   1.352
 3838TIP3    H211479   1.137   1.251   1.358
 3839TIP3   OH211480   0.963   1.085   3.612
 3839TIP3    H111481   0.938   1.144   3.541
 3839TIP3    H211482   1.027   1.026   3.571
 3840TIP3   OH211483   2.874   3.142   5.323
 3840TIP3    H111484   2.830   3.161   5.406
 3840TIP3    H211485   2.812   3.171   5.256
 3841TIP3   OH211486   5.703   4.269   0.023
 3841TIP3    H111487   5.781   4.220  -0.002
 3841TIP3    H211488   5.732   4.326   0.094
 3842TIP3   OH211489   4.938   0.738   2.347
 3842TIP3    H111490   4.974   0.725   2.435
 3842TIP3    H211491   4.993   0.685   2.290
 3843TIP3   OH211492   3.283   1.149   1.643
 3843TIP3    H111493   3.203   1.169   1.594
 3843TIP3    H211494   3.315   1.235   1.673
 3844TIP3   OH211495   0.298   5.076   2.718
 3844TIP3    H111496   0.212   5.070   2.678
 3844TIP3    H211497   0.304   5.167   2.748
 3845TIP3   OH211498   5.734   1.958   3.731
 3845TIP3    H111499   5.712   1.881   3.678
 3845TIP3    H211500   5.658   2.015   3.723
 3846TIP3   OH211501   4.635   2.432   3.181
 3846TIP3    H111502   4.576   2.394   3.246
 3846TIP3    H211503   4.699   2.363   3.164
 3847TIP3   OH211504   3.328   1.185   4.914
 3847TIP3    H111505   3.324   1.136   4.996
 3847TIP3    H211506   3.362   1.271   4.938
 3848TIP3   OH211507   4.031   3.783   4.865
 3848TIP3    H111508   4.126   3.779   4.878
 3848TIP3    H211509   4.003   3.692   4.864
 3849TIP3   OH211510   5.666   6.798   3.030
 3849TIP3    H111511   5.618   6.718   3.050
 3849TIP3    H211512   5.694   6.831   3.116
 3850TIP3   OH211513   2.663   6.060   1.087
 3850TIP3    H111514   2.588   6.117   1.106
 3850TIP3    H211515   2.735   6.097   1.140
 3851TIP3   OH211516   6.249   2.105   3.439
 3851TIP3    H111517   6.260   2.098   3.533
 3851TIP3    H211518   6.160   2.073   3.422
 3852TIP3   OH211519   7.159   5.983   1.920
 3852TIP3    H111520   7.195   5.941   1.997
 3852TIP3    H211521   7.130   5.911   1.864
 3853TIP3   OH211522   7.189   4.320   1.478
 3853TIP3    H111523   7.103   4.278   1.468
 3853TIP3    H211524   7.198   4.336   1.572
 3854TIP3   OH211525   0.641   2.484   2.633
 3854TIP3    H111526   0.718   2.429   2.618
 3854TIP3    H211527   0.650   2.514   2.723
 3855TIP3   OH211528   2.040   0.234   2.654
 3855TIP3    H111529   2.030   0.285   2.574
 3855TIP3    H211530   2.069   0.148   2.625
 3856TIP3   OH211531   1.164   2.221   5.862
 3856TIP3    H111532   1.223   2.297   5.855
 3856TIP3    H211533   1.188   2.181   5.945
 3857TIP3   OH211534   4.199   3.385   0.819
 3857TIP3    H111535   4.186   3.478   0.836
 3857TIP3    H211536   4.182   3.342   0.903
 3858TIP3   OH211537   1.463   2.031   2.273
 3858TIP3    H111538   1.523   1.982   2.217
 3858TIP3    H211539   1.506   2.034   2.358
 3859TIP3   OH211540   4.824   1.216   4.670
 3859TIP3    H111541   4.780   1.226   4.754
 3859TIP3    H211542   4.881   1.140   4.681
 3860TIP3   OH211543   5.694   6.097   3.511
 3860TIP3    H111544   5.734   6.079   3.596
 3860TIP3    H211545   5.696   6.013   3.465
 3861TIP3   OH211546   5.439   6.664   4.505
 3861TIP3    H111547   5.447   6.746   4.554
 3861TIP3    H211548   5.528   6.630   4.500
 3862TIP3   OH211549   1.351   3.472   4.719
 3862TIP3    H111550   1.390   3.428   4.795
 3862TIP3    H211551   1.302   3.546   4.756
 3863TIP3   OH211552   0.202   5.903   3.383
 3863TIP3    H111553   0.259   5.839   3.426
 3863TIP3    H211554   0.226   5.897   3.290
 3864TIP3   OH211555   5.004   4.405   4.453
 3864TIP3    H111556   4.972   4.421   4.365
 3864TIP3    H211557   5.090   4.447   4.456
 3865TIP3   OH211558   2.930   6.662   3.287
 3865TIP3    H111559   2.902   6.750   3.311
 3865TIP3    H211560   2.907   6.653   3.195
 3866TIP3   OH211561   1.860   3.567   2.435
 3866TIP3    H111562   1.936   3.607   2.392
 3866TIP3    H211563   1.789   3.577   2.371
 3867TIP3   OH211564   7.197   0.695   5.514
 3867TIP3    H111565   7.205   0.600   5.528
 3867TIP3    H211566   7.114   0.705   5.468
 3868TIP3   OH211567   5.818   4.219   1.649
 3868TIP3    H111568   5.846   4.132   1.621
 3868TIP3    H211569   5.724   4.220   1.634
 3869TIP3   OH211570   5.937   5.729   0.179
 3869TIP3    H111571   5.889   5.792   0.232
 3869TIP3    H211572   5.886   5.722   0.098
 3870TIP3   OH211573   1.790   6.476   1.509
 3870TIP3    H111574   1.736   6.406   1.543
 3870TIP3    H211575   1.879   6.453   1.536
 3871TIP3   OH211576   4.799   2.506   2.948
 3871TIP3    H111577   4.794   2.410   2.950
 3871TIP3    H211578   4.738   2.534   3.015
 3872TIP3   OH211579   6.466   0.604   1.842
 3872TIP3    H111580   6.540   0.548   1.867
 3872TIP3    H211581   6.500   0.660   1.773
 3873TIP3   OH211582   6.027   2.444   3.602
 3873TIP3    H111583   6.023   2.528   3.558
 3873TIP3    H211584   6.120   2.431   3.621
 3874TIP3   OH211585   2.341   0.632   2.071
 3874TIP3    H111586   2.433   0.621   2.094
 3874TIP3    H211587   2.306   0.543   2.071
 3875TIP3   OH211588   0.282   4.716   2.896
 3875TIP3    H111589   0.217   4.784   2.874
 3875TIP3    H211590   0.281   4.656   2.821
 3876TIP3   OH211591   6.071   3.580   0.622
 3876TIP3    H111592   6.123   3.651   0.657
 3876TIP3    H211593   6.061   3.519   0.695
 3877TIP3   OH211594   0.774   4.258   1.714
 3877TIP3    H111595   0.782   4.280   1.806
 3877TIP3    H211596   0.780   4.342   1.668
 3878TIP3   OH211597   2.578   1.224   1.999
 3878TIP3    H111598   2.649   1.162   2.016
 3878TIP3    H211599   2.513   1.207   2.066
 3879TIP3   OH211600   0.912   4.003   5.073
 3879TIP3    H111601   0.898   4.076   5.133
 3879TIP3    H211602   0.844   3.940   5.097
 3880TIP3   OH211603   6.381   5.328   0.805
 3880TIP3    H111604   6.335   5.339   0.721
 3880TIP3    H211605   6.469   5.362   0.788
 3881TIP3   OH211606   1.324   4.182   4.122
 3881TIP3    H111607   1.310   4.170   4.028
 3881TIP3    H211608   1.237   4.171   4.160
 3882TIP3   OH211609   2.173   1.391   0.474
 3882TIP3    H111610   2.177   1.318   0.537
 3882TIP3    H211611   2.187   1.350   0.389
 3883TIP3   OH211612   0.847   1.384   3.701
 3883TIP3    H111613   0.786   1.420   3.637
 3883TIP3    H211614   0.933   1.398   3.662
 3884TIP3   OH211615   4.976   1.537   2.671
 3884TIP3    H111616   4.885   1.521   2.646
 3884TIP3    H211617   5.007   1.604   2.609
 3885TIP3   OH211618   0.579   1.031   1.764
 3885TIP3    H111619   0.573   0.938   1.746
 3885TIP3    H211620   0.672   1.051   1.756
 3886TIP3   OH211621   5.766   1.340   0.581
 3886TIP3    H111622   5.704   1.339   0.508
 3886TIP3    H211623   5.753   1.256   0.625
 3887TIP3   OH211624   3.923   3.552   1.403
 3887TIP3    H111625   3.903   3.587   1.490
 3887TIP3    H211626   4.013   3.521   1.409
 3888TIP3   OH211627   3.471   4.874   1.208
 3888TIP3    H111628   3.539   4.855   1.143
 3888TIP3    H211629   3.520   4.900   1.286
 3889TIP3   OH211630   3.011   5.718   3.191
 3889TIP3    H111631   2.929   5.676   3.215
 3889TIP3    H211632   3.057   5.651   3.139
 3890TIP3   OH211633   1.533   3.085   0.218
 3890TIP3    H111634   1.501   3.033   0.144
 3890TIP3    H211635   1.497   3.172   0.203
 3891TIP3   OH211636   3.100   6.529   3.663
 3891TIP3    H111637   3.060   6.484   3.589
 3891TIP3    H211638   3.104   6.462   3.732
 3892TIP3   OH211639   4.239   0.923   2.325
 3892TIP3    H111640   4.331   0.908   2.307
 3892TIP3    H211641   4.222   0.873   2.405
 3893TIP3   OH211642   0.643   5.264   3.336
 3893TIP3    H111643   0.612   5.177   3.310
 3893TIP3    H211644   0.569   5.322   3.318
 3894TIP3   OH211645   1.928   3.710   0.542
 3894TIP3    H111646   1.967   3.623   0.549
 3894TIP3    H211647   1.976   3.753   0.471
 3895TIP3   OH211648   1.692   6.668   5.246
 3895TIP3    H111649   1.614   6.697   5.198
 3895TIP3    H211650   1.671   6.580   5.276
 3896TIP3   OH211651   1.299   0.982   4.212
 3896TIP3    H111652   1.281   1.000   4.304
 3896TIP3    H211653   1.253   0.900   4.194
 3897TIP3   OH211654   6.539   4.656   5.819
 3897TIP3    H111655   6.469   4.594   5.841
 3897TIP3    H211656   6.608   4.602   5.781
 3898TIP3   OH211657   3.431   5.179   4.803
 3898TIP3    H111658   3.415   5.180   4.708
 3898TIP3    H211659   3.513   5.131   4.813
 3899TIP3   OH211660   6.338   1.475   0.458
 3899TIP3    H111661   6.279   1.401   0.475
 3899TIP3    H211662   6.297   1.521   0.385
 3900TIP3   OH211663   7.202   1.550   4.448
 3900TIP3    H111664   7.140   1.556   4.376
 3900TIP3    H211665   7.148   1.560   4.527
 3901TIP3   OH211666   1.124   2.250   1.175
 3901TIP3    H111667   1.046   2.217   1.220
 3901TIP3    H211668   1.182   2.279   1.246
 3902TIP3   OH211669   1.008   3.967   2.608
 3902TIP3    H111670   1.093   3.956   2.650
 3902TIP3    H211671   0.951   4.004   2.676
 3903TIP3   OH211672   6.815   5.492   3.757
 3903TIP3    H111673   6.742   5.498   3.819
 3903TIP3    H211674   6.881   5.552   3.792
 3904TIP3   OH211675   2.408   1.661   4.186
 3904TIP3    H111676   2.494   1.703   4.183
 3904TIP3    H211677   2.348   1.730   4.212
 3905TIP3   OH211678   0.600   6.561   4.967
 3905TIP3    H111679   0.651   6.527   5.040
 3905TIP3    H211680   0.656   6.551   4.890
 3906TIP3   OH211681   1.127   0.389   5.213
 3906TIP3    H111682   1.220   0.371   5.229
 3906TIP3    H211683   1.086   0.385   5.300
 3907TIP3   OH211684   3.069   5.361   0.268
 3907TIP3    H111685   3.106   5.448   0.252
 3907TIP3    H211686   3.097   5.309   0.193
 3908TIP3   OH211687   2.470   4.484   2.487
 3908TIP3    H111688   2.472   4.388   2.491
 3908TIP3    H211689   2.518   4.512   2.566
 3909TIP3   OH211690   4.163   5.511   1.817
 3909TIP3    H111691   4.089   5.571   1.818
 3909TIP3    H211692   4.153   5.458   1.896
 3910TIP3   OH211693   2.014   5.117   5.723
 3910TIP3    H111694   1.989   5.089   5.635
 3910TIP3    H211695   1.950   5.074   5.781
 3911TIP3   OH211696   5.983   2.602   5.236
 3911TIP3    H111697   5.906   2.628   5.286
 3911TIP3    H211698   5.952   2.596   5.145
 3912TIP3   OH211699   2.775   1.056   2.081
 3912TIP3    H111700   2.831   1.119   2.126
 3912TIP3    H211701   2.837   0.990   2.046
 3913TIP3   OH211702   2.857   6.178   1.255
 3913TIP3    H111703   2.895   6.253   1.300
 3913TIP3    H211704   2.921   6.107   1.268
 3914TIP3   OH211705   1.135   6.589   0.092
 3914TIP3    H111706   1.189   6.541   0.029
 3914TIP3    H211707   1.050   6.545   0.089
 3915TIP3   OH211708   6.694   1.232   0.763
 3915TIP3    H111709   6.714   1.153   0.713
 3915TIP3    H211710   6.636   1.202   0.833
 3916TIP3   OH211711   2.526   0.917   3.690
 3916TIP3    H111712   2.492   0.841   3.643
 3916TIP3    H211713   2.471   0.924   3.768
 3917TIP3   OH211714   0.799   0.326   4.598
 3917TIP3    H111715   0.829   0.413   4.626
 3917TIP3    H211716   0.876   0.287   4.557
 3918TIP3   OH211717   6.111   2.691   0.246
 3918TIP3    H111718   6.195   2.736   0.243
 3918TIP3    H211719   6.086   2.690   0.338
 3919TIP3   OH211720   2.958   0.394   1.744
 3919TIP3    H111721   2.863   0.395   1.732
 3919TIP3    H211722   2.989   0.473   1.701
 3920TIP3   OH211723   6.970   0.712   0.747
 3920TIP3    H111724   7.050   0.720   0.799
 3920TIP3    H211725   7.000   0.693   0.658
 3921TIP3   OH211726   2.647   2.253   2.389
 3921TIP3    H111727   2.573   2.207   2.429
 3921TIP3    H211728   2.615   2.283   2.305
 3922TIP3   OH211729   6.835   5.500   1.867
 3922TIP3    H111730   6.883   5.544   1.938
 3922TIP3    H211731   6.856   5.408   1.879
 3923TIP3   OH211732   1.222   2.353   1.646
 3923TIP3    H111733   1.277   2.418   1.690
 3923TIP3    H211734   1.150   2.337   1.708
 3924TIP3   OH211735   1.778   0.775   1.168
 3924TIP3    H111736   1.739   0.775   1.255
 3924TIP3    H211737   1.871   0.796   1.184
 3925TIP3   OH211738   6.802   5.296   0.329
 3925TIP3    H111739   6.716   5.255   0.334
 3925TIP3    H211740   6.796   5.371   0.389
 3926TIP3   OH211741   3.469   6.288   4.915
 3926TIP3    H111742   3.557   6.264   4.887
 3926TIP3    H211743   3.438   6.348   4.847
 3927TIP3   OH211744   3.135   4.650   3.336
 3927TIP3    H111745   3.049   4.646   3.376
 3927TIP3    H211746   3.149   4.743   3.319
 3928TIP3   OH211747   0.545   4.638   2.629
 3928TIP3    H111748   0.598   4.560   2.643
 3928TIP3    H211749   0.477   4.610   2.567
 3929TIP3   OH211750   3.510   3.568   0.718
 3929TIP3    H111751   3.442   3.539   0.656
 3929TIP3    H211752   3.507   3.504   0.789
 3930TIP3   OH211753   5.267   1.161   1.335
 3930TIP3    H111754   5.202   1.092   1.324
 3930TIP3    H211755   5.278   1.199   1.248
 3931TIP3   OH211756   4.798   0.084   2.025
 3931TIP3    H111757   4.883   0.129   2.025
 3931TIP3    H211758   4.745   0.132   1.961
 3932TIP3   OH211759   4.766   6.453   3.484
 3932TIP3    H111760   4.671   6.462   3.490
 3932TIP3    H211761   4.796   6.540   3.455
 3933TIP3   OH211762   5.783   0.275   3.392
 3933TIP3    H111763   5.792   0.333   3.317
 3933TIP3    H211764   5.788   0.186   3.356
 3934TIP3   OH211765   2.835   4.624   5.151
 3934TIP3    H111766   2.768   4.616   5.083
 3934TIP3    H211767   2.802   4.694   5.208
 3935TIP3   OH211768   0.537   0.576   0.628
 3935TIP3    H111769   0.588   0.616   0.699
 3935TIP3    H211770   0.601   0.561   0.558
 3936TIP3   OH211771   3.991   3.075   3.914
 3936TIP3    H111772   3.964   3.068   4.005
 3936TIP3    H211773   4.069   3.131   3.917
 3937TIP3   OH211774   4.366   1.927   0.914
 3937TIP3    H111775   4.283   1.891   0.884
 3937TIP3    H211776   4.399   1.979   0.840
 3938TIP3   OH211777   3.439   1.967   4.069
 3938TIP3    H111778   3.361   1.984   4.017
 3938TIP3    H211779   3.512   1.985   4.010
 3939TIP3   OH211780   2.338   0.362   2.913
 3939TIP3    H111781   2.359   0.448   2.948
 3939TIP3    H211782   2.322   0.307   2.990
 3940TIP3   OH211783   1.207   3.931   3.635
 3940TIP3    H111784   1.192   3.978   3.553
 3940TIP3    H211785   1.229   4.000   3.698
 3941TIP3   OH211786   5.884   5.706   0.942
 3941TIP3    H111787   5.854   5.741   0.858
 3941TIP3    H211788   5.809   5.717   1.001
 3942TIP3   OH211789   0.589   0.357   3.906
 3942TIP3    H111790   0.562   0.443   3.876
 3942TIP3    H211791   0.664   0.335   3.850
 3943TIP3   OH211792   4.364   5.772   4.121
 3943TIP3    H111793   4.320   5.688   4.108
 3943TIP3    H211794   4.457   5.749   4.125
 3944TIP3   OH211795   0.845   1.030   0.376
 3944TIP3    H111796   0.889   1.061   0.297
 3944TIP3    H211797   0.914   0.986   0.427
 3945TIP3   OH211798   0.672   5.395   0.487
 3945TIP3    H111799   0.593   5.444   0.465
 3945TIP3    H211800   0.719   5.385   0.404
 3946TIP3   OH211801   4.310   1.097   3.241
 3946TIP3    H111802   4.221   1.108   3.274
 3946TIP3    H211803   4.302   1.028   3.174
 3947TIP3   OH211804   4.222   2.536   2.750
 3947TIP3    H111805   4.222   2.500   2.839
 3947TIP3    H211806   4.135   2.515   2.716
 3948TIP3   OH211807   1.681   1.487   3.931
 3948TIP3    H111808   1.723   1.568   3.902
 3948TIP3    H211809   1.590   1.495   3.902
 3949TIP3   OH211810   2.819   0.073   0.414
 3949TIP3    H111811   2.813   0.100   0.506
 3949TIP3    H211812   2.908   0.097   0.387
 3950TIP3   OH211813   6.501   6.330   1.743
 3950TIP3    H111814   6.529   6.410   1.699
 3950TIP3    H211815   6.488   6.356   1.834
 3951TIP3   OH211816   5.639   4.105   4.941
 3951TIP3    H111817   5.611   4.186   4.984
 3951TIP3    H211818   5.735   4.112   4.937
 3952TIP3   OH211819   2.490   5.490   4.399
 3952TIP3    H111820   2.452   5.562   4.449
 3952TIP3    H211821   2.562   5.459   4.453
 3953TIP3   OH211822   7.120   1.557   1.838
 3953TIP3    H111823   7.104   1.463   1.829
 3953TIP3    H211824   7.107   1.574   1.931
 3954TIP3   OH211825   6.220   2.204   3.877
 3954TIP3    H111826   6.224   2.133   3.813
 3954TIP3    H211827   6.127   2.213   3.897
 3955TIP3   OH211828   1.841   1.552   4.912
 3955TIP3    H111829   1.914   1.568   4.853
 3955TIP3    H211830   1.816   1.461   4.896
 3956TIP3   OH211831   1.362   2.572   5.473
 3956TIP3    H111832   1.426   2.567   5.544
 3956TIP3    H211833   1.343   2.481   5.451
 3957TIP3   OH211834   0.177   1.327   1.244
 3957TIP3    H111835   0.196   1.419   1.223
 3957TIP3    H211836   0.249   1.301   1.301
 3958TIP3   OH211837   1.961   1.503   1.534
 3958TIP3    H111838   1.869   1.500   1.558
 3958TIP3    H211839   1.973   1.429   1.474
 3959TIP3   OH211840   1.459   6.034   5.631
 3959TIP3    H111841   1.372   6.041   5.671
 3959TIP3    H211842   1.471   6.117   5.584
 3960TIP3   OH211843   6.072   4.264   0.235
 3960TIP3    H111844   6.106   4.335   0.181
 3960TIP3    H211845   6.083   4.186   0.182
 3961TIP3   OH211846   1.019   4.470   3.146
 3961TIP3    H111847   0.935   4.494   3.107
 3961TIP3    H211848   1.084   4.511   3.089
 3962TIP3   OH211849   0.439   6.065   2.535
 3962TIP3    H111850   0.402   6.153   2.547
 3962TIP3    H211851   0.516   6.064   2.591
 3963TIP3   OH211852   0.818   3.326   0.692
 3963TIP3    H111853   0.863   3.335   0.608
 3963TIP3    H211854   0.726   3.315   0.669
 3964TIP3   OH211855   3.739   1.592   4.080
 3964TIP3    H111856   3.687   1.515   4.099
 3964TIP3    H211857   3.828   1.559   4.068
 3965TIP3   OH211858   4.952   6.262   2.731
 3965TIP3    H111859   4.886   6.330   2.745
 3965TIP3    H211860   4.935   6.229   2.643
 3966TIP3   OH211861   6.605   4.492   5.285
 3966TIP3    H111862   6.700   4.487   5.279
 3966TIP3    H211863   6.573   4.439   5.212
 3967TIP3   OH211864   3.678   0.626   2.329
 3967TIP3    H111865   3.626   0.598   2.404
 3967TIP3    H211866   3.689   0.548   2.275
 3968TIP3   OH211867   4.077   4.445   5.249
 3968TIP3    H111868   4.078   4.485   5.162
 3968TIP3    H211869   4.029   4.508   5.304
 3969TIP3   OH211870   4.575   5.469   5.688
 3969TIP3    H111871   4.631   5.509   5.755
 3969TIP3    H211872   4.628   5.399   5.652
 3970TIP3   OH211873   0.799   4.736   0.749
 3970TIP3    H111874   0.787   4.821   0.706
 3970TIP3    H211875   0.723   4.727   0.807
 3971TIP3   OH211876   5.362   5.307   3.563
 3971TIP3    H111877   5.330   5.379   3.618
 3971TIP3    H211878   5.457   5.308   3.577
 3972TIP3   OH211879   2.425   0.080   4.961
 3972TIP3    H111880   2.458   0.152   4.907
 3972TIP3    H211881   2.490   0.072   5.031
 3973TIP3   OH211882   3.728   5.610   1.258
 3973TIP3    H111883   3.713   5.685   1.315
 3973TIP3    H211884   3.822   5.611   1.241
 3974TIP3   OH211885   4.089   5.335   3.998
 3974TIP3    H111886   4.006   5.300   3.965
 3974TIP3    H211887   4.152   5.314   3.929
 3975TIP3   OH211888   5.400   1.386   3.580
 3975TIP3    H111889   5.454   1.317   3.620
 3975TIP3    H211890   5.328   1.339   3.538
 3976TIP3   OH211891   4.288   1.672   0.704
 3976TIP3    H111892   4.351   1.654   0.773
 3976TIP3    H211893   4.291   1.594   0.648
 3977TIP3   OH211894   2.965   5.945   4.528
 3977TIP3    H111895   3.027   5.876   4.553
 3977TIP3    H211896   2.966   5.944   4.432
 3978TIP3   OH211897   0.311   0.740   4.304
 3978TIP3    H111898   0.356   0.692   4.374
 3978TIP3    H211899   0.348   0.828   4.307
 3979TIP3   OH211900   1.793   6.220   0.574
 3979TIP3    H111901   1.860   6.155   0.552
 3979TIP3    H211902   1.711   6.182   0.542
 3980TIP3   OH211903   4.957   3.619   0.594
 3980TIP3    H111904   4.915   3.699   0.624
 3980TIP3    H211905   5.040   3.648   0.555
 3981TIP3   OH211906   5.305   4.971   5.846
 3981TIP3    H111907   5.316   5.066   5.839
 3981TIP3    H211908   5.336   4.949   5.933
 3982TIP3   OH211909   6.794   6.488   3.879
 3982TIP3    H111910   6.781   6.395   3.896
 3982TIP3    H211911   6.772   6.531   3.962
 3983TIP3   OH211912   4.640   6.751   0.420
 3983TIP3    H111913   4.608   6.753   0.330
 3983TIP3    H211914   4.705   6.821   0.424
 3984TIP3   OH211915   2.880   2.908   2.081
 3984TIP3    H111916   2.811   2.875   2.024
 3984TIP3    H211917   2.874   2.854   2.160
 3985TIP3   OH211918   3.999   3.635   4.536
 3985TIP3    H111919   4.087   3.610   4.563
 3985TIP3    H211920   3.946   3.625   4.615
 3986TIP3   OH211921   3.092   0.028   3.147
 3986TIP3    H111922   3.000   0.053   3.134
 3986TIP3    H211923   3.097  -0.062   3.116
 3987TIP3   OH211924   5.316   1.767   4.494
 3987TIP3    H111925   5.275   1.681   4.483
 3987TIP3    H211926   5.354   1.786   4.408
 3988TIP3   OH211927   6.279   3.378   3.327
 3988TIP3    H111928   6.240   3.333   3.402
 3988TIP3    H211929   6.370   3.348   3.326
 3989TIP3   OH211930   5.007   1.412   0.904
 3989TIP3    H111931   5.051   1.487   0.865
 3989TIP3    H211932   4.950   1.378   0.835
 3990TIP3   OH211933   2.300   1.851   2.621
 3990TIP3    H111934   2.341   1.775   2.581
 3990TIP3    H211935   2.211   1.822   2.643
 3991TIP3   OH211936   0.932   6.090   3.869
 3991TIP3    H111937   0.994   6.071   3.940
 3991TIP3    H211938   0.912   6.005   3.830
 3992TIP3   OH211939   6.274   3.797   0.695
 3992TIP3    H111940   6.316   3.767   0.776
 3992TIP3    H211941   6.338   3.856   0.655
 3993TIP3   OH211942   6.262   3.515   4.236
 3993TIP3    H111943   6.279   3.510   4.330
 3993TIP3    H211944   6.168   3.531   4.229
 3994TIP3   OH211945   0.876   4.174   0.204
 3994TIP3    H111946   0.809   4.128   0.154
 3994TIP3    H211947   0.951   4.180   0.145
 3995TIP3   OH211948   2.869   6.607   5.080
 3995TIP3    H111949   2.848   6.630   5.171
 3995TIP3    H211950   2.956   6.568   5.085
 3996TIP3   OH211951   0.703   3.647   3.054
 3996TIP3    H111952   0.724   3.554   3.055
 3996TIP3    H211953   0.610   3.651   3.077
 3997TIP3   OH211954   6.202   2.019   1.396
 3997TIP3    H111955   6.275   1.977   1.440
 3997TIP3    H211956   6.126   2.000   1.451
 3998TIP3   OH211957   0.231   5.793   1.273
 3998TIP3    H111958   0.255   5.871   1.222
 3998TIP3    H211959   0.208   5.826   1.359
 3999TIP3   OH211960   3.176   3.477   2.152
 3999TIP3    H111961   3.127   3.414   2.100
 3999TIP3    H211962   3.166   3.447   2.242
 4000TIP3   OH211963   1.760   2.862   1.338
 4000TIP3    H111964   1.829   2.891   1.279
 4000TIP3    H211965   1.707   2.802   1.286
 4001TIP3   OH211966   6.754   4.411   4.647
 4001TIP3    H111967   6.829   4.403   4.707
 4001TIP3    H211968   6.786   4.375   4.564
 4002TIP3   OH211969   0.363   6.401   0.288
 4002TIP3    H111970   0.358   6.472   0.351
 4002TIP3    H211971   0.303   6.426   0.218
 4003TIP3   OH211972   4.208   2.798   4.046
 4003TIP3    H111973   4.208   2.827   3.954
 4003TIP3    H211974   4.231   2.705   4.041
 4004TIP3   OH211975   6.777   5.827   4.667
 4004TIP3    H111976   6.743   5.880   4.739
 4004TIP3    H211977   6.765   5.737   4.695
 4005TIP3   OH211978   1.983   0.946   2.835
 4005TIP3    H111979   1.967   0.969   2.926
 4005TIP3    H211980   1.909   0.982   2.787
 4006TIP3   OH211981   5.516   3.755   5.205
 4006TIP3    H111982   5.511   3.668   5.245
 4006TIP3    H211983   5.490   3.741   5.114
 4007TIP3   OH211984   5.457   1.391   5.236
 4007TIP3    H111985   5.380   1.433   5.197
 4007TIP3    H211986   5.434   1.299   5.242
 4008TIP3   OH211987   6.451   0.065   4.652
 4008TIP3    H111988   6.377   0.018   4.690
 4008TIP3    H211989   6.432   0.068   4.558
 4009TIP3   OH211990   4.027   5.705   1.014
 4009TIP3    H111991   4.002   5.705   1.106
 4009TIP3    H211992   4.122   5.693   1.016
 4010TIP3   OH211993   0.037   4.363   5.077
 4010TIP3    H111994   0.038   4.389   4.985
 4010TIP3    H211995  -0.054   4.337   5.093
 4011TIP3   OH211996   2.304   4.133   1.005
 4011TIP3    H111997   2.385   4.115   1.053
 4011TIP3    H211998   2.317   4.091   0.920
 4012TIP3   OH211999   4.543   0.220   3.269
 4012TIP3    H112000   4.483   0.172   3.327
 4012TIP3    H212001   4.614   0.248   3.326
 4013TIP3   OH212002   0.431   4.933   2.942
 4013TIP3    H112003   0.372   4.861   2.965
 4013TIP3    H212004   0.377   4.992   2.889
 4014TIP3   OH212005   6.825   1.033   2.117
 4014TIP3    H112006   6.801   0.956   2.170
 4014TIP3    H212007   6.905   1.006   2.072
 4015TIP3   OH212008   3.585   1.009   4.183
 4015TIP3    H112009   3.635   1.002   4.264
 4015TIP3    H212010   3.636   0.960   4.118
 4016TIP3   OH212011   7.058   1.793   3.784
 4016TIP3    H112012   6.978   1.801   3.731
 4016TIP3    H212013   7.119   1.854   3.743
 4017TIP3   OH212014   4.724   4.579   1.539
 4017TIP3    H112015   4.781   4.554   1.611
 4017TIP3    H212016   4.783   4.612   1.471
 4018TIP3   OH212017   6.400   4.333   0.582
 4018TIP3    H112018   6.321   4.382   0.605
 4018TIP3    H212019   6.436   4.304   0.666
 4019TIP3   OH212020   6.448   1.718   5.098
 4019TIP3    H112021   6.440   1.695   5.191
 4019TIP3    H212022   6.526   1.672   5.069
 4020TIP3   OH212023   2.951   0.669   1.180
 4020TIP3    H112024   3.014   0.604   1.211
 4020TIP3    H212025   2.890   0.679   1.252
 4021TIP3   OH212026   4.612   2.483   2.385
 4021TIP3    H112027   4.581   2.497   2.296
 4021TIP3    H212028   4.539   2.509   2.441
 4022TIP3   OH212029   5.935   4.525   4.451
 4022TIP3    H112030   5.862   4.556   4.396
 4022TIP3    H212031   5.958   4.600   4.505
 4023TIP3   OH212032   4.720   3.765   3.559
 4023TIP3    H112033   4.701   3.843   3.506
 4023TIP3    H212034   4.635   3.721   3.569
 4024TIP3   OH212035   6.477   5.680   4.621
 4024TIP3    H112036   6.478   5.711   4.711
 4024TIP3    H212037   6.563   5.640   4.608
 4025TIP3   OH212038   5.630   1.053   5.275
 4025TIP3    H112039   5.669   1.139   5.291
 4025TIP3    H212040   5.539   1.063   5.302
 4026TIP3   OH212041   4.657   3.944   3.020
 4026TIP3    H112042   4.679   3.928   3.111
 4026TIP3    H212043   4.579   3.999   3.022
 4027TIP3   OH212044   2.922   2.992   0.830
 4027TIP3    H112045   2.867   2.921   0.865
 4027TIP3    H212046   2.982   3.014   0.901
 4028TIP3   OH212047   3.929   1.852   2.620
 4028TIP3    H112048   3.989   1.845   2.695
 4028TIP3    H212049   3.904   1.761   2.601
 4029TIP3   OH212050   0.576   3.315   2.720
 4029TIP3    H112051   0.617   3.397   2.694
 4029TIP3    H212052   0.649   3.253   2.729
 4030TIP3   OH212053   0.280   6.328   5.257
 4030TIP3    H112054   0.279   6.362   5.168
 4030TIP3    H212055   0.312   6.400   5.311
 4031TIP3   OH212056   5.849   1.154   2.614
 4031TIP3    H112057   5.830   1.247   2.625
 4031TIP3    H212058   5.942   1.151   2.592
 4032TIP3   OH212059   5.076   2.766   5.588
 4032TIP3    H112060   5.061   2.848   5.542
 4032TIP3    H212061   4.995   2.750   5.635
 4033TIP3   OH212062   0.033   1.496   5.274
 4033TIP3    H112063  -0.020   1.573   5.297
 4033TIP3    H212064   0.049   1.505   5.180
 4034TIP3   OH212065   4.809   1.999   1.454
 4034TIP3    H112066   4.881   1.954   1.497
 4034TIP3    H212067   4.732   1.945   1.472
 4035TIP3   OH212068   5.418   4.306   1.834
 4035TIP3    H112069   5.493   4.346   1.788
 4035TIP3    H212070   5.343   4.324   1.777
 4036TIP3   OH212071   0.288   4.853   3.773
 4036TIP3    H112072   0.214   4.795   3.756
 4036TIP3    H212073   0.359   4.795   3.801
 4037TIP3   OH212074   3.131   5.746   4.634
 4037TIP3    H112075   3.111   5.653   4.624
 4037TIP3    H212076   3.212   5.747   4.684
 4038TIP3   OH212077   6.034   3.801   5.413
 4038TIP3    H112078   6.027   3.716   5.370
 4038TIP3    H212079   6.056   3.862   5.343
 4039TIP3   OH212080   6.852   6.125   2.165
 4039TIP3    H112081   6.822   6.036   2.143
 4039TIP3    H212082   6.802   6.148   2.243
 4040TIP3   OH212083   2.916   1.847   3.631
 4040TIP3    H112084   2.827   1.877   3.649
 4040TIP3    H212085   2.953   1.915   3.575
 4041TIP3   OH212086   0.201   3.368   2.680
 4041TIP3    H112087   0.239   3.288   2.718
 4041TIP3    H212088   0.246   3.378   2.596
 4042TIP3   OH212089   7.167   1.885   2.250
 4042TIP3    H112090   7.079   1.889   2.286
 4042TIP3    H212091   7.217   1.834   2.315
 4043TIP3   OH212092   7.156   1.617   2.109
 4043TIP3    H112093   7.210   1.663   2.173
 4043TIP3    H212094   7.164   1.525   2.133
 4044TIP3   OH212095   6.138   2.991   5.839
 4044TIP3    H112096   6.095   2.960   5.760
 4044TIP3    H212097   6.225   2.951   5.837
 4045TIP3   OH212098   6.788   2.975   3.109
 4045TIP3    H112099   6.804   2.931   3.025
 4045TIP3    H212100   6.717   3.037   3.090
 4046TIP3   OH212101   5.661   1.841   5.857
 4046TIP3    H112102   5.625   1.753   5.846
 4046TIP3    H212103   5.590   1.899   5.830
 4047TIP3   OH212104   0.358   4.309   3.419
 4047TIP3    H112105   0.302   4.376   3.378
 4047TIP3    H212106   0.317   4.226   3.394
 4048TIP3   OH212107   3.511   2.866   2.811
 4048TIP3    H112108   3.527   2.860   2.716
 4048TIP3    H212109   3.533   2.780   2.845
 4049TIP3   OH212110   5.422   3.962   2.718
 4049TIP3    H112111   5.386   3.893   2.775
 4049TIP3    H212112   5.516   3.958   2.733
 4050TIP3   OH212113   4.560   4.730   3.375
 4050TIP3    H112114   4.466   4.739   3.392
 4050TIP3    H212115   4.603   4.772   3.449
 4051TIP3   OH212116   4.594   6.581   3.012
 4051TIP3    H112117   4.621   6.623   3.094
 4051TIP3    H212118   4.514   6.626   2.987
 4052TIP3   OH212119   2.204   6.547   2.521
 4052TIP3    H112120   2.262   6.621   2.508
 4052TIP3    H212121   2.220   6.490   2.446
 4053TIP3   OH212122   7.185   3.039   2.144
 4053TIP3    H112123   7.158   3.098   2.073
 4053TIP3    H212124   7.271   3.072   2.171
 4054TIP3   OH212125   1.203   2.711   5.310
 4054TIP3    H112126   1.174   2.784   5.365
 4054TIP3    H212127   1.277   2.673   5.357
 4055TIP3   OH212128   3.662   1.498   2.296
 4055TIP3    H112129   3.570   1.508   2.322
 4055TIP3    H212130   3.666   1.411   2.255
 4056TIP3   OH212131   7.058   3.147   1.906
 4056TIP3    H112132   7.039   3.100   1.825
 4056TIP3    H212133   7.124   3.211   1.880
 4057TIP3   OH212134   7.068   1.691   4.905
 4057TIP3    H112135   7.136   1.668   4.967
 4057TIP3    H212136   7.089   1.781   4.878
 4058TIP3   OH212137   2.226   5.500   3.373
 4058TIP3    H112138   2.314   5.492   3.410
 4058TIP3    H212139   2.230   5.454   3.289
 4059TIP3   OH212140   3.089   3.125   0.114
 4059TIP3    H112141   3.073   3.104   0.206
 4059TIP3    H212142   3.003   3.149   0.079
 4060TIP3   OH212143   0.130   5.861   0.156
 4060TIP3    H112144   0.180   5.844   0.076
 4060TIP3    H212145   0.086   5.944   0.139
 4061TIP3   OH212146   0.188   5.832   3.094
 4061TIP3    H112147   0.242   5.903   3.060
 4061TIP3    H212148   0.130   5.809   3.021
 4062TIP3   OH212149   6.278   2.113   2.033
 4062TIP3    H112150   6.292   2.034   1.981
 4062TIP3    H212151   6.208   2.160   1.986
 4063TIP3   OH212152   1.742   3.754   1.779
 4063TIP3    H112153   1.833   3.744   1.804
 4063TIP3    H212154   1.697   3.775   1.861
 4064TIP3   OH212155   2.108   0.454   4.794
 4064TIP3    H112156   2.040   0.521   4.789
 4064TIP3    H212157   2.153   0.472   4.876
 4065TIP3   OH212158   2.146   4.691   4.800
 4065TIP3    H112159   2.126   4.736   4.717
 4065TIP3    H212160   2.157   4.599   4.775
 4066TIP3   OH212161   6.571   6.443   2.656
 4066TIP3    H112162   6.544   6.389   2.581
 4066TIP3    H212163   6.553   6.389   2.732
 4067TIP3   OH212164   0.459   5.273   5.152
 4067TIP3    H112165   0.450   5.226   5.069
 4067TIP3    H212166   0.486   5.207   5.215
 4068TIP3   OH212167   2.414   5.526   0.217
 4068TIP3    H112168   2.478   5.474   0.264
 4068TIP3    H212169   2.350   5.462   0.185
 4069TIP3   OH212170   2.276   5.900   5.745
 4069TIP3    H112171   2.294   5.975   5.688
 4069TIP3    H212172   2.303   5.929   5.832
 4070TIP3   OH212173   7.133   6.692   3.156
 4070TIP3    H112174   7.147   6.761   3.221
 4070TIP3    H212175   7.076   6.629   3.200
 4071TIP3   OH212176   0.395   3.728   1.163
 4071TIP3    H112177   0.307   3.750   1.132
 4071TIP3    H212178   0.452   3.790   1.118
 4072TIP3   OH212179   4.930   3.371   2.761
 4072TIP3    H112180   4.913   3.283   2.729
 4072TIP3    H212181   4.967   3.358   2.848
 4073TIP3   OH212182   4.233   6.186   1.364
 4073TIP3    H112183   4.205   6.276   1.351
 4073TIP3    H212184   4.303   6.173   1.299
 4074TIP3   OH212185   4.158   5.265   1.003
 4074TIP3    H112186   4.194   5.177   1.019
 4074TIP3    H212187   4.120   5.290   1.087
 4075TIP3   OH212188   6.432   0.686   3.125
 4075TIP3    H112189   6.511   0.675   3.179
 4075TIP3    H212190   6.463   0.673   3.035
 4076TIP3   OH212191   4.988   2.360   1.607
 4076TIP3    H112192   5.075   2.349   1.645
 4076TIP3    H212193   4.933   2.298   1.654
 4077TIP3   OH212194   0.887   2.555   2.051
 4077TIP3    H112195   0.966   2.598   2.081
 4077TIP3    H212196   0.836   2.624   2.010
 4078TIP3   OH212197   5.412   1.629   3.701
 4078TIP3    H112198   5.419   1.548   3.651
 4078TIP3    H212199   5.502   1.662   3.704
 4079TIP3   OH212200   6.913   4.238   4.845
 4079TIP3    H112201   6.943   4.248   4.935
 4079TIP3    H212202   6.987   4.198   4.800
 4080TIP3   OH212203   4.093   0.531   1.785
 4080TIP3    H112204   4.063   0.448   1.749
 4080TIP3    H212205   4.178   0.512   1.823
 4081TIP3   OH212206   4.836   3.469   0.341
 4081TIP3    H112207   4.919   3.423   0.348
 4081TIP3    H212208   4.853   3.554   0.382
 4082TIP3   OH212209   0.032   0.549   1.869
 4082TIP3    H112210   0.121   0.513   1.872
 4082TIP3    H212211   0.040   0.634   1.912
 4083TIP3   OH212212   2.532   4.203   2.553
 4083TIP3    H112213   2.460   4.201   2.616
 4083TIP3    H212214   2.611   4.205   2.608
 4084TIP3   OH212215   5.672   3.273   0.649
 4084TIP3    H112216   5.767   3.269   0.656
 4084TIP3    H212217   5.640   3.224   0.724
 4085TIP3   OH212218   3.104   3.063   0.356
 4085TIP3    H112219   3.056   3.030   0.431
 4085TIP3    H212220   3.171   3.121   0.394
 4086TIP3   OH212221   0.224   3.662   0.280
 4086TIP3    H112222   0.316   3.646   0.302
 4086TIP3    H212223   0.226   3.743   0.229
 4087TIP3   OH212224   5.434   1.407   2.566
 4087TIP3    H112225   5.410   1.465   2.494
 4087TIP3    H212226   5.351   1.371   2.598
 4088TIP3   OH212227   2.188   4.470   2.141
 4088TIP3    H112228   2.257   4.407   2.120
 4088TIP3    H212229   2.117   4.448   2.080
 4089TIP3   OH212230   7.034   5.625   0.067
 4089TIP3    H112231   6.982   5.551   0.101
 4089TIP3    H212232   7.116   5.584   0.038
 4090TIP3   OH212233   3.575   0.083   0.101
 4090TIP3    H112234   3.486   0.116   0.094
 4090TIP3    H212235   3.565  -0.012   0.101
 4091TIP3   OH212236   1.229   4.377   4.832
 4091TIP3    H112237   1.245   4.285   4.810
 4091TIP3    H212238   1.316   4.415   4.843
 4092TIP3   OH212239   2.800   2.891   2.773
 4092TIP3    H112240   2.717   2.910   2.729
 4092TIP3    H212241   2.866   2.939   2.722
 4093TIP3   OH212242   7.213   6.321   2.535
 4093TIP3    H112243   7.188   6.252   2.474
 4093TIP3    H212244   7.133   6.371   2.549
 4094TIP3   OH212245   1.970   3.471   3.975
 4094TIP3    H112246   2.029   3.419   3.920
 4094TIP3    H212247   1.999   3.453   4.065
 4095TIP3   OH212248   2.170   5.012   1.103
 4095TIP3    H112249   2.151   4.936   1.158
 4095TIP3    H212250   2.084   5.050   1.084
 4096TIP3   OH212251   1.959   5.967   0.783
 4096TIP3    H112252   1.979   6.023   0.708
 4096TIP3    H212253   1.864   5.955   0.779
 4097TIP3   OH212254   2.970   3.076   2.646
 4097TIP3    H112255   3.048   3.022   2.631
 4097TIP3    H212256   3.004   3.155   2.688
 4098TIP3   OH212257   3.910   6.113   2.661
 4098TIP3    H112258   3.839   6.119   2.726
 4098TIP3    H212259   3.896   6.188   2.603
 4099TIP3   OH212260   0.663   1.866   0.667
 4099TIP3    H112261   0.622   1.804   0.729
 4099TIP3    H212262   0.642   1.952   0.702
 4100TIP3   OH212263   4.907   1.668   2.277
 4100TIP3    H112264   4.879   1.753   2.311
 4100TIP3    H212265   4.983   1.645   2.331
 4101TIP3   OH212266   3.821   6.182   3.051
 4101TIP3    H112267   3.915   6.180   3.067
 4101TIP3    H212268   3.788   6.252   3.107
 4102TIP3   OH212269   4.981   5.627   4.396
 4102TIP3    H112270   5.075   5.613   4.404
 4102TIP3    H212271   4.943   5.539   4.402
 4103TIP3   OH212272   5.649   4.417   2.075
 4103TIP3    H112273   5.727   4.391   2.025
 4103TIP3    H212274   5.613   4.335   2.107
 4104TIP3   OH212275   3.712   2.669   4.688
 4104TIP3    H112276   3.739   2.703   4.603
 4104TIP3    H212277   3.627   2.711   4.704
 4105TIP3   OH212278   4.168   4.047   2.668
 4105TIP3    H112279   4.188   4.096   2.748
 4105TIP3    H212280   4.252   4.040   2.622
 4106TIP3   OH212281   1.842   2.307   4.346
 4106TIP3    H112282   1.905   2.316   4.275
 4106TIP3    H212283   1.859   2.220   4.382
 4107TIP3   OH212284   3.912   4.697   2.322
 4107TIP3    H112285   3.899   4.691   2.227
 4107TIP3    H212286   3.957   4.615   2.345
 4108TIP3   OH212287   0.646   3.059   5.185
 4108TIP3    H112288   0.637   3.056   5.089
 4108TIP3    H212289   0.646   2.967   5.212
 4109TIP3   OH212290   5.463   5.890   2.668
 4109TIP3    H112291   5.510   5.925   2.592
 4109TIP3    H212292   5.383   5.853   2.631
 4110TIP3   OH212293   4.394   5.158   5.663
 4110TIP3    H112294   4.361   5.140   5.751
 4110TIP3    H212295   4.368   5.081   5.612
 4111TIP3   OH212296   1.608   5.202   4.757
 4111TIP3    H112297   1.615   5.263   4.683
 4111TIP3    H212298   1.594   5.259   4.833
 4112TIP3   OH212299   0.491   0.164   4.355
 4112TIP3    H112300   0.452   0.213   4.281
 4112TIP3    H212301   0.477   0.072   4.332
 4113TIP3   OH212302   2.767   3.176   0.622
 4113TIP3    H112303   2.711   3.101   0.640
 4113TIP3    H212304   2.798   3.203   0.709
 4114TIP3   OH212305   6.389   3.130   4.833
 4114TIP3    H112306   6.484   3.138   4.819
 4114TIP3    H212307   6.358   3.221   4.834
 4115TIP3   OH212308   1.895   2.339   3.868
 4115TIP3    H112309   1.880   2.260   3.920
 4115TIP3    H212310   1.834   2.404   3.903
 4116TIP3   OH212311   5.666   6.537   3.400
 4116TIP3    H112312   5.734   6.599   3.374
 4116TIP3    H212313   5.711   6.475   3.458
 4117TIP3   OH212314   3.559   3.485   5.320
 4117TIP3    H112315   3.564   3.420   5.250
 4117TIP3    H212316   3.477   3.464   5.366
 4118TIP3   OH212317   7.217   3.095   3.409
 4118TIP3    H112318   7.129   3.119   3.378
 4118TIP3    H212319   7.203   3.061   3.497
 4119TIP3   OH212320   7.186   0.128   3.803
 4119TIP3    H112321   7.236   0.209   3.809
 4119TIP3    H212322   7.095   0.156   3.815
 4120TIP3   OH212323   2.680   6.262   4.818
 4120TIP3    H112324   2.753   6.323   4.810
 4120TIP3    H212325   2.711   6.195   4.879
 4121TIP3   OH212326   2.738   6.727   4.167
 4121TIP3    H112327   2.806   6.765   4.112
 4121TIP3    H212328   2.680   6.682   4.105
 4122TIP3   OH212329   2.466   0.997   5.180
 4122TIP3    H112330   2.547   0.964   5.140
 4122TIP3    H212331   2.476   1.092   5.180
 4123TIP3   OH212332   4.372   6.317   4.499
 4123TIP3    H112333   4.425   6.326   4.420
 4123TIP3    H212334   4.435   6.310   4.570
 4124TIP3   OH212335   5.842   4.155   2.243
 4124TIP3    H112336   5.826   4.065   2.275
 4124TIP3    H212337   5.756   4.197   2.247
 4125TIP3   OH212338   5.597   6.095   0.146
 4125TIP3    H112339   5.660   6.137   0.087
 4125TIP3    H212340   5.519   6.150   0.141
 4126TIP3   OH212341   1.333   5.887   2.221
 4126TIP3    H112342   1.306   5.963   2.272
 4126TIP3    H212343   1.339   5.816   2.285
 4127TIP3   OH212344   2.046   1.390   2.970
 4127TIP3    H112345   2.135   1.405   3.002
 4127TIP3    H212346   2.045   1.430   2.883
 4128TIP3   OH212347   2.217   5.178   2.734
 4128TIP3    H112348   2.313   5.182   2.731
 4128TIP3    H212349   2.196   5.085   2.722
 4129TIP3   OH212350   5.663   5.759   5.878
 4129TIP3    H112351   5.751   5.742   5.845
 4129TIP3    H212352   5.629   5.829   5.821
 4130TIP3   OH212353   1.676   6.123   3.231
 4130TIP3    H112354   1.725   6.128   3.149
 4130TIP3    H212355   1.636   6.036   3.230
 4131TIP3   OH212356   2.842   1.393   4.825
 4131TIP3    H112357   2.885   1.337   4.889
 4131TIP3    H212358   2.779   1.444   4.877
 4132TIP3   OH212359   4.922   4.368   5.134
 4132TIP3    H112360   4.923   4.451   5.182
 4132TIP3    H212361   4.995   4.375   5.073
 4133TIP3   OH212362   1.029   0.599   0.039
 4133TIP3    H112363   1.093   0.667   0.017
 4133TIP3    H212364   1.032   0.539  -0.035
 4134TIP3   OH212365   0.342   1.453   0.073
 4134TIP3    H112366   0.376   1.498   0.150
 4134TIP3    H212367   0.274   1.511   0.039
 4135TIP3   OH212368   5.660   6.067   2.016
 4135TIP3    H112369   5.716   6.117   2.076
 4135TIP3    H212370   5.683   5.976   2.033
 4136TIP3   OH212371   1.094   1.740   3.931
 4136TIP3    H112372   1.134   1.694   3.857
 4136TIP3    H212373   1.047   1.814   3.891
 4137TIP3   OH212374   6.712   4.001   3.853
 4137TIP3    H112375   6.755   4.008   3.768
 4137TIP3    H212376   6.755   4.067   3.907
 4138TIP3   OH212377   3.524   2.625   0.006
 4138TIP3    H112378   3.562   2.579  -0.069
 4138TIP3    H212379   3.503   2.556   0.069
 4139TIP3   OH212380   4.648   1.615   3.399
 4139TIP3    H112381   4.669   1.522   3.413
 4139TIP3    H212382   4.678   1.633   3.310
 4140TIP3   OH212383   3.611   2.866   4.367
 4140TIP3    H112384   3.519   2.857   4.389
 4140TIP3    H212385   3.611   2.901   4.278
 4141TIP3   OH212386   0.743   2.197   3.656
 4141TIP3    H112387   0.829   2.226   3.684
 4141TIP3    H212388   0.754   2.176   3.563
 4142TIP3   OH212389   6.741   0.279   3.084
 4142TIP3    H112390   6.796   0.259   3.008
 4142TIP3    H212391   6.770   0.216   3.151
 4143TIP3   OH212392   5.594   1.918   1.723
 4143TIP3    H112393   5.642   1.835   1.718
 4143TIP3    H212394   5.631   1.962   1.799
 4144TIP3   OH212395   1.062   1.934   0.549
 4144TIP3    H112396   1.029   1.848   0.575
 4144TIP3    H212397   0.985   1.981   0.518
 4145TIP3   OH212398   7.072   3.967   0.532
 4145TIP3    H112399   7.032   3.880   0.525
 4145TIP3    H212400   7.166   3.950   0.542
 4146TIP3   OH212401   0.584   4.711   5.390
 4146TIP3    H112402   0.666   4.668   5.366
 4146TIP3    H212403   0.524   4.640   5.410
 4147TIP3   OH212404   6.623   3.034   1.576
 4147TIP3    H112405   6.534   3.045   1.544
 4147TIP3    H212406   6.671   3.110   1.543
 4148TIP3   OH212407   2.126   4.329   1.898
 4148TIP3    H112408   2.125   4.238   1.869
 4148TIP3    H212409   2.194   4.370   1.844
 4149TIP3   OH212410   6.268   4.429   1.128
 4149TIP3    H112411   6.359   4.402   1.119
 4149TIP3    H212412   6.271   4.510   1.179
 4150TIP3   OH212413   6.631   5.776   1.758
 4150TIP3    H112414   6.595   5.722   1.829
 4150TIP3    H212415   6.712   5.812   1.794
 4151TIP3   OH212416   6.569   5.642   1.519
 4151TIP3    H112417   6.563   5.686   1.434
 4151TIP3    H212418   6.577   5.713   1.582
 4152TIP3   OH212419   0.191   1.596   1.245
 4152TIP3    H112420   0.157   1.660   1.308
 4152TIP3    H212421   0.259   1.644   1.197
 4153TIP3   OH212422   2.876   3.467   2.560
 4153TIP3    H112423   2.829   3.388   2.585
 4153TIP3    H212424   2.828   3.538   2.604
 4154TIP3   OH212425   3.117   2.662   2.126
 4154TIP3    H112426   3.104   2.608   2.204
 4154TIP3    H212427   3.041   2.720   2.125
 4155TIP3   OH212428   3.367   0.831   3.682
 4155TIP3    H112429   3.403   0.860   3.766
 4155TIP3    H212430   3.356   0.736   3.692
 4156TIP3   OH212431   7.083   2.512   2.089
 4156TIP3    H112432   7.115   2.589   2.043
 4156TIP3    H212433   6.988   2.524   2.093
 4157TIP3   OH212434   0.880   2.787   2.988
 4157TIP3    H112435   0.797   2.832   3.001
 4157TIP3    H212436   0.898   2.745   3.072
 4158TIP3   OH212437   4.911   0.707   1.540
 4158TIP3    H112438   4.844   0.665   1.486
 4158TIP3    H212439   4.888   0.800   1.539
 4159TIP3   OH212440   2.899   1.426   2.593
 4159TIP3    H112441   2.828   1.362   2.591
 4159TIP3    H212442   2.857   1.508   2.619
 4160TIP3   OH212443   2.675   5.194   5.317
 4160TIP3    H112444   2.699   5.146   5.397
 4160TIP3    H212445   2.646   5.280   5.348
 4161TIP3   OH212446   5.619   5.473   1.688
 4161TIP3    H112447   5.650   5.408   1.625
 4161TIP3    H212448   5.629   5.431   1.773
 4162TIP3   OH212449   1.705   5.674   0.242
 4162TIP3    H112450   1.716   5.583   0.214
 4162TIP3    H212451   1.630   5.705   0.192
 4163TIP3   OH212452   5.992   2.767   4.917
 4163TIP3    H112453   6.041   2.776   4.835
 4163TIP3    H212454   6.059   2.763   4.985
 4164TIP3   OH212455   6.345   3.224   2.900
 4164TIP3    H112456   6.282   3.153   2.909
 4164TIP3    H212457   6.373   3.220   2.809
 4165TIP3   OH212458   6.040   0.468   5.839
 4165TIP3    H112459   5.947   0.477   5.862
 4165TIP3    H212460   6.066   0.556   5.812
 4166TIP3   OH212461   0.631   5.544   2.497
 4166TIP3    H112462   0.542   5.521   2.469
 4166TIP3    H212463   0.618   5.596   2.576
 4167TIP3   OH212464   1.767   5.987   3.628
 4167TIP3    H112465   1.734   6.011   3.715
 4167TIP3    H212466   1.694   5.940   3.587
 4168TIP3   OH212467   5.896   0.812   3.800
 4168TIP3    H112468   5.834   0.884   3.806
 4168TIP3    H212469   5.964   0.845   3.741
 4169TIP3   OH212470   2.210   2.384   3.166
 4169TIP3    H112471   2.280   2.319   3.158
 4169TIP3    H212472   2.200   2.420   3.078
 4170TIP3   OH212473   4.839   2.912   4.888
 4170TIP3    H112474   4.785   2.833   4.890
 4170TIP3    H212475   4.862   2.923   4.795
 4171TIP3   OH212476   3.868   5.574   2.972
 4171TIP3    H112477   3.958   5.569   3.003
 4171TIP3    H212478   3.833   5.486   2.987
 4172TIP3   OH212479   0.336   1.474   1.915
 4172TIP3    H112480   0.306   1.427   1.837
 4172TIP3    H212481   0.255   1.506   1.956
 4173TIP3   OH212482   2.347   2.018   2.838
 4173TIP3    H112483   2.336   1.953   2.907
 4173TIP3    H212484   2.320   1.974   2.758
 4174TIP3   OH212485   0.789   5.148   4.911
 4174TIP3    H112486   0.854   5.177   4.847
 4174TIP3    H212487   0.716   5.210   4.901
 4175TIP3   OH212488   5.947   1.805   0.325
 4175TIP3    H112489   5.968   1.747   0.397
 4175TIP3    H212490   6.021   1.796   0.265
 4176TIP3   OH212491   0.785   3.809   3.379
 4176TIP3    H112492   0.736   3.752   3.320
 4176TIP3    H212493   0.720   3.840   3.442
 4177TIP3   OH212494   5.165   4.606   5.620
 4177TIP3    H112495   5.144   4.677   5.558
 4177TIP3    H212496   5.259   4.616   5.636
 4178TIP3   OH212497   1.013   0.284   0.804
 4178TIP3    H112498   1.104   0.315   0.804
 4178TIP3    H212499   0.978   0.316   0.720
 4179TIP3   OH212500   5.922   1.112   4.446
 4179TIP3    H112501   5.952   1.031   4.487
 4179TIP3    H212502   5.992   1.137   4.386
 4180TIP3   OH212503   2.404   5.949   1.324
 4180TIP3    H112504   2.458   5.972   1.399
 4180TIP3    H212505   2.457   5.886   1.274
 4181TIP3   OH212506   1.875   5.290   4.028
 4181TIP3    H112507   1.856   5.197   4.037
 4181TIP3    H212508   1.933   5.297   3.953
 4182TIP3   OH212509   6.637   3.529   3.451
 4182TIP3    H112510   6.723   3.549   3.488
 4182TIP3    H212511   6.598   3.615   3.434
 4183TIP3   OH212512   5.900   2.087   1.263
 4183TIP3    H112513   5.925   2.049   1.179
 4183TIP3    H212514   5.970   2.150   1.283
 4184TIP3   OH212515   3.487   4.706   2.302
 4184TIP3    H112516   3.398   4.697   2.270
 4184TIP3    H212517   3.529   4.767   2.242
 4185TIP3   OH212518   6.343   5.174   1.628
 4185TIP3    H112519   6.366   5.264   1.653
 4185TIP3    H212520   6.284   5.184   1.554
 4186TIP3   OH212521   1.207   0.134   4.989
 4186TIP3    H112522   1.218   0.041   5.009
 4186TIP3    H212523   1.239   0.143   4.899
 4187TIP3   OH212524   3.918   2.706   0.432
 4187TIP3    H112525   3.918   2.785   0.377
 4187TIP3    H212526   4.009   2.692   0.454
 4188TIP3   OH212527   6.643   6.363   3.623
 4188TIP3    H112528   6.682   6.326   3.544
 4188TIP3    H212529   6.706   6.343   3.692
 4189TIP3   OH212530   6.304   3.864   0.313
 4189TIP3    H112531   6.231   3.808   0.340
 4189TIP3    H212532   6.336   3.903   0.394
 4190TIP3   OH212533   4.579   0.281   0.593
 4190TIP3    H112534   4.594   0.195   0.553
 4190TIP3    H212535   4.598   0.343   0.522
 4191TIP3   OH212536   3.048   3.841   0.625
 4191TIP3    H112537   3.003   3.921   0.651
 4191TIP3    H212538   3.137   3.869   0.604
 4192TIP3   OH212539   1.158   4.901   0.629
 4192TIP3    H112540   1.206   4.881   0.548
 4192TIP3    H212541   1.164   4.821   0.681
 4193TIP3   OH212542   3.093   2.327   3.749
 4193TIP3    H112543   3.184   2.358   3.743
 4193TIP3    H212544   3.097   2.253   3.809
 4194TIP3   OH212545   3.871   2.535   4.198
 4194TIP3    H112546   3.943   2.484   4.160
 4194TIP3    H212547   3.793   2.504   4.152
 4195TIP3   OH212548   1.809   2.878   3.605
 4195TIP3    H112549   1.854   2.936   3.666
 4195TIP3    H212550   1.736   2.931   3.573
 4196TIP3   OH212551   3.386   0.224   1.274
 4196TIP3    H112552   3.322   0.268   1.329
 4196TIP3    H212553   3.363   0.131   1.279
 4197TIP3   OH212554   0.811   4.199   3.035
 4197TIP3    H112555   0.780   4.284   3.004
 4197TIP3    H212556   0.814   4.208   3.130
 4198TIP3   OH212557   2.524   0.933   5.719
 4198TIP3    H112558   2.475   0.944   5.638
 4198TIP3    H212559   2.616   0.946   5.693
 4199TIP3   OH212560   6.353   1.133   2.336
 4199TIP3    H112561   6.258   1.147   2.336
 4199TIP3    H212562   6.381   1.160   2.248
 4200TIP3   OH212563   6.137   1.011   0.457
 4200TIP3    H112564   6.128   1.014   0.362
 4200TIP3    H212565   6.141   0.918   0.478
 4201TIP3   OH212566   4.708   5.633   2.836
 4201TIP3    H112567   4.750   5.547   2.831
 4201TIP3    H212568   4.745   5.674   2.914
 4202TIP3   OH212569   6.105   4.357   4.342
 4202TIP3    H112570   6.047   4.406   4.400
 4202TIP3    H212571   6.184   4.412   4.336
 4203TIP3   OH212572   4.445   4.214   2.418
 4203TIP3    H112573   4.511   4.159   2.461
 4203TIP3    H212574   4.432   4.288   2.477
 4204TIP3   OH212575   3.231   4.677  -0.006
 4204TIP3    H112576   3.135   4.679  -0.007
 4204TIP3    H212577   3.254   4.644   0.081
 4205TIP3   OH212578   4.423   2.576   0.744
 4205TIP3    H112579   4.519   2.570   0.743
 4205TIP3    H212580   4.405   2.669   0.760
 4206TIP3   OH212581   0.867   6.508   3.384
 4206TIP3    H112582   0.958   6.527   3.361
 4206TIP3    H212583   0.818   6.535   3.306
 4207TIP3   OH212584   0.069   5.188   4.955
 4207TIP3    H112585   0.149   5.233   4.928
 4207TIP3    H212586   0.086   5.162   5.046
 4208TIP3   OH212587   5.638   3.754   1.102
 4208TIP3    H112588   5.542   3.747   1.107
 4208TIP3    H212589   5.664   3.679   1.049
 4209TIP3   OH212590   1.857   1.126   1.109
 4209TIP3    H112591   1.930   1.074   1.077
 4209TIP3    H212592   1.796   1.130   1.035
 4210TIP3   OH212593   1.263   1.856   4.926
 4210TIP3    H112594   1.239   1.781   4.871
 4210TIP3    H212595   1.336   1.897   4.879
 4211TIP3   OH212596   6.364   6.764   3.205
 4211TIP3    H112597   6.350   6.672   3.225
 4211TIP3    H212598   6.459   6.775   3.206
 4212TIP3   OH212599   6.936   4.948   2.605
 4212TIP3    H112600   6.975   4.865   2.578
 4212TIP3    H212601   6.978   4.968   2.689
 4213TIP3   OH212602   3.337   3.947   2.474
 4213TIP3    H112603   3.410   3.998   2.438
 4213TIP3    H212604   3.312   3.995   2.553
 4214TIP3   OH212605   6.271   2.748   3.179
 4214TIP3    H112606   6.191   2.734   3.129
 4214TIP3    H212607   6.323   2.808   3.125
 4215TIP3   OH212608   6.416   0.170   5.558
 4215TIP3    H112609   6.458   0.085   5.542
 4215TIP3    H212610   6.437   0.191   5.649
 4216TIP3   OH212611   6.447   6.673   2.932
 4216TIP3    H112612   6.394   6.751   2.941
 4216TIP3    H212613   6.501   6.689   2.855
 4217TIP3   OH212614   1.077   0.153   0.402
 4217TIP3    H112615   1.075   0.058   0.406
 4217TIP3    H212616   1.099   0.173   0.311
 4218TIP3   OH212617   3.961   1.047  -0.021
 4218TIP3    H112618   3.883   1.087   0.017
 4218TIP3    H212619   3.976   0.968   0.031
 4219TIP3   OH212620   6.229   5.845   3.234
 4219TIP3    H112621   6.212   5.881   3.321
 4219TIP3    H212622   6.220   5.921   3.175
 4220TIP3   OH212623   6.932   6.402   5.510
 4220TIP3    H112624   7.014   6.355   5.526
 4220TIP3    H212625   6.953   6.464   5.440
 4221TIP3   OH212626   5.156   6.318   4.423
 4221TIP3    H112627   5.245   6.329   4.457
 4221TIP3    H212628   5.108   6.275   4.494
 4222TIP3   OH212629   5.399   4.486   3.636
 4222TIP3    H112630   5.449   4.409   3.661
 4222TIP3    H212631   5.334   4.497   3.706
 4223TIP3   OH212632   6.766   6.684   4.390
 4223TIP3    H112633   6.849   6.643   4.416
 4223TIP3    H212634   6.791   6.774   4.368
 4224TIP3   OH212635   0.335   0.858   3.124
 4224TIP3    H112636   0.291   0.835   3.205
 4224TIP3    H212637   0.272   0.836   3.055
 4225TIP3   OH212638   1.601   2.256   5.853
 4225TIP3    H112639   1.680   2.244   5.904
 4225TIP3    H212640   1.627   2.313   5.781
 4226TIP3   OH212641   0.901   3.280   5.854
 4226TIP3    H112642   0.869   3.362   5.818
 4226TIP3    H212643   0.941   3.235   5.780
 4227TIP3   OH212644   4.700   4.846   5.870
 4227TIP3    H112645   4.778   4.884   5.829
 4227TIP3    H212646   4.722   4.840   5.963
 4228TIP3   OH212647   6.351   4.643   3.287
 4228TIP3    H112648   6.283   4.579   3.267
 4228TIP3    H212649   6.306   4.715   3.330
 4229TIP3   OH212650   3.708   0.796   4.038
 4229TIP3    H112651   3.783   0.797   3.979
 4229TIP3    H212652   3.634   0.772   3.982
 4230TIP3   OH212653   2.025   0.456   3.948
 4230TIP3    H112654   2.078   0.462   4.027
 4230TIP3    H212655   2.077   0.403   3.888
 4231TIP3   OH212656   3.562   2.891   2.220
 4231TIP3    H112657   3.576   2.978   2.258
 4231TIP3    H212658   3.523   2.908   2.135
 4232TIP3   OH212659   5.937   3.718   5.694
 4232TIP3    H112660   5.964   3.649   5.755
 4232TIP3    H212661   6.017   3.744   5.649
 4233TIP3   OH212662   1.781   4.156   3.641
 4233TIP3    H112663   1.800   4.218   3.711
 4233TIP3    H212664   1.866   4.119   3.617
 4234TIP3   OH212665   6.176   6.335   0.914
 4234TIP3    H112666   6.215   6.270   0.856
 4234TIP3    H212667   6.198   6.419   0.873
 4235TIP3   OH212668   0.602   1.088   5.363
 4235TIP3    H112669   0.650   1.037   5.298
 4235TIP3    H212670   0.581   1.024   5.431
 4236TIP3   OH212671   5.456   0.613   5.207
 4236TIP3    H112672   5.516   0.678   5.244
 4236TIP3    H212673   5.479   0.610   5.114
 4237TIP3   OH212674   1.518   0.261   0.689
 4237TIP3    H112675   1.573   0.210   0.630
 4237TIP3    H212676   1.451   0.299   0.632
 4238TIP3   OH212677   3.121   5.463   4.573
 4238TIP3    H112678   3.081   5.375   4.573
 4238TIP3    H212679   3.209   5.449   4.607
 4239TIP3   OH212680   2.120   0.370   5.682
 4239TIP3    H112681   2.028   0.394   5.693
 4239TIP3    H212682   2.161   0.448   5.643
 4240TIP3   OH212683   0.315   4.524   3.678
 4240TIP3    H112684   0.291   4.446   3.627
 4240TIP3    H212685   0.274   4.597   3.631
 4241TIP3   OH212686   6.308   5.948   3.822
 4241TIP3    H112687   6.214   5.944   3.839
 4241TIP3    H212688   6.334   6.035   3.850
 4242TIP3   OH212689   3.070   5.028   2.075
 4242TIP3    H112690   3.132   4.993   2.011
 4242TIP3    H212691   3.056   5.118   2.047
 4243TIP3   OH212692   0.695   6.596   5.822
 4243TIP3    H112693   0.738   6.510   5.817
 4243TIP3    H212694   0.766   6.657   5.841
 4244TIP3   OH212695   1.092   3.504   1.204
 4244TIP3    H112696   1.175   3.546   1.182
 4244TIP3    H212697   1.031   3.534   1.137
 4245TIP3   OH212698   6.171   3.149   0.937
 4245TIP3    H112699   6.227   3.084   0.979
 4245TIP3    H212700   6.186   3.136   0.843
 4246TIP3   OH212701   5.868   1.016   3.621
 4246TIP3    H112702   5.858   1.051   3.533
 4246TIP3    H212703   5.956   0.979   3.622
 4247TIP3   OH212704   0.721   2.410   4.680
 4247TIP3    H112705   0.709   2.469   4.605
 4247TIP3    H212706   0.661   2.445   4.747
 4248TIP3   OH212707   6.122   0.760   2.829
 4248TIP3    H112708   6.070   0.840   2.842
 4248TIP3    H212709   6.150   0.735   2.916
 4249TIP3   OH212710   1.323   6.747   5.626
 4249TIP3    H112711   1.247   6.805   5.619
 4249TIP3    H212712   1.287   6.665   5.661
 4250TIP3   OH212713   4.476   4.166   1.909
 4250TIP3    H112714   4.440   4.167   1.998
 4250TIP3    H212715   4.409   4.123   1.856
 4251TIP3   OH212716   2.723   1.891   4.713
 4251TIP3    H112717   2.647   1.841   4.745
 4251TIP3    H212718   2.782   1.896   4.789
 4252TIP3   OH212719   0.597   0.602   1.446
 4252TIP3    H112720   0.573   0.515   1.416
 4252TIP3    H212721   0.682   0.619   1.407
 4253TIP3   OH212722   6.576   1.510   3.551
 4253TIP3    H112723   6.560   1.416   3.537
 4253TIP3    H212724   6.632   1.535   3.477
 4254TIP3   OH212725   6.821   5.495   5.722
 4254TIP3    H112726   6.747   5.435   5.716
 4254TIP3    H212727   6.896   5.444   5.690
 4255TIP3   OH212728   4.239   6.272   5.173
 4255TIP3    H112729   4.222   6.188   5.130
 4255TIP3    H212730   4.289   6.322   5.109
 4256TIP3   OH212731   2.033   5.396   0.414
 4256TIP3    H112732   2.055   5.436   0.330
 4256TIP3    H212733   2.032   5.302   0.396
 4257TIP3   OH212734   5.012   3.878   5.473
 4257TIP3    H112735   5.044   3.799   5.515
 4257TIP3    H212736   4.939   3.849   5.418
 4258TIP3   OH212737   2.652   5.073   4.049
 4258TIP3    H112738   2.667   5.112   4.135
 4258TIP3    H212739   2.615   5.143   3.996
 4259TIP3   OH212740   4.645   5.198   5.876
 4259TIP3    H112741   4.735   5.166   5.864
 4259TIP3    H212742   4.609   5.200   5.787
 4260TIP3   OH212743   0.937   3.581   1.466
 4260TIP3    H112744   0.934   3.676   1.466
 4260TIP3    H212745   1.014   3.560   1.412
 4261TIP3   OH212746   4.581   3.412   4.636
 4261TIP3    H112747   4.588   3.493   4.585
 4261TIP3    H212748   4.671   3.381   4.645
 4262TIP3   OH212749   0.919   2.998   5.882
 4262TIP3    H112750   0.917   3.087   5.915
 4262TIP3    H212751   0.827   2.978   5.862
 4263TIP3   OH212752   5.989   5.621   3.277
 4263TIP3    H112753   5.906   5.650   3.239
 4263TIP3    H212754   6.049   5.616   3.203
 4264TIP3   OH212755   5.368   2.780   4.860
 4264TIP3    H112756   5.306   2.768   4.787
 4264TIP3    H212757   5.366   2.874   4.878
 4265TIP3   OH212758   7.123   5.802   2.543
 4265TIP3    H112759   7.075   5.787   2.462
 4265TIP3    H212760   7.070   5.867   2.590
 4266TIP3   OH212761   4.500   2.141   4.415
 4266TIP3    H112762   4.566   2.142   4.346
 4266TIP3    H212763   4.492   2.049   4.440
 4267TIP3   OH212764   6.212   4.909   4.543
 4267TIP3    H112765   6.236   4.999   4.564
 4267TIP3    H212766   6.224   4.861   4.625
 4268TIP3   OH212767   3.145   1.253   0.840
 4268TIP3    H112768   3.143   1.346   0.817
 4268TIP3    H212769   3.237   1.235   0.859
 4269TIP3   OH212770   6.697   2.083   2.940
 4269TIP3    H112771   6.665   2.138   3.012
 4269TIP3    H212772   6.655   2.119   2.862
 4270TIP3   OH212773   5.573   2.621   0.806
 4270TIP3    H112774   5.551   2.543   0.857
 4270TIP3    H212775   5.666   2.609   0.784
 4271TIP3   OH212776   0.842   6.020   5.118
 4271TIP3    H112777   0.750   6.038   5.134
 4271TIP3    H212778   0.876   5.992   5.203
 4272TIP3   OH212779   2.424   6.497   0.289
 4272TIP3    H112780   2.484   6.424   0.276
 4272TIP3    H212781   2.439   6.524   0.379
 4273TIP3   OH212782   5.992   2.062   3.355
 4273TIP3    H112783   5.938   2.105   3.421
 4273TIP3    H212784   5.934   2.054   3.279
 4274TIP3   OH212785   1.588   2.664   5.326
 4274TIP3    H112786   1.574   2.732   5.260
 4274TIP3    H212787   1.522   2.597   5.306
 4275TIP3   OH212788   2.185   3.570   2.032
 4275TIP3    H112789   2.246   3.633   2.070
 4275TIP3    H212790   2.177   3.501   2.098
 4276TIP3   OH212791   7.053   4.108   3.467
 4276TIP3    H112792   7.081   4.182   3.414
 4276TIP3    H212793   7.121   4.043   3.455
 4277TIP3   OH212794   0.807   5.558   1.042
 4277TIP3    H112795   0.732   5.535   0.986
 4277TIP3    H212796   0.767   5.598   1.119
 4278TIP3   OH212797   1.725   4.599   0.950
 4278TIP3    H112798   1.762   4.666   0.892
 4278TIP3    H212799   1.671   4.649   1.012
 4279TIP3   OH212800   2.324   4.906   4.743
 4279TIP3    H112801   2.257   4.843   4.771
 4279TIP3    H212802   2.353   4.947   4.824
 4280TIP3   OH212803   1.749   5.235   3.099
 4280TIP3    H112804   1.834   5.254   3.137
 4280TIP3    H212805   1.755   5.144   3.069
 4281TIP3   OH212806   1.882   2.081   5.295
 4281TIP3    H112807   1.934   2.026   5.353
 4281TIP3    H212808   1.849   2.022   5.227
 4282TIP3   OH212809   6.181   3.355   4.789
 4282TIP3    H112810   6.224   3.432   4.825
 4282TIP3    H212811   6.177   3.371   4.695
 4283TIP3   OH212812   1.580   1.032   4.332
 4283TIP3    H112813   1.580   1.038   4.236
 4283TIP3    H212814   1.504   1.084   4.359
 4284TIP3   OH212815   1.096   5.023   1.456
 4284TIP3    H112816   1.047   4.956   1.408
 4284TIP3    H212817   1.177   5.032   1.407
 4285TIP3   OH212818   3.601   1.138   5.642
 4285TIP3    H112819   3.656   1.210   5.610
 4285TIP3    H212820   3.517   1.180   5.661
 4286TIP3   OH212821   5.811   5.685   1.367
 4286TIP3    H112822   5.885   5.744   1.360
 4286TIP3    H212823   5.782   5.693   1.458
 4287TIP3   OH212824   3.993   4.444   2.353
 4287TIP3    H112825   3.920   4.395   2.315
 4287TIP3    H212826   4.067   4.383   2.349
 4288TIP3   OH212827   6.199   0.504   4.497
 4288TIP3    H112828   6.174   0.591   4.465
 4288TIP3    H212829   6.116   0.461   4.519
 4289TIP3   OH212830   4.030   3.410   0.432
 4289TIP3    H112831   3.996   3.458   0.356
 4289TIP3    H212832   4.000   3.461   0.508
 4290TIP3   OH212833   1.032   5.096   2.759
 4290TIP3    H112834   1.119   5.082   2.797
 4290TIP3    H212835   0.993   5.009   2.753
 4291TIP3   OH212836   4.650   0.196   1.596
 4291TIP3    H112837   4.629   0.289   1.591
 4291TIP3    H212838   4.627   0.171   1.685
 4292TIP3   OH212839   4.312   2.658   5.753
 4292TIP3    H112840   4.217   2.668   5.760
 4292TIP3    H212841   4.335   2.706   5.673
 4293TIP3   OH212842   5.698   5.961   5.119
 4293TIP3    H112843   5.700   5.867   5.103
 4293TIP3    H212844   5.699   6.001   5.032
 4294TIP3   OH212845   4.522   1.208   1.064
 4294TIP3    H112846   4.566   1.138   1.015
 4294TIP3    H212847   4.478   1.164   1.136
 4295TIP3   OH212848   2.228   0.789   4.732
 4295TIP3    H112849   2.217   0.767   4.639
 4295TIP3    H212850   2.246   0.883   4.732
 4296TIP3   OH212851   3.567   5.141   4.158
 4296TIP3    H112852   3.580   5.226   4.199
 4296TIP3    H212853   3.643   5.089   4.185
 4297TIP3   OH212854   6.451   6.080   0.158
 4297TIP3    H112855   6.472   5.990   0.181
 4297TIP3    H212856   6.385   6.073   0.089
 4298TIP3   OH212857   4.495   4.510   0.078
 4298TIP3    H112858   4.526   4.479   0.163
 4298TIP3    H212859   4.406   4.540   0.094
 4299TIP3   OH212860   6.668   6.106   2.780
 4299TIP3    H112861   6.715   6.069   2.855
 4299TIP3    H212862   6.590   6.146   2.818
 4300TIP3   OH212863   3.845   2.724   0.018
 4300TIP3    H112864   3.821   2.815   0.002
 4300TIP3    H212865   3.770   2.687   0.063
 4301TIP3   OH212866   6.154   2.377   1.948
 4301TIP3    H112867   6.082   2.426   1.907
 4301TIP3    H212868   6.208   2.348   1.874
 4302TIP3   OH212869   3.922   0.701   4.802
 4302TIP3    H112870   3.834   0.673   4.779
 4302TIP3    H212871   3.958   0.735   4.720
 4303TIP3   OH212872   1.113   0.190   0.112
 4303TIP3    H112873   1.033   0.241   0.097
 4303TIP3    H212874   1.084   0.099   0.112
 4304TIP3   OH212875   3.206   0.888   2.477
 4304TIP3    H112876   3.224   0.822   2.545
 4304TIP3    H212877   3.171   0.962   2.526
 4305TIP3   OH212878   0.673   5.759   1.204
 4305TIP3    H112879   0.659   5.765   1.299
 4305TIP3    H212880   0.680   5.851   1.176
 4306TIP3   OH212881   4.334   1.110   1.738
 4306TIP3    H112882   4.367   1.192   1.701
 4306TIP3    H212883   4.310   1.132   1.828
 4307TIP3   OH212884   0.701   4.141   5.635
 4307TIP3    H112885   0.631   4.158   5.698
 4307TIP3    H212886   0.730   4.227   5.607
 4308TIP3   OH212887   5.208   0.004   2.982
 4308TIP3    H112888   5.163   0.083   2.951
 4308TIP3    H212889   5.249   0.031   3.064
 4309TIP3   OH212890   3.660   4.189   4.136
 4309TIP3    H112891   3.724   4.247   4.095
 4309TIP3    H212892   3.599   4.248   4.181
 4310TIP3   OH212893   1.606   3.930   3.520
 4310TIP3    H112894   1.672   3.866   3.546
 4310TIP3    H212895   1.652   4.014   3.521
 4311TIP3   OH212896   1.242   1.802   3.062
 4311TIP3    H112897   1.199   1.744   3.125
 4311TIP3    H212898   1.179   1.872   3.046
 4312TIP3   OH212899   5.472   4.074   0.103
 4312TIP3    H112900   5.510   4.136   0.041
 4312TIP3    H212901   5.485   4.114   0.189
 4313TIP3   OH212902   0.843   2.239   4.294
 4313TIP3    H112903   0.883   2.162   4.334
 4313TIP3    H212904   0.749   2.228   4.310
 4314TIP3   OH212905   2.698   3.810   5.710
 4314TIP3    H112906   2.639   3.886   5.712
 4314TIP3    H212907   2.688   3.770   5.797
 4315TIP3   OH212908   1.881   1.390   2.172
 4315TIP3    H112909   1.923   1.435   2.099
 4315TIP3    H212910   1.951   1.380   2.237
 4316TIP3   OH212911   1.927   5.921   3.897
 4316TIP3    H112912   1.932   5.831   3.865
 4316TIP3    H212913   1.886   5.970   3.825
 4317TIP3   OH212914   6.611   4.188   1.784
 4317TIP3    H112915   6.579   4.278   1.779
 4317TIP3    H212916   6.582   4.148   1.702
 4318TIP3   OH212917   1.352   1.436   4.956
 4318TIP3    H112918   1.420   1.494   4.988
 4318TIP3    H212919   1.374   1.420   4.864
 4319TIP3   OH212920   1.446   6.002   5.284
 4319TIP3    H112921   1.378   6.057   5.322
 4319TIP3    H212922   1.443   6.021   5.191
 4320TIP3   OH212923   4.859   6.783   1.225
 4320TIP3    H112924   4.881   6.828   1.144
 4320TIP3    H212925   4.917   6.707   1.227
 4321TIP3   OH212926   2.463   2.056   2.546
 4321TIP3    H112927   2.444   2.132   2.602
 4321TIP3    H212928   2.395   1.992   2.570
 4322TIP3   OH212929   3.229   4.391   1.770
 4322TIP3    H112930   3.172   4.418   1.842
 4322TIP3    H212931   3.254   4.473   1.728
 4323TIP3   OH212932   1.456   0.377   4.218
 4323TIP3    H112933   1.525   0.441   4.232
 4323TIP3    H212934   1.375   0.423   4.244
 4324TIP3   OH212935   5.063   5.911   2.027
 4324TIP3    H112936   5.123   5.839   2.047
 4324TIP3    H212937   4.978   5.869   2.012
 4325TIP3   OH212938   5.497   5.354   2.159
 4325TIP3    H112939   5.580   5.320   2.193
 4325TIP3    H212940   5.438   5.279   2.160
 4326TIP3   OH212941   0.610   1.127   3.803
 4326TIP3    H112942   0.637   1.065   3.735
 4326TIP3    H212943   0.691   1.170   3.830
 4327TIP3   OH212944   2.200   5.736   4.119
 4327TIP3    H112945   2.179   5.662   4.176
 4327TIP3    H212946   2.128   5.738   4.055
 4328TIP3   OH212947   6.249   5.430   2.724
 4328TIP3    H112948   6.269   5.429   2.630
 4328TIP3    H212949   6.155   5.412   2.729
 4329TIP3   OH212950   0.952   0.882   4.040
 4329TIP3    H112951   0.896   0.839   3.975
 4329TIP3    H212952   0.911   0.863   4.124
 4330TIP3   OH212953   1.143   4.191   1.514
 4330TIP3    H112954   1.111   4.278   1.538
 4330TIP3    H212955   1.235   4.191   1.538
 4331TIP3   OH212956   2.852   0.565   4.886
 4331TIP3    H112957   2.835   0.646   4.836
 4331TIP3    H212958   2.947   0.560   4.891
 4332TIP3   OH212959   4.419   2.576   2.569
 4332TIP3    H112960   4.446   2.667   2.578
 4332TIP3    H212961   4.364   2.560   2.646
 4333TIP3   OH212962   3.331   2.418   4.662
 4333TIP3    H112963   3.420   2.397   4.633
 4333TIP3    H212964   3.286   2.448   4.583
 4334TIP3   OH212965   2.239   4.116   4.283
 4334TIP3    H112966   2.304   4.059   4.324
 4334TIP3    H212967   2.226   4.078   4.196
 4335TIP3   OH212968   0.691   3.796   3.744
 4335TIP3    H112969   0.767   3.846   3.713
 4335TIP3    H212970   0.728   3.735   3.808
 4336TIP3   OH212971   2.012   0.392   0.954
 4336TIP3    H112972   2.038   0.474   0.913
 4336TIP3    H212973   1.958   0.348   0.889
 4337TIP3   OH212974   3.856   2.078   5.294
 4337TIP3    H112975   3.789   2.065   5.362
 4337TIP3    H212976   3.818   2.145   5.237
 4338TIP3   OH212977   0.611   6.600   0.519
 4338TIP3    H112978   0.654   6.686   0.521
 4338TIP3    H212979   0.519   6.620   0.503
 4339TIP3   OH212980   5.561   4.165   2.196
 4339TIP3    H112981   5.585   4.074   2.212
 4339TIP3    H212982   5.469   4.162   2.170
 4340TIP3   OH212983   1.649   4.334   5.368
 4340TIP3    H112984   1.650   4.341   5.273
 4340TIP3    H212985   1.691   4.415   5.398
 4341TIP3   OH212986   4.488   0.942   2.209
 4341TIP3    H112987   4.581   0.942   2.231
 4341TIP3    H212988   4.479   1.008   2.140
 4342TIP3   OH212989   6.153   6.748   4.052
 4342TIP3    H112990   6.210   6.823   4.034
 4342TIP3    H212991   6.210   6.683   4.092
 4343TIP3   OH212992   7.105   0.406   0.202
 4343TIP3    H112993   7.082   0.388   0.111
 4343TIP3    H212994   7.059   0.487   0.223
 4344TIP3   OH212995   5.061   1.022   5.652
 4344TIP3    H112996   5.059   1.117   5.666
 4344TIP3    H212997   5.023   0.985   5.731
 4345TIP3   OH212998   6.882   5.389   1.443
 4345TIP3    H112999   6.886   5.459   1.508
 4345TIP3    H213000   6.962   5.338   1.458
 4346TIP3   OH213001   1.472   1.131   4.890
 4346TIP3    H113002   1.543   1.159   4.833
 4346TIP3    H213003   1.393   1.161   4.846
 4347TIP3   OH213004   5.251   1.601   3.932
 4347TIP3    H113005   5.308   1.634   3.862
 4347TIP3    H213006   5.288   1.515   3.954
 4348TIP3   OH213007   6.127   5.756   1.905
 4348TIP3    H113008   6.145   5.732   1.814
 4348TIP3    H213009   6.153   5.848   1.911
 4349TIP3   OH213010   5.783   0.472   2.829
 4349TIP3    H113011   5.794   0.378   2.839
 4349TIP3    H213012   5.823   0.492   2.744
 4350TIP3   OH213013   1.441   6.331   3.791
 4350TIP3    H113014   1.433   6.262   3.858
 4350TIP3    H213015   1.425   6.286   3.708
 4351TIP3   OH213016   3.701   2.370   2.751
 4351TIP3    H113017   3.722   2.283   2.716
 4351TIP3    H213018   3.626   2.355   2.809
 4352TIP3   OH213019   0.231   0.010   0.939
 4352TIP3    H113020   0.251   0.098   0.970
 4352TIP3    H213021   0.299  -0.008   0.873
 4353TIP3   OH213022   4.263   0.803   4.763
 4353TIP3    H113023   4.347   0.849   4.760
 4353TIP3    H213024   4.199   0.866   4.732
 4354TIP3   OH213025   4.755   0.386   2.403
 4354TIP3    H113026   4.839   0.385   2.357
 4354TIP3    H213027   4.759   0.310   2.461
 4355TIP3   OH213028   0.285   4.607   0.737
 4355TIP3    H113029   0.327   4.566   0.812
 4355TIP3    H213030   0.229   4.674   0.775
 4356TIP3   OH213031   5.470   3.288   2.287
 4356TIP3    H113032   5.482   3.223   2.218
 4356TIP3    H213033   5.409   3.246   2.348
 4357TIP3   OH213034   5.084   1.784   4.087
 4357TIP3    H113035   5.152   1.732   4.044
 4357TIP3    H213036   5.027   1.719   4.128
 4358TIP3   OH213037   3.653   4.928   1.425
 4358TIP3    H113038   3.743   4.910   1.455
 4358TIP3    H213039   3.600   4.920   1.504
 4359TIP3   OH213040   0.980   4.179   5.448
 4359TIP3    H113041   1.034   4.100   5.450
 4359TIP3    H213042   0.984   4.213   5.538
 4360TIP3   OH213043   1.491   3.878   0.797
 4360TIP3    H113044   1.531   3.962   0.776
 4360TIP3    H213045   1.473   3.838   0.712
 4361TIP3   OH213046   7.054   4.100   5.350
 4361TIP3    H113047   7.128   4.144   5.391
 4361TIP3    H213048   7.081   4.009   5.342
 4362TIP3   OH213049   3.132   1.681   0.765
 4362TIP3    H113050   3.117   1.774   0.782
 4362TIP3    H213051   3.212   1.660   0.813
 4363TIP3   OH213052   1.871   2.083   1.395
 4363TIP3    H113053   1.961   2.107   1.419
 4363TIP3    H213054   1.844   2.022   1.464
 4364TIP3   OH213055   5.309   3.939   5.455
 4364TIP3    H113056   5.251   3.867   5.481
 4364TIP3    H213057   5.279   3.963   5.367
 4365TIP3   OH213058   6.592   5.680   4.289
 4365TIP3    H113059   6.615   5.728   4.368
 4365TIP3    H213060   6.674   5.641   4.260
 4366TIP3   OH213061   0.715   1.676   5.265
 4366TIP3    H113062   0.753   1.650   5.181
 4366TIP3    H213063   0.735   1.603   5.324
 4367TIP3   OH213064   1.968   4.385   2.344
 4367TIP3    H113065   2.047   4.412   2.297
 4367TIP3    H213066   1.961   4.447   2.416
 4368TIP3   OH213067   4.419   0.493   0.942
 4368TIP3    H113068   4.423   0.538   0.858
 4368TIP3    H213069   4.441   0.402   0.922
 4369TIP3   OH213070   1.811   5.310   1.167
 4369TIP3    H113071   1.887   5.317   1.110
 4369TIP3    H213072   1.822   5.225   1.211
 4370TIP3   OH213073   5.217   5.490   5.233
 4370TIP3    H113074   5.166   5.514   5.310
 4370TIP3    H213075   5.219   5.394   5.234
 4371TIP3   OH213076   6.165   4.149   5.473
 4371TIP3    H113077   6.223   4.221   5.451
 4371TIP3    H213078   6.212   4.070   5.447
 4372TIP3   OH213079   5.134   6.816   3.102
 4372TIP3    H113080   5.168   6.786   3.018
 4372TIP3    H213081   5.146   6.742   3.161
 4373TIP3   OH213082   6.656   6.793   5.425
 4373TIP3    H113083   6.727   6.814   5.486
 4373TIP3    H213084   6.670   6.701   5.403
 4374TIP3   OH213085   4.742   1.698   3.136
 4374TIP3    H113086   4.665   1.696   3.078
 4374TIP3    H213087   4.788   1.778   3.111
 4375TIP3   OH213088   0.887   3.727   2.593
 4375TIP3    H113089   0.946   3.802   2.603
 4375TIP3    H213090   0.900   3.676   2.672
 4376TIP3   OH213091   4.519   1.574   2.968
 4376TIP3    H113092   4.458   1.524   3.022
 4376TIP3    H213093   4.562   1.509   2.913
 4377TIP3   OH213094   2.850   3.005   5.651
 4377TIP3    H113095   2.788   3.027   5.720
 4377TIP3    H213096   2.900   3.086   5.638
 4378TIP3   OH213097   4.921   3.756   3.254
 4378TIP3    H113098   4.978   3.702   3.309
 4378TIP3    H213099   4.832   3.731   3.279
 4379TIP3   OH213100   4.244   2.410   5.020
 4379TIP3    H113101   4.148   2.410   5.016
 4379TIP3    H213102   4.267   2.317   5.023
 4380TIP3   OH213103   6.467   3.410   3.071
 4380TIP3    H113104   6.542   3.383   3.125
 4380TIP3    H213105   6.466   3.346   2.999
 4381TIP3   OH213106   3.450   2.578   3.410
 4381TIP3    H113107   3.388   2.630   3.358
 4381TIP3    H213108   3.463   2.499   3.358
 4382TIP3   OH213109   5.758   5.470   4.802
 4382TIP3    H113110   5.673   5.441   4.769
 4382TIP3    H213111   5.799   5.515   4.729
 4383TIP3   OH213112   3.138   4.225   0.465
 4383TIP3    H113113   3.172   4.242   0.378
 4383TIP3    H213114   3.176   4.293   0.520
 4384TIP3   OH213115   3.546   1.526   0.695
 4384TIP3    H113116   3.472   1.482   0.653
 4384TIP3    H213117   3.563   1.601   0.638
 4385TIP3   OH213118   1.407   4.220   4.431
 4385TIP3    H113119   1.364   4.207   4.516
 4385TIP3    H213120   1.490   4.262   4.453
 4386TIP3   OH213121   6.438   1.110   5.270
 4386TIP3    H113122   6.532   1.114   5.284
 4386TIP3    H213123   6.400   1.131   5.356
 4387TIP3   OH213124   1.383   4.910   2.558
 4387TIP3    H113125   1.362   4.823   2.593
 4387TIP3    H213126   1.383   4.898   2.463
 4388TIP3   OH213127   0.295   5.275   3.615
 4388TIP3    H113128   0.205   5.279   3.649
 4388TIP3    H213129   0.347   5.321   3.680
 4389TIP3   OH213130   5.564   1.892   0.949
 4389TIP3    H113131   5.560   1.850   1.035
 4389TIP3    H213132   5.621   1.834   0.897
 4390TIP3   OH213133   4.013   2.381   0.583
 4390TIP3    H113134   4.037   2.289   0.585
 4390TIP3    H213135   4.093   2.427   0.559
 4391TIP3   OH213136   3.791   5.895   5.001
 4391TIP3    H113137   3.752   5.819   5.046
 4391TIP3    H213138   3.786   5.966   5.065
 4392TIP3   OH213139   3.342   3.021   4.705
 4392TIP3    H113140   3.389   3.088   4.655
 4392TIP3    H213141   3.303   3.069   4.778
 4393TIP3   OH213142   4.312   3.310   1.194
 4393TIP3    H113143   4.323   3.238   1.131
 4393TIP3    H213144   4.238   3.360   1.160
 4394TIP3   OH213145   6.156   4.942   3.803
 4394TIP3    H113146   6.137   5.024   3.757
 4394TIP3    H213147   6.072   4.917   3.841
 4395TIP3   OH213148   0.961   4.450   5.823
 4395TIP3    H113149   0.904   4.522   5.848
 4395TIP3    H213150   1.016   4.485   5.753
 4396TIP3   OH213151   1.747   4.846   1.438
 4396TIP3    H113152   1.674   4.810   1.488
 4396TIP3    H213153   1.825   4.821   1.488
 4397TIP3   OH213154   5.672   0.550   5.550
 4397TIP3    H113155   5.744   0.612   5.536
 4397TIP3    H213156   5.711   0.478   5.600
 4398TIP3   OH213157   0.922   6.071   5.415
 4398TIP3    H113158   0.879   5.995   5.453
 4398TIP3    H213159   0.851   6.131   5.394
 4399TIP3   OH213160   0.734   3.727   4.347
 4399TIP3    H113161   0.712   3.737   4.254
 4399TIP3    H213162   0.819   3.683   4.347
 4400TIP3   OH213163   2.814   2.448   4.965
 4400TIP3    H113164   2.761   2.522   4.996
 4400TIP3    H213165   2.885   2.489   4.916
 4401TIP3   OH213166   4.699   4.092   2.500
 4401TIP3    H113167   4.750   4.012   2.486
 4401TIP3    H213168   4.751   4.160   2.458
 4402TIP3   OH213169   4.023   0.118   2.801
 4402TIP3    H113170   3.997   0.121   2.893
 4402TIP3    H213171   4.086   0.045   2.796
 4403TIP3   OH213172   1.661   5.214   5.234
 4403TIP3    H113173   1.690   5.212   5.325
 4403TIP3    H213174   1.588   5.276   5.233
 4404TIP3   OH213175   5.790   0.962   5.072
 4404TIP3    H113176   5.853   1.029   5.096
 4404TIP3    H213177   5.715   0.977   5.130
 4405TIP3   OH213178   1.232   3.665   1.926
 4405TIP3    H113179   1.199   3.744   1.884
 4405TIP3    H213180   1.184   3.660   2.009
 4406TIP3   OH213181   2.009   0.291   0.409
 4406TIP3    H113182   1.947   0.364   0.405
 4406TIP3    H213183   2.058   0.297   0.328
 4407TIP3   OH213184   5.508   1.853   3.429
 4407TIP3    H113185   5.592   1.819   3.396
 4407TIP3    H213186   5.447   1.780   3.419
 4408TIP3   OH213187   5.907   5.988   5.504
 4408TIP3    H113188   5.966   5.928   5.458
 4408TIP3    H213189   5.824   5.981   5.456
 4409TIP3   OH213190   2.692   1.804   0.255
 4409TIP3    H113191   2.704   1.844   0.342
 4409TIP3    H213192   2.705   1.711   0.270
 4410TIP3   OH213193   5.626   1.212   3.675
 4410TIP3    H113194   5.634   1.194   3.581
 4410TIP3    H213195   5.673   1.139   3.717
 4411TIP3   OH213196   2.975   0.064   1.533
 4411TIP3    H113197   2.976   0.035   1.625
 4411TIP3    H213198   2.891   0.108   1.524
 4412TIP3   OH213199   6.879   5.349   5.159
 4412TIP3    H113200   6.948   5.352   5.093
 4412TIP3    H213201   6.923   5.370   5.242
 4413TIP3   OH213202   5.624   2.747   4.390
 4413TIP3    H113203   5.611   2.772   4.299
 4413TIP3    H213204   5.705   2.696   4.390
 4414TIP3   OH213205   4.238   1.113   5.424
 4414TIP3    H113206   4.196   1.199   5.428
 4414TIP3    H213207   4.166   1.052   5.412
 4415TIP3   OH213208   3.062   3.019   3.291
 4415TIP3    H113209   3.106   2.973   3.220
 4415TIP3    H213210   3.132   3.065   3.337
 4416TIP3   OH213211   0.680   4.114   4.140
 4416TIP3    H113212   0.696   4.133   4.233
 4416TIP3    H213213   0.690   4.198   4.096
 4417TIP3   OH213214   6.465   3.515   2.736
 4417TIP3    H113215   6.387   3.556   2.698
 4417TIP3    H213216   6.475   3.434   2.686
 4418TIP3   OH213217   1.974   3.334   2.556
 4418TIP3    H113218   1.959   3.411   2.502
 4418TIP3    H213219   1.988   3.368   2.645
 4419TIP3   OH213220   1.120   3.650   3.248
 4419TIP3    H113221   1.071   3.568   3.245
 4419TIP3    H213222   1.210   3.623   3.266
 4420TIP3   OH213223   3.579   2.278   4.641
 4420TIP3    H113224   3.617   2.284   4.728
 4420TIP3    H213225   3.554   2.186   4.632
 4421TIP3   OH213226   1.605   3.825   5.273
 4421TIP3    H113227   1.695   3.849   5.295
 4421TIP3    H213228   1.590   3.745   5.324
 4422TIP3   OH213229   4.821   6.088   5.588
 4422TIP3    H113230   4.761   6.158   5.614
 4422TIP3    H213231   4.871   6.068   5.666
 4423TIP3   OH213232   0.622   3.155   2.370
 4423TIP3    H113233   0.585   3.182   2.286
 4423TIP3    H213234   0.684   3.085   2.347
 4424TIP3   OH213235   0.873   1.012   0.962
 4424TIP3    H113236   0.948   1.007   1.021
 4424TIP3    H213237   0.909   0.992   0.876
 4425TIP3   OH213238   4.052   2.911   2.614
 4425TIP3    H113239   4.023   2.942   2.528
 4425TIP3    H213240   4.133   2.959   2.631
 4426TIP3   OH213241   0.912   3.317   2.271
 4426TIP3    H113242   0.927   3.318   2.176
 4426TIP3    H213243   0.934   3.228   2.298
 4427TIP3   OH213244   1.849   0.820   2.179
 4427TIP3    H113245   1.875   0.788   2.093
 4427TIP3    H213246   1.784   0.756   2.209
 4428TIP3   OH213247   2.772   2.358   5.692
 4428TIP3    H113248   2.787   2.438   5.742
 4428TIP3    H213249   2.815   2.290   5.743
 4429TIP3   OH213250   1.291   2.792   0.165
 4429TIP3    H113251   1.230   2.782   0.238
 4429TIP3    H213252   1.237   2.819   0.091
 4430TIP3   OH213253   6.009   1.978   2.259
 4430TIP3    H113254   6.051   1.958   2.342
 4430TIP3    H213255   6.010   1.895   2.211
 4431TIP3   OH213256   6.092   5.075   5.237
 4431TIP3    H113257   6.008   5.067   5.191
 4431TIP3    H213258   6.089   5.006   5.304
 4432TIP3   OH213259   6.712   0.526   2.603
 4432TIP3    H113260   6.690   0.599   2.546
 4432TIP3    H213261   6.703   0.561   2.692
 4433TIP3   OH213262   1.346   5.667   4.292
 4433TIP3    H113263   1.345   5.750   4.243
 4433TIP3    H213264   1.336   5.694   4.384
 4434TIP3   OH213265   0.387   1.682   5.427
 4434TIP3    H113266   0.303   1.728   5.422
 4434TIP3    H213267   0.450   1.751   5.449
 4435TIP3   OH213268   5.273   6.601   5.692
 4435TIP3    H113269   5.219   6.531   5.728
 4435TIP3    H213270   5.349   6.556   5.656
 4436TIP3   OH213271   4.069   0.097   0.574
 4436TIP3    H113272   4.080   0.175   0.628
 4436TIP3    H213273   4.064   0.025   0.637
 4437TIP3   OH213274   3.559   2.288   4.949
 4437TIP3    H113275   3.532   2.379   4.939
 4437TIP3    H213276   3.479   2.237   4.935
 4438TIP3   OH213277   6.152   1.914   4.832
 4438TIP3    H113278   6.077   1.896   4.777
 4438TIP3    H213279   6.123   1.891   4.921
 4439TIP3   OH213280   0.700   2.553   1.207
 4439TIP3    H113281   0.664   2.481   1.259
 4439TIP3    H213282   0.775   2.513   1.161
 4440TIP3   OH213283   4.101   4.894   5.233
 4440TIP3    H113284   4.095   4.948   5.312
 4440TIP3    H213285   4.017   4.906   5.189
 4441TIP3   OH213286   4.987   2.894   0.517
 4441TIP3    H113287   4.914   2.857   0.568
 4441TIP3    H213288   5.007   2.977   0.560
 4442TIP3   OH213289   6.245   5.460   3.694
 4442TIP3    H113290   6.172   5.509   3.656
 4442TIP3    H213291   6.244   5.484   3.787
 4443TIP3   OH213292   3.479   5.294   3.923
 4443TIP3    H113293   3.516   5.244   3.996
 4443TIP3    H213294   3.545   5.361   3.904
 4444TIP3   OH213295   6.611   3.964   2.296
 4444TIP3    H113296   6.640   4.035   2.352
 4444TIP3    H213297   6.651   3.886   2.334
 4445TIP3   OH213298   4.208   6.272   2.930
 4445TIP3    H113299   4.247   6.189   2.960
 4445TIP3    H213300   4.208   6.327   3.009
 4446TIP3   OH213301   4.539   4.238   2.699
 4446TIP3    H113302   4.548   4.333   2.686
 4446TIP3    H213303   4.592   4.199   2.629
 4447TIP3   OH213304   0.316   2.710   0.897
 4447TIP3    H113305   0.387   2.772   0.913
 4447TIP3    H213306   0.278   2.739   0.814
 4448TIP3   OH213307   2.664   4.790   1.538
 4448TIP3    H113308   2.744   4.813   1.491
 4448TIP3    H213309   2.663   4.849   1.613
 4449TIP3   OH213310   6.554   2.222   4.304
 4449TIP3    H113311   6.533   2.227   4.211
 4449TIP3    H213312   6.649   2.221   4.308
 4450TIP3   OH213313   1.605   5.114   1.743
 4450TIP3    H113314   1.577   5.192   1.695
 4450TIP3    H213315   1.642   5.147   1.824
 4451TIP3   OH213316   3.991   2.298   2.105
 4451TIP3    H113317   3.981   2.341   2.021
 4451TIP3    H213318   3.904   2.263   2.125
 4452TIP3   OH213319   7.080   2.193   2.778
 4452TIP3    H113320   7.099   2.155   2.864
 4452TIP3    H213321   7.123   2.279   2.781
 4453TIP3   OH213322   5.310   2.891   2.566
 4453TIP3    H113323   5.305   2.857   2.476
 4453TIP3    H213324   5.397   2.867   2.596
 4454TIP3   OH213325   5.629   3.734   1.597
 4454TIP3    H113326   5.554   3.793   1.597
 4454TIP3    H213327   5.613   3.675   1.670
 4455TIP3   OH213328   6.162   5.725   4.330
 4455TIP3    H113329   6.206   5.715   4.246
 4455TIP3    H213330   6.086   5.667   4.324
 4456TIP3   OH213331   1.898   3.388   0.038
 4456TIP3    H113332   1.944   3.466   0.069
 4456TIP3    H213333   1.853   3.353   0.116
 4457TIP3   OH213334   5.140   6.742   3.478
 4457TIP3    H113335   5.183   6.718   3.396
 4457TIP3    H213336   5.161   6.670   3.538
 4458TIP3   OH213337   6.435   0.689   2.709
 4458TIP3    H113338   6.364   0.649   2.759
 4458TIP3    H213339   6.515   0.655   2.749
 4459TIP3   OH213340   0.208   0.401   1.266
 4459TIP3    H113341   0.239   0.315   1.295
 4459TIP3    H213342   0.214   0.457   1.343
 4460TIP3   OH213343   2.268   5.808   0.762
 4460TIP3    H113344   2.294   5.819   0.670
 4460TIP3    H213345   2.182   5.766   0.757
 4461TIP3   OH213346   0.316   2.422   1.525
 4461TIP3    H113347   0.340   2.393   1.613
 4461TIP3    H213348   0.314   2.341   1.473
 4462TIP3   OH213349   0.613   5.452   4.934
 4462TIP3    H113350   0.675   5.459   5.006
 4462TIP3    H213351   0.528   5.437   4.975
 4463TIP3   OH213352   0.329   3.936   0.880
 4463TIP3    H113353   0.312   3.845   0.853
 4463TIP3    H213354   0.416   3.955   0.844
 4464TIP3   OH213355   6.736   2.449   2.303
 4464TIP3    H113356   6.774   2.443   2.215
 4464TIP3    H213357   6.669   2.517   2.295
 4465TIP3   OH213358   4.811   4.662   4.803
 4465TIP3    H113359   4.788   4.577   4.840
 4465TIP3    H213360   4.826   4.645   4.710
 4466TIP3   OH213361   0.111   3.787   1.131
 4466TIP3    H113362   0.059   3.868   1.135
 4466TIP3    H213363   0.051   3.721   1.098
 4467TIP3   OH213364   1.281   1.289   3.541
 4467TIP3    H113365   1.238   1.226   3.483
 4467TIP3    H213366   1.252   1.265   3.629
 4468TIP3   OH213367   4.076   3.986   4.061
 4468TIP3    H113368   4.003   3.954   4.114
 4468TIP3    H213369   4.110   4.061   4.109
 4469TIP3   OH213370   2.243   3.599   5.346
 4469TIP3    H113371   2.192   3.668   5.303
 4469TIP3    H213372   2.330   3.635   5.356
 4470TIP3   OH213373   2.775   2.624   5.860
 4470TIP3    H113374   2.729   2.706   5.848
 4470TIP3    H213375   2.716   2.570   5.912
 4471TIP3   OH213376   0.587   1.525   3.647
 4471TIP3    H113377   0.586   1.495   3.556
 4471TIP3    H213378   0.504   1.571   3.658
 4472TIP3   OH213379   5.045   2.173   2.930
 4472TIP3    H113380   5.098   2.242   2.969
 4472TIP3    H213381   5.078   2.166   2.840
 4473TIP3   OH213382   2.693   0.804   1.176
 4473TIP3    H113383   2.630   0.832   1.110
 4473TIP3    H213384   2.671   0.856   1.253
 4474TIP3   OH213385   3.485   2.337   4.254
 4474TIP3    H113386   3.556   2.274   4.265
 4474TIP3    H213387   3.488   2.391   4.333
 4475TIP3   OH213388   3.034   0.711   2.340
 4475TIP3    H113389   3.102   0.774   2.363
 4475TIP3    H213390   2.953   0.761   2.342
 4476TIP3   OH213391   3.762   6.671   0.628
 4476TIP3    H113392   3.832   6.736   0.632
 4476TIP3    H213393   3.691   6.716   0.580
 4477TIP3   OH213394   5.122   4.764   5.398
 4477TIP3    H113395   5.162   4.823   5.462
 4477TIP3    H213396   5.093   4.821   5.327
 4478TIP3   OH213397   6.232   2.770   3.726
 4478TIP3    H113398   6.274   2.686   3.710
 4478TIP3    H213399   6.145   2.761   3.687
 4479TIP3   OH213400   0.357   4.512   4.272
 4479TIP3    H113401   0.417   4.562   4.217
 4479TIP3    H213402   0.383   4.420   4.259
 4480TIP3   OH213403   5.421   0.634   5.689
 4480TIP3    H113404   5.440   0.596   5.603
 4480TIP3    H213405   5.489   0.700   5.701
 4481TIP3   OH213406   1.784   5.719   5.164
 4481TIP3    H113407   1.824   5.633   5.178
 4481TIP3    H213408   1.858   5.779   5.162
 4482TIP3   OH213409   7.146   2.444   2.976
 4482TIP3    H113410   7.237   2.460   2.999
 4482TIP3    H213411   7.132   2.495   2.896
 4483TIP3   OH213412   6.143   0.216   5.772
 4483TIP3    H113413   6.105   0.304   5.775
 4483TIP3    H213414   6.238   0.231   5.773
 4484TIP3   OH213415   1.328   4.258   0.522
 4484TIP3    H113416   1.375   4.325   0.571
 4484TIP3    H213417   1.241   4.255   0.561
 4485TIP3   OH213418   3.932   2.845   4.508
 4485TIP3    H113419   3.902   2.930   4.474
 4485TIP3    H213420   4.022   2.836   4.476
 4486TIP3   OH213421   1.573   0.976   2.962
 4486TIP3    H113422   1.499   0.919   2.983
 4486TIP3    H213423   1.643   0.949   3.022
 4487TIP3   OH213424   1.525   0.217   3.131
 4487TIP3    H113425   1.443   0.262   3.150
 4487TIP3    H213426   1.513   0.128   3.164
 4488TIP3   OH213427   6.839   0.505   0.854
 4488TIP3    H113428   6.876   0.592   0.840
 4488TIP3    H213429   6.915   0.450   0.877
 4489TIP3   OH213430   2.918   2.970   0.524
 4489TIP3    H113431   2.893   3.054   0.563
 4489TIP3    H213432   2.907   2.906   0.594
 4490TIP3   OH213433   7.093   2.244   2.479
 4490TIP3    H113434   7.015   2.208   2.437
 4490TIP3    H213435   7.085   2.216   2.571
 4491TIP3   OH213436   3.259   3.488   3.969
 4491TIP3    H113437   3.203   3.480   4.047
 4491TIP3    H213438   3.225   3.566   3.924
 4492TIP3   OH213439   3.555   1.172   5.307
 4492TIP3    H113440   3.640   1.162   5.264
 4492TIP3    H213441   3.555   1.263   5.338
 4493TIP3   OH213442   3.924   4.256   3.673
 4493TIP3    H113443   3.883   4.177   3.708
 4493TIP3    H213444   3.909   4.323   3.740
 4494TIP3   OH213445   2.178   3.942   4.025
 4494TIP3    H113446   2.106   3.979   3.973
 4494TIP3    H213447   2.245   3.920   3.961
 4495TIP3   OH213448   3.985   0.144   3.058
 4495TIP3    H113449   4.077   0.127   3.076
 4495TIP3    H213450   3.959   0.207   3.126
 4496TIP3   OH213451   3.380   6.748   1.864
 4496TIP3    H113452   3.287   6.763   1.880
 4496TIP3    H213453   3.382   6.699   1.782
 4497TIP3   OH213454   5.725   4.442   4.066
 4497TIP3    H113455   5.792   4.396   4.015
 4497TIP3    H213456   5.675   4.491   4.000
 4498TIP3   OH213457   0.030   1.826   1.083
 4498TIP3    H113458   0.116   1.791   1.105
 4498TIP3    H213459  -0.010   1.848   1.167
 4499TIP3   OH213460   1.804   0.500   0.391
 4499TIP3    H113461   1.798   0.582   0.341
 4499TIP3    H213462   1.819   0.527   0.481
 4500TIP3   OH213463   6.525   4.981   3.737
 4500TIP3    H113464   6.502   5.072   3.720
 4500TIP3    H213465   6.621   4.981   3.747
 4501TIP3   OH213466   3.696   5.944   2.584
 4501TIP3    H113467   3.702   5.936   2.489
 4501TIP3    H213468   3.771   6.000   2.608
 4502TIP3   OH213469   2.993   3.849   2.348
 4502TIP3    H113470   3.066   3.816   2.400
 4502TIP3    H213471   2.963   3.926   2.395
 4503TIP3   OH213472   0.555   2.636   1.864
 4503TIP3    H113473   0.515   2.612   1.781
 4503TIP3    H213474   0.486   2.686   1.909
 4504TIP3   OH213475   6.388   5.343   2.111
 4504TIP3    H113476   6.478   5.374   2.101
 4504TIP3    H213477   6.375   5.284   2.036
 4505TIP3   OH213478   7.143   3.218   3.742
 4505TIP3    H113479   7.124   3.128   3.717
 4505TIP3    H213480   7.157   3.214   3.837
 4506TIP3   OH213481   3.047   3.578   0.472
 4506TIP3    H113482   3.044   3.651   0.534
 4506TIP3    H213483   3.076   3.617   0.390
 4507TIP3   OH213484   2.691   5.593   2.436
 4507TIP3    H113485   2.663   5.641   2.359
 4507TIP3    H213486   2.746   5.655   2.484
 4508TIP3   OH213487   6.043   1.880   4.047
 4508TIP3    H113488   6.030   1.808   4.108
 4508TIP3    H213489   6.006   1.956   4.091
 4509TIP3   OH213490   6.238   0.042   0.259
 4509TIP3    H113491   6.318   0.093   0.271
 4509TIP3    H213492   6.198   0.076   0.179
 4510TIP3   OH213493   1.142   0.575   3.219
 4510TIP3    H113494   1.124   0.643   3.154
 4510TIP3    H213495   1.176   0.623   3.295
 4511TIP3   OH213496   2.964   2.325   3.490
 4511TIP3    H113497   3.054   2.326   3.457
 4511TIP3    H213498   2.973   2.325   3.585
 4512TIP3   OH213499   6.381   3.917   2.948
 4512TIP3    H113500   6.376   3.824   2.968
 4512TIP3    H213501   6.329   3.959   3.017
 4513TIP3   OH213502   4.696   6.196   1.909
 4513TIP3    H113503   4.649   6.208   1.992
 4513TIP3    H213504   4.775   6.250   1.920
 4514TIP3   OH213505   0.795   6.261   1.751
 4514TIP3    H113506   0.741   6.313   1.693
 4514TIP3    H213507   0.764   6.282   1.839
 4515TIP3   OH213508   3.237   5.145   5.336
 4515TIP3    H113509   3.268   5.232   5.312
 4515TIP3    H213510   3.293   5.085   5.287
 4516TIP3   OH213511   2.141   4.000   0.500
 4516TIP3    H113512   2.195   4.049   0.438
 4516TIP3    H213513   2.150   3.909   0.473
 4517TIP3   OH213514   6.623   1.545  -0.022
 4517TIP3    H113515   6.603   1.459   0.014
 4517TIP3    H213516   6.584   1.606   0.040
 4518TIP3   OH213517   2.049   3.734   2.269
 4518TIP3    H113518   2.106   3.667   2.307
 4518TIP3    H213519   2.100   3.814   2.273
 4519TIP3   OH213520   3.396   3.403   3.775
 4519TIP3    H113521   3.467   3.341   3.793
 4519TIP3    H213522   3.355   3.417   3.860
 4520TIP3   OH213523   2.255   1.272   5.821
 4520TIP3    H113524   2.212   1.312   5.745
 4520TIP3    H213525   2.184   1.233   5.871
 4521TIP3   OH213526   0.088   0.179   3.067
 4521TIP3    H113527   0.163   0.120   3.060
 4521TIP3    H213528   0.114   0.256   3.015
 4522TIP3   OH213529   0.251   0.051   4.982
 4522TIP3    H113530   0.205   0.016   4.905
 4522TIP3    H213531   0.186   0.050   5.052
 4523TIP3   OH213532   0.655   4.994   3.947
 4523TIP3    H113533   0.744   5.025   3.929
 4523TIP3    H213534   0.605   5.074   3.963
 4524TIP3   OH213535   0.662   2.464   3.694
 4524TIP3    H113536   0.697   2.380   3.666
 4524TIP3    H213537   0.607   2.492   3.621
 4525TIP3   OH213538   2.043   6.198   2.207
 4525TIP3    H113539   2.088   6.169   2.287
 4525TIP3    H213540   2.015   6.116   2.165
 4526TIP3   OH213541   1.073   4.738   2.780
 4526TIP3    H113542   1.134   4.746   2.707
 4526TIP3    H213543   0.998   4.791   2.755
 4527TIP3   OH213544   5.478   2.130   3.438
 4527TIP3    H113545   5.481   2.036   3.452
 4527TIP3    H213546   5.556   2.149   3.386
 4528TIP3   OH213547   4.488   0.626   3.688
 4528TIP3    H113548   4.487   0.533   3.710
 4528TIP3    H213549   4.578   0.654   3.702
 4529TIP3   OH213550   0.461   5.561   3.972
 4529TIP3    H113551   0.457   5.626   3.902
 4529TIP3    H213552   0.430   5.480   3.931
 4530TIP3   OH213553   5.535   6.659   5.502
 4530TIP3    H113554   5.495   6.615   5.426
 4530TIP3    H213555   5.510   6.751   5.492
 4531TIP3   OH213556   7.116   1.927   4.800
 4531TIP3    H113557   7.145   1.912   4.710
 4531TIP3    H213558   7.143   2.017   4.819
 4532TIP3   OH213559   5.276   0.651   0.353
 4532TIP3    H113560   5.303   0.721   0.293
 4532TIP3    H213561   5.358   0.610   0.381
 4533TIP3   OH213562   5.569   2.794   5.049
 4533TIP3    H113563   5.507   2.807   5.121
 4533TIP3    H213564   5.515   2.772   4.973
 4534TIP3   OH213565   1.279   2.017   3.318
 4534TIP3    H113566   1.243   2.089   3.266
 4534TIP3    H213567   1.346   1.978   3.261
 4535TIP3   OH213568   0.208   3.957   5.125
 4535TIP3    H113569   0.226   3.863   5.119
 4535TIP3    H213570   0.113   3.964   5.126
 4536TIP3   OH213571   0.885   0.438   2.112
 4536TIP3    H113572   0.872   0.343   2.117
 4536TIP3    H213573   0.796   0.474   2.114
 4537TIP3   OH213574   1.530   5.402   0.315
 4537TIP3    H113575   1.512   5.482   0.364
 4537TIP3    H213576   1.604   5.362   0.362
 4538TIP3   OH213577   3.632   5.210   2.449
 4538TIP3    H113578   3.659   5.131   2.495
 4538TIP3    H213579   3.697   5.220   2.379
 4539TIP3   OH213580   0.616   4.865   4.182
 4539TIP3    H113581   0.705   4.877   4.213
 4539TIP3    H213582   0.609   4.921   4.105
 4540TIP3   OH213583   4.357   2.125   5.853
 4540TIP3    H113584   4.437   2.077   5.876
 4540TIP3    H213585   4.388   2.200   5.801
 4541TIP3   OH213586   4.468   2.966   4.321
 4541TIP3    H113587   4.431   3.053   4.339
 4541TIP3    H213588   4.485   2.965   4.227
 4542TIP3   OH213589   5.166   5.429   0.136
 4542TIP3    H113590   5.185   5.337   0.118
 4542TIP3    H213591   5.075   5.440   0.110
 4543TIP3   OH213592   1.415   4.181   1.602
 4543TIP3    H113593   1.445   4.094   1.628
 4543TIP3    H213594   1.495   4.233   1.594
 4544TIP3   OH213595   0.685   0.770   0.004
 4544TIP3    H113596   0.607   0.737  -0.040
 4544TIP3    H213597   0.651   0.831   0.070
 4545TIP3   OH213598   0.306   0.142   1.297
 4545TIP3    H113599   0.284   0.049   1.308
 4545TIP3    H213600   0.379   0.142   1.236
 4546TIP3   OH213601   3.843   6.211   0.222
 4546TIP3    H113602   3.847   6.236   0.129
 4546TIP3    H213603   3.752   6.230   0.248
 4547TIP3   OH213604   2.544   0.955   1.353
 4547TIP3    H113605   2.507   0.904   1.425
 4547TIP3    H213606   2.470   0.973   1.296
 4548TIP3   OH213607   1.613   0.595   4.059
 4548TIP3    H113608   1.552   0.669   4.056
 4548TIP3    H213609   1.699   0.636   4.054
 4549TIP3   OH213610   2.627   5.401   1.610
 4549TIP3    H113611   2.614   5.484   1.563
 4549TIP3    H213612   2.593   5.335   1.550
 4550TIP3   OH213613   4.671   3.817   1.473
 4550TIP3    H113614   4.731   3.750   1.505
 4550TIP3    H213615   4.589   3.771   1.458
 4551TIP3   OH213616   0.782   6.587   3.633
 4551TIP3    H113617   0.714   6.643   3.598
 4551TIP3    H213618   0.798   6.521   3.565
 4552TIP3   OH213619   7.145   6.116   2.366
 4552TIP3    H113620   7.199   6.065   2.305
 4552TIP3    H213621   7.123   6.196   2.318
 4553TIP3   OH213622   5.476   0.966   4.295
 4553TIP3    H113623   5.564   0.965   4.257
 4553TIP3    H213624   5.420   1.000   4.225
 4554TIP3   OH213625   0.680   1.630   3.022
 4554TIP3    H113626   0.597   1.677   3.012
 4554TIP3    H213627   0.694   1.587   2.938
 4555TIP3   OH213628   3.451   3.566   5.644
 4555TIP3    H113629   3.421   3.476   5.632
 4555TIP3    H213630   3.389   3.619   5.594
 4556TIP3   OH213631   7.238   4.494  -0.013
 4556TIP3    H113632   7.143   4.501  -0.018
 4556TIP3    H213633   7.254   4.425   0.052
 4557TIP3   OH213634   2.708   0.926   5.430
 4557TIP3    H113635   2.742   0.962   5.349
 4557TIP3    H213636   2.708   1.000   5.491
 4558TIP3   OH213637   6.871   4.590   3.018
 4558TIP3    H113638   6.834   4.673   3.047
 4558TIP3    H213639   6.887   4.602   2.924
 4559TIP3   OH213640   5.471   6.658   4.017
 4559TIP3    H113641   5.499   6.750   4.021
 4559TIP3    H213642   5.547   6.612   3.980
 4560TIP3   OH213643   5.397   5.486   5.499
 4560TIP3    H113644   5.481   5.463   5.538
 4560TIP3    H213645   5.379   5.574   5.532
 4561TIP3   OH213646   7.156   4.379   1.049
 4561TIP3    H113647   7.191   4.460   1.088
 4561TIP3    H213648   7.192   4.378   0.961
 4562TIP3   OH213649   5.017   0.496   2.183
 4562TIP3    H113650   5.053   0.448   2.108
 4562TIP3    H213651   5.075   0.474   2.256
 4563TIP3   OH213652   2.531   5.421   3.505
 4563TIP3    H113653   2.544   5.462   3.590
 4563TIP3    H213654   2.477   5.345   3.523
 4564TIP3   OH213655   1.295   6.588   1.520
 4564TIP3    H113656   1.388   6.580   1.502
 4564TIP3    H213657   1.254   6.594   1.434
 4565TIP3   OH213658   3.340   3.312   1.683
 4565TIP3    H113659   3.369   3.404   1.683
 4565TIP3    H213660   3.416   3.263   1.651
 4566TIP3   OH213661   4.861   5.624   4.763
 4566TIP3    H113662   4.859   5.531   4.742
 4566TIP3    H213663   4.931   5.660   4.708
 4567TIP3   OH213664   2.848   4.042   2.462
 4567TIP3    H113665   2.763   4.034   2.419
 4567TIP3    H213666   2.850   4.131   2.497
 4568TIP3   OH213667   5.480   6.808   0.139
 4568TIP3    H113668   5.540   6.797   0.066
 4568TIP3    H213669   5.507   6.741   0.202
 4569TIP3   OH213670   0.056   2.772   5.847
 4569TIP3    H113671   0.019   2.705   5.904
 4569TIP3    H213672   0.092   2.723   5.772
 4570TIP3   OH213673   3.781   3.795   2.415
 4570TIP3    H113674   3.708   3.738   2.394
 4570TIP3    H213675   3.850   3.770   2.353
 4571TIP3   OH213676   0.738   1.803   2.177
 4571TIP3    H113677   0.727   1.879   2.121
 4571TIP3    H213678   0.748   1.839   2.265
 4572TIP3   OH213679   0.411   2.463   0.734
 4572TIP3    H113680   0.373   2.533   0.787
 4572TIP3    H213681   0.337   2.405   0.714
 4573TIP3   OH213682   3.457   6.510   3.012
 4573TIP3    H113683   3.520   6.475   2.949
 4573TIP3    H213684   3.461   6.605   3.000
 4574TIP3   OH213685   4.216   5.547   4.122
 4574TIP3    H113686   4.162   5.486   4.072
 4574TIP3    H213687   4.252   5.494   4.194
 4575TIP3   OH213688   4.737   6.116   3.481
 4575TIP3    H113689   4.732   6.173   3.404
 4575TIP3    H213690   4.804   6.051   3.458
 4576TIP3   OH213691   0.522   1.394   2.670
 4576TIP3    H113692   0.472   1.388   2.752
 4576TIP3    H213693   0.455   1.400   2.602
 4577TIP3   OH213694   2.772   0.610   0.578
 4577TIP3    H113695   2.792   0.527   0.621
 4577TIP3    H213696   2.805   0.599   0.489
 4578TIP3   OH213697   5.442   6.290   4.457
 4578TIP3    H113698   5.520   6.290   4.512
 4578TIP3    H213699   5.470   6.330   4.375
 4579TIP3   OH213700   2.263   3.993   3.558
 4579TIP3    H113701   2.318   4.028   3.487
 4579TIP3    H213702   2.214   3.922   3.517
 4580TIP3   OH213703   0.105   4.088   0.846
 4580TIP3    H113704   0.171   4.055   0.906
 4580TIP3    H213705   0.046   4.014   0.832
 4581TIP3   OH213706   2.386   0.733   3.521
 4581TIP3    H113707   2.291   0.724   3.517
 4581TIP3    H213708   2.410   0.768   3.435
 4582TIP3   OH213709   3.452   3.253   1.279
 4582TIP3    H113710   3.467   3.161   1.303
 4582TIP3    H213711   3.540   3.289   1.270
 4583TIP3   OH213712   3.132   3.113   5.519
 4583TIP3    H113713   3.148   3.145   5.430
 4583TIP3    H213714   3.136   3.018   5.511
 4584TIP3   OH213715   5.158   2.211   0.616
 4584TIP3    H113716   5.211   2.290   0.605
 4584TIP3    H213717   5.070   2.243   0.631
 4585TIP3   OH213718   1.560   1.919   2.000
 4585TIP3    H113719   1.621   1.847   1.989
 4585TIP3    H213720   1.474   1.883   1.977
 4586TIP3   OH213721   1.955   1.422   5.110
 4586TIP3    H113722   1.915   1.480   5.045
 4586TIP3    H213723   1.887   1.410   5.176
 4587TIP3   OH213724   4.335   1.348   5.128
 4587TIP3    H113725   4.330   1.441   5.103
 4587TIP3    H213726   4.276   1.340   5.203
 4588TIP3   OH213727   7.166   6.064   0.195
 4588TIP3    H113728   7.134   6.090   0.109
 4588TIP3    H213729   7.091   6.023   0.237
 4589TIP3   OH213730   6.456   2.838   2.950
 4589TIP3    H113731   6.401   2.839   2.872
 4589TIP3    H213732   6.534   2.788   2.925
 4590TIP3   OH213733   4.508   2.891   0.769
 4590TIP3    H113734   4.489   2.963   0.709
 4590TIP3    H213735   4.427   2.881   0.820
 4591TIP3   OH213736   2.170   6.376   0.498
 4591TIP3    H113737   2.102   6.404   0.561
 4591TIP3    H213738   2.252   6.402   0.540
 4592TIP3   OH213739   2.783   5.518   1.352
 4592TIP3    H113740   2.705   5.536   1.404
 4592TIP3    H213741   2.856   5.548   1.406
 4593TIP3   OH213742   7.082   3.227   4.378
 4593TIP3    H113743   7.066   3.137   4.406
 4593TIP3    H213744   7.164   3.252   4.421
 4594TIP3   OH213745   7.038   2.312   0.564
 4594TIP3    H113746   7.079   2.244   0.617
 4594TIP3    H213747   6.954   2.274   0.537
 4595TIP3   OH213748   0.966   3.197   4.825
 4595TIP3    H113749   0.967   3.293   4.830
 4595TIP3    H213750   0.894   3.176   4.766
 4596TIP3   OH213751   6.455   1.067   4.025
 4596TIP3    H113752   6.406   1.003   3.973
 4596TIP3    H213753   6.530   1.018   4.059
 4597TIP3   OH213754   2.514   0.455   0.540
 4597TIP3    H113755   2.542   0.544   0.560
 4597TIP3    H213756   2.533   0.405   0.620
 4598TIP3   OH213757   2.141   1.665   5.715
 4598TIP3    H113758   2.129   1.756   5.690
 4598TIP3    H213759   2.058   1.640   5.757
 4599TIP3   OH213760   0.685   4.920   5.067
 4599TIP3    H113761   0.631   4.879   4.999
 4599TIP3    H213762   0.731   4.991   5.022
 4600TIP3   OH213763   1.453   5.752   5.600
 4600TIP3    H113764   1.470   5.846   5.597
 4600TIP3    H213765   1.440   5.727   5.509
 4601TIP3   OH213766   0.954   3.839   0.051
 4601TIP3    H113767   0.941   3.821   0.144
 4601TIP3    H213768   0.871   3.813   0.010
 4602TIP3   OH213769   1.184   1.362   3.265
 4602TIP3    H113770   1.098   1.320   3.273
 4602TIP3    H213771   1.201   1.365   3.171
 4603TIP3   OH213772   7.071   1.327   3.215
 4603TIP3    H113773   7.147   1.348   3.161
 4603TIP3    H213774   7.004   1.298   3.152
 4604TIP3   OH213775   2.995   4.891   4.332
 4604TIP3    H113776   2.911   4.873   4.375
 4604TIP3    H213777   3.011   4.984   4.351
 4605TIP3   OH213778   5.155   3.653   0.199
 4605TIP3    H113779   5.140   3.637   0.293
 4605TIP3    H213780   5.243   3.688   0.194
 4606TIP3   OH213781   4.787   1.816   1.904
 4606TIP3    H113782   4.753   1.803   1.816
 4606TIP3    H213783   4.821   1.730   1.930
 4607TIP3   OH213784   0.380   0.929   0.372
 4607TIP3    H113785   0.459   0.936   0.318
 4607TIP3    H213786   0.387   0.843   0.413
 4608TIP3   OH213787   2.744   5.633   0.438
 4608TIP3    H113788   2.650   5.643   0.425
 4608TIP3    H213789   2.776   5.588   0.360
 4609TIP3   OH213790   6.638   3.925   5.381
 4609TIP3    H113791   6.707   3.962   5.437
 4609TIP3    H213792   6.655   3.963   5.295
 4610TIP3   OH213793   4.131   2.798   4.891
 4610TIP3    H113794   4.193   2.802   4.819
 4610TIP3    H213795   4.047   2.779   4.850
 4611TIP3   OH213796   3.003   2.141   1.199
 4611TIP3    H113797   3.027   2.180   1.283
 4611TIP3    H213798   3.079   2.088   1.175
 4612TIP3   OH213799   3.337   6.327   5.150
 4612TIP3    H113800   3.325   6.254   5.210
 4612TIP3    H213801   3.402   6.296   5.087
 4613TIP3   OH213802   4.230   4.162   0.245
 4613TIP3    H113803   4.196   4.081   0.207
 4613TIP3    H213804   4.317   4.172   0.207
 4614TIP3   OH213805   6.111   6.100   4.745
 4614TIP3    H113806   6.075   6.012   4.748
 4614TIP3    H213807   6.147   6.108   4.657
 4615TIP3   OH213808   5.109   1.475   3.254
 4615TIP3    H113809   5.081   1.494   3.344
 4615TIP3    H213810   5.118   1.561   3.214
 4616TIP3   OH213811   6.642   1.521   2.564
 4616TIP3    H113812   6.636   1.530   2.660
 4616TIP3    H213813   6.566   1.569   2.531
 4617TIP3   OH213814   6.564   1.303   0.086
 4617TIP3    H113815   6.521   1.220   0.063
 4617TIP3    H213816   6.655   1.280   0.103
 4618TIP3   OH213817   2.644   2.866   5.835
 4618TIP3    H113818   2.632   2.920   5.913
 4618TIP3    H213819   2.555   2.843   5.808
 4619TIP3   OH213820   0.493   3.068   4.056
 4619TIP3    H113821   0.519   3.000   3.994
 4619TIP3    H213822   0.400   3.083   4.039
 4620TIP3   OH213823   2.706   6.565   0.201
 4620TIP3    H113824   2.676   6.478   0.177
 4620TIP3    H213825   2.651   6.625   0.150
 4621TIP3   OH213826   5.686   5.249   1.186
 4621TIP3    H113827   5.751   5.272   1.252
 4621TIP3    H213828   5.650   5.333   1.158
 4622TIP3   OH213829   1.013   6.518   4.317
 4622TIP3    H113830   0.950   6.457   4.355
 4622TIP3    H213831   1.028   6.486   4.229
 4623TIP3   OH213832   5.515   4.232   3.390
 4623TIP3    H113833   5.504   4.264   3.301
 4623TIP3    H213834   5.564   4.302   3.434
 4624TIP3   OH213835   1.043   3.674   0.959
 4624TIP3    H113836   0.993   3.697   1.037
 4624TIP3    H213837   1.112   3.741   0.955
 4625TIP3   OH213838   3.002   6.334   5.285
 4625TIP3    H113839   2.907   6.329   5.285
 4625TIP3    H213840   3.030   6.264   5.345
 4626TIP3   OH213841   3.790   4.635   0.112
 4626TIP3    H113842   3.811   4.638   0.205
 4626TIP3    H213843   3.769   4.543   0.095
 4627TIP3   OH213844   0.740   5.355   3.567
 4627TIP3    H113845   0.784   5.273   3.590
 4627TIP3    H213846   0.698   5.337   3.482
 4628TIP3   OH213847   2.207   5.783   0.380
 4628TIP3    H113848   2.286   5.808   0.428
 4628TIP3    H213849   2.231   5.701   0.336
 4629TIP3   OH213850   3.266   2.001   2.840
 4629TIP3    H113851   3.330   2.061   2.803
 4629TIP3    H213852   3.312   1.917   2.845
 4630TIP3   OH213853   1.225   2.506   1.018
 4630TIP3    H113854   1.139   2.486   1.054
 4630TIP3    H213855   1.285   2.496   1.092
 4631TIP3   OH213856   4.776   2.801   1.471
 4631TIP3    H113857   4.821   2.877   1.509
 4631TIP3    H213858   4.847   2.744   1.441
 4632TIP3   OH213859   3.609   3.311   4.316
 4632TIP3    H113860   3.628   3.395   4.358
 4632TIP3    H213861   3.558   3.335   4.238
 4633TIP3   OH213862   1.046   0.191   4.489
 4633TIP3    H113863   1.128   0.150   4.517
 4633TIP3    H213864   1.046   0.182   4.394
 4634TIP3   OH213865   1.955   3.288   1.130
 4634TIP3    H113866   1.984   3.361   1.076
 4634TIP3    H213867   1.969   3.317   1.220
 4635TIP3   OH213868   4.233   1.340   4.004
 4635TIP3    H113869   4.218   1.385   3.921
 4635TIP3    H213870   4.326   1.317   4.001
 4636TIP3   OH213871   0.094   0.058   5.237
 4636TIP3    H113872   0.015   0.072   5.289
 4636TIP3    H213873   0.127  -0.027   5.266
 4637TIP3   OH213874   6.559   1.825   3.166
 4637TIP3    H113875   6.484   1.852   3.113
 4637TIP3    H213876   6.631   1.818   3.103
 4638TIP3   OH213877   0.845   1.531   5.057
 4638TIP3    H113878   0.872   1.441   5.076
 4638TIP3    H213879   0.926   1.582   5.060
 4639TIP3   OH213880   4.513   4.440   5.603
 4639TIP3    H113881   4.580   4.470   5.664
 4639TIP3    H213882   4.490   4.517   5.551
 4640TIP3   OH213883   5.500   4.145   2.524
 4640TIP3    H113884   5.467   4.081   2.587
 4640TIP3    H213885   5.430   4.210   2.518
 4641TIP3   OH213886   3.733   0.785   2.541
 4641TIP3    H113887   3.659   0.731   2.568
 4641TIP3    H213888   3.753   0.754   2.453
 4642TIP3   OH213889   4.368   2.908   5.066
 4642TIP3    H113890   4.394   2.993   5.031
 4642TIP3    H213891   4.304   2.875   5.002
 4643TIP3   OH213892   0.963   6.411   4.053
 4643TIP3    H113893   0.902   6.482   4.031
 4643TIP3    H213894   1.002   6.386   3.970
 4644TIP3   OH213895   2.027   4.786   5.679
 4644TIP3    H113896   2.013   4.866   5.627
 4644TIP3    H213897   2.103   4.806   5.734
 4645TIP3   OH213898   1.079   5.512   5.430
 4645TIP3    H113899   1.047   5.505   5.520
 4645TIP3    H213900   1.169   5.543   5.439
 4646TIP3   OH213901   6.829   2.642   2.748
 4646TIP3    H113902   6.801   2.555   2.719
 4646TIP3    H213903   6.921   2.630   2.774
 4647TIP3   OH213904   1.099   6.594   1.297
 4647TIP3    H113905   1.135   6.564   1.214
 4647TIP3    H213906   1.007   6.612   1.278
 4648TIP3   OH213907   0.839   4.012   3.643
 4648TIP3    H113908   0.887   4.086   3.608
 4648TIP3    H213909   0.763   4.002   3.586
 4649TIP3   OH213910   2.840   6.183   3.647
 4649TIP3    H113911   2.855   6.116   3.581
 4649TIP3    H213912   2.781   6.142   3.710
 4650TIP3   OH213913   6.311   4.429   1.961
 4650TIP3    H113914   6.365   4.410   2.037
 4650TIP3    H213915   6.370   4.474   1.900
 4651TIP3   OH213916   4.243   6.801   2.180
 4651TIP3    H113917   4.241   6.706   2.167
 4651TIP3    H213918   4.282   6.835   2.100
 4652TIP3   OH213919   2.179   5.143   1.377
 4652TIP3    H113920   2.144   5.120   1.291
 4652TIP3    H213921   2.118   5.206   1.412
 4653TIP3   OH213922   0.771   4.640   3.832
 4653TIP3    H113923   0.805   4.568   3.781
 4653TIP3    H213924   0.829   4.645   3.908
 4654TIP3   OH213925   5.886   1.200   5.114
 4654TIP3    H113926   5.821   1.257   5.155
 4654TIP3    H213927   5.957   1.194   5.177
 4655TIP3   OH213928   1.800   4.736   2.258
 4655TIP3    H113929   1.859   4.768   2.326
 4655TIP3    H213930   1.853   4.737   2.178
 4656TIP3   OH213931   3.098   1.528   0.512
 4656TIP3    H113932   3.106   1.592   0.583
 4656TIP3    H213933   3.038   1.461   0.546
 4657TIP3   OH213934   0.352   4.213   2.988
 4657TIP3    H113935   0.376   4.242   2.900
 4657TIP3    H213936   0.426   4.159   3.017
 4658TIP3   OH213937   1.658   4.614   4.359
 4658TIP3    H113938   1.648   4.704   4.391
 4658TIP3    H213939   1.692   4.625   4.270
 4659TIP3   OH213940   3.416   0.387   1.697
 4659TIP3    H113941   3.498   0.376   1.746
 4659TIP3    H213942   3.349   0.351   1.754
 4660TIP3   OH213943   3.026   5.365   5.368
 4660TIP3    H113944   3.113   5.345   5.335
 4660TIP3    H213945   2.966   5.321   5.308
 4661TIP3   OH213946   2.818   6.221   2.632
 4661TIP3    H113947   2.797   6.163   2.705
 4661TIP3    H213948   2.864   6.166   2.569
 4662TIP3   OH213949   5.965   5.461   1.508
 4662TIP3    H113950   5.903   5.398   1.471
 4662TIP3    H213951   5.914   5.509   1.574
 4663TIP3   OH213952   0.308   1.437   0.611
 4663TIP3    H113953   0.279   1.353   0.576
 4663TIP3    H213954   0.227   1.489   0.618
 4664TIP3   OH213955   3.602   4.084   0.842
 4664TIP3    H113956   3.553   4.001   0.843
 4664TIP3    H213957   3.575   4.128   0.922
 4665TIP3   OH213958   5.037   5.673   3.592
 4665TIP3    H113959   5.019   5.767   3.601
 4665TIP3    H213960   5.132   5.666   3.600
 4666TIP3   OH213961   5.841   3.999   4.536
 4666TIP3    H113962   5.871   3.913   4.567
 4666TIP3    H213963   5.890   4.062   4.589
 4667TIP3   OH213964   6.466   1.807   1.994
 4667TIP3    H113965   6.429   1.722   2.018
 4667TIP3    H213966   6.478   1.852   2.078
 4668TIP3   OH213967   5.190   1.370   2.656
 4668TIP3    H113968   5.105   1.413   2.659
 4668TIP3    H213969   5.172   1.278   2.675
 4669TIP3   OH213970   1.605   3.555   5.802
 4669TIP3    H113971   1.669   3.624   5.784
 4669TIP3    H213972   1.651   3.496   5.863
 4670TIP3   OH213973   6.589   3.538   0.306
 4670TIP3    H113974   6.594   3.539   0.210
 4670TIP3    H213975   6.650   3.469   0.332
 4671TIP3   OH213976   0.804   3.157   1.210
 4671TIP3    H113977   0.741   3.175   1.280
 4671TIP3    H213978   0.884   3.201   1.239
 4672TIP3   OH213979   0.999   2.518   2.831
 4672TIP3    H113980   1.030   2.608   2.822
 4672TIP3    H213981   0.956   2.516   2.916
 4673TIP3   OH213982   6.385   0.812   4.365
 4673TIP3    H113983   6.314   0.859   4.322
 4673TIP3    H213984   6.422   0.757   4.295
 4674TIP3   OH213985   2.289   3.470   3.663
 4674TIP3    H113986   2.228   3.408   3.702
 4674TIP3    H213987   2.254   3.487   3.576
 4675TIP3   OH213988   3.759   4.475   1.905
 4675TIP3    H113989   3.712   4.457   1.986
 4675TIP3    H213990   3.696   4.458   1.836
 4676TIP3   OH213991   5.137   5.915   5.501
 4676TIP3    H113992   5.059   5.928   5.446
 4676TIP3    H213993   5.104   5.870   5.579
 4677TIP3   OH213994   5.299   0.924   4.080
 4677TIP3    H113995   5.207   0.916   4.102
 4677TIP3    H213996   5.300   0.967   3.994
 4678TIP3   OH213997   0.289   4.461   5.162
 4678TIP3    H113998   0.224   4.408   5.116
 4678TIP3    H213999   0.306   4.413   5.243
 4679TIP3   OH214000   3.081   0.604   0.029
 4679TIP3    H114001   3.102   0.591  -0.064
 4679TIP3    H214002   3.100   0.696   0.045
 4680TIP3   OH214003   6.967   6.492   4.564
 4680TIP3    H114004   7.039   6.439   4.598
 4680TIP3    H214005   6.937   6.542   4.640
 4681TIP3   OH214006   2.485   4.872   5.417
 4681TIP3    H114007   2.489   4.822   5.335
 4681TIP3    H214008   2.441   4.814   5.479
 4682TIP3   OH214009   1.553   3.719   4.820
 4682TIP3    H114010   1.509   3.662   4.882
 4682TIP3    H214011   1.483   3.768   4.778
 4683TIP3   OH214012   5.924   0.789   1.323
 4683TIP3    H114013   5.970   0.705   1.327
 4683TIP3    H214014   5.965   0.842   1.392
 4684TIP3   OH214015   0.123   1.498   4.759
 4684TIP3    H114016   0.177   1.420   4.753
 4684TIP3    H214017   0.047   1.480   4.704
 4685TIP3   OH214018   3.800   1.452   0.889
 4685TIP3    H114019   3.757   1.433   0.805
 4685TIP3    H214020   3.864   1.381   0.900
 4686TIP3   OH214021   4.446   4.112   2.945
 4686TIP3    H114022   4.476   4.146   2.861
 4686TIP3    H214023   4.351   4.108   2.936
 4687TIP3   OH214024   5.772   3.488   4.552
 4687TIP3    H114025   5.767   3.460   4.460
 4687TIP3    H214026   5.827   3.567   4.549
 4688TIP3   OH214027   0.713   1.296   2.488
 4688TIP3    H114028   0.757   1.216   2.516
 4688TIP3    H214029   0.653   1.317   2.560
 4689TIP3   OH214030   0.111   5.810   0.944
 4689TIP3    H114031   0.104   5.745   0.875
 4689TIP3    H214032   0.189   5.784   0.993
 4690TIP3   OH214033   6.123   3.583   0.355
 4690TIP3    H114034   6.215   3.559   0.367
 4690TIP3    H214035   6.080   3.553   0.435
 4691TIP3   OH214036   2.089   0.199   4.540
 4691TIP3    H114037   2.102   0.210   4.446
 4691TIP3    H214038   2.153   0.259   4.580
 4692TIP3   OH214039   2.308   4.468   5.414
 4692TIP3    H114040   2.218   4.441   5.433
 4692TIP3    H214041   2.308   4.487   5.320
 4693TIP3   OH214042   5.710   6.438   0.495
 4693TIP3    H114043   5.630   6.386   0.491
 4693TIP3    H214044   5.734   6.438   0.588
 4694TIP3   OH214045   3.288   4.266   1.513
 4694TIP3    H114046   3.210   4.211   1.502
 4694TIP3    H214047   3.269   4.319   1.590
 4695TIP3   OH214048   3.614   5.368   4.289
 4695TIP3    H114049   3.582   5.394   4.375
 4695TIP3    H214050   3.652   5.448   4.252
 4696TIP3   OH214051   1.856   2.623   1.961
 4696TIP3    H114052   1.860   2.621   2.056
 4696TIP3    H214053   1.921   2.689   1.936
 4697TIP3   OH214054   3.646   3.577   4.400
 4697TIP3    H114055   3.636   3.572   4.495
 4697TIP3    H214056   3.589   3.650   4.374
 4698TIP3   OH214057   6.528   5.595   5.287
 4698TIP3    H114058   6.475   5.598   5.208
 4698TIP3    H214059   6.469   5.621   5.357
 4699TIP3   OH214060   2.356   3.386   0.051
 4699TIP3    H114061   2.447   3.362   0.031
 4699TIP3    H214062   2.360   3.480   0.068
 4700TIP3   OH214063   1.772   4.640   0.100
 4700TIP3    H114064   1.774   4.567   0.162
 4700TIP3    H214065   1.836   4.616   0.032
 4701TIP3   OH214066   0.812   4.485   5.175
 4701TIP3    H114067   0.848   4.436   5.101
 4701TIP3    H214068   0.717   4.480   5.163
 4702TIP3   OH214069   5.623   4.140   4.613
 4702TIP3    H114070   5.635   4.205   4.543
 4702TIP3    H214071   5.688   4.072   4.594
 4703TIP3   OH214072   1.591   0.824   1.727
 4703TIP3    H114073   1.685   0.812   1.743
 4703TIP3    H214074   1.555   0.735   1.731
 4704TIP3   OH214075   3.958   5.707   1.808
 4704TIP3    H114076   3.976   5.733   1.899
 4704TIP3    H214077   4.007   5.770   1.755
 4705TIP3   OH214078   6.470   6.764   4.448
 4705TIP3    H114079   6.460   6.795   4.358
 4705TIP3    H214080   6.564   6.747   4.457
 4706TIP3   OH214081   0.136   4.410   0.573
 4706TIP3    H114082   0.166   4.478   0.633
 4706TIP3    H214083   0.176   4.329   0.606
 4707TIP3   OH214084   3.940   0.041   0.238
 4707TIP3    H114085   3.935   0.136   0.242
 4707TIP3    H214086   4.010   0.018   0.299
 4708TIP3   OH214087   0.617   3.814   4.758
 4708TIP3    H114088   0.576   3.733   4.791
 4708TIP3    H214089   0.614   3.804   4.663
 4709TIP3   OH214090   0.776   2.264   5.182
 4709TIP3    H114091   0.704   2.225   5.232
 4709TIP3    H214092   0.826   2.189   5.150
 4710TIP3   OH214093   5.820   0.182   4.334
 4710TIP3    H114094   5.746   0.229   4.374
 4710TIP3    H214095   5.863   0.248   4.280
 4711TIP3   OH214096   1.858   6.037   5.694
 4711TIP3    H114097   1.884   5.981   5.767
 4711TIP3    H214098   1.782   5.992   5.656
 4712TIP3   OH214099   3.599   2.004   2.716
 4712TIP3    H114100   3.663   2.020   2.785
 4712TIP3    H214101   3.540   2.079   2.720
 4713TIP3   OH214102   2.278   6.336   1.828
 4713TIP3    H114103   2.273   6.287   1.746
 4713TIP3    H214104   2.187   6.355   1.850
 4714TIP3   OH214105   4.937   3.894   4.327
 4714TIP3    H114106   4.880   3.894   4.404
 4714TIP3    H214107   4.923   3.979   4.287
 4715TIP3   OH214108   5.320   6.129   3.138
 4715TIP3    H114109   5.261   6.056   3.159
 4715TIP3    H214110   5.346   6.112   3.047
 4716TIP3   OH214111   1.130   4.728   0.164
 4716TIP3    H114112   1.124   4.634   0.147
 4716TIP3    H214113   1.181   4.734   0.246
 4717TIP3   OH214114   2.153   4.564   4.011
 4717TIP3    H114115   2.098   4.530   3.940
 4717TIP3    H214116   2.098   4.558   4.088
 4718TIP3   OH214117   6.530   6.369   0.071
 4718TIP3    H114118   6.610   6.316   0.077
 4718TIP3    H214119   6.552   6.450   0.117
 4719TIP3   OH214120   3.163   5.858   4.008
 4719TIP3    H114121   3.244   5.825   3.970
 4719TIP3    H214122   3.124   5.912   3.939
 4720TIP3   OH214123   1.622   0.855   0.932
 4720TIP3    H114124   1.694   0.812   0.978
 4720TIP3    H214125   1.643   0.948   0.937
 4721TIP3   OH214126   3.753   5.710   4.560
 4721TIP3    H114127   3.706   5.656   4.496
 4721TIP3    H214128   3.846   5.692   4.542
 4722TIP3   OH214129   0.706   5.758   0.806
 4722TIP3    H114130   0.626   5.812   0.800
 4722TIP3    H214131   0.678   5.680   0.853
 4723TIP3   OH214132   0.287   4.824   1.121
 4723TIP3    H114133   0.334   4.908   1.126
 4723TIP3    H214134   0.306   4.781   1.204
 4724TIP3   OH214135   5.214   3.657   5.205
 4724TIP3    H114136   5.254   3.650   5.119
 4724TIP3    H214137   5.134   3.709   5.190
 4725TIP3   OH214138   2.793   4.343   2.122
 4725TIP3    H114139   2.720   4.309   2.173
 4725TIP3    H214140   2.761   4.427   2.088
 4726TIP3   OH214141   1.234   5.529   1.536
 4726TIP3    H114142   1.303   5.570   1.485
 4726TIP3    H214143   1.168   5.503   1.472
 4727TIP3   OH214144   3.041   5.931   1.667
 4727TIP3    H114145   3.011   5.897   1.751
 4727TIP3    H214146   3.130   5.896   1.658
 4728TIP3   OH214147   5.675   5.004   2.695
 4728TIP3    H114148   5.590   4.982   2.658
 4728TIP3    H214149   5.721   4.920   2.702
 4729TIP3   OH214150   3.515   1.517   1.942
 4729TIP3    H114151   3.510   1.456   2.015
 4729TIP3    H214152   3.473   1.597   1.975
 4730TIP3   OH214153   0.965   4.562   1.902
 4730TIP3    H114154   0.929   4.484   1.945
 4730TIP3    H214155   0.981   4.623   1.974
 4731TIP3   OH214156   7.022   1.602   1.324
 4731TIP3    H114157   7.007   1.515   1.359
 4731TIP3    H214158   7.106   1.629   1.361
 4732TIP3   OH214159   4.967   6.466   0.147
 4732TIP3    H114160   5.030   6.499   0.211
 4732TIP3    H214161   4.897   6.532   0.145
 4733TIP3   OH214162   5.987   6.181   4.140
 4733TIP3    H114163   6.001   6.213   4.229
 4733TIP3    H214164   5.936   6.101   4.151
 4734TIP3   OH214165   0.871   2.113   1.035
 4734TIP3    H114166   0.931   2.053   1.079
 4734TIP3    H214167   0.870   2.084   0.944
 4735TIP3   OH214168   6.972   3.594   0.392
 4735TIP3    H114169   6.941   3.646   0.318
 4735TIP3    H214170   7.056   3.559   0.363
 4736TIP3   OH214171   3.504   4.418   0.185
 4736TIP3    H114172   3.437   4.472   0.227
 4736TIP3    H214173   3.569   4.482   0.154
 4737TIP3   OH214174   0.915   3.035   5.351
 4737TIP3    H114175   1.000   3.030   5.305
 4737TIP3    H214176   0.858   3.082   5.290
 4738TIP3   OH214177   0.009   5.503   1.785
 4738TIP3    H114178   0.070   5.469   1.851
 4738TIP3    H214179  -0.039   5.426   1.756
 4739TIP3   OH214180   6.429   5.439   1.664
 4739TIP3    H114181   6.477   5.515   1.632
 4739TIP3    H214182   6.487   5.399   1.729
 4740TIP3   OH214183   0.611   5.260   2.389
 4740TIP3    H114184   0.655   5.181   2.420
 4740TIP3    H214185   0.662   5.332   2.427
 4741TIP3   OH214186   5.354   0.114   2.286
 4741TIP3    H114187   5.282   0.175   2.271
 4741TIP3    H214188   5.333   0.038   2.232
 4742TIP3   OH214189   1.156   0.492   0.309
 4742TIP3    H114190   1.154   0.507   0.214
 4742TIP3    H214191   1.218   0.421   0.321
 4743TIP3   OH214192   5.104   1.652   2.472
 4743TIP3    H114193   5.195   1.633   2.449
 4743TIP3    H214194   5.097   1.747   2.467
 4744TIP3   OH214195   2.768   5.320   2.412
 4744TIP3    H114196   2.837   5.350   2.471
 4744TIP3    H214197   2.699   5.386   2.422
 4745TIP3   OH214198   4.418   4.443   2.559
 4745TIP3    H114199   4.435   4.493   2.639
 4745TIP3    H214200   4.352   4.493   2.512
 4746TIP3   OH214201   5.492   3.091   3.587
 4746TIP3    H114202   5.474   3.051   3.672
 4746TIP3    H214203   5.415   3.144   3.568
 4747TIP3   OH214204   6.135   1.304   4.018
 4747TIP3    H114205   6.123   1.389   3.976
 4747TIP3    H214206   6.223   1.276   3.992
 4748TIP3   OH214207   2.069   0.985   3.139
 4748TIP3    H114208   2.105   1.026   3.218
 4748TIP3    H214209   2.065   0.892   3.160
 4749TIP3   OH214210   6.788   3.586   1.344
 4749TIP3    H114211   6.794   3.493   1.324
 4749TIP3    H214212   6.709   3.595   1.396
 4750TIP3   OH214213   4.427   6.656   3.834
 4750TIP3    H114214   4.497   6.670   3.771
 4750TIP3    H214215   4.472   6.641   3.917
 4751TIP3   OH214216   5.395   0.941   5.094
 4751TIP3    H114217   5.348   0.955   5.176
 4751TIP3    H214218   5.457   1.013   5.089
 4752TIP3   OH214219   5.953   4.562   1.470
 4752TIP3    H114220   5.901   4.486   1.442
 4752TIP3    H214221   6.019   4.573   1.402
 4753TIP3   OH214222   6.975   1.806   0.030
 4753TIP3    H114223   6.914   1.783   0.100
 4753TIP3    H214224   6.926   1.789  -0.051
 4754TIP3   OH214225   2.624   1.816   4.980
 4754TIP3    H114226   2.691   1.878   5.008
 4754TIP3    H214227   2.541   1.860   5.001
 4755TIP3   OH214228   1.319   4.476   1.397
 4755TIP3    H114229   1.313   4.543   1.329
 4755TIP3    H214230   1.401   4.430   1.378
 4756TIP3   OH214231   2.068   5.297   3.851
 4756TIP3    H114232   2.131   5.363   3.823
 4756TIP3    H214233   2.021   5.274   3.771
 4757TIP3   OH214234   1.977   0.635   2.004
 4757TIP3    H114235   1.912   0.660   1.938
 4757TIP3    H214236   1.982   0.540   1.999
 4758TIP3   OH214237   0.675   2.249   1.235
 4758TIP3    H114238   0.752   2.192   1.238
 4758TIP3    H214239   0.671   2.280   1.145
 4759TIP3   OH214240   3.411   1.679   2.146
 4759TIP3    H114241   3.418   1.635   2.230
 4759TIP3    H214242   3.455   1.763   2.158
 4760TIP3   OH214243   4.516   5.066   1.136
 4760TIP3    H114244   4.550   5.116   1.061
 4760TIP3    H214245   4.588   5.007   1.160
 4761TIP3   OH214246   5.910   2.505   4.949
 4761TIP3    H114247   5.905   2.595   4.919
 4761TIP3    H214248   5.944   2.456   4.874
 4762TIP3   OH214249   6.143   3.021   2.136
 4762TIP3    H114250   6.124   2.972   2.216
 4762TIP3    H214251   6.237   3.037   2.139
 4763TIP3   OH214252   4.736   5.319   0.224
 4763TIP3    H114253   4.703   5.361   0.144
 4763TIP3    H214254   4.783   5.241   0.192
 4764TIP3   OH214255   6.202   6.021   1.938
 4764TIP3    H114256   6.144   6.094   1.959
 4764TIP3    H214257   6.289   6.060   1.931
 4765TIP3   OH214258   5.751   2.121   4.499
 4765TIP3    H114259   5.821   2.187   4.499
 4765TIP3    H214260   5.683   2.159   4.444
 4766TIP3   OH214261   4.711   3.759   0.838
 4766TIP3    H114262   4.726   3.710   0.919
 4766TIP3    H214263   4.620   3.743   0.817
 4767TIP3   OH214264   4.534   4.777   5.670
 4767TIP3    H114265   4.578   4.807   5.750
 4767TIP3    H214266   4.498   4.856   5.632
 4768TIP3   OH214267   6.239   0.009   1.563
 4768TIP3    H114268   6.331  -0.012   1.550
 4768TIP3    H214269   6.237   0.060   1.644
 4769TIP3   OH214270   3.716   0.517   4.521
 4769TIP3    H114271   3.724   0.590   4.459
 4769TIP3    H214272   3.645   0.463   4.486
 4770TIP3   OH214273   0.362   5.536   0.641
 4770TIP3    H114274   0.427   5.543   0.571
 4770TIP3    H214275   0.320   5.452   0.626
 4771TIP3   OH214276   6.032   2.046   4.542
 4771TIP3    H114277   6.022   2.034   4.447
 4771TIP3    H214278   6.096   2.116   4.550
 4772TIP3   OH214279   3.092   6.210   5.050
 4772TIP3    H114280   3.180   6.246   5.039
 4772TIP3    H214281   3.052   6.266   5.117
 4773TIP3   OH214282   3.796   1.274   1.101
 4773TIP3    H114283   3.750   1.266   1.185
 4773TIP3    H214284   3.787   1.366   1.078
 4774TIP3   OH214285   6.183   5.228   1.353
 4774TIP3    H114286   6.252   5.286   1.321
 4774TIP3    H214287   6.104   5.282   1.351
 4775TIP3   OH214288   3.263   4.230   5.698
 4775TIP3    H114289   3.228   4.315   5.670
 4775TIP3    H214290   3.205   4.202   5.769
 4776TIP3   OH214291   5.232   2.365   1.709
 4776TIP3    H114292   5.299   2.433   1.719
 4776TIP3    H214293   5.266   2.291   1.760
 4777TIP3   OH214294   2.599   2.876   1.644
 4777TIP3    H114295   2.608   2.783   1.664
 4777TIP3    H214296   2.519   2.882   1.592
 4778TIP3   OH214297   5.068   1.444   1.399
 4778TIP3    H114298   5.079   1.410   1.310
 4778TIP3    H214299   5.142   1.503   1.412
 4779TIP3   OH214300   3.889   6.658   4.434
 4779TIP3    H114301   3.857   6.602   4.505
 4779TIP3    H214302   3.872   6.747   4.464
 4780TIP3   OH214303   4.477   6.127   4.001
 4780TIP3    H114304   4.567   6.107   4.028
 4780TIP3    H214305   4.483   6.149   3.908
 4781TIP3   OH214306   6.545   0.694   0.774
 4781TIP3    H114307   6.451   0.708   0.780
 4781TIP3    H214308   6.569   0.655   0.859
 4782TIP3   OH214309   6.993   5.480   2.315
 4782TIP3    H114310   7.040   5.448   2.393
 4782TIP3    H214311   7.015   5.418   2.246
 4783TIP3   OH214312   3.914   3.329   1.717
 4783TIP3    H114313   3.974   3.274   1.766
 4783TIP3    H214314   3.896   3.280   1.637
 4784TIP3   OH214315   0.535   5.364   1.189
 4784TIP3    H114316   0.496   5.447   1.161
 4784TIP3    H214317   0.566   5.324   1.108
 4785TIP3   OH214318   5.199   0.962   2.441
 4785TIP3    H114319   5.288   0.984   2.469
 4785TIP3    H214320   5.210   0.886   2.384
 4786TIP3   OH214321   2.579   4.052   5.729
 4786TIP3    H114322   2.588   4.113   5.802
 4786TIP3    H214323   2.519   4.096   5.669
 4787TIP3   OH214324   4.703   4.290   0.831
 4787TIP3    H114325   4.726   4.226   0.763
 4787TIP3    H214326   4.679   4.369   0.782
 4788TIP3   OH214327   1.114   4.459   0.220
 4788TIP3    H114328   1.173   4.407   0.166
 4788TIP3    H214329   1.118   4.417   0.306
 4789TIP3   OH214330   1.395   6.812   3.680
 4789TIP3    H114331   1.487   6.788   3.676
 4789TIP3    H214332   1.354   6.763   3.609
 4790TIP3   OH214333   4.707   3.107   4.646
 4790TIP3    H114334   4.698   3.050   4.569
 4790TIP3    H214335   4.627   3.160   4.647
 4791TIP3   OH214336   5.689   1.673   3.716
 4791TIP3    H114337   5.770   1.634   3.748
 4791TIP3    H214338   5.685   1.650   3.623
 4792TIP3   OH214339   3.652   2.518   1.871
 4792TIP3    H114340   3.606   2.595   1.837
 4792TIP3    H214341   3.739   2.523   1.831
 4793TIP3   OH214342   4.719   2.048   0.944
 4793TIP3    H114343   4.795   2.103   0.961
 4793TIP3    H214344   4.734   2.013   0.856
 4794TIP3   OH214345   1.245   5.305   4.604
 4794TIP3    H114346   1.270   5.240   4.670
 4794TIP3    H214347   1.250   5.388   4.650
 4795TIP3   OH214348   0.349   0.661   0.456
 4795TIP3    H114349   0.259   0.635   0.477
 4795TIP3    H214350   0.403   0.613   0.518
 4796TIP3   OH214351   6.170   0.238   1.412
 4796TIP3    H114352   6.226   0.170   1.450
 4796TIP3    H214353   6.093   0.190   1.382
 4797TIP3   OH214354   4.096   0.843   3.167
 4797TIP3    H114355   4.104   0.883   3.081
 4797TIP3    H214356   4.019   0.787   3.161
 4798TIP3   OH214357   0.333   2.619   0.445
 4798TIP3    H114358   0.426   2.600   0.463
 4798TIP3    H214359   0.297   2.645   0.530
 4799TIP3   OH214360   5.475   0.940   2.496
 4799TIP3    H114361   5.558   0.930   2.450
 4799TIP3    H214362   5.480   0.877   2.568
 4800TIP3   OH214363   1.720   3.708   0.921
 4800TIP3    H114364   1.671   3.742   0.846
 4800TIP3    H214365   1.656   3.706   0.993
 4801TIP3   OH214366   2.590   4.569   3.045
 4801TIP3    H114367   2.552   4.494   2.999
 4801TIP3    H214368   2.597   4.637   2.978
 4802TIP3   OH214369   4.601   1.925   4.778
 4802TIP3    H114370   4.693   1.917   4.805
 4802TIP3    H214371   4.576   2.013   4.806
 4803TIP3   OH214372   6.836   5.329   2.698
 4803TIP3    H114373   6.920   5.357   2.661
 4803TIP3    H214374   6.794   5.411   2.726
 4804TIP3   OH214375   6.803   0.696   3.785
 4804TIP3    H114376   6.785   0.790   3.779
 4804TIP3    H214377   6.725   0.659   3.827
 4805TIP3   OH214378   4.065   6.087   5.351
 4805TIP3    H114379   4.149   6.046   5.332
 4805TIP3    H214380   4.046   6.139   5.273
 4806TIP3   OH214381   5.792   5.449   2.583
 4806TIP3    H114382   5.748   5.472   2.501
 4806TIP3    H214383   5.830   5.362   2.567
 4807TIP3   OH214384   4.870   2.892   3.641
 4807TIP3    H114385   4.881   2.900   3.546
 4807TIP3    H214386   4.883   2.981   3.673
 4808TIP3   OH214387   6.156   2.383   5.771
 4808TIP3    H114388   6.077   2.330   5.764
 4808TIP3    H214389   6.202   2.369   5.688
 4809TIP3   OH214390   3.964   1.900   1.000
 4809TIP3    H114391   3.954   1.921   0.907
 4809TIP3    H214392   3.953   1.805   1.005
 4810TIP3   OH214393   5.871   0.741   5.615
 4810TIP3    H114394   5.935   0.693   5.561
 4810TIP3    H214395   5.871   0.830   5.578
 4811TIP3   OH214396   3.972   1.481   0.454
 4811TIP3    H114397   3.886   1.444   0.471
 4811TIP3    H214398   3.967   1.514   0.364
 4812TIP3   OH214399   1.816   0.825   4.256
 4812TIP3    H114400   1.845   0.747   4.302
 4812TIP3    H214401   1.755   0.867   4.316
 4813TIP3   OH214402   4.603   4.397   1.878
 4813TIP3    H114403   4.574   4.306   1.883
 4813TIP3    H214404   4.526   4.449   1.899
 4814TIP3   OH214405   6.089   6.537   3.503
 4814TIP3    H114406   6.121   6.609   3.448
 4814TIP3    H214407   6.037   6.580   3.571
 4815TIP3   OH214408   3.770   6.442   4.031
 4815TIP3    H114409   3.729   6.480   3.954
 4815TIP3    H214410   3.799   6.355   4.003
 4816TIP3   OH214411   5.545   0.681   0.743
 4816TIP3    H114412   5.461   0.727   0.742
 4816TIP3    H214413   5.610   0.750   0.733
 4817TIP3   OH214414   5.160   3.302   3.784
 4817TIP3    H114415   5.100   3.376   3.797
 4817TIP3    H214416   5.247   3.340   3.796
 4818TIP3   OH214417   3.442   0.117   2.870
 4818TIP3    H114418   3.419   0.030   2.904
 4818TIP3    H214419   3.529   0.133   2.906
 4819TIP3   OH214420   0.641   6.673   4.496
 4819TIP3    H114421   0.576   6.725   4.543
 4819TIP3    H214422   0.592   6.636   4.422
 4820TIP3   OH214423   6.221   2.072   2.860
 4820TIP3    H114424   6.256   2.161   2.850
 4820TIP3    H214425   6.133   2.077   2.822
 4821TIP3   OH214426   2.141   3.015   2.774
 4821TIP3    H114427   2.178   3.100   2.799
 4821TIP3    H214428   2.053   3.036   2.742
 4822TIP3   OH214429   0.790   5.043   2.365
 4822TIP3    H114430   0.792   4.952   2.396
 4822TIP3    H214431   0.880   5.074   2.373
 4823TIP3   OH214432   4.585   5.476   5.310
 4823TIP3    H114433   4.565   5.488   5.217
 4823TIP3    H214434   4.564   5.385   5.327
 4824TIP3   OH214435   0.339   0.851   2.155
 4824TIP3    H114436   0.417   0.853   2.211
 4824TIP3    H214437   0.356   0.917   2.088
 4825TIP3   OH214438   3.993   0.453   1.329
 4825TIP3    H114439   3.929   0.482   1.395
 4825TIP3    H214440   3.950   0.470   1.245
 4826TIP3   OH214441   2.159   3.282   2.891
 4826TIP3    H114442   2.126   3.275   2.980
 4826TIP3    H214443   2.131   3.369   2.861
 4827TIP3   OH214444   1.079   5.133   0.376
 4827TIP3    H114445   1.172   5.136   0.401
 4827TIP3    H214446   1.046   5.054   0.417
 4828TIP3   OH214447   4.517   5.451   2.800
 4828TIP3    H114448   4.570   5.380   2.764
 4828TIP3    H214449   4.579   5.523   2.812
 4829TIP3   OH214450   6.100   2.950   4.261
 4829TIP3    H114451   6.160   2.970   4.333
 4829TIP3    H214452   6.095   3.032   4.211
 4830TIP3   OH214453   2.575   1.004   4.556
 4830TIP3    H114454   2.544   0.923   4.514
 4830TIP3    H214455   2.658   1.023   4.514
 4831TIP3   OH214456   6.792   4.644   2.328
 4831TIP3    H114457   6.882   4.657   2.300
 4831TIP3    H214458   6.759   4.574   2.271
 4832TIP3   OH214459   7.023   0.892   0.963
 4832TIP3    H114460   7.034   0.802   0.996
 4832TIP3    H214461   6.939   0.920   0.999
 4833TIP3   OH214462   3.083   2.486   4.804
 4833TIP3    H114463   3.095   2.478   4.710
 4833TIP3    H214464   3.139   2.418   4.841
 4834TIP3   OH214465   6.860   1.295   5.214
 4834TIP3    H114466   6.924   1.332   5.274
 4834TIP3    H214467   6.909   1.280   5.133
 4835TIP3   OH214468   2.898   4.541   4.295
 4835TIP3    H114469   2.855   4.618   4.333
 4835TIP3    H214470   2.836   4.470   4.309
 4836TIP3   OH214471   0.126   2.997   4.995
 4836TIP3    H114472   0.050   2.962   5.041
 4836TIP3    H214473   0.199   2.941   5.024
 4837TIP3   OH214474   1.935   5.316   4.850
 4837TIP3    H114475   2.030   5.315   4.858
 4837TIP3    H214476   1.915   5.242   4.792
 4838TIP3   OH214477   0.540   6.515   4.031
 4838TIP3    H114478   0.632   6.540   4.042
 4838TIP3    H214479   0.536   6.477   3.943
 4839TIP3   OH214480   6.512   3.666   4.190
 4839TIP3    H114481   6.429   3.620   4.182
 4839TIP3    H214482   6.489   3.758   4.201
 4840TIP3   OH214483   2.211   1.061   5.015
 4840TIP3    H114484   2.218   1.143   4.966
 4840TIP3    H214485   2.293   1.055   5.064
 4841TIP3   OH214486   5.117   0.498   0.082
 4841TIP3    H114487   5.206   0.524   0.105
 4841TIP3    H214488   5.128   0.418   0.031
 4842TIP3   OH214489   6.145   4.970   4.278
 4842TIP3    H114490   6.145   4.937   4.368
 4842TIP3    H214491   6.228   5.017   4.269
 4843TIP3   OH214492   1.034   3.448   5.547
 4843TIP3    H114493   0.943   3.423   5.529
 4843TIP3    H214494   1.085   3.396   5.485
 4844TIP3   OH214495   1.416   3.287   3.059
 4844TIP3    H114496   1.364   3.320   2.985
 4844TIP3    H214497   1.375   3.325   3.136
 4845TIP3   OH214498   1.246   1.954   2.437
 4845TIP3    H114499   1.258   1.998   2.353
 4845TIP3    H214500   1.272   2.018   2.503
 4846TIP3   OH214501   4.265   2.207   1.175
 4846TIP3    H114502   4.243   2.145   1.245
 4846TIP3    H214503   4.359   2.194   1.160
 4847TIP3   OH214504   4.415   1.406   3.166
 4847TIP3    H114505   4.331   1.360   3.160
 4847TIP3    H214506   4.456   1.371   3.245
 4848TIP3   OH214507   3.166   4.395   2.036
 4848TIP3    H114508   3.123   4.382   2.121
 4848TIP3    H214509   3.257   4.371   2.052
 4849TIP3   OH214510   2.131   2.498   5.375
 4849TIP3    H114511   2.066   2.429   5.368
 4849TIP3    H214512   2.149   2.525   5.285
 4850TIP3   OH214513   0.783   1.301   4.277
 4850TIP3    H114514   0.798   1.377   4.333
 4850TIP3    H214515   0.712   1.253   4.320
 4851TIP3   OH214516   6.305   0.467   2.829
 4851TIP3    H114517   6.223   0.420   2.814
 4851TIP3    H214518   6.337   0.432   2.912
 4852TIP3   OH214519   0.924   4.029   1.688
 4852TIP3    H114520   0.878   4.109   1.716
 4852TIP3    H214521   0.991   4.060   1.627
 4853TIP3   OH214522   6.489   0.635   2.442
 4853TIP3    H114523   6.413   0.675   2.401
 4853TIP3    H214524   6.482   0.658   2.534
 4854TIP3   OH214525   0.179   4.359   4.673
 4854TIP3    H114526   0.192   4.274   4.716
 4854TIP3    H214527   0.267   4.392   4.659
 4855TIP3   OH214528   5.574   6.671   1.604
 4855TIP3    H114529   5.622   6.664   1.686
 4855TIP3    H214530   5.482   6.679   1.631
 4856TIP3   OH214531   3.373   5.058   2.413
 4856TIP3    H114532   3.460   5.096   2.409
 4856TIP3    H214533   3.354   5.031   2.323
 4857TIP3   OH214534   2.349   3.374   2.191
 4857TIP3    H114535   2.417   3.326   2.144
 4857TIP3    H214536   2.392   3.403   2.272
 4858TIP3   OH214537   4.904   6.007   0.908
 4858TIP3    H114538   4.962   5.953   0.962
 4858TIP3    H214539   4.859   6.063   0.970
 4859TIP3   OH214540   5.737   3.367   5.736
 4859TIP3    H114541   5.732   3.447   5.684
 4859TIP3    H214542   5.795   3.309   5.686
 4860TIP3   OH214543   2.630   2.540   1.939
 4860TIP3    H114544   2.583   2.546   1.856
 4860TIP3    H214545   2.677   2.623   1.945
 4861TIP3   OH214546   4.666   3.318   3.554
 4861TIP3    H114547   4.724   3.393   3.567
 4861TIP3    H214548   4.579   3.350   3.574
 4862TIP3   OH214549   4.762   0.228   3.445
 4862TIP3    H114550   4.753   0.146   3.493
 4862TIP3    H214551   4.747   0.296   3.510
 4863TIP3   OH214552   1.059   2.012   1.715
 4863TIP3    H114553   1.136   2.011   1.658
 4863TIP3    H214554   1.094   2.018   1.804
 4864TIP3   OH214555   6.545   3.814   4.538
 4864TIP3    H114556   6.532   3.904   4.569
 4864TIP3    H214557   6.640   3.804   4.533
 4865TIP3   OH214558   5.309   3.024   0.470
 4865TIP3    H114559   5.249   3.013   0.397
 4865TIP3    H214560   5.396   3.026   0.430
 4866TIP3   OH214561   0.913   3.184   3.527
 4866TIP3    H114562   1.007   3.165   3.518
 4866TIP3    H214563   0.911   3.277   3.551
 4867TIP3   OH214564   1.798   3.553   2.712
 4867TIP3    H114565   1.834   3.529   2.626
 4867TIP3    H214566   1.720   3.604   2.693
 4868TIP3   OH214567   3.261   4.630   3.828
 4868TIP3    H114568   3.214   4.567   3.882
 4868TIP3    H214569   3.199   4.654   3.759
 4869TIP3   OH214570   2.664   4.546   2.651
 4869TIP3    H114571   2.682   4.467   2.701
 4869TIP3    H214572   2.648   4.614   2.717
 4870TIP3   OH214573   0.871   4.830   0.109
 4870TIP3    H114574   0.944   4.770   0.121
 4870TIP3    H214575   0.868   4.881   0.191
 4871TIP3   OH214576   2.168   0.790   5.007
 4871TIP3    H114577   2.174   0.777   4.913
 4871TIP3    H214578   2.148   0.883   5.018
 4872TIP3   OH214579   1.664   1.458   4.469
 4872TIP3    H114580   1.710   1.442   4.386
 4872TIP3    H214581   1.649   1.371   4.505
 4873TIP3   OH214582   5.239   3.492   4.459
 4873TIP3    H114583   5.252   3.583   4.489
 4873TIP3    H214584   5.306   3.442   4.505
 4874TIP3   OH214585   4.490   6.311   2.760
 4874TIP3    H114586   4.397   6.317   2.738
 4874TIP3    H214587   4.511   6.218   2.748
 4875TIP3   OH214588   4.970   3.546   0.850
 4875TIP3    H114589   4.897   3.488   0.831
 4875TIP3    H214590   4.996   3.580   0.764
 4876TIP3   OH214591   3.804   2.535   1.367
 4876TIP3    H114592   3.740   2.474   1.331
 4876TIP3    H214593   3.751   2.608   1.401
 4877TIP3   OH214594   2.262   5.438   3.715
 4877TIP3    H114595   2.272   5.361   3.660
 4877TIP3    H214596   2.352   5.469   3.729
 4878TIP3   OH214597   1.087   2.576   2.428
 4878TIP3    H114598   1.121   2.499   2.474
 4878TIP3    H214599   1.005   2.545   2.389
 4879TIP3   OH214600   0.104   4.424   2.907
 4879TIP3    H114601   0.044   4.498   2.909
 4879TIP3    H214602   0.170   4.447   2.843
 4880TIP3   OH214603   1.321   3.821   5.781
 4880TIP3    H114604   1.266   3.747   5.756
 4880TIP3    H214605   1.396   3.817   5.721
 4881TIP3   OH214606   4.343   0.921   4.038
 4881TIP3    H114607   4.379   0.969   3.963
 4881TIP3    H214608   4.391   0.838   4.039
 4882TIP3   OH214609   0.052   6.472   1.510
 4882TIP3    H114610   0.061   6.559   1.549
 4882TIP3    H214611   0.108   6.415   1.564
 4883TIP3   OH214612   0.393   6.416   0.674
 4883TIP3    H114613   0.381   6.511   0.667
 4883TIP3    H214614   0.309   6.383   0.705
 4884TIP3   OH214615   2.627   1.536   4.927
 4884TIP3    H114616   2.633   1.631   4.939
 4884TIP3    H214617   2.557   1.524   4.863
 4885TIP3   OH214618   6.506   5.458   0.544
 4885TIP3    H114619   6.533   5.534   0.597
 4885TIP3    H214620   6.426   5.487   0.501
 4886TIP3   OH214621   2.064   2.121   2.290
 4886TIP3    H114622   1.998   2.160   2.233
 4886TIP3    H214623   2.134   2.186   2.293
 4887TIP3   OH214624   3.358   2.707   3.131
 4887TIP3    H114625   3.452   2.696   3.144
 4887TIP3    H214626   3.328   2.623   3.094
 4888TIP3   OH214627   2.395   3.953   4.422
 4888TIP3    H114628   2.326   3.891   4.447
 4888TIP3    H214629   2.465   3.898   4.387
 4889TIP3   OH214630   2.083   5.253   5.457
 4889TIP3    H114631   2.023   5.325   5.479
 4889TIP3    H214632   2.150   5.294   5.403
 4890TIP3   OH214633   1.430   6.279   4.469
 4890TIP3    H114634   1.501   6.255   4.529
 4890TIP3    H214635   1.474   6.293   4.385
 4891TIP3   OH214636   4.063   3.273   5.634
 4891TIP3    H114637   4.006   3.291   5.560
 4891TIP3    H214638   4.068   3.178   5.639
 4892TIP3   OH214639   0.998   4.378   4.970
 4892TIP3    H114640   0.935   4.319   4.929
 4892TIP3    H214641   1.057   4.403   4.899
 4893TIP3   OH214642   2.832   5.482   5.884
 4893TIP3    H114643   2.745   5.449   5.902
 4893TIP3    H214644   2.819   5.550   5.817
 4894TIP3   OH214645   5.207   1.229   5.500
 4894TIP3    H114646   5.253   1.271   5.572
 4894TIP3    H214647   5.116   1.225   5.529
 4895TIP3   OH214648   4.920   6.065   1.354
 4895TIP3    H114649   4.917   6.068   1.258
 4895TIP3    H214650   5.012   6.077   1.376
 4896TIP3   OH214651   4.609   5.788   2.214
 4896TIP3    H114652   4.573   5.743   2.291
 4896TIP3    H214653   4.542   5.852   2.190
 4897TIP3   OH214654   5.349   1.707   0.267
 4897TIP3    H114655   5.299   1.741   0.193
 4897TIP3    H214656   5.334   1.770   0.337
 4898TIP3   OH214657   3.537   4.911   3.375
 4898TIP3    H114658   3.599   4.872   3.313
 4898TIP3    H214659   3.504   4.989   3.330
 4899TIP3   OH214660   2.237   6.150   0.383
 4899TIP3    H114661   2.198   6.222   0.433
 4899TIP3    H214662   2.330   6.172   0.379
 4900TIP3   OH214663   6.909   4.277   4.445
 4900TIP3    H114664   6.985   4.224   4.421
 4900TIP3    H214665   6.839   4.244   4.388
 4901TIP3   OH214666   4.507   2.442   3.594
 4901TIP3    H114667   4.520   2.376   3.525
 4901TIP3    H214668   4.495   2.524   3.547
 4902TIP3   OH214669   3.367   3.878   4.246
 4902TIP3    H114670   3.296   3.870   4.183
 4902TIP3    H214671   3.433   3.930   4.201
 4903TIP3   OH214672   2.575   2.124   5.487
 4903TIP3    H114673   2.589   2.082   5.572
 4903TIP3    H214674   2.663   2.149   5.459
 4904TIP3   OH214675   5.796   5.240   2.198
 4904TIP3    H114676   5.819   5.171   2.136
 4904TIP3    H214677   5.874   5.252   2.251
 4905TIP3   OH214678   5.878   5.329   0.463
 4905TIP3    H114679   5.833   5.354   0.543
 4905TIP3    H214680   5.811   5.286   0.410
 4906TIP3   OH214681   2.744   1.499   3.724
 4906TIP3    H114682   2.813   1.563   3.735
 4906TIP3    H214683   2.783   1.416   3.753
 4907TIP3   OH214684   0.588   1.941   3.027
 4907TIP3    H114685   0.496   1.962   3.044
 4907TIP3    H214686   0.625   1.925   3.114
 4908TIP3   OH214687   2.860   3.767   4.252
 4908TIP3    H114688   2.933   3.792   4.196
 4908TIP3    H214689   2.846   3.674   4.233
 4909TIP3   OH214690   3.912   4.673   3.600
 4909TIP3    H114691   3.978   4.665   3.669
 4909TIP3    H214692   3.834   4.706   3.645
 4910TIP3   OH214693   1.418   1.651   0.600
 4910TIP3    H114694   1.438   1.739   0.568
 4910TIP3    H214695   1.382   1.605   0.524
 4911TIP3   OH214696   4.965   1.591   2.024
 4911TIP3    H114697   4.973   1.616   2.116
 4911TIP3    H214698   4.888   1.534   2.022
 4912TIP3   OH214699   1.555   4.102   3.193
 4912TIP3    H114700   1.465   4.128   3.212
 4912TIP3    H214701   1.547   4.026   3.135
 4913TIP3   OH214702   1.994   5.389   5.731
 4913TIP3    H114703   1.966   5.297   5.726
 4913TIP3    H214704   2.012   5.404   5.824
 4914TIP3   OH214705   2.989   6.281   1.795
 4914TIP3    H114706   3.069   6.330   1.812
 4914TIP3    H214707   3.001   6.198   1.841
 4915TIP3   OH214708   0.911   1.906   4.627
 4915TIP3    H114709   0.862   1.985   4.605
 4915TIP3    H214710   0.963   1.930   4.703
 4916TIP3   OH214711   5.471   5.824   3.164
 4916TIP3    H114712   5.493   5.823   3.071
 4916TIP3    H214713   5.495   5.912   3.194
 4917TIP3   OH214714   4.294   5.728   1.405
 4917TIP3    H114715   4.348   5.652   1.382
 4917TIP3    H214716   4.355   5.801   1.407
 4918TIP3   OH214717   6.761   2.325   0.881
 4918TIP3    H114718   6.670   2.301   0.898
 4918TIP3    H214719   6.760   2.363   0.793
 4919TIP3   OH214720   1.914   4.602   5.041
 4919TIP3    H114721   1.985   4.655   5.005
 4919TIP3    H214722   1.956   4.548   5.108
 4920TIP3   OH214723   4.383   6.522   5.046
 4920TIP3    H114724   4.445   6.450   5.039
 4920TIP3    H214725   4.357   6.539   4.955
 4921TIP3   OH214726   3.793   0.206   4.645
 4921TIP3    H114727   3.701   0.179   4.642
 4921TIP3    H214728   3.794   0.282   4.702
 4922TIP3   OH214729   0.865   4.892   2.668
 4922TIP3    H114730   0.781   4.894   2.714
 4922TIP3    H214731   0.846   4.845   2.586
 4923TIP3   OH214732   6.718   1.127   0.248
 4923TIP3    H114733   6.677   1.070   0.183
 4923TIP3    H214734   6.650   1.143   0.313
 4924TIP3   OH214735   5.695   5.371   1.923
 4924TIP3    H114736   5.773   5.374   1.979
 4924TIP3    H214737   5.649   5.291   1.949
 4925TIP3   OH214738   4.856   1.730   0.157
 4925TIP3    H114739   4.896   1.653   0.118
 4925TIP3    H214740   4.926   1.772   0.206
 4926TIP3   OH214741   1.832   0.936   4.942
 4926TIP3    H114742   1.751   0.930   4.993
 4926TIP3    H214743   1.885   1.001   4.988
 4927TIP3   OH214744   4.509   5.029   3.608
 4927TIP3    H114745   4.536   5.106   3.659
 4927TIP3    H214746   4.590   4.980   3.594
 4928TIP3   OH214747   6.957   2.265   4.573
 4928TIP3    H114748   6.924   2.180   4.545
 4928TIP3    H214749   7.026   2.286   4.510
 4929TIP3   OH214750   0.400   0.567   5.613
 4929TIP3    H114751   0.492   0.581   5.636
 4929TIP3    H214752   0.395   0.591   5.521
 4930TIP3   OH214753   0.874   4.255   2.485
 4930TIP3    H114754   0.870   4.211   2.570
 4930TIP3    H214755   0.904   4.187   2.425
 4931TIP3   OH214756   3.268   5.272   2.553
 4931TIP3    H114757   3.311   5.194   2.518
 4931TIP3    H214758   3.227   5.313   2.477
 4932TIP3   OH214759   3.515   0.710   5.785
 4932TIP3    H114760   3.505   0.646   5.855
 4932TIP3    H214761   3.460   0.678   5.714
 4933TIP3   OH214762   4.819   5.728   0.178
 4933TIP3    H114763   4.737   5.724   0.128
 4933TIP3    H214764   4.794   5.767   0.261
 4934TIP3   OH214765   1.090   4.047   3.100
 4934TIP3    H114766   1.013   4.102   3.112
 4934TIP3    H214767   1.098   3.997   3.181
 4935TIP3   OH214768   6.599   3.209   1.869
 4935TIP3    H114769   6.559   3.284   1.913
 4935TIP3    H214770   6.615   3.240   1.780
 4936TIP3   OH214771   5.387   5.187   0.316
 4936TIP3    H114772   5.399   5.281   0.301
 4936TIP3    H214773   5.311   5.164   0.263
 4937TIP3   OH214774   3.868   2.131   1.835
 4937TIP3    H114775   3.908   2.218   1.836
 4937TIP3    H214776   3.942   2.070   1.838
 4938TIP3   OH214777   4.406   3.847   3.703
 4938TIP3    H114778   4.447   3.817   3.784
 4938TIP3    H214779   4.312   3.839   3.719
 4939TIP3   OH214780   5.595   2.856   4.126
 4939TIP3    H114781   5.678   2.902   4.120
 4939TIP3    H214782   5.529   2.923   4.109
 4940TIP3   OH214783   0.226   1.412   5.467
 4940TIP3    H114784   0.273   1.488   5.502
 4940TIP3    H214785   0.188   1.443   5.385
 4941TIP3   OH214786   0.097   5.768   0.626
 4941TIP3    H114787   0.164   5.834   0.611
 4941TIP3    H214788   0.143   5.685   0.615
 4942TIP3   OH214789   1.066   5.689   3.910
 4942TIP3    H114790   1.120   5.624   3.866
 4942TIP3    H214791   1.001   5.714   3.845
 4943TIP3   OH214792   2.156   4.352   4.458
 4943TIP3    H114793   2.085   4.352   4.395
 4943TIP3    H214794   2.213   4.280   4.431
 4944TIP3   OH214795   0.577   2.917   2.973
 4944TIP3    H114796   0.538   2.862   3.041
 4944TIP3    H214797   0.570   3.006   3.007
 4945TIP3   OH214798   0.340   4.462   3.130
 4945TIP3    H114799   0.325   4.373   3.097
 4945TIP3    H214800   0.262   4.481   3.183
 4946TIP3   OH214801   2.577   4.913   4.617
 4946TIP3    H114802   2.571   4.990   4.674
 4946TIP3    H214803   2.494   4.867   4.630
 4947TIP3   OH214804   5.400   5.583   5.053
 4947TIP3    H114805   5.465   5.641   5.093
 4947TIP3    H214806   5.341   5.559   5.125
 4948TIP3   OH214807   0.909   5.364   1.786
 4948TIP3    H114808   0.959   5.439   1.755
 4948TIP3    H214809   0.819   5.381   1.757
 4949TIP3   OH214810   1.257   0.678   1.437
 4949TIP3    H114811   1.210   0.732   1.500
 4949TIP3    H214812   1.258   0.730   1.357
 4950TIP3   OH214813   3.553   2.960   1.005
 4950TIP3    H114814   3.522   2.901   1.073
 4950TIP3    H214815   3.557   2.906   0.926
 4951TIP3   OH214816   5.773   1.135   1.348
 4951TIP3    H114817   5.812   1.082   1.278
 4951TIP3    H214818   5.679   1.119   1.340
 4952TIP3   OH214819   5.021   3.106   1.793
 4952TIP3    H114820   4.994   3.129   1.882
 4952TIP3    H214821   5.082   3.175   1.768
 4953TIP3   OH214822   6.265   4.468   4.083
 4953TIP3    H114823   6.278   4.487   4.176
 4953TIP3    H214824   6.263   4.373   4.078
 4954TIP3   OH214825   3.697   5.452   3.858
 4954TIP3    H114826   3.744   5.534   3.875
 4954TIP3    H214827   3.682   5.452   3.763
 4955TIP3   OH214828   0.247   1.506   1.501
 4955TIP3    H114829   0.160   1.486   1.535
 4955TIP3    H214830   0.231   1.532   1.410
 4956TIP3   OH214831   6.980   6.431   5.233
 4956TIP3    H114832   7.022   6.353   5.196
 4956TIP3    H214833   7.043   6.501   5.219
 4957TIP3   OH214834   1.788   0.495   2.592
 4957TIP3    H114835   1.794   0.586   2.622
 4957TIP3    H214836   1.854   0.489   2.522
 4958TIP3   OH214837   3.954   4.153   1.585
 4958TIP3    H114838   3.931   4.060   1.593
 4958TIP3    H214839   3.942   4.188   1.673
 4959TIP3   OH214840   1.704   2.019   0.620
 4959TIP3    H114841   1.674   2.029   0.711
 4959TIP3    H214842   1.743   2.103   0.598
 4960TIP3   OH214843   1.395   1.313   1.089
 4960TIP3    H114844   1.376   1.279   1.001
 4960TIP3    H214845   1.480   1.355   1.080
 4961TIP3   OH214846   0.510   4.438   5.429
 4961TIP3    H114847   0.578   4.377   5.401
 4961TIP3    H214848   0.442   4.383   5.467
 4962TIP3   OH214849   4.214   4.941   4.289
 4962TIP3    H114850   4.119   4.930   4.292
 4962TIP3    H214851   4.227   5.035   4.279
 4963TIP3   OH214852   6.631   2.493   3.713
 4963TIP3    H114853   6.713   2.528   3.748
 4963TIP3    H214854   6.610   2.550   3.639
 4964TIP3   OH214855   4.031   4.445   0.076
 4964TIP3    H114856   4.084   4.366   0.066
 4964TIP3    H214857   4.091   4.510   0.112
 4965TIP3   OH214858   3.080   0.397   0.685
 4965TIP3    H114859   3.128   0.480   0.692
 4965TIP3    H214860   3.145   0.330   0.703
 4966TIP3   OH214861   1.317   2.075   3.855
 4966TIP3    H114862   1.401   2.115   3.836
 4966TIP3    H214863   1.265   2.145   3.895
 4967TIP3   OH214864   3.610   3.891   0.599
 4967TIP3    H114865   3.604   3.903   0.694
 4967TIP3    H214866   3.535   3.838   0.577
 4968TIP3   OH214867   4.997   3.116   4.933
 4968TIP3    H114868   4.931   3.184   4.930
 4968TIP3    H214869   4.948   3.034   4.920
 4969TIP3   OH214870   3.976   4.477   1.220
 4969TIP3    H114871   3.930   4.411   1.168
 4969TIP3    H214872   4.018   4.427   1.290
 4970TIP3   OH214873   0.220   5.312   1.563
 4970TIP3    H114874   0.308   5.346   1.551
 4970TIP3    H214875   0.162   5.385   1.543
 4971TIP3   OH214876   0.443   5.621   1.157
 4971TIP3    H114877   0.517   5.678   1.178
 4971TIP3    H214878   0.382   5.633   1.230
 4972TIP3   OH214879   2.687   2.492   4.420
 4972TIP3    H114880   2.631   2.569   4.407
 4972TIP3    H214881   2.757   2.523   4.478
 4973TIP3   OH214882   4.063   5.191   4.235
 4973TIP3    H114883   3.979   5.146   4.224
 4973TIP3    H214884   4.080   5.230   4.150
 4974TIP3   OH214885   4.105   0.709   1.290
 4974TIP3    H114886   4.073   0.640   1.347
 4974TIP3    H214887   4.200   0.699   1.292
 4975TIP3   OH214888   4.930   1.898   1.234
 4975TIP3    H114889   4.887   1.954   1.299
 4975TIP3    H214890   5.022   1.898   1.260
 4976TIP3   OH214891   5.601   2.374   2.642
 4976TIP3    H114892   5.687   2.408   2.667
 4976TIP3    H214893   5.568   2.437   2.579
 4977TIP3   OH214894   5.311   3.258   3.454
 4977TIP3    H114895   5.375   3.329   3.448
 4977TIP3    H214896   5.269   3.256   3.368
 4978TIP3   OH214897   3.453   2.806   1.195
 4978TIP3    H114898   3.468   2.750   1.271
 4978TIP3    H214899   3.368   2.777   1.161
 4979TIP3   OH214900   6.357   1.661   3.594
 4979TIP3    H114901   6.400   1.736   3.636
 4979TIP3    H214902   6.425   1.594   3.589
 4980TIP3   OH214903   1.230   4.617   5.075
 4980TIP3    H114904   1.288   4.597   5.002
 4980TIP3    H214905   1.238   4.542   5.134
 4981TIP3   OH214906   2.727   4.905   0.746
 4981TIP3    H114907   2.647   4.944   0.711
 4981TIP3    H214908   2.788   4.978   0.755
 4982TIP3   OH214909   5.603   0.317   3.176
 4982TIP3    H114910   5.606   0.232   3.219
 4982TIP3    H214911   5.549   0.371   3.234
 4983TIP3   OH214912   3.531   4.820   5.505
 4983TIP3    H114913   3.544   4.756   5.435
 4983TIP3    H214914   3.591   4.792   5.574
 4984TIP3   OH214915   7.126   3.154   2.947
 4984TIP3    H114916   7.063   3.182   3.014
 4984TIP3    H214917   7.115   3.218   2.877
 4985TIP3   OH214918   0.633   0.362   2.001
 4985TIP3    H114919   0.679   0.301   2.060
 4985TIP3    H214920   0.629   0.316   1.917
 4986TIP3   OH214921   0.161   3.640   4.148
 4986TIP3    H114922   0.152   3.545   4.145
 4986TIP3    H214923   0.241   3.655   4.199
 4987TIP3   OH214924   7.009   2.612   4.010
 4987TIP3    H114925   7.102   2.625   4.031
 4987TIP3    H214926   6.974   2.701   4.002
 4988TIP3   OH214927   0.139   1.902   3.297
 4988TIP3    H114928   0.222   1.892   3.343
 4988TIP3    H214929   0.094   1.973   3.342
 4989TIP3   OH214930   2.570   0.042   0.755
 4989TIP3    H114931   2.488   0.092   0.754
 4989TIP3    H214932   2.608   0.056   0.668
 4990TIP3   OH214933   5.812   0.528   2.113
 4990TIP3    H114934   5.729   0.487   2.091
 4990TIP3    H214935   5.838   0.489   2.196
 4991TIP3   OH214936   6.088   3.099   5.267
 4991TIP3    H114937   6.018   3.163   5.250
 4991TIP3    H214938   6.096   3.099   5.363
 4992TIP3   OH214939   7.147   5.860   0.389
 4992TIP3    H114940   7.200   5.822   0.459
 4992TIP3    H214941   7.193   5.835   0.308
 4993TIP3   OH214942   2.969   2.060   1.818
 4993TIP3    H114943   2.886   2.031   1.857
 4993TIP3    H214944   3.023   2.082   1.893
 4994TIP3   OH214945   5.160   4.847   4.607
 4994TIP3    H114946   5.133   4.776   4.665
 4994TIP3    H214947   5.245   4.875   4.641
 4995TIP3   OH214948   0.848   1.482   4.479
 4995TIP3    H114949   0.783   1.484   4.550
 4995TIP3    H214950   0.928   1.514   4.519
 4996TIP3   OH214951   0.109   0.728   4.602
 4996TIP3    H114952   0.094   0.667   4.675
 4996TIP3    H214953   0.127   0.812   4.644
 4997TIP3   OH214954   2.469   3.577   3.860
 4997TIP3    H114955   2.411   3.561   3.786
 4997TIP3    H214956   2.543   3.518   3.846
 4998TIP3   OH214957   6.274   2.565   3.395
 4998TIP3    H114958   6.239   2.481   3.363
 4998TIP3    H214959   6.256   2.627   3.324
 4999TIP3   OH214960   0.141   0.815   1.268
 4999TIP3    H114961   0.170   0.819   1.359
 4999TIP3    H214962   0.080   0.741   1.265
 5000TIP3   OH214963   0.952   2.400   4.840
 5000TIP3    H114964   0.898   2.411   4.762
 5000TIP3    H214965   0.891   2.405   4.913
 5001TIP3   OH214966   5.517   2.032   5.746
 5001TIP3    H114967   5.539   2.117   5.784
 5001TIP3    H214968   5.544   2.038   5.654
 5002TIP3   OH214969   6.874   5.864   4.078
 5002TIP3    H114970   6.955   5.914   4.065
 5002TIP3    H214971   6.860   5.863   4.172
 5003TIP3   OH214972   5.619   3.657   2.803
 5003TIP3    H114973   5.681   3.721   2.767
 5003TIP3    H214974   5.562   3.634   2.730
 5004TIP3   OH214975   1.415   5.018   4.585
 5004TIP3    H114976   1.409   4.931   4.548
 5004TIP3    H214977   1.441   5.074   4.511
 5005TIP3   OH214978   0.888   1.903   2.814
 5005TIP3    H114979   0.923   1.815   2.818
 5005TIP3    H214980   0.851   1.918   2.901
 5006TIP3   OH214981   2.067   5.374   1.850
 5006TIP3    H114982   2.045   5.296   1.800
 5006TIP3    H214983   2.149   5.405   1.811
 5007TIP3   OH214984   1.828   0.594   0.673
 5007TIP3    H114985   1.821   0.595   0.769
 5007TIP3    H214986   1.811   0.684   0.647
 5008TIP3   OH214987   4.685   4.298   4.438
 5008TIP3    H114988   4.758   4.248   4.403
 5008TIP3    H214989   4.675   4.372   4.378
 5009TIP3   OH214990   0.949   0.073   3.606
 5009TIP3    H114991   0.922   0.114   3.524
 5009TIP3    H214992   0.871   0.028   3.638
 5010TIP3   OH214993   5.997   2.901   1.838
 5010TIP3    H114994   5.985   2.977   1.895
 5010TIP3    H214995   5.955   2.926   1.756
 5011TIP3   OH214996   1.483   6.117   0.640
 5011TIP3    H114997   1.395   6.080   0.645
 5011TIP3    H214998   1.538   6.054   0.686
 5012TIP3   OH214999   3.673   5.834   1.421
 5012TIP3    H115000   3.751   5.889   1.412
 5012TIP3    H215001   3.611   5.889   1.468
 5013TIP3   OH215002   0.220   3.896   2.992
 5013TIP3    H115003   0.299   3.938   2.960
 5013TIP3    H215004   0.207   3.820   2.936
 5014TIP3   OH215005   0.227   1.248   0.265
 5014TIP3    H115006   0.242   1.165   0.221
 5014TIP3    H215007   0.279   1.311   0.215
 5015TIP3   OH215008   0.799   2.875   1.336
 5015TIP3    H115009   0.853   2.820   1.280
 5015TIP3    H215010   0.713   2.875   1.294
 5016TIP3   OH215011   6.242   0.071   5.365
 5016TIP3    H115012   6.246   0.129   5.441
 5016TIP3    H215013   6.283  -0.010   5.394
 5017TIP3   OH215014   1.469   5.112   2.093
 5017TIP3    H115015   1.412   5.060   2.150
 5017TIP3    H215016   1.416   5.189   2.071
 5018TIP3   OH215017   0.142   4.485   3.321
 5018TIP3    H115018   0.074   4.418   3.318
 5018TIP3    H215019   0.098   4.562   3.357
 5019TIP3   OH215020   2.770   1.239   1.224
 5019TIP3    H115021   2.767   1.233   1.128
 5019TIP3    H215022   2.784   1.332   1.242
 5020TIP3   OH215023   6.948   3.924   2.648
 5020TIP3    H115024   6.857   3.893   2.647
 5020TIP3    H215025   6.994   3.863   2.592
 5021TIP3   OH215026   1.108   3.950   5.527
 5021TIP3    H115027   1.178   3.924   5.468
 5021TIP3    H215028   1.106   3.882   5.594
 5022TIP3   OH215029   1.977   0.704   5.747
 5022TIP3    H115030   2.063   0.741   5.767
 5022TIP3    H215031   1.964   0.638   5.815
 5023TIP3   OH215032   2.525   5.122   0.585
 5023TIP3    H115033   2.518   5.158   0.673
 5023TIP3    H215034   2.443   5.148   0.542
 5024TIP3   OH215035   1.997   1.848   2.726
 5024TIP3    H115036   1.960   1.894   2.651
 5024TIP3    H215037   1.983   1.907   2.800
 5025TIP3   OH215038   5.489   1.904   0.683
 5025TIP3    H115039   5.495   1.919   0.777
 5025TIP3    H215040   5.530   1.819   0.669
 5026TIP3   OH215041   4.648   6.731   3.669
 5026TIP3    H115042   4.658   6.768   3.581
 5026TIP3    H215043   4.680   6.800   3.727
 5027TIP3   OH215044   0.443   0.604   5.117
 5027TIP3    H115045   0.467   0.641   5.032
 5027TIP3    H215046   0.377   0.537   5.097
 5028TIP3   OH215047   3.305   0.909   4.207
 5028TIP3    H115048   3.335   0.825   4.240
 5028TIP3    H215049   3.373   0.971   4.233
 5029TIP3   OH215050   2.705   2.249   3.573
 5029TIP3    H115051   2.781   2.273   3.519
 5029TIP3    H215052   2.715   2.300   3.653
 5030TIP3   OH215053   5.243   6.406   3.074
 5030TIP3    H115054   5.265   6.317   3.101
 5030TIP3    H215055   5.261   6.409   2.980
 5031TIP3   OH215056   2.963   4.374   3.289
 5031TIP3    H115057   3.035   4.385   3.227
 5031TIP3    H215058   2.991   4.421   3.367
 5032TIP3   OH215059   6.431   0.978   1.228
 5032TIP3    H115060   6.493   0.915   1.192
 5032TIP3    H215061   6.485   1.050   1.259
 5033TIP3   OH215062   3.286   5.929   5.031
 5033TIP3    H115063   3.370   5.912   5.073
 5033TIP3    H215064   3.271   6.023   5.043
 5034TIP3   OH215065   1.993   2.776   4.356
 5034TIP3    H115066   1.996   2.723   4.276
 5034TIP3    H215067   1.919   2.836   4.342
 5035TIP3   OH215068   2.526   5.845   2.898
 5035TIP3    H115069   2.571   5.883   2.974
 5035TIP3    H215070   2.449   5.902   2.885
 5036TIP3   OH215071   2.775   1.406   4.355
 5036TIP3    H115072   2.766   1.330   4.412
 5036TIP3    H215073   2.815   1.372   4.275
 5037TIP3   OH215074   6.252   0.360   1.148
 5037TIP3    H115075   6.202   0.331   1.225
 5037TIP3    H215076   6.339   0.379   1.182
 5038TIP3   OH215077   1.783   6.070   1.091
 5038TIP3    H115078   1.786   6.138   1.023
 5038TIP3    H215079   1.872   6.066   1.125
 5039TIP3   OH215080   6.928   6.305   1.567
 5039TIP3    H115081   6.980   6.350   1.500
 5039TIP3    H215082   6.844   6.288   1.525
 5040TIP3   OH215083   2.114   1.758   4.371
 5040TIP3    H115084   2.115   1.794   4.460
 5040TIP3    H215085   2.147   1.829   4.316
 5041TIP3   OH215086   0.208   1.166   5.010
 5041TIP3    H115087   0.248   1.248   4.980
 5041TIP3    H215088   0.266   1.134   5.078
 5042TIP3   OH215089   3.354   5.769   4.832
 5042TIP3    H115090   3.448   5.785   4.825
 5042TIP3    H215091   3.325   5.827   4.903
 5043TIP3   OH215092   4.767   6.208   1.554
 5043TIP3    H115093   4.757   6.192   1.647
 5043TIP3    H215094   4.818   6.134   1.522
 5044TIP3   OH215095   3.091   1.565   5.322
 5044TIP3    H115096   3.039   1.546   5.399
 5044TIP3    H215097   3.174   1.521   5.337
 5045TIP3   OH215098   5.831   6.672   5.582
 5045TIP3    H115099   5.754   6.679   5.525
 5045TIP3    H215100   5.872   6.759   5.578
 5046TIP3   OH215101   4.132   5.535   3.075
 5046TIP3    H115102   4.219   5.530   3.035
 5046TIP3    H215103   4.148   5.539   3.169
 5047TIP3   OH215104   0.503   4.773   4.902
 5047TIP3    H115105   0.418   4.763   4.945
 5047TIP3    H215106   0.532   4.683   4.885
 5048TIP3   OH215107   5.733   4.785   1.624
 5048TIP3    H115108   5.694   4.733   1.554
 5048TIP3    H215109   5.815   4.740   1.644
 5049TIP3   OH215110   6.352   5.731   0.959
 5049TIP3    H115111   6.295   5.685   0.897
 5049TIP3    H215112   6.386   5.663   1.017
 5050TIP3   OH215113   1.577   1.222   2.493
 5050TIP3    H115114   1.577   1.245   2.400
 5050TIP3    H215115   1.552   1.303   2.537
 5051TIP3   OH215116   3.330   2.552   0.432
 5051TIP3    H115117   3.296   2.639   0.412
 5051TIP3    H215118   3.255   2.505   0.469
 5052TIP3   OH215119   0.896   2.203   3.980
 5052TIP3    H115120   0.980   2.249   3.982
 5052TIP3    H215121   0.845   2.245   4.050
 5053TIP3   OH215122   6.026   3.375   4.357
 5053TIP3    H115123   5.931   3.383   4.343
 5053TIP3    H215124   6.057   3.325   4.281
 5054TIP3   OH215125   1.601   4.897   0.808
 5054TIP3    H115126   1.567   4.862   0.725
 5054TIP3    H215127   1.694   4.876   0.806
 5055TIP3   OH215128   4.651   6.650   4.979
 5055TIP3    H115129   4.560   6.676   4.996
 5055TIP3    H215130   4.679   6.609   5.060
 5056TIP3   OH215131   4.115   0.560   0.384
 5056TIP3    H115132   4.150   0.635   0.432
 5056TIP3    H215133   4.190   0.525   0.336
 5057TIP3   OH215134   3.579   3.562   1.434
 5057TIP3    H115135   3.576   3.488   1.494
 5057TIP3    H215136   3.557   3.524   1.349
 5058TIP3   OH215137   1.572   5.381   1.729
 5058TIP3    H115138   1.487   5.396   1.771
 5058TIP3    H215139   1.628   5.449   1.765
 5059TIP3   OH215140   0.883   0.266   1.215
 5059TIP3    H115141   0.958   0.325   1.224
 5059TIP3    H215142   0.870   0.229   1.302
 5060TIP3   OH215143   0.793   4.846   3.611
 5060TIP3    H115144   0.714   4.805   3.575
 5060TIP3    H215145   0.810   4.798   3.692
 5061TIP3   OH215146   4.813   5.806   1.999
 5061TIP3    H115147   4.743   5.796   2.064
 5061TIP3    H215148   4.771   5.848   1.924
 5062TIP3   OH215149   0.620   3.790   0.762
 5062TIP3    H115150   0.660   3.868   0.801
 5062TIP3    H215151   0.655   3.717   0.814
 5063TIP3   OH215152   1.250   3.283   0.385
 5063TIP3    H115153   1.291   3.322   0.308
 5063TIP3    H215154   1.323   3.244   0.434
 5064TIP3   OH215155   1.973   5.043   4.704
 5064TIP3    H115156   2.061   5.024   4.670
 5064TIP3    H215157   1.922   5.068   4.627
 5065TIP3   OH215158   4.276   3.199   5.050
 5065TIP3    H115159   4.260   3.292   5.033
 5065TIP3    H215160   4.193   3.156   5.030
 5066TIP3   OH215161   2.807   5.820   2.579
 5066TIP3    H115162   2.857   5.816   2.661
 5066TIP3    H215163   2.841   5.898   2.534
 5067TIP3   OH215164   7.027   6.604   1.905
 5067TIP3    H115165   7.099   6.667   1.897
 5067TIP3    H215166   7.070   6.518   1.901
 5068TIP3   OH215167   3.037   1.824   0.293
 5068TIP3    H115168   3.022   1.731   0.277
 5068TIP3    H215169   3.129   1.829   0.321
 5069TIP3   OH215170   4.370   1.758   4.863
 5069TIP3    H115171   4.440   1.817   4.835
 5069TIP3    H215172   4.375   1.757   4.959
 5070TIP3   OH215173   3.055   3.714   5.290
 5070TIP3    H115174   3.126   3.695   5.351
 5070TIP3    H215175   3.094   3.704   5.203
 5071TIP3   OH215176   4.039   6.427   0.536
 5071TIP3    H115177   4.015   6.365   0.605
 5071TIP3    H215178   4.079   6.500   0.583
 5072TIP3   OH215179   3.042   2.249   1.658
 5072TIP3    H115180   3.113   2.283   1.713
 5072TIP3    H215181   3.004   2.178   1.709
 5073TIP3   OH215182   0.542   0.704   3.275
 5073TIP3    H115183   0.477   0.774   3.278
 5073TIP3    H215184   0.619   0.744   3.235
 5074TIP3   OH215185   5.702   6.163   2.280
 5074TIP3    H115186   5.706   6.148   2.374
 5074TIP3    H215187   5.719   6.257   2.270
 5075TIP3   OH215188   5.187   2.672   0.634
 5075TIP3    H115189   5.135   2.720   0.698
 5075TIP3    H215190   5.272   2.715   0.635
 5076TIP3   OH215191   5.057   3.035   4.419
 5076TIP3    H115192   4.971   3.008   4.449
 5076TIP3    H215193   5.086   3.100   4.483
 5077TIP3   OH215194   2.372   4.895   4.326
 5077TIP3    H115195   2.365   4.989   4.344
 5077TIP3    H215196   2.402   4.857   4.409
 5078TIP3   OH215197   6.419   2.141   3.103
 5078TIP3    H115198   6.493   2.196   3.131
 5078TIP3    H215199   6.354   2.151   3.173
 5079TIP3   OH215200   0.046   4.128   2.334
 5079TIP3    H115201   0.116   4.186   2.365
 5079TIP3    H215202  -0.001   4.102   2.413
 5080TIP3   OH215203   5.429   4.661   5.622
 5080TIP3    H115204   5.465   4.575   5.599
 5080TIP3    H215205   5.490   4.696   5.688
 5081TIP3   OH215206   5.456   5.671   1.582
 5081TIP3    H115207   5.387   5.690   1.645
 5081TIP3    H215208   5.506   5.600   1.621
 5082TIP3   OH215209   2.298   1.900   4.214
 5082TIP3    H115210   2.364   1.937   4.155
 5082TIP3    H215211   2.322   1.932   4.301
 5083TIP3   OH215212   6.174   5.807   4.737
 5083TIP3    H115213   6.200   5.797   4.828
 5083TIP3    H215214   6.248   5.853   4.696
 5084TIP3   OH215215   5.550   6.575   2.077
 5084TIP3    H115216   5.527   6.485   2.052
 5084TIP3    H215217   5.470   6.610   2.117
 5085TIP3   OH215218   0.335   3.108   5.368
 5085TIP3    H115219   0.338   3.086   5.462
 5085TIP3    H215220   0.360   3.027   5.324
 5086TIP3   OH215221   3.485   4.376   4.628
 5086TIP3    H115222   3.391   4.361   4.636
 5086TIP3    H215223   3.495   4.425   4.547
 5087TIP3   OH215224   1.045   6.181   0.676
 5087TIP3    H115225   0.996   6.103   0.654
 5087TIP3    H215226   0.985   6.253   0.659
 5088TIP3   OH215227   5.218   2.448   5.500
 5088TIP3    H115228   5.312   2.430   5.492
 5088TIP3    H215229   5.185   2.378   5.556
 5089TIP3   OH215230   1.909   5.255   3.614
 5089TIP3    H115231   1.891   5.258   3.520
 5089TIP3    H215232   1.823   5.255   3.655
 5090TIP3   OH215233   6.839   3.015   2.582
 5090TIP3    H115234   6.817   3.084   2.521
 5090TIP3    H215235   6.817   2.934   2.536
 5091TIP3   OH215236   2.491   4.046   4.060
 5091TIP3    H115237   2.460   4.132   4.088
 5091TIP3    H215238   2.586   4.055   4.057
 5092TIP3   OH215239   1.084   4.328   0.767
 5092TIP3    H115240   1.158   4.336   0.827
 5092TIP3    H215241   1.077   4.234   0.749
 5093TIP3   OH215242   3.698   2.374   3.409
 5093TIP3    H115243   3.701   2.469   3.398
 5093TIP3    H215244   3.711   2.361   3.503
 5094TIP3   OH215245   2.854   2.850   1.293
 5094TIP3    H115246   2.934   2.880   1.251
 5094TIP3    H215247   2.855   2.890   1.380
 5095TIP3   OH215248   5.417   3.218   5.323
 5095TIP3    H115249   5.492   3.214   5.263
 5095TIP3    H215250   5.452   3.191   5.408
 5096TIP3   OH215251   0.349   0.286   3.240
 5096TIP3    H115252   0.356   0.376   3.209
 5096TIP3    H215253   0.350   0.232   3.161
 5097TIP3   OH215254   1.675   2.627   3.592
 5097TIP3    H115255   1.724   2.707   3.609
 5097TIP3    H215256   1.593   2.639   3.640
 5098TIP3   OH215257   0.459   3.613   2.391
 5098TIP3    H115258   0.420   3.525   2.383
 5098TIP3    H215259   0.552   3.596   2.407
 5099TIP3   OH215260   1.095   2.254   4.496
 5099TIP3    H115261   1.177   2.262   4.446
 5099TIP3    H215262   1.026   2.259   4.430
 5100TIP3   OH215263   3.763   1.524   3.613
 5100TIP3    H115264   3.670   1.509   3.599
 5100TIP3    H215265   3.767   1.600   3.672
 5101TIP3   OH215266   6.458   6.331   2.418
 5101TIP3    H115267   6.384   6.272   2.433
 5101TIP3    H215268   6.418   6.416   2.404
 5102TIP3   OH215269   4.664   2.260   3.990
 5102TIP3    H115270   4.752   2.299   3.989
 5102TIP3    H215271   4.650   2.234   4.081
 5103TIP3   OH215272   7.232   6.584   0.556
 5103TIP3    H115273   7.152   6.631   0.579
 5103TIP3    H215274   7.201   6.500   0.520
 5104TIP3   OH215275   1.583   0.169   5.052
 5104TIP3    H115276   1.587   0.103   4.982
 5104TIP3    H215277   1.668   0.211   5.050
 5105TIP3   OH215278   1.773   1.688   1.349
 5105TIP3    H115279   1.818   1.738   1.417
 5105TIP3    H215280   1.834   1.684   1.276
 5106TIP3   OH215281   4.690   2.573   0.096
 5106TIP3    H115282   4.598   2.549   0.104
 5106TIP3    H215283   4.737   2.490   0.101
 5107TIP3   OH215284   4.338   2.116   2.306
 5107TIP3    H115285   4.430   2.137   2.323
 5107TIP3    H215286   4.305   2.086   2.391
 5108TIP3   OH215287   6.657   3.738   0.681
 5108TIP3    H115288   6.610   3.661   0.714
 5108TIP3    H215289   6.611   3.813   0.720
 5109TIP3   OH215290   0.747   1.017   2.294
 5109TIP3    H115291   0.658   1.000   2.325
 5109TIP3    H215292   0.791   1.058   2.369
 5110TIP3   OH215293   3.581   1.123   0.591
 5110TIP3    H115294   3.626   1.075   0.523
 5110TIP3    H215295   3.621   1.210   0.590
 5111TIP3   OH215296   3.733   4.413   5.042
 5111TIP3    H115297   3.723   4.409   4.947
 5111TIP3    H215298   3.685   4.337   5.074
 5112TIP3   OH215299   0.096   4.513   1.718
 5112TIP3    H115300   0.049   4.445   1.766
 5112TIP3    H215301   0.089   4.590   1.774
 5113TIP3   OH215302   3.061   2.581   3.165
 5113TIP3    H115303   2.984   2.538   3.202
 5113TIP3    H215304   3.037   2.599   3.074
 5114TIP3   OH215305   5.802   1.251   4.671
 5114TIP3    H115306   5.732   1.186   4.672
 5114TIP3    H215307   5.844   1.240   4.585
 5115TIP3   OH215308   1.027   6.291   0.070
 5115TIP3    H115309   1.026   6.264   0.162
 5115TIP3    H215310   1.112   6.263   0.038
 5116TIP3   OH215311   5.842   2.857   5.138
 5116TIP3    H115312   5.904   2.842   5.066
 5116TIP3    H215313   5.760   2.818   5.109
 5117TIP3   OH215314   3.015   5.358   1.248
 5117TIP3    H115315   2.959   5.436   1.246
 5117TIP3    H215316   3.049   5.350   1.159
 5118TIP3   OH215317   0.324   6.738   3.069
 5118TIP3    H115318   0.292   6.664   3.121
 5118TIP3    H215319   0.373   6.697   2.997
 5119TIP3   OH215320   6.911   0.334   1.592
 5119TIP3    H115321   6.953   0.278   1.657
 5119TIP3    H215322   6.981   0.353   1.529
 5120TIP3   OH215323   4.701   4.400   3.599
 5120TIP3    H115324   4.665   4.355   3.523
 5120TIP3    H215325   4.792   4.372   3.604
 5121TIP3   OH215326   3.106   4.968   1.177
 5121TIP3    H115327   3.026   4.960   1.125
 5121TIP3    H215328   3.164   5.022   1.124
 5122TIP3   OH215329   0.718   3.100   3.200
 5122TIP3    H115330   0.708   3.020   3.252
 5122TIP3    H215331   0.809   3.099   3.171
 5123TIP3   OH215332   1.169   6.259   4.509
 5123TIP3    H115333   1.261   6.286   4.508
 5123TIP3    H215334   1.171   6.168   4.539
 5124TIP3   OH215335   5.514   4.743   4.402
 5124TIP3    H115336   5.578   4.685   4.361
 5124TIP3    H215337   5.510   4.819   4.344
 5125TIP3   OH215338   0.446   6.372   4.538
 5125TIP3    H115339   0.511   6.402   4.602
 5125TIP3    H215340   0.468   6.419   4.457
 5126TIP3   OH215341   5.611   0.355   4.389
 5126TIP3    H115342   5.572   0.368   4.476
 5126TIP3    H215343   5.645   0.441   4.365
 5127TIP3   OH215344   5.490   0.875   0.496
 5127TIP3    H115345   5.492   0.915   0.583
 5127TIP3    H215346   5.404   0.901   0.461
 5128TIP3   OH215347   6.416   2.311   0.584
 5128TIP3    H115348   6.385   2.224   0.560
 5128TIP3    H215349   6.356   2.371   0.540
 5129TIP3   OH215350   3.304   1.303   1.375
 5129TIP3    H115351   3.334   1.359   1.303
 5129TIP3    H215352   3.334   1.215   1.351
 5130TIP3   OH215353   6.723   5.720   5.813
 5130TIP3    H115354   6.761   5.634   5.795
 5130TIP3    H215355   6.691   5.750   5.728
 5131TIP3   OH215356   5.422   6.569   1.311
 5131TIP3    H115357   5.514   6.592   1.293
 5131TIP3    H215358   5.374   6.604   1.237
 5132TIP3   OH215359   4.068   2.952   1.428
 5132TIP3    H115360   4.154   2.940   1.469
 5132TIP3    H215361   4.050   2.868   1.387
 5133TIP3   OH215362   0.913   5.359   2.383
 5133TIP3    H115363   0.965   5.439   2.381
 5133TIP3    H215364   0.866   5.358   2.299
 5134TIP3   OH215365   3.878   1.095   1.450
 5134TIP3    H115366   3.875   1.002   1.471
 5134TIP3    H215367   3.801   1.109   1.394
 5135TIP3   OH215368   5.271   4.980   1.288
 5135TIP3    H115369   5.266   4.890   1.255
 5135TIP3    H215370   5.362   5.006   1.275
 5136TIP3   OH215371   1.525   6.422   3.166
 5136TIP3    H115372   1.501   6.352   3.104
 5136TIP3    H215373   1.481   6.500   3.132
 5137TIP3   OH215374   2.686   3.232   5.139
 5137TIP3    H115375   2.719   3.205   5.054
 5137TIP3    H215376   2.662   3.324   5.127
 5138TIP3   OH215377   1.063   0.904   1.510
 5138TIP3    H115378   1.102   0.937   1.590
 5138TIP3    H215379   1.115   0.943   1.440
 5139TIP3   OH215380   2.842   1.617   4.667
 5139TIP3    H115381   2.818   1.537   4.715
 5139TIP3    H215382   2.768   1.676   4.681
 5140TIP3   OH215383   4.058   6.198   4.409
 5140TIP3    H115384   4.004   6.258   4.357
 5140TIP3    H215385   4.146   6.236   4.404
 5141TIP3   OH215386   2.653   0.142   5.858
 5141TIP3    H115387   2.662   0.182   5.944
 5141TIP3    H215388   2.742   0.139   5.823
 5142TIP3   OH215389   0.759   6.355   4.314
 5142TIP3    H115390   0.726   6.278   4.361
 5142TIP3    H215391   0.766   6.326   4.223
 5143TIP3   OH215392   4.335   2.145   5.043
 5143TIP3    H115393   4.362   2.121   4.954
 5143TIP3    H215394   4.267   2.081   5.065
 5144TIP3   OH215395   2.966   5.686   1.480
 5144TIP3    H115396   2.963   5.720   1.569
 5144TIP3    H215397   3.059   5.683   1.459
 5145TIP3   OH215398   1.709   6.224   1.372
 5145TIP3    H115399   1.707   6.185   1.460
 5145TIP3    H215400   1.676   6.154   1.315
 5146TIP3   OH215401   3.942   2.364   5.528
 5146TIP3    H115402   3.956   2.269   5.530
 5146TIP3    H215403   3.953   2.391   5.619
 5147TIP3   OH215404   1.564   3.085   1.362
 5147TIP3    H115405   1.537   3.089   1.270
 5147TIP3    H215406   1.641   3.028   1.362
 5148TIP3   OH215407   0.888   4.773   3.307
 5148TIP3    H115408   0.835   4.803   3.381
 5148TIP3    H215409   0.826   4.731   3.249
 5149TIP3   OH215410   5.107   5.161   0.617
 5149TIP3    H115411   5.096   5.254   0.596
 5149TIP3    H215412   5.033   5.140   0.673
 5150TIP3   OH215413   0.065   3.562   2.030
 5150TIP3    H115414   0.070   3.625   1.958
 5150TIP3    H215415  -0.027   3.560   2.054
 5151TIP3   OH215416   6.733   4.799   0.101
 5151TIP3    H115417   6.649   4.802   0.057
 5151TIP3    H215418   6.712   4.809   0.194
 5152TIP3   OH215419   0.436   5.727   4.550
 5152TIP3    H115420   0.379   5.799   4.575
 5152TIP3    H215421   0.379   5.668   4.500
 5153TIP3   OH215422   3.240   5.118   0.371
 5153TIP3    H115423   3.196   5.202   0.387
 5153TIP3    H215424   3.312   5.117   0.434
 5154TIP3   OH215425   0.839   1.189   5.454
 5154TIP3    H115426   0.825   1.275   5.414
 5154TIP3    H215427   0.754   1.145   5.445
 5155TIP3   OH215428   3.334   0.381   4.657
 5155TIP3    H115429   3.379   0.400   4.739
 5155TIP3    H215430   3.243   0.364   4.684
 5156TIP3   OH215431   0.483   6.238   0.032
 5156TIP3    H115432   0.397   6.230   0.073
 5156TIP3    H215433   0.496   6.332   0.021
 5157TIP3   OH215434   1.750   2.797   4.842
 5157TIP3    H115435   1.837   2.836   4.831
 5157TIP3    H215436   1.720   2.828   4.927
 5158TIP3   OH215437   0.288   0.442   3.643
 5158TIP3    H115438   0.253   0.453   3.554
 5158TIP3    H215439   0.209   0.435   3.698
 5159TIP3   OH215440   4.128   3.232   2.602
 5159TIP3    H115441   4.060   3.255   2.540
 5159TIP3    H215442   4.092   3.255   2.688
 5160TIP3   OH215443   3.977   2.794   2.233
 5160TIP3    H115444   3.887   2.760   2.231
 5160TIP3    H215445   4.029   2.726   2.188
 5161TIP3   OH215446   3.768   1.656   0.259
 5161TIP3    H115447   3.797   1.746   0.276
 5161TIP3    H215448   3.845   1.612   0.223
 5162TIP3   OH215449   4.133   6.046   2.149
 5162TIP3    H115450   4.047   6.088   2.148
 5162TIP3    H215451   4.191   6.108   2.105
 5163TIP3   OH215452   1.124   5.490   2.703
 5163TIP3    H115453   1.080   5.462   2.783
 5163TIP3    H215454   1.108   5.419   2.640
 5164TIP3   OH215455   4.010   1.285   0.850
 5164TIP3    H115456   4.100   1.313   0.837
 5164TIP3    H215457   4.000   1.209   0.793
 5165TIP3   OH215458   3.812   4.318   0.308
 5165TIP3    H115459   3.738   4.335   0.365
 5165TIP3    H215460   3.860   4.400   0.306
 5166TIP3   OH215461   3.176   5.915   5.876
 5166TIP3    H115462   3.177   5.883   5.966
 5166TIP3    H215463   3.200   5.838   5.823
 5167TIP3   OH215464   2.720   2.748   0.863
 5167TIP3    H115465   2.642   2.775   0.814
 5167TIP3    H215466   2.687   2.684   0.926
 5168TIP3   OH215467   6.173   4.582   3.857
 5168TIP3    H115468   6.238   4.650   3.840
 5168TIP3    H215469   6.210   4.531   3.929
 5169TIP3   OH215470   2.822   0.619   1.464
 5169TIP3    H115471   2.781   0.556   1.524
 5169TIP3    H215472   2.877   0.673   1.521
 5170TIP3   OH215473   4.957   2.018   4.543
 5170TIP3    H115474   4.870   1.982   4.564
 5170TIP3    H215475   4.942   2.113   4.536
 5171TIP3   OH215476   3.990   0.339   5.352
 5171TIP3    H115477   3.923   0.356   5.417
 5171TIP3    H215478   4.072   0.360   5.396
 5172TIP3   OH215479   5.934   4.908   0.444
 5172TIP3    H115480   6.008   4.877   0.495
 5172TIP3    H215481   5.964   4.991   0.406
 5173TIP3   OH215482   3.583   1.987   5.124
 5173TIP3    H115483   3.620   1.904   5.156
 5173TIP3    H215484   3.576   1.974   5.029
 5174TIP3   OH215485   5.505   1.292   5.559
 5174TIP3    H115486   5.452   1.342   5.621
 5174TIP3    H215487   5.585   1.271   5.608
 5175TIP3   OH215488   1.240   6.228   1.064
 5175TIP3    H115489   1.235   6.160   0.997
 5175TIP3    H215490   1.166   6.286   1.045
 5176TIP3   OH215491   4.923   0.706   4.383
 5176TIP3    H115492   4.836   0.684   4.418
 5176TIP3    H215493   4.957   0.623   4.350
 5177TIP3   OH215494   4.754   4.901   4.901
 5177TIP3    H115495   4.783   4.822   4.854
 5177TIP3    H215496   4.659   4.904   4.884
 5178TIP3   OH215497   0.344   6.358   5.855
 5178TIP3    H115498   0.343   6.453   5.854
 5178TIP3    H215499   0.272   6.332   5.797
 5179TIP3   OH215500   0.348   3.145   2.788
 5179TIP3    H115501   0.421   3.196   2.754
 5179TIP3    H215502   0.365   3.055   2.758
 5180TIP3   OH215503   7.116   5.564   3.647
 5180TIP3    H115504   7.052   5.628   3.678
 5180TIP3    H215505   7.065   5.487   3.625
 5181TIP3   OH215506   5.047   5.400   4.064
 5181TIP3    H115507   4.999   5.446   3.995
 5181TIP3    H215508   5.110   5.346   4.016
 5182TIP3   OH215509   3.816   1.587   2.595
 5182TIP3    H115510   3.854   1.500   2.601
 5182TIP3    H215511   3.753   1.581   2.523
 5183TIP3   OH215512   3.063   6.559   5.431
 5183TIP3    H115513   3.129   6.550   5.500
 5183TIP3    H215514   3.034   6.469   5.414
 5184TIP3   OH215515   0.521   3.613   4.516
 5184TIP3    H115516   0.587   3.657   4.462
 5184TIP3    H215517   0.560   3.528   4.537
 5185TIP3   OH215518   6.557   1.330   1.898
 5185TIP3    H115519   6.611   1.263   1.940
 5185TIP3    H215520   6.602   1.349   1.816
 5186TIP3   OH215521   3.009   1.851   4.039
 5186TIP3    H115522   2.923   1.809   4.030
 5186TIP3    H215523   3.069   1.793   3.990
 5187TIP3   OH215524   5.176   2.155   0.999
 5187TIP3    H115525   5.176   2.060   1.014
 5187TIP3    H215526   5.126   2.191   1.073
 5188TIP3   OH215527   0.364   4.158   1.706
 5188TIP3    H115528   0.408   4.096   1.765
 5188TIP3    H215529   0.303   4.104   1.656
 5189TIP3   OH215530   3.953   5.546   4.947
 5189TIP3    H115531   3.986   5.456   4.952
 5189TIP3    H215532   4.022   5.593   4.900
 5190TIP3   OH215533   3.022   5.911   2.260
 5190TIP3    H115534   3.005   5.817   2.260
 5190TIP3    H215535   3.094   5.922   2.198
 5191TIP3   OH215536   4.452   1.528   0.503
 5191TIP3    H115537   4.395   1.575   0.443
 5191TIP3    H215538   4.539   1.533   0.463
 5192TIP3   OH215539   3.927   6.661   3.611
 5192TIP3    H115540   3.975   6.603   3.672
 5192TIP3    H215541   3.865   6.603   3.567
 5193TIP3   OH215542   0.451   6.512   1.279
 5193TIP3    H115543   0.464   6.497   1.373
 5193TIP3    H215544   0.356   6.516   1.267
 5194TIP3   OH215545   0.083   5.338   2.394
 5194TIP3    H115546   0.125   5.423   2.391
 5194TIP3    H215547   0.152   5.276   2.369
 5195TIP3   OH215548   4.822   0.661   1.174
 5195TIP3    H115549   4.894   0.719   1.149
 5195TIP3    H215550   4.814   0.600   1.101
 5196TIP3   OH215551   0.569   5.118   1.693
 5196TIP3    H115552   0.608   5.039   1.656
 5196TIP3    H215553   0.567   5.180   1.620
 5197TIP3   OH215554   4.249   3.955   1.206
 5197TIP3    H115555   4.279   3.986   1.291
 5197TIP3    H215556   4.248   4.033   1.150
 5198TIP3   OH215557   5.516   0.265   1.773
 5198TIP3    H115558   5.426   0.295   1.780
 5198TIP3    H215559   5.511   0.183   1.725
 5199TIP3   OH215560   6.786   0.966   3.786
 5199TIP3    H115561   6.872   0.936   3.759
 5199TIP3    H215562   6.789   1.061   3.776
 5200TIP3   OH215563   1.231   4.086   3.874
 5200TIP3    H115564   1.142   4.097   3.842
 5200TIP3    H215565   1.229   4.005   3.924
 5201TIP3   OH215566   0.832   5.522   4.188
 5201TIP3    H115567   0.836   5.602   4.136
 5201TIP3    H215568   0.911   5.523   4.241
 5202TIP3   OH215569   0.081   6.510   5.832
 5202TIP3    H115570   0.011   6.472   5.885
 5202TIP3    H215571   0.104   6.592   5.877
 5203TIP3   OH215572   6.882   2.377   4.117
 5203TIP3    H115573   6.866   2.338   4.031
 5203TIP3    H215574   6.942   2.449   4.099
 5204TIP3   OH215575   2.318   2.733   2.815
 5204TIP3    H115576   2.234   2.767   2.783
 5204TIP3    H215577   2.383   2.768   2.753
 5205TIP3   OH215578   2.679   1.870   1.643
 5205TIP3    H115579   2.697   1.797   1.583
 5205TIP3    H215580   2.765   1.893   1.679
 5206TIP3   OH215581   3.692   6.743   5.784
 5206TIP3    H115582   3.733   6.708   5.705
 5206TIP3    H215583   3.716   6.835   5.786
 5207TIP3   OH215584   6.282   2.174   4.353
 5207TIP3    H115585   6.373   2.174   4.323
 5207TIP3    H215586   6.252   2.085   4.335
 5208TIP3   OH215587   2.535   1.191   4.266
 5208TIP3    H115588   2.504   1.267   4.218
 5208TIP3    H215589   2.475   1.184   4.341
 5209TIP3   OH215590   0.736   4.893   5.569
 5209TIP3    H115591   0.686   4.816   5.541
 5209TIP3    H215592   0.754   4.877   5.662
 5210TIP3   OH215593   6.616   4.522   5.548
 5210TIP3    H115594   6.582   4.439   5.580
 5210TIP3    H215595   6.603   4.518   5.453
 5211TIP3   OH215596   2.950   1.907   0.548
 5211TIP3    H115597   2.884   1.974   0.534
 5211TIP3    H215598   2.987   1.891   0.461
 5212TIP3   OH215599   4.466   0.428   2.358
 5212TIP3    H115600   4.551   0.421   2.402
 5212TIP3    H215601   4.402   0.412   2.426
 5213TIP3   OH215602   3.315   3.563   4.597
 5213TIP3    H115603   3.361   3.581   4.515
 5213TIP3    H215604   3.373   3.597   4.665
 5214TIP3   OH215605   2.177   1.339   2.601
 5214TIP3    H115606   2.271   1.334   2.622
 5214TIP3    H215607   2.156   1.253   2.564
 5215TIP3   OH215608   2.648   1.062   3.974
 5215TIP3    H115609   2.559   1.037   3.950
 5215TIP3    H215610   2.703   0.991   3.941
 5216TIP3   OH215611   3.813   6.156   3.947
 5216TIP3    H115612   3.903   6.168   3.977
 5216TIP3    H215613   3.775   6.095   4.010
 5217TIP3   OH215614   2.787   1.718   3.183
 5217TIP3    H115615   2.786   1.624   3.200
 5217TIP3    H215616   2.873   1.735   3.146
 5218TIP3   OH215617   2.184   6.230   5.402
 5218TIP3    H115618   2.193   6.289   5.476
 5218TIP3    H215619   2.139   6.153   5.439
 5219TIP3   OH215620   0.314   3.381   3.478
 5219TIP3    H115621   0.279   3.311   3.534
 5219TIP3    H215622   0.362   3.438   3.539
 5220TIP3   OH215623   4.053   1.910   1.784
 5220TIP3    H115624   4.029   1.849   1.853
 5220TIP3    H215625   4.008   1.878   1.706
 5221TIP3   OH215626   2.651   4.152   5.229
 5221TIP3    H115627   2.729   4.207   5.242
 5221TIP3    H215628   2.664   4.079   5.290
 5222TIP3   OH215629   3.231   3.821   3.352
 5222TIP3    H115630   3.205   3.868   3.431
 5222TIP3    H215631   3.298   3.876   3.312
 5223TIP3   OH215632   0.641   3.359   1.929
 5223TIP3    H115633   0.733   3.372   1.906
 5223TIP3    H215634   0.643   3.287   1.992
 5224TIP3   OH215635   6.293   6.309   4.311
 5224TIP3    H115636   6.370   6.275   4.267
 5224TIP3    H215637   6.310   6.403   4.320
 5225TIP3   OH215638   4.568   5.150   1.478
 5225TIP3    H115639   4.607   5.207   1.411
 5225TIP3    H215640   4.552   5.067   1.433
 5226TIP3   OH215641   3.473   3.280   3.230
 5226TIP3    H115642   3.391   3.266   3.181
 5226TIP3    H215643   3.447   3.271   3.322
 5227TIP3   OH215644   6.408   5.793   4.147
 5227TIP3    H115645   6.486   5.753   4.186
 5227TIP3    H215646   6.438   5.827   4.063
 5228TIP3   OH215647   2.723   4.142   4.502
 5228TIP3    H115648   2.692   4.070   4.558
 5228TIP3    H215649   2.812   4.118   4.479
 5229TIP3   OH215650   0.995   1.019   5.284
 5229TIP3    H115651   0.962   1.097   5.328
 5229TIP3    H215652   1.090   1.022   5.295
 5230TIP3   OH215653   6.229   4.907   3.370
 5230TIP3    H115654   6.261   4.853   3.442
 5230TIP3    H215655   6.274   4.991   3.381
 5231TIP3   OH215656   3.082   0.337   0.129
 5231TIP3    H115657   3.054   0.360   0.218
 5231TIP3    H215658   3.092   0.421   0.084
 5232TIP3   OH215659   1.821   3.399   0.341
 5232TIP3    H115660   1.905   3.424   0.378
 5232TIP3    H215661   1.790   3.328   0.397
 5233TIP3   OH215662   5.492   5.465   3.763
 5233TIP3    H115663   5.558   5.407   3.725
 5233TIP3    H215664   5.542   5.539   3.798
 5234TIP3   OH215665   6.995   0.744   2.794
 5234TIP3    H115666   6.972   0.831   2.828
 5234TIP3    H215667   6.953   0.741   2.708
 5235TIP3   OH215668   0.182   3.062   0.764
 5235TIP3    H115669   0.178   3.059   0.860
 5235TIP3    H215670   0.137   3.143   0.741
 5236TIP3   OH215671   2.282   0.494   0.349
 5236TIP3    H115672   2.295   0.471   0.441
 5236TIP3    H215673   2.241   0.417   0.310
 5237TIP3   OH215674   5.736   2.724   4.775
 5237TIP3    H115675   5.812   2.748   4.827
 5237TIP3    H215676   5.729   2.792   4.708
 5238TIP3   OH215677   6.407   6.651   5.005
 5238TIP3    H115678   6.360   6.616   5.081
 5238TIP3    H215679   6.398   6.584   4.938
 5239TIP3   OH215680   6.255   4.013   4.952
 5239TIP3    H115681   6.327   3.959   4.921
 5239TIP3    H215682   6.277   4.102   4.923
 5240TIP3   OH215683   5.246   1.232   3.329
 5240TIP3    H115684   5.227   1.186   3.248
 5240TIP3    H215685   5.200   1.315   3.321
 5241TIP3   OH215686   1.208   3.272   3.414
 5241TIP3    H115687   1.214   3.316   3.499
 5241TIP3    H215688   1.226   3.180   3.433
 5242TIP3   OH215689   5.390   3.547   1.993
 5242TIP3    H115690   5.436   3.487   2.052
 5242TIP3    H215691   5.304   3.507   1.980
 5243TIP3   OH215692   2.788   5.754   5.201
 5243TIP3    H115693   2.853   5.686   5.212
 5243TIP3    H215694   2.838   5.836   5.204
 5244TIP3   OH215695   1.362   2.967   0.446
 5244TIP3    H115696   1.272   2.935   0.440
 5244TIP3    H215697   1.397   2.959   0.357
 5245TIP3   OH215698   4.773   2.242   2.980
 5245TIP3    H115699   4.723   2.178   2.929
 5245TIP3    H215700   4.865   2.221   2.960
 5246TIP3   OH215701   1.245   4.807   4.238
 5246TIP3    H115702   1.162   4.845   4.208
 5246TIP3    H215703   1.260   4.734   4.178
 5247TIP3   OH215704   5.767   0.966   4.162
 5247TIP3    H115705   5.852   0.943   4.126
 5247TIP3    H215706   5.764   1.062   4.158
 5248TIP3   OH215707   7.089   1.710   5.313
 5248TIP3    H115708   7.043   1.763   5.379
 5248TIP3    H215709   7.054   1.740   5.229
 5249TIP3   OH215710   6.617   0.244   5.204
 5249TIP3    H115711   6.679   0.291   5.148
 5249TIP3    H215712   6.672   0.188   5.259
 5250TIP3   OH215713   0.745   1.587   4.716
 5250TIP3    H115714   0.659   1.597   4.676
 5250TIP3    H215715   0.749   1.656   4.782
 5251TIP3   OH215716   3.040   4.605   1.077
 5251TIP3    H115717   2.972   4.663   1.111
 5251TIP3    H215718   3.120   4.633   1.121
 5252TIP3   OH215719   3.306   4.594   0.278
 5252TIP3    H115720   3.278   4.683   0.300
 5252TIP3    H215721   3.233   4.539   0.307
 5253TIP3   OH215722   3.441   0.806   3.953
 5253TIP3    H115723   3.361   0.852   3.980
 5253TIP3    H215724   3.434   0.720   3.995
 5254TIP3   OH215725   2.173   4.380   0.236
 5254TIP3    H115726   2.205   4.397   0.325
 5254TIP3    H215727   2.252   4.376   0.183
 5255TIP3   OH215728   0.200   1.947   1.312
 5255TIP3    H115729   0.239   2.033   1.324
 5255TIP3    H215730   0.263   1.900   1.257
 5256TIP3   OH215731   6.644   6.800   3.238
 5256TIP3    H115732   6.697   6.850   3.177
 5256TIP3    H215733   6.639   6.712   3.199
 5257TIP3   OH215734   3.887   5.453   2.547
 5257TIP3    H115735   3.909   5.386   2.482
 5257TIP3    H215736   3.930   5.532   2.515
 5258TIP3   OH215737   7.190   2.581   0.088
 5258TIP3    H115738   7.230   2.636   0.154
 5258TIP3    H215739   7.188   2.494   0.128
 5259TIP3   OH215740   3.827   5.674   3.959
 5259TIP3    H115741   3.843   5.749   3.902
 5259TIP3    H215742   3.888   5.686   4.032
 5260TIP3   OH215743   0.695   2.561   4.424
 5260TIP3    H115744   0.713   2.650   4.452
 5260TIP3    H215745   0.760   2.543   4.356
 5261TIP3   OH215746   0.879   4.375   1.085
 5261TIP3    H115747   0.865   4.413   0.999
 5261TIP3    H215748   0.892   4.451   1.143
 5262TIP3   OH215749   4.580   5.456   3.854
 5262TIP3    H115750   4.584   5.379   3.797
 5262TIP3    H215751   4.498   5.448   3.902
 5263TIP3   OH215752   5.740   3.062   4.949
 5263TIP3    H115753   5.778   2.985   4.992
 5263TIP3    H215754   5.755   3.047   4.856
 5264TIP3   OH215755   2.135   5.464   1.110
 5264TIP3    H115756   2.074   5.533   1.135
 5264TIP3    H215757   2.091   5.419   1.037
 5265TIP3   OH215758   6.445   3.276   4.496
 5265TIP3    H115759   6.356   3.311   4.509
 5265TIP3    H215760   6.494   3.350   4.461
 5266TIP3   OH215761   0.981   2.795   2.549
 5266TIP3    H115762   0.992   2.714   2.498
 5266TIP3    H215763   0.887   2.803   2.560
 5267TIP3   OH215764   4.786   1.868   5.427
 5267TIP3    H115765   4.864   1.814   5.416
 5267TIP3    H215766   4.741   1.831   5.503
 5268TIP3   OH215767   5.536   0.744   1.168
 5268TIP3    H115768   5.554   0.759   1.261
 5268TIP3    H215769   5.592   0.669   1.145
 5269TIP3   OH215770   6.721   3.246   0.216
 5269TIP3    H115771   6.777   3.210   0.285
 5269TIP3    H215772   6.664   3.172   0.191
 5270TIP3   OH215773   3.401   4.176   1.026
 5270TIP3    H115774   3.390   4.141   1.115
 5270TIP3    H215775   3.409   4.271   1.039
 5271TIP3   OH215776   5.642   4.599   1.409
 5271TIP3    H115777   5.715   4.547   1.377
 5271TIP3    H215778   5.588   4.613   1.331
 5272TIP3   OH215779   4.794   4.633   3.740
 5272TIP3    H115780   4.753   4.560   3.694
 5272TIP3    H215781   4.870   4.595   3.783
 5273TIP3   OH215782   3.349   4.867   5.069
 5273TIP3    H115783   3.298   4.925   5.013
 5273TIP3    H215784   3.435   4.909   5.075
 5274TIP3   OH215785   4.283   2.705   1.866
 5274TIP3    H115786   4.275   2.610   1.858
 5274TIP3    H215787   4.247   2.740   1.785
 5275TIP3   OH215788   0.825   5.292   2.661
 5275TIP3    H115789   0.864   5.303   2.574
 5275TIP3    H215790   0.887   5.235   2.707
 5276TIP3   OH215791   1.031   2.030   4.318
 5276TIP3    H115792   1.045   1.942   4.285
 5276TIP3    H215793   1.112   2.076   4.299
 5277TIP3   OH215794   2.122   4.798   4.524
 5277TIP3    H115795   2.166   4.882   4.516
 5277TIP3    H215796   2.075   4.787   4.441
 5278TIP3   OH215797   4.697   6.381   0.294
 5278TIP3    H115798   4.763   6.336   0.241
 5278TIP3    H215799   4.748   6.430   0.359
 5279TIP3   OH215800   1.426   1.944   1.553
 5279TIP3    H115801   1.514   1.911   1.535
 5279TIP3    H215802   1.440   2.028   1.597
 5280TIP3   OH215803   0.342   2.166   0.901
 5280TIP3    H115804   0.303   2.211   0.976
 5280TIP3    H215805   0.435   2.187   0.906
 5281TIP3   OH215806   4.982   0.291   1.893
 5281TIP3    H115807   5.050   0.345   1.935
 5281TIP3    H215808   5.005   0.293   1.800
 5282TIP3   OH215809   1.095   3.201   2.670
 5282TIP3    H115810   1.168   3.155   2.711
 5282TIP3    H215811   1.036   3.223   2.742
 5283TIP3   OH215812   3.702   4.847   3.748
 5283TIP3    H115813   3.616   4.810   3.728
 5283TIP3    H215814   3.686   4.906   3.822
 5284TIP3   OH215815   2.428   1.520   5.742
 5284TIP3    H115816   2.414   1.426   5.752
 5284TIP3    H215817   2.340   1.557   5.738
 5285TIP3   OH215818   4.101   0.809   1.869
 5285TIP3    H115819   4.130   0.723   1.840
 5285TIP3    H215820   4.162   0.833   1.939
 5286TIP3   OH215821   6.622   3.698   3.846
 5286TIP3    H115822   6.562   3.628   3.821
 5286TIP3    H215823   6.565   3.774   3.862
 5287TIP3   OH215824   3.056   1.631   5.733
 5287TIP3    H115825   3.021   1.710   5.773
 5287TIP3    H215826   3.068   1.570   5.806
 5288TIP3   OH215827   0.667   3.115   5.490
 5288TIP3    H115828   0.719   3.035   5.486
 5288TIP3    H215829   0.610   3.111   5.413
 5289TIP3   OH215830   0.709   1.615   5.819
 5289TIP3    H115831   0.741   1.690   5.769
 5289TIP3    H215832   0.783   1.555   5.823
 5290TIP3   OH215833   1.850   1.896   5.083
 5290TIP3    H115834   1.919   1.836   5.055
 5290TIP3    H215835   1.782   1.888   5.017
 5291TIP3   OH215836   6.778   4.207   4.022
 5291TIP3    H115837   6.771   4.188   4.115
 5291TIP3    H215838   6.866   4.246   4.013
 5292TIP3   OH215839   5.828   4.155   3.061
 5292TIP3    H115840   5.813   4.061   3.048
 5292TIP3    H215841   5.847   4.164   3.155
 5293TIP3   OH215842   3.444   3.798   2.746
 5293TIP3    H115843   3.368   3.741   2.750
 5293TIP3    H215844   3.410   3.885   2.767
 5294TIP3   OH215845   6.177   1.138   5.072
 5294TIP3    H115846   6.183   1.047   5.101
 5294TIP3    H215847   6.116   1.135   4.998
 5295TIP3   OH215848   4.688   2.031   2.842
 5295TIP3    H115849   4.683   2.019   2.747
 5295TIP3    H215850   4.608   1.990   2.876
 5296TIP3   OH215851   3.041   0.666   1.692
 5296TIP3    H115852   2.977   0.736   1.676
 5296TIP3    H215853   3.126   0.711   1.689
 5297TIP3   OH215854   3.386   1.325   3.467
 5297TIP3    H115855   3.411   1.378   3.542
 5297TIP3    H215856   3.404   1.381   3.391
 5298TIP3   OH215857   0.074   0.285   4.582
 5298TIP3    H115858   0.092   0.348   4.512
 5298TIP3    H215859   0.156   0.236   4.592
 5299TIP3   OH215860   4.163   1.353   5.583
 5299TIP3    H115861   4.142   1.293   5.654
 5299TIP3    H215862   4.097   1.422   5.589
 5300TIP3   OH215863   6.038   4.233   0.552
 5300TIP3    H115864   6.039   4.242   0.457
 5300TIP3    H215865   6.071   4.144   0.567
 5301TIP3   OH215866   6.595   2.303   5.159
 5301TIP3    H115867   6.542   2.238   5.114
 5301TIP3    H215868   6.532   2.368   5.191
 5302TIP3   OH215869   1.045   2.419   5.200
 5302TIP3    H115870   1.133   2.415   5.162
 5302TIP3    H215871   1.020   2.327   5.212
 5303TIP3   OH215872   5.618   3.870   4.786
 5303TIP3    H115873   5.684   3.825   4.839
 5303TIP3    H215874   5.612   3.957   4.824
 5304TIP3   OH215875   2.751   0.705   5.774
 5304TIP3    H115876   2.659   0.693   5.796
 5304TIP3    H215877   2.776   0.623   5.730
 5305TIP3   OH215878   0.148   2.932   0.189
 5305TIP3    H115879   0.132   2.846   0.227
 5305TIP3    H215880   0.061   2.968   0.172
 5306TIP3   OH215881   6.868   2.404   2.983
 5306TIP3    H115882   6.890   2.380   3.073
 5306TIP3    H215883   6.951   2.431   2.945
 5307TIP3   OH215884   1.017   6.178   0.321
 5307TIP3    H115885   0.969   6.236   0.380
 5307TIP3    H215886   0.958   6.103   0.308
 5308TIP3   OH215887   4.995   0.434   1.626
 5308TIP3    H115888   4.966   0.391   1.546
 5308TIP3    H215889   5.058   0.500   1.597
 5309TIP3   OH215890   3.942   0.668   4.438
 5309TIP3    H115891   3.929   0.592   4.494
 5309TIP3    H215892   3.880   0.657   4.366
 5310TIP3   OH215893   5.618   1.708   3.095
 5310TIP3    H115894   5.522   1.706   3.096
 5310TIP3    H215895   5.643   1.703   3.187
 5311TIP3   OH215896   5.286   2.459   3.730
 5311TIP3    H115897   5.197   2.484   3.757
 5311TIP3    H215898   5.336   2.456   3.812
 5312TIP3   OH215899   0.861   6.714   2.917
 5312TIP3    H115900   0.810   6.643   2.957
 5312TIP3    H215901   0.797   6.780   2.893
 5313TIP3   OH215902   6.040   5.296   5.469
 5313TIP3    H115903   6.045   5.205   5.495
 5313TIP3    H215904   5.956   5.326   5.502
 5314TIP3   OH215905   2.256   5.307   0.061
 5314TIP3    H115906   2.310   5.305  -0.018
 5314TIP3    H215907   2.178   5.258   0.038
 5315TIP3   OH215908   5.341   2.731   5.672
 5315TIP3    H115909   5.341   2.771   5.759
 5315TIP3    H215910   5.255   2.751   5.636
 5316TIP3   OH215911   5.421   6.223   2.418
 5316TIP3    H115912   5.479   6.187   2.351
 5316TIP3    H215913   5.395   6.146   2.470
 5317TIP3   OH215914   0.310   3.954   2.160
 5317TIP3    H115915   0.285   3.889   2.226
 5317TIP3    H215916   0.299   4.038   2.203
 5318TIP3   OH215917   2.831   0.944   3.544
 5318TIP3    H115918   2.793   0.956   3.457
 5318TIP3    H215919   2.853   1.033   3.572
 5319TIP3   OH215920   2.128   2.739   3.362
 5319TIP3    H115921   2.171   2.654   3.378
 5319TIP3    H215922   2.156   2.764   3.274
 5320TIP3   OH215923   0.562   3.619   5.132
 5320TIP3    H115924   0.565   3.663   5.216
 5320TIP3    H215925   0.612   3.539   5.145
 5321TIP3   OH215926   0.346   1.678   5.143
 5321TIP3    H115927   0.422   1.651   5.092
 5321TIP3    H215928   0.378   1.683   5.233
 5322TIP3   OH215929   1.199   2.117   3.567
 5322TIP3    H115930   1.226   2.095   3.478
 5322TIP3    H215931   1.259   2.186   3.594
 5323TIP3   OH215932   5.151   5.007   3.327
 5323TIP3    H115933   5.136   4.924   3.372
 5323TIP3    H215934   5.133   4.988   3.235
 5324TIP3   OH215935   3.547   2.200   0.618
 5324TIP3    H115936   3.539   2.284   0.665
 5324TIP3    H215937   3.641   2.187   0.610
 5325TIP3   OH215938   0.879   5.373   2.074
 5325TIP3    H115939   0.903   5.285   2.106
 5325TIP3    H215940   0.908   5.373   1.982
 5326TIP3   OH215941   6.194   6.745   0.921
 5326TIP3    H115942   6.225   6.726   1.009
 5326TIP3    H215943   6.103   6.773   0.934
 5327TIP3   OH215944   7.168   0.046   4.850
 5327TIP3    H115945   7.155  -0.031   4.906
 5327TIP3    H215946   7.225   0.014   4.779
 5328TIP3   OH215947   1.040   6.392   5.306
 5328TIP3    H115948   1.008   6.476   5.339
 5328TIP3    H215949   0.961   6.346   5.277
 5329TIP3   OH215950   2.339   0.785   1.484
 5329TIP3    H115951   2.330   0.758   1.575
 5329TIP3    H215952   2.403   0.723   1.447
 5330TIP3   OH215953   3.754   3.735   0.234
 5330TIP3    H115954   3.686   3.798   0.208
 5330TIP3    H215955   3.795   3.709   0.152
 5331TIP3   OH215956   5.367   6.561   0.577
 5331TIP3    H115957   5.389   6.471   0.555
 5331TIP3    H215958   5.441   6.592   0.629
 5332TIP3   OH215959   5.180   1.933   4.679
 5332TIP3    H115960   5.118   1.967   4.615
 5332TIP3    H215961   5.250   1.894   4.626
 5333TIP3   OH215962   5.459   2.094   2.392
 5333TIP3    H115963   5.403   2.161   2.354
 5333TIP3    H215964   5.547   2.132   2.390
 5334TIP3   OH215965   2.035   0.903   3.705
 5334TIP3    H115966   1.970   0.862   3.762
 5334TIP3    H215967   2.093   0.832   3.678
 5335TIP3   OH215968   7.062   1.202   4.984
 5335TIP3    H115969   7.155   1.218   4.999
 5335TIP3    H215970   7.059   1.126   4.927
 5336TIP3   OH215971   5.653   2.108   0.583
 5336TIP3    H115972   5.693   2.086   0.499
 5336TIP3    H215973   5.592   2.037   0.600
 5337TIP3   OH215974   2.275   3.189   1.460
 5337TIP3    H115975   2.196   3.240   1.478
 5337TIP3    H215976   2.323   3.190   1.543
 5338TIP3   OH215977   4.378   4.947   5.113
 5338TIP3    H115978   4.286   4.934   5.139
 5338TIP3    H215979   4.394   4.881   5.046
 5339TIP3   OH215980   0.515   5.313   3.784
 5339TIP3    H115981   0.582   5.346   3.724
 5339TIP3    H215982   0.563   5.292   3.864
 5340TIP3   OH215983   1.923   4.242   0.776
 5340TIP3    H115984   2.018   4.251   0.781
 5340TIP3    H215985   1.908   4.177   0.707
 5341TIP3   OH215986   5.826   3.392   1.866
 5341TIP3    H115987   5.843   3.393   1.960
 5341TIP3    H215988   5.913   3.387   1.826
 5342TIP3   OH215989   3.179   2.910   3.079
 5342TIP3    H115990   3.175   2.913   2.984
 5342TIP3    H215991   3.230   2.830   3.098
 5343TIP3   OH215992   3.170   1.533   3.700
 5343TIP3    H115993   3.209   1.464   3.754
 5343TIP3    H215994   3.130   1.486   3.627
 5344TIP3   OH215995   5.009   2.488   3.822
 5344TIP3    H115996   4.999   2.452   3.910
 5344TIP3    H215997   4.936   2.548   3.812
 5345TIP3   OH215998   4.960   6.154   5.337
 5345TIP3    H115999   4.934   6.071   5.296
 5345TIP3    H216000   4.925   6.150   5.425
 5346TIP3   OH216001   2.807   5.287   3.804
 5346TIP3    H116002   2.818   5.378   3.777
 5346TIP3    H216003   2.824   5.288   3.899
 5347TIP3   OH216004   4.904   4.753   0.732
 5347TIP3    H116005   4.908   4.659   0.713
 5347TIP3    H216006   4.811   4.774   0.729
 5348TIP3   OH216007   4.517   4.661   4.629
 5348TIP3    H116008   4.475   4.732   4.580
 5348TIP3    H216009   4.597   4.642   4.579
 5349TIP3   OH216010   2.233   5.207   5.053
 5349TIP3    H116011   2.310   5.184   5.106
 5349TIP3    H216012   2.170   5.137   5.071
 5350TIP3   OH216013   0.301   0.949   5.407
 5350TIP3    H116014   0.289   0.855   5.396
 5350TIP3    H216015   0.373   0.957   5.469
 5351TIP3   OH216016   4.823   0.832   5.594
 5351TIP3    H116017   4.896   0.781   5.560
 5351TIP3    H216018   4.856   0.870   5.675
 5352TIP3   OH216019   1.114   0.680   4.452
 5352TIP3    H116020   1.116   0.725   4.536
 5352TIP3    H216021   1.023   0.687   4.423
 5353TIP3   OH216022   5.603   3.941   3.815
 5353TIP3    H116023   5.657   3.974   3.743
 5353TIP3    H216024   5.620   4.001   3.887
 5354TIP3   OH216025   4.894   2.270   4.749
 5354TIP3    H116026   4.986   2.248   4.742
 5354TIP3    H216027   4.893   2.363   4.771
 5355TIP3   OH216028   4.725   0.728   4.928
 5355TIP3    H116029   4.755   0.818   4.912
 5355TIP3    H216030   4.637   0.738   4.965
 5356TIP3   OH216031   5.420   4.513   2.874
 5356TIP3    H116032   5.393   4.600   2.902
 5356TIP3    H216033   5.343   4.458   2.888
 5357TIP3   OH216034   3.645   1.949   3.382
 5357TIP3    H116035   3.740   1.965   3.375
 5357TIP3    H216036   3.627   1.954   3.475
 5358TIP3   OH216037   6.090   1.149   2.251
 5358TIP3    H116038   6.040   1.181   2.176
 5358TIP3    H216039   6.041   1.073   2.282
 5359TIP3   OH216040   0.202   5.436   5.857
 5359TIP3    H116041   0.160   5.480   5.784
 5359TIP3    H216042   0.296   5.447   5.842
 5360TIP3   OH216043   5.493   0.687   1.847
 5360TIP3    H116044   5.532   0.761   1.802
 5360TIP3    H216045   5.514   0.700   1.939
 5361TIP3   OH216046   1.333   0.260   2.648
 5361TIP3    H116047   1.423   0.269   2.616
 5361TIP3    H216048   1.328   0.321   2.721
 5362TIP3   OH216049   3.843   3.471   1.037
 5362TIP3    H116050   3.831   3.432   0.950
 5362TIP3    H216051   3.774   3.536   1.044
 5363TIP3   OH216052   3.880   3.064   4.153
 5363TIP3    H116053   3.894   2.970   4.144
 5363TIP3    H216054   3.786   3.074   4.165
 5364TIP3   OH216055   3.587   5.485   3.611
 5364TIP3    H116056   3.633   5.569   3.603
 5364TIP3    H216057   3.515   5.491   3.549
 5365TIP3   OH216058   4.840   5.245   3.868
 5365TIP3    H116059   4.816   5.338   3.875
 5365TIP3    H216060   4.834   5.225   3.775
 5366TIP3   OH216061   2.453   6.298   2.377
 5366TIP3    H116062   2.486   6.209   2.389
 5366TIP3    H216063   2.358   6.289   2.374
 5367TIP3   OH216064   6.458   4.611   1.272
 5367TIP3    H116065   6.477   4.701   1.243
 5367TIP3    H216066   6.543   4.567   1.267
 5368TIP3   OH216067   6.313   5.874   4.482
 5368TIP3    H116068   6.385   5.824   4.521
 5368TIP3    H216069   6.263   5.809   4.432
 5369TIP3   OH216070   3.961   2.477   2.728
 5369TIP3    H116071   3.891   2.473   2.662
 5369TIP3    H216072   3.915   2.467   2.812
 5370TIP3   OH216073   5.189   6.415   2.419
 5370TIP3    H116074   5.170   6.396   2.510
 5370TIP3    H216075   5.252   6.347   2.393
 5371TIP3   OH216076   1.826   1.715  -0.010
 5371TIP3    H116077   1.774   1.796  -0.012
 5371TIP3    H216078   1.812   1.680   0.078
 5372TIP3   OH216079   3.983   5.024   3.326
 5372TIP3    H116080   4.032   4.963   3.381
 5372TIP3    H216081   3.959   4.973   3.248
 5373TIP3   OH216082   3.141   1.735   2.113
 5373TIP3    H116083   3.116   1.726   2.206
 5373TIP3    H216084   3.228   1.696   2.108
 5374TIP3   OH216085   3.542   4.199   1.671
 5374TIP3    H116086   3.536   4.293   1.654
 5374TIP3    H216087   3.455   4.174   1.701
 5375TIP3   OH216088   5.943   2.179   3.837
 5375TIP3    H116089   5.943   2.112   3.770
 5375TIP3    H216090   5.895   2.252   3.798
 5376TIP3   OH216091   1.257   5.279   0.741
 5376TIP3    H116092   1.256   5.277   0.837
 5376TIP3    H216093   1.338   5.236   0.717
 5377TIP3   OH216094   1.258   5.404   1.780
 5377TIP3    H116095   1.238   5.418   1.688
 5377TIP3    H216096   1.200   5.465   1.826
 5378TIP3   OH216097   5.083   2.987   2.827
 5378TIP3    H116098   5.101   2.921   2.759
 5378TIP3    H216099   4.987   2.987   2.834
 5379TIP3   OH216100   4.122   1.996   2.469
 5379TIP3    H116101   4.043   1.954   2.503
 5379TIP3    H216102   4.097   2.029   2.383
 5380TIP3   OH216103   2.305   0.643   3.264
 5380TIP3    H116104   2.211   0.625   3.267
 5380TIP3    H216105   2.346   0.560   3.288
 5381TIP3   OH216106   5.158   5.601   5.713
 5381TIP3    H116107   5.175   5.592   5.620
 5381TIP3    H216108   5.245   5.598   5.754
 5382TIP3   OH216109   1.473   5.311   2.642
 5382TIP3    H116110   1.562   5.339   2.617
 5382TIP3    H216111   1.469   5.326   2.737
 5383TIP3   OH216112   0.058   2.174   1.476
 5383TIP3    H116113   0.024   2.247   1.424
 5383TIP3    H216114   0.146   2.160   1.442
 5384TIP3   OH216115   6.065   2.344   1.241
 5384TIP3    H116116   6.159   2.341   1.261
 5384TIP3    H216117   6.061   2.356   1.146
 5385TIP3   OH216118   1.878   1.679   3.863
 5385TIP3    H116119   1.873   1.699   3.956
 5385TIP3    H216120   1.935   1.747   3.826
 5386TIP3   OH216121   5.317   5.409   1.949
 5386TIP3    H116122   5.253   5.379   2.014
 5386TIP3    H216123   5.401   5.401   1.994
 5387TIP3   OH216124   6.877   2.553   3.783
 5387TIP3    H116125   6.925   2.550   3.700
 5387TIP3    H216126   6.945   2.540   3.850
 5388TIP3   OH216127   7.117   1.102   2.689
 5388TIP3    H116128   7.174   1.025   2.679
 5388TIP3    H216129   7.139   1.137   2.775
 5389TIP3   OH216130   3.202   6.022   3.771
 5389TIP3    H116131   3.161   5.942   3.738
 5389TIP3    H216132   3.284   5.993   3.810
 5390TIP3   OH216133   6.272   1.291   1.011
 5390TIP3    H116134   6.303   1.308   1.100
 5390TIP3    H216135   6.302   1.201   0.992
 5391TIP3   OH216136   6.873   6.104   3.198
 5391TIP3    H116137   6.780   6.081   3.199
 5391TIP3    H216138   6.875   6.195   3.169
 5392TIP3   OH216139   3.281   1.933   1.387
 5392TIP3    H116140   3.303   1.884   1.308
 5392TIP3    H216141   3.352   1.997   1.396
 5393TIP3   OH216142   4.231   5.184   4.860
 5393TIP3    H116143   4.251   5.093   4.840
 5393TIP3    H216144   4.305   5.214   4.914
 5394TIP3   OH216145   1.834   6.651   0.091
 5394TIP3    H116146   1.867   6.732   0.129
 5394TIP3    H216147   1.845   6.585   0.160
 5395TIP3   OH216148   3.147   6.152   0.069
 5395TIP3    H116149   3.201   6.123   0.143
 5395TIP3    H216150   3.088   6.217   0.106
 5396TIP3   OH216151   3.628   4.024   1.853
 5396TIP3    H116152   3.609   4.104   1.805
 5396TIP3    H216153   3.724   4.022   1.861
 5397TIP3   OH216154   5.863   1.785   4.505
 5397TIP3    H116155   5.915   1.707   4.486
 5397TIP3    H216156   5.773   1.753   4.509
 5398TIP3   OH216157   3.689   3.170   0.282
 5398TIP3    H116158   3.636   3.177   0.202
 5398TIP3    H216159   3.778   3.192   0.254
 5399TIP3   OH216160   4.003   1.628   0.916
 5399TIP3    H116161   3.927   1.583   0.880
 5399TIP3    H216162   4.036   1.682   0.844
 5400TIP3   OH216163   2.929   4.146   1.080
 5400TIP3    H116164   2.975   4.228   1.063
 5400TIP3    H216165   2.998   4.084   1.104
 5401TIP3   OH216166   1.232   4.708   0.792
 5401TIP3    H116167   1.177   4.640   0.832
 5401TIP3    H216168   1.312   4.709   0.845
 5402TIP3   OH216169   4.030   1.723   5.191
 5402TIP3    H116170   4.121   1.739   5.167
 5402TIP3    H216171   4.004   1.650   5.134
 5403TIP3   OH216172   2.542   1.032   3.442
 5403TIP3    H116173   2.527   1.012   3.535
 5403TIP3    H216174   2.471   0.986   3.396
 5404TIP3   OH216175   5.938   1.311   0.303
 5404TIP3    H116176   5.862   1.253   0.294
 5404TIP3    H216177   5.985   1.303   0.220
 5405TIP3   OH216178   7.181   4.321   0.771
 5405TIP3    H116179   7.244   4.254   0.795
 5405TIP3    H216180   7.209   4.350   0.684
 5406TIP3   OH216181   3.872   1.859   2.289
 5406TIP3    H116182   3.848   1.905   2.369
 5406TIP3    H216183   3.948   1.907   2.256
 5407TIP3   OH216184   0.740   5.555   3.851
 5407TIP3    H116185   0.788   5.473   3.862
 5407TIP3    H216186   0.681   5.559   3.926
 5408TIP3   OH216187   3.587   3.781   3.003
 5408TIP3    H116188   3.565   3.700   3.049
 5408TIP3    H216189   3.531   3.781   2.925
 5409TIP3   OH216190   3.448   5.896   1.256
 5409TIP3    H116191   3.535   5.884   1.294
 5409TIP3    H216192   3.433   5.991   1.260
 5410TIP3   OH216193   0.239   4.977   3.461
 5410TIP3    H116194   0.225   5.066   3.430
 5410TIP3    H216195   0.321   4.982   3.511
 5411TIP3   OH216196   5.040   4.377   2.106
 5411TIP3    H116197   5.062   4.467   2.132
 5411TIP3    H216198   5.001   4.338   2.184
 5412TIP3   OH216199   1.810   1.396   4.205
 5412TIP3    H116200   1.768   1.389   4.120
 5412TIP3    H216201   1.889   1.343   4.198
 5413TIP3   OH216202   3.681   0.384   1.785
 5413TIP3    H116203   3.710   0.398   1.695
 5413TIP3    H216204   3.758   0.402   1.838
 5414TIP3   OH216205   6.441   1.116   2.833
 5414TIP3    H116206   6.437   1.207   2.806
 5414TIP3    H216207   6.352   1.096   2.863
 5415TIP3   OH216208   6.782   1.167   4.376
 5415TIP3    H116209   6.776   1.260   4.397
 5415TIP3    H216210   6.704   1.128   4.414
 5416TIP3   OH216211   3.169   2.005   2.478
 5416TIP3    H116212   3.214   2.086   2.502
 5416TIP3    H216213   3.233   1.936   2.499
 5417TIP3   OH216214   3.614   4.014   1.130
 5417TIP3    H116215   3.636   4.009   1.223
 5417TIP3    H216216   3.559   3.938   1.114
 5418TIP3   OH216217   3.717   6.389   4.572
 5418TIP3    H116218   3.779   6.390   4.645
 5418TIP3    H216219   3.730   6.304   4.530
 5419TIP3   OH216220   1.601   0.302   2.650
 5419TIP3    H116221   1.671   0.359   2.621
 5419TIP3    H216222   1.565   0.345   2.728
 5420TIP3   OH216223   5.358   4.536   4.155
 5420TIP3    H116224   5.403   4.451   4.157
 5420TIP3    H216225   5.318   4.544   4.241
 5421TIP3   OH216226   0.156   2.474   1.994
 5421TIP3    H116227   0.152   2.389   2.038
 5421TIP3    H216228   0.064   2.499   1.982
 5422TIP3   OH216229   4.980   3.597   2.497
 5422TIP3    H116230   4.900   3.544   2.496
 5422TIP3    H216231   5.050   3.535   2.480
 5423TIP3   OH216232   1.848   1.683   4.296
 5423TIP3    H116233   1.942   1.697   4.303
 5423TIP3    H216234   1.840   1.589   4.279
 5424TIP3   OH216235   2.177   1.440   2.250
 5424TIP3    H116236   2.176   1.520   2.197
 5424TIP3    H216237   2.192   1.470   2.339
 5425TIP3   OH216238   0.825   6.731   5.211
 5425TIP3    H116239   0.736   6.720   5.179
 5425TIP3    H216240   0.849   6.820   5.185
 5426TIP3   OH216241   5.521   3.229   5.597
 5426TIP3    H116242   5.556   3.177   5.669
 5426TIP3    H216243   5.542   3.319   5.620
 5427TIP3   OH216244   2.215   6.365   0.144
 5427TIP3    H116245   2.249   6.451   0.170
 5427TIP3    H216246   2.266   6.303   0.194
 5428TIP3   OH216247   4.980   4.608   2.720
 5428TIP3    H116248   5.025   4.687   2.688
 5428TIP3    H216249   5.021   4.536   2.673
 5429TIP3   OH216250   6.184   3.320   2.554
 5429TIP3    H116251   6.149   3.290   2.470
 5429TIP3    H216252   6.276   3.292   2.553
 5430TIP3   OH216253   4.711   1.620   0.397
 5430TIP3    H116254   4.786   1.567   0.426
 5430TIP3    H216255   4.740   1.660   0.315
 5431TIP3   OH216256   3.827   0.104   2.242
 5431TIP3    H116257   3.914   0.081   2.274
 5431TIP3    H216258   3.773   0.027   2.261
 5432TIP3   OH216259   6.089   0.614   5.499
 5432TIP3    H116260   6.146   0.665   5.441
 5432TIP3    H216261   6.148   0.551   5.541
 5433TIP3   OH216262   5.697   1.198   1.039
 5433TIP3    H116263   5.704   1.276   1.094
 5433TIP3    H216264   5.741   1.129   1.089
 5434TIP3   OH216265   4.707   5.103   4.549
 5434TIP3    H116266   4.726   5.024   4.599
 5434TIP3    H216267   4.741   5.083   4.461
 5435TIP3   OH216268   4.096   4.342   1.430
 5435TIP3    H116269   4.053   4.271   1.478
 5435TIP3    H216270   4.183   4.348   1.469
 5436TIP3   OH216271   5.971   6.316   0.431
 5436TIP3    H116272   5.899   6.376   0.449
 5436TIP3    H216273   6.044   6.349   0.484
 5437TIP3   OH216274   3.491   2.802   4.744
 5437TIP3    H116275   3.490   2.762   4.831
 5437TIP3    H216276   3.434   2.879   4.752
 5438TIP3   OH216277   2.060   6.574   3.145
 5438TIP3    H116278   2.101   6.658   3.128
 5438TIP3    H216279   2.056   6.531   3.060
 5439TIP3   OH216280   4.440   1.008   5.235
 5439TIP3    H116281   4.392   1.030   5.315
 5439TIP3    H216282   4.528   0.988   5.265
 5440TIP3   OH216283   2.910   4.366   1.729
 5440TIP3    H116284   2.829   4.365   1.678
 5440TIP3    H216285   2.944   4.455   1.719
 5441TIP3   OH216286   5.960   6.579   3.949
 5441TIP3    H116287   6.038   6.615   3.991
 5441TIP3    H216288   5.967   6.606   3.857
 5442TIP3   OH216289   6.375   3.897   4.229
 5442TIP3    H116290   6.304   3.958   4.250
 5442TIP3    H216291   6.401   3.920   4.139
 5443TIP3   OH216292   3.820   0.069   1.965
 5443TIP3    H116293   3.860   0.072   2.051
 5443TIP3    H216294   3.745   0.128   1.971
 5444TIP3   OH216295   3.699   3.999   5.032
 5444TIP3    H116296   3.661   4.041   4.955
 5444TIP3    H216297   3.780   4.047   5.048
 5445TIP3   OH216298   4.272   5.497   0.892
 5445TIP3    H116299   4.232   5.414   0.918
 5445TIP3    H216300   4.296   5.538   0.975
 5446TIP3   OH216301   2.136   0.521   0.705
 5446TIP3    H116302   2.159   0.433   0.676
 5446TIP3    H216303   2.084   0.557   0.633
 5447TIP3   OH216304   4.371   3.220   4.670
 5447TIP3    H116305   4.434   3.292   4.675
 5447TIP3    H216306   4.387   3.168   4.749
 5448TIP3   OH216307   4.757   4.275   2.081
 5448TIP3    H116308   4.836   4.287   2.028
 5448TIP3    H216309   4.685   4.290   2.020
 5449TIP3   OH216310   1.894   3.119   4.093
 5449TIP3    H116311   1.958   3.181   4.129
 5449TIP3    H216312   1.832   3.174   4.045
 5450TIP3   OH216313   5.571   0.108   0.220
 5450TIP3    H116314   5.496   0.101   0.162
 5450TIP3    H216315   5.632   0.041   0.188
 5451TIP3   OH216316   7.160   2.645   1.875
 5451TIP3    H116317   7.152   2.569   1.817
 5451TIP3    H216318   7.082   2.698   1.857
 5452TIP3   OH216319   2.456   1.548   5.456
 5452TIP3    H116320   2.528   1.553   5.393
 5452TIP3    H216321   2.499   1.528   5.539
 5453TIP3   OH216322   0.750   4.968   2.073
 5453TIP3    H116323   0.763   5.046   2.019
 5453TIP3    H216324   0.732   5.002   2.161
 5454TIP3   OH216325   4.448   1.103   5.621
 5454TIP3    H116326   4.367   1.129   5.578
 5454TIP3    H216327   4.485   1.036   5.563
 5455TIP3   OH216328   3.447   5.511   0.650
 5455TIP3    H116329   3.396   5.493   0.571
 5455TIP3    H216330   3.393   5.478   0.722
 5456TIP3   OH216331   3.708   4.285   2.868
 5456TIP3    H116332   3.744   4.202   2.837
 5456TIP3    H216333   3.633   4.302   2.811
 5457TIP3   OH216334   0.679   0.482   0.398
 5457TIP3    H116335   0.686   0.388   0.381
 5457TIP3    H216336   0.734   0.522   0.331
 5458TIP3   OH216337   1.161   3.282   3.844
 5458TIP3    H116338   1.191   3.352   3.786
 5458TIP3    H216339   1.176   3.202   3.794
 5459TIP3   OH216340   2.131   2.238   5.682
 5459TIP3    H116341   2.114   2.333   5.678
 5459TIP3    H216342   2.206   2.225   5.624
 5460TIP3   OH216343   5.358   2.812   5.213
 5460TIP3    H116344   5.296   2.758   5.263
 5460TIP3    H216345   5.303   2.880   5.174
 5461TIP3   OH216346   0.121   5.295   4.577
 5461TIP3    H116347   0.216   5.289   4.564
 5461TIP3    H216348   0.107   5.384   4.609
 5462TIP3   OH216349   6.699   2.251   1.387
 5462TIP3    H116350   6.686   2.335   1.343
 5462TIP3    H216351   6.697   2.271   1.480
 5463TIP3   OH216352   7.243   1.545   3.832
 5463TIP3    H116353   7.181   1.613   3.807
 5463TIP3    H216354   7.208   1.509   3.914
 5464TIP3   OH216355   6.877   6.155   4.422
 5464TIP3    H116356   6.896   6.189   4.335
 5464TIP3    H216357   6.938   6.082   4.433
 5465TIP3   OH216358   0.849   6.445   5.076
 5465TIP3    H116359   0.876   6.506   5.144
 5465TIP3    H216360   0.900   6.471   4.999
 5466TIP3   OH216361   7.104   1.081   3.850
 5466TIP3    H116362   7.147   1.050   3.930
 5466TIP3    H216363   7.116   1.176   3.853
 5467TIP3   OH216364   1.276   0.698   3.472
 5467TIP3    H116365   1.353   0.644   3.485
 5467TIP3    H216366   1.269   0.751   3.552
 5468TIP3   OH216367   0.176   1.204   2.040
 5468TIP3    H116368   0.136   1.234   1.958
 5468TIP3    H216369   0.249   1.149   2.013
 5469TIP3   OH216370   3.819   3.729   3.143
 5469TIP3    H116371   3.794   3.676   3.218
 5469TIP3    H216372   3.737   3.749   3.099
 5470TIP3   OH216373   5.644   2.268   5.844
 5470TIP3    H116374   5.680   2.310   5.766
 5470TIP3    H216375   5.616   2.341   5.899
 5471TIP3   OH216376   1.467   4.165   5.027
 5471TIP3    H116377   1.530   4.096   5.047
 5471TIP3    H216378   1.516   4.230   4.978
 5472TIP3   OH216379   6.716   6.127   1.822
 5472TIP3    H116380   6.791   6.111   1.880
 5472TIP3    H216381   6.710   6.222   1.816
 5473TIP3   OH216382   2.875   4.841   4.657
 5473TIP3    H116383   2.849   4.820   4.747
 5473TIP3    H216384   2.815   4.791   4.602
 5474TIP3   OH216385   1.694   1.696   2.878
 5474TIP3    H116386   1.768   1.684   2.819
 5474TIP3    H216387   1.716   1.643   2.955
 5475TIP3   OH216388   2.053   1.419   3.912
 5475TIP3    H116389   1.981   1.461   3.865
 5475TIP3    H216390   2.114   1.491   3.931
 5476TIP3   OH216391   3.104   2.496   0.588
 5476TIP3    H116392   3.072   2.410   0.559
 5476TIP3    H216393   3.026   2.539   0.623
 5477TIP3   OH216394   0.472   1.030   4.894
 5477TIP3    H116395   0.422   0.957   4.857
 5477TIP3    H216396   0.451   1.027   4.988
 5478TIP3   OH216397   3.020   4.770   2.387
 5478TIP3    H116398   3.078   4.758   2.312
 5478TIP3    H216399   2.935   4.793   2.349
 5479TIP3   OH216400   5.226   0.094   5.787
 5479TIP3    H116401   5.164   0.154   5.745
 5479TIP3    H216402   5.312   0.128   5.763
 5480TIP3   OH216403   4.460   3.239   3.078
 5480TIP3    H116404   4.551   3.211   3.088
 5480TIP3    H216405   4.410   3.158   3.074
 5481TIP3   OH216406   1.268   0.825   1.689
 5481TIP3    H116407   1.248   0.732   1.675
 5481TIP3    H216408   1.352   0.837   1.644
 5482TIP3   OH216409   3.754   6.460   3.526
 5482TIP3    H116410   3.740   6.374   3.565
 5482TIP3    H216411   3.667   6.499   3.523
 5483TIP3   OH216412   3.255   4.022   2.791
 5483TIP3    H116413   3.177   3.973   2.817
 5483TIP3    H216414   3.224   4.112   2.779
 5484TIP3   OH216415   6.159   1.850   2.433
 5484TIP3    H116416   6.194   1.762   2.420
 5484TIP3    H216417   6.237   1.904   2.447
 5485TIP3   OH216418   5.927   5.380   4.980
 5485TIP3    H116419   5.872   5.426   4.916
 5485TIP3    H216420   5.876   5.303   5.004
 5486TIP3   OH216421   6.424   2.554   5.190
 5486TIP3    H116422   6.441   2.630   5.245
 5486TIP3    H216423   6.442   2.584   5.101
 5487TIP3   OH216424   0.428   0.091   5.745
 5487TIP3    H116425   0.460   0.013   5.701
 5487TIP3    H216426   0.485   0.100   5.822
 5488TIP3   OH216427   0.481   6.349   3.787
 5488TIP3    H116428   0.522   6.273   3.747
 5488TIP3    H216429   0.487   6.418   3.721
 5489TIP3   OH216430   5.711   2.139   0.859
 5489TIP3    H116431   5.695   2.122   0.766
 5489TIP3    H216432   5.649   2.081   0.904
 5490TIP3   OH216433   6.315   2.732   4.218
 5490TIP3    H116434   6.408   2.719   4.198
 5490TIP3    H216435   6.308   2.713   4.312
 5491TIP3   OH216436   3.166   0.916   0.338
 5491TIP3    H116437   3.088   0.874   0.374
 5491TIP3    H216438   3.230   0.915   0.409
 5492TIP3   OH216439   1.272   3.834   0.941
 5492TIP3    H116440   1.302   3.834   1.032
 5492TIP3    H216441   1.352   3.834   0.889
 5493TIP3   OH216442   1.841   2.037   4.409
 5493TIP3    H116443   1.903   2.004   4.345
 5493TIP3    H216444   1.760   2.049   4.361
 5494TIP3   OH216445   3.017   2.135   4.961
 5494TIP3    H116446   3.105   2.152   4.927
 5494TIP3    H216447   3.012   2.040   4.968
 5495TIP3   OH216448   0.141   0.474   3.397
 5495TIP3    H116449   0.139   0.492   3.303
 5495TIP3    H216450   0.100   0.551   3.437
 5496TIP3   OH216451   6.498   4.012   2.701
 5496TIP3    H116452   6.432   3.993   2.767
 5496TIP3    H216453   6.520   3.927   2.664
 5497TIP3   OH216454   6.859   4.024   4.624
 5497TIP3    H116455   6.929   3.970   4.587
 5497TIP3    H216456   6.895   4.059   4.705
 5498TIP3   OH216457   0.370   0.278   2.167
 5498TIP3    H116458   0.365   0.298   2.073
 5498TIP3    H216459   0.452   0.318   2.195
 5499TIP3   OH216460   4.702   5.969   2.904
 5499TIP3    H116461   4.679   5.978   2.996
 5499TIP3    H216462   4.791   5.934   2.904
 5500TIP3   OH216463   6.387   6.495   4.511
 5500TIP3    H116464   6.417   6.585   4.496
 5500TIP3    H216465   6.461   6.440   4.485
 5501TIP3   OH216466   1.693   4.793   3.794
 5501TIP3    H116467   1.639   4.810   3.717
 5501TIP3    H216468   1.779   4.829   3.772
 5502TIP3   OH216469   7.021   2.931   4.930
 5502TIP3    H116470   7.055   2.898   5.013
 5502TIP3    H216471   6.950   2.871   4.908
 5503TIP3   OH216472   4.171   3.643   5.477
 5503TIP3    H116473   4.078   3.665   5.465
 5503TIP3    H216474   4.186   3.569   5.419
 5504TIP3   OH216475   2.531   2.029   0.201
 5504TIP3    H116476   2.600   2.092   0.222
 5504TIP3    H216477   2.574   1.943   0.206
 5505TIP3   OH216478   5.885   4.039   5.596
 5505TIP3    H116479   5.939   4.007   5.524
 5505TIP3    H216480   5.802   3.993   5.586
 5506TIP3   OH216481   3.744   0.363   2.213
 5506TIP3    H116482   3.762   0.269   2.216
 5506TIP3    H216483   3.777   0.391   2.127
 5507TIP3   OH216484   4.626   5.983   2.491
 5507TIP3    H116485   4.571   6.011   2.564
 5507TIP3    H216486   4.671   5.905   2.523
 5508TIP3   OH216487   0.542   3.190   4.605
 5508TIP3    H116488   0.632   3.159   4.603
 5508TIP3    H216489   0.510   3.177   4.516
 5509TIP3   OH216490   6.315   2.045   0.963
 5509TIP3    H116491   6.291   1.990   1.038
 5509TIP3    H216492   6.266   2.009   0.890
 5510TIP3   OH216493   2.021   1.853   5.443
 5510TIP3    H116494   2.113   1.847   5.418
 5510TIP3    H216495   2.022   1.872   5.537
 5511TIP3   OH216496   3.235   5.228   3.355
 5511TIP3    H116497   3.244   5.177   3.435
 5511TIP3    H216498   3.155   5.279   3.369
 5512TIP3   OH216499   6.478   1.215   1.652
 5512TIP3    H116500   6.433   1.132   1.635
 5512TIP3    H216501   6.480   1.259   1.567
 5513TIP3   OH216502   1.956   5.982   2.513
 5513TIP3    H116503   2.005   5.909   2.476
 5513TIP3    H216504   1.997   6.060   2.477
 5514TIP3   OH216505   4.023   5.918   4.358
 5514TIP3    H116506   4.052   6.003   4.390
 5514TIP3    H216507   4.055   5.856   4.424
 5515TIP3   OH216508   1.610   4.209   4.116
 5515TIP3    H116509   1.518   4.231   4.129
 5515TIP3    H216510   1.616   4.183   4.023
 5516TIP3   OH216511   6.871   0.349   3.406
 5516TIP3    H116512   6.783   0.375   3.432
 5516TIP3    H216513   6.860   0.263   3.366
 5517TIP3   OH216514   2.524   2.644   1.010
 5517TIP3    H116515   2.456   2.578   1.003
 5517TIP3    H216516   2.482   2.717   1.055
 5518TIP3   OH216517   3.481   4.166   5.091
 5518TIP3    H116518   3.472   4.208   5.176
 5518TIP3    H216519   3.548   4.100   5.103
 5519TIP3   OH216520   1.278   4.976   2.239
 5519TIP3    H116521   1.269   4.883   2.217
 5519TIP3    H216522   1.221   4.988   2.315
 5520TIP3   OH216523   1.035   1.898   3.388
 5520TIP3    H116524   1.123   1.930   3.410
 5520TIP3    H216525   1.033   1.898   3.292
 5521TIP3   OH216526   4.631   1.858   2.585
 5521TIP3    H116527   4.538   1.879   2.586
 5521TIP3    H216528   4.635   1.764   2.599
 5522TIP3   OH216529   5.713   5.186   5.377
 5522TIP3    H116530   5.644   5.126   5.407
 5522TIP3    H216531   5.710   5.259   5.440
 5523TIP3   OH216532   3.495   2.415   5.415
 5523TIP3    H116533   3.550   2.446   5.343
 5523TIP3    H216534   3.488   2.321   5.401
 5524TIP3   OH216535   2.156   3.870   2.517
 5524TIP3    H116536   2.076   3.881   2.569
 5524TIP3    H216537   2.187   3.783   2.538
 5525TIP3   OH216538   2.008   0.709   3.218
 5525TIP3    H116539   2.060   0.654   3.159
 5525TIP3    H216540   1.940   0.650   3.251
 5526TIP3   OH216541   0.539   4.612   1.242
 5526TIP3    H116542   0.519   4.535   1.189
 5526TIP3    H216543   0.634   4.611   1.252
 5527TIP3   OH216544   6.958   6.381   0.309
 5527TIP3    H116545   7.052   6.390   0.291
 5527TIP3    H216546   6.920   6.355   0.225
 5528TIP3   OH216547   1.481   0.583   1.678
 5528TIP3    H116548   1.509   0.537   1.599
 5528TIP3    H216549   1.396   0.543   1.700
 5529TIP3   OH216550   0.697   3.083   2.042
 5529TIP3    H116551   0.712   3.035   1.961
 5529TIP3    H216552   0.640   3.025   2.093
 5530TIP3   OH216553   6.237   5.431   0.519
 5530TIP3    H116554   6.180   5.493   0.473
 5530TIP3    H216555   6.204   5.344   0.494
 5531TIP3   OH216556   1.335   5.632   5.342
 5531TIP3    H116557   1.422   5.658   5.312
 5531TIP3    H216558   1.279   5.707   5.322
 5532TIP3   OH216559   2.969   6.058   3.001
 5532TIP3    H116560   2.998   6.126   3.061
 5532TIP3    H216561   2.886   6.091   2.965
 5533TIP3   OH216562   0.255   2.189   3.991
 5533TIP3    H116563   0.279   2.243   4.066
 5533TIP3    H216564   0.338   2.151   3.961
 5534TIP3   OH216565   3.675   2.334   1.251
 5534TIP3    H116566   3.664   2.353   1.157
 5534TIP3    H216567   3.612   2.265   1.269
 5535TIP3   OH216568   5.268   0.772   0.766
 5535TIP3    H116569   5.207   0.698   0.760
 5535TIP3    H216570   5.233   0.837   0.706
 5536TIP3   OH216571   6.668   4.462   2.527
 5536TIP3    H116572   6.726   4.440   2.600
 5536TIP3    H216573   6.719   4.524   2.474
 5537TIP3   OH216574   4.995   0.722   3.845
 5537TIP3    H116575   5.055   0.679   3.785
 5537TIP3    H216576   4.993   0.813   3.816
 5538TIP3   OH216577   6.228   6.163   1.303
 5538TIP3    H116578   6.254   6.145   1.393
 5538TIP3    H216579   6.278   6.099   1.251
 5539TIP3   OH216580   6.478   6.032   0.515
 5539TIP3    H116581   6.397   5.994   0.482
 5539TIP3    H216582   6.545   6.001   0.454
 5540TIP3   OH216583   1.877   6.570   5.642
 5540TIP3    H116584   1.965   6.560   5.607
 5540TIP3    H216585   1.860   6.488   5.689
 5541TIP3   OH216586   3.401   5.595   2.540
 5541TIP3    H116587   3.364   5.535   2.604
 5541TIP3    H216588   3.492   5.607   2.567
 5542TIP3   OH216589   1.501   5.074   5.036
 5542TIP3    H116590   1.567   5.125   5.083
 5542TIP3    H216591   1.434   5.054   5.102
 5543TIP3   OH216592   5.713   5.027   3.392
 5543TIP3    H116593   5.793   4.994   3.432
 5543TIP3    H216594   5.644   4.968   3.423
 5544TIP3   OH216595   1.702   3.034   3.848
 5544TIP3    H116596   1.737   3.119   3.874
 5544TIP3    H216597   1.612   3.052   3.823
 5545TIP3   OH216598   6.124   1.881   5.590
 5545TIP3    H116599   6.051   1.898   5.651
 5545TIP3    H216600   6.198   1.863   5.647
 5546TIP3   OH216601   2.074   0.039   5.598
 5546TIP3    H116602   2.058   0.059   5.691
 5546TIP3    H216603   2.157  -0.008   5.598
 5547TIP3   OH216604   0.090   5.513   3.860
 5547TIP3    H116605   0.012   5.536   3.809
 5547TIP3    H216606   0.108   5.422   3.838
 5548TIP3   OH216607   1.533   5.951   1.774
 5548TIP3    H116608   1.467   5.953   1.843
 5548TIP3    H216609   1.597   6.018   1.800
 5549TIP3   OH216610   3.632   4.783   3.163
 5549TIP3    H116611   3.660   4.698   3.196
 5549TIP3    H216612   3.555   4.764   3.110
 5550TIP3   OH216613   6.530   0.022   3.269
 5550TIP3    H116614   6.443  -0.018   3.270
 5550TIP3    H216615   6.556   0.019   3.177
 5551TIP3   OH216616   6.059   3.946   0.549
 5551TIP3    H116617   5.996   3.878   0.524
 5551TIP3    H216618   6.128   3.899   0.595
 5552TIP3   OH216619   2.554   6.598   4.030
 5552TIP3    H116620   2.497   6.636   3.963
 5552TIP3    H216621   2.517   6.511   4.046
 5553TIP3   OH216622   6.995   4.748   1.896
 5553TIP3    H116623   6.899   4.755   1.893
 5553TIP3    H216624   7.025   4.799   1.821
 5554TIP3   OH216625   5.175   0.431   2.732
 5554TIP3    H116626   5.203   0.424   2.641
 5554TIP3    H216627   5.255   0.415   2.783
 5555TIP3   OH216628   6.643   5.521   3.981
 5555TIP3    H116629   6.720   5.524   4.039
 5555TIP3    H216630   6.578   5.470   4.030
 5556TIP3   OH216631   0.913   6.655   0.676
 5556TIP3    H116632   0.954   6.625   0.595
 5556TIP3    H216633   0.986   6.687   0.729
 5557TIP3   OH216634   4.383   3.138   2.530
 5557TIP3    H116635   4.334   3.108   2.453
 5557TIP3    H216636   4.316   3.175   2.588
 5558TIP3   OH216637   1.939   3.538   5.311
 5558TIP3    H116638   1.911   3.506   5.397
 5558TIP3    H216639   1.945   3.633   5.322
 5559TIP3   OH216640   5.785   5.933   0.280
 5559TIP3    H116641   5.787   5.977   0.364
 5559TIP3    H216642   5.718   5.979   0.229
 5560TIP3   OH216643   2.109   6.009   5.522
 5560TIP3    H116644   2.147   5.922   5.536
 5560TIP3    H216645   2.033   6.011   5.580
 5561TIP3   OH216646   4.854   0.511   5.569
 5561TIP3    H116647   4.763   0.536   5.550
 5561TIP3    H216648   4.861   0.517   5.664
 5562TIP3   OH216649   3.539   1.712   0.389
 5562TIP3    H116650   3.624   1.686   0.353
 5562TIP3    H216651   3.559   1.744   0.477
 5563TIP3   OH216652   4.543   2.341   5.091
 5563TIP3    H116653   4.474   2.276   5.077
 5563TIP3    H216654   4.501   2.425   5.075
 5564TIP3   OH216655   6.478   0.205   1.939
 5564TIP3    H116656   6.399   0.162   1.906
 5564TIP3    H216657   6.542   0.197   1.868
 5565TIP3   OH216658   5.047   0.572   2.941
 5565TIP3    H116659   5.125   0.586   2.995
 5565TIP3    H216660   5.081   0.550   2.854
 5566TIP3   OH216661   5.746   2.362   4.738
 5566TIP3    H116662   5.716   2.380   4.649
 5566TIP3    H216663   5.680   2.404   4.794
 5567TIP3   OH216664   0.227   4.118   1.216
 5567TIP3    H116665   0.274   4.046   1.258
 5567TIP3    H216666   0.143   4.080   1.190
 5568TIP3   OH216667   0.052   1.465   2.538
 5568TIP3    H116668   0.142   1.484   2.510
 5568TIP3    H216669   0.003   1.543   2.515
 5569TIP3   OH216670   0.994   5.398   2.943
 5569TIP3    H116671   1.059   5.389   3.013
 5569TIP3    H216672   0.928   5.332   2.964
 5570TIP3   OH216673   1.002   0.894   1.969
 5570TIP3    H116674   0.970   0.981   1.943
 5570TIP3    H216675   1.014   0.901   2.064
 5571TIP3   OH216676   1.726   5.623   1.798
 5571TIP3    H116677   1.727   5.700   1.855
 5571TIP3    H216678   1.794   5.641   1.733
 5572TIP3   OH216679   2.597   4.620   4.994
 5572TIP3    H116680   2.632   4.613   4.906
 5572TIP3    H216681   2.527   4.554   4.998
 5573TIP3   OH216682   5.214   1.507   2.170
 5573TIP3    H116683   5.125   1.514   2.136
 5573TIP3    H216684   5.219   1.419   2.208
 5574TIP3   OH216685   4.535   3.481   1.278
 5574TIP3    H116686   4.507   3.414   1.216
 5574TIP3    H216687   4.455   3.508   1.321
 5575TIP3   OH216688   4.098   6.759   4.281
 5575TIP3    H116689   4.058   6.817   4.216
 5575TIP3    H216690   4.029   6.697   4.304
 5576TIP3   OH216691   3.125   3.480   4.799
 5576TIP3    H116692   3.044   3.506   4.755
 5576TIP3    H216693   3.194   3.495   4.733
 5577TIP3   OH216694   6.209   6.017   4.220
 5577TIP3    H116695   6.216   6.110   4.197
 5577TIP3    H216696   6.298   5.983   4.215
 5578TIP3   OH216697   0.085   1.333   5.886
 5578TIP3    H116698   0.055   1.258   5.833
 5578TIP3    H216699   0.019   1.400   5.870
 5579TIP3   OH216700   1.537   1.058   1.171
 5579TIP3    H116701   1.601   1.038   1.240
 5579TIP3    H216702   1.591   1.085   1.096
 5580TIP3   OH216703   3.070   0.290   3.709
 5580TIP3    H116704   3.081   0.357   3.641
 5580TIP3    H216705   3.140   0.308   3.772
 5581TIP3   OH216706   1.379   5.432   3.468
 5581TIP3    H116707   1.344   5.345   3.486
 5581TIP3    H216708   1.388   5.472   3.555
 5582TIP3   OH216709   2.371   2.820   5.804
 5582TIP3    H116710   2.347   2.758   5.873
 5582TIP3    H216711   2.362   2.771   5.723
 5583TIP3   OH216712   0.575   1.312   1.564
 5583TIP3    H116713   0.551   1.404   1.578
 5583TIP3    H216714   0.657   1.316   1.515
 5584TIP3   OH216715   4.775   0.999   2.201
 5584TIP3    H116716   4.779   1.004   2.106
 5584TIP3    H216717   4.867   0.995   2.229
 5585TIP3   OH216718   7.088   2.133   5.241
 5585TIP3    H116719   6.998   2.161   5.228
 5585TIP3    H216720   7.089   2.095   5.329
 5586TIP3   OH216721   0.250   4.465   5.857
 5586TIP3    H116722   0.277   4.462   5.765
 5586TIP3    H216723   0.310   4.405   5.902
 5587TIP3   OH216724   1.051   0.463   3.574
 5587TIP3    H116725   1.094   0.394   3.523
 5587TIP3    H216726   0.959   0.459   3.547
 5588TIP3   OH216727   6.692   3.414   1.048
 5588TIP3    H116728   6.738   3.417   1.132
 5588TIP3    H216729   6.751   3.457   0.987
 5589TIP3   OH216730   3.713   4.325   4.775
 5589TIP3    H116731   3.639   4.344   4.718
 5589TIP3    H216732   3.698   4.236   4.806
 5590TIP3   OH216733   5.461   1.003   3.076
 5590TIP3    H116734   5.415   0.922   3.100
 5590TIP3    H216735   5.455   1.058   3.154
 5591TIP3   OH216736   0.411   3.936   4.887
 5591TIP3    H116737   0.495   3.892   4.875
 5591TIP3    H216738   0.360   3.877   4.942
 5592TIP3   OH216739   6.015   5.733   2.673
 5592TIP3    H116740   6.032   5.661   2.611
 5592TIP3    H216741   5.945   5.784   2.631
 5593TIP3   OH216742   4.730   0.986   5.198
 5593TIP3    H116743   4.824   0.998   5.183
 5593TIP3    H216744   4.719   0.891   5.203
 5594TIP3   OH216745   6.946   0.216   4.765
 5594TIP3    H116746   6.885   0.147   4.739
 5594TIP3    H216747   7.032   0.173   4.767
 5595TIP3   OH216748   1.415   0.508   5.416
 5595TIP3    H116749   1.394   0.430   5.365
 5595TIP3    H216750   1.437   0.476   5.503
 5596TIP3   OH216751   5.542   0.415   0.209
 5596TIP3    H116752   5.563   0.464   0.288
 5596TIP3    H216753   5.548   0.323   0.235
 5597TIP3   OH216754   5.514   3.565   4.138
 5597TIP3    H116755   5.526   3.620   4.216
 5597TIP3    H216756   5.567   3.487   4.156
 5598TIP3   OH216757   1.410   1.850   4.289
 5598TIP3    H116758   1.443   1.762   4.274
 5598TIP3    H216759   1.321   1.849   4.254
 5599TIP3   OH216760   2.791   6.255   2.179
 5599TIP3    H116761   2.807   6.339   2.221
 5599TIP3    H216762   2.877   6.227   2.147
 5600TIP3   OH216763   2.817   1.636   0.606
 5600TIP3    H116764   2.751   1.673   0.666
 5600TIP3    H216765   2.897   1.685   0.626
 5601TIP3   OH216766   1.413   6.285   3.430
 5601TIP3    H116767   1.335   6.340   3.439
 5601TIP3    H216768   1.401   6.216   3.495
 5602TIP3   OH216769   3.303   0.810   0.845
 5602TIP3    H116770   3.331   0.767   0.926
 5602TIP3    H216771   3.244   0.879   0.875
 5603TIP3   OH216772   5.184   6.113   3.470
 5603TIP3    H116773   5.242   6.168   3.417
 5603TIP3    H216774   5.243   6.050   3.512
 5604TIP3   OH216775   3.150   5.347   1.485
 5604TIP3    H116776   3.103   5.357   1.402
 5604TIP3    H216777   3.228   5.296   1.463
 5605TIP3   OH216778   2.049   0.880   5.303
 5605TIP3    H116779   2.119   0.867   5.240
 5605TIP3    H216780   2.007   0.795   5.312
 5606TIP3   OH216781   4.518   5.182   5.199
 5606TIP3    H116782   4.612   5.179   5.184
 5606TIP3    H216783   4.486   5.099   5.165
 5607TIP3   OH216784   0.327   5.833   1.817
 5607TIP3    H116785   0.251   5.890   1.807
 5607TIP3    H216786   0.402   5.888   1.794
 5608TIP3   OH216787   7.125   2.731   2.496
 5608TIP3    H116788   7.082   2.648   2.479
 5608TIP3    H216789   7.218   2.711   2.495
 5609TIP3   OH216790   6.687   3.890   1.899
 5609TIP3    H116791   6.713   3.974   1.863
 5609TIP3    H216792   6.592   3.898   1.912
 5610TIP3   OH216793   2.632   2.875   5.527
 5610TIP3    H116794   2.700   2.925   5.572
 5610TIP3    H216795   2.659   2.784   5.536
 5611TIP3   OH216796   5.488   6.204   5.076
 5611TIP3    H116797   5.470   6.126   5.129
 5611TIP3    H216798   5.535   6.172   5.000
 5612TIP3   OH216799   3.059   0.993   5.844
 5612TIP3    H116800   3.131   0.935   5.817
 5612TIP3    H216801   3.093   1.081   5.830
 5613TIP3   OH216802   6.414   4.679   5.205
 5613TIP3    H116803   6.337   4.650   5.253
 5613TIP3    H216804   6.488   4.639   5.250
 5614TIP3   OH216805   1.868   4.934   4.964
 5614TIP3    H116806   1.922   4.968   4.892
 5614TIP3    H216807   1.803   4.879   4.920
 5615TIP3   OH216808   3.618   2.010   1.089
 5615TIP3    H116809   3.706   2.034   1.120
 5615TIP3    H216810   3.560   2.040   1.159
 5616TIP3   OH216811   2.956   1.479   5.072
 5616TIP3    H116812   2.940   1.385   5.078
 5616TIP3    H216813   2.979   1.505   5.161
 5617TIP3   OH216814   0.029   0.736   0.137
 5617TIP3    H116815   0.069   0.801   0.195
 5617TIP3    H216816  -0.031   0.786   0.081
 5618TIP3   OH216817   4.424   2.518   0.057
 5618TIP3    H116818   4.389   2.441   0.013
 5618TIP3    H216819   4.402   2.591  -0.001
 5619TIP3   OH216820   1.304   6.133   1.319
 5619TIP3    H116821   1.316   6.143   1.224
 5619TIP3    H216822   1.213   6.158   1.334
 5620TIP3   OH216823   5.555   4.978   4.291
 5620TIP3    H116824   5.558   5.012   4.202
 5620TIP3    H216825   5.549   5.056   4.346
 5621TIP3   OH216826   2.967   5.994   5.271
 5621TIP3    H116827   3.009   6.022   5.190
 5621TIP3    H216828   2.885   6.044   5.274
 5622TIP3   OH216829   7.117   2.698   1.431
 5622TIP3    H116830   7.027   2.692   1.398
 5622TIP3    H216831   7.160   2.760   1.372
 5623TIP3   OH216832   6.861   5.891   1.561
 5623TIP3    H116833   6.889   5.799   1.556
 5623TIP3    H216834   6.796   5.892   1.630
 5624TIP3   OH216835   4.336   6.587   2.540
 5624TIP3    H116836   4.266   6.652   2.547
 5624TIP3    H216837   4.305   6.512   2.591
 5625TIP3   OH216838   1.251   4.757   3.666
 5625TIP3    H116839   1.344   4.776   3.677
 5625TIP3    H216840   1.235   4.769   3.572
 5626TIP3   OH216841   6.225   5.166   2.269
 5626TIP3    H116842   6.166   5.224   2.318
 5626TIP3    H216843   6.281   5.226   2.220
 5627TIP3   OH216844   7.113   5.289   1.657
 5627TIP3    H116845   7.129   5.361   1.596
 5627TIP3    H216846   7.184   5.226   1.639
 5628TIP3   OH216847   5.465   6.010   2.200
 5628TIP3    H116848   5.532   6.072   2.175
 5628TIP3    H216849   5.384   6.044   2.161
 5629TIP3   OH216850   4.697   1.453   1.665
 5629TIP3    H116851   4.676   1.537   1.705
 5629TIP3    H216852   4.747   1.475   1.587
 5630TIP3   OH216853   5.438   3.883   0.464
 5630TIP3    H116854   5.481   3.799   0.449
 5630TIP3    H216855   5.496   3.929   0.525
 5631TIP3   OH216856   3.479   3.378   3.493
 5631TIP3    H116857   3.441   3.369   3.581
 5631TIP3    H216858   3.571   3.400   3.509
 5632TIP3   OH216859   5.756   4.413   3.492
 5632TIP3    H116860   5.756   4.408   3.587
 5632TIP3    H216861   5.757   4.507   3.472
 5633TIP3   OH216862   3.242   3.505   3.427
 5633TIP3    H116863   3.168   3.452   3.456
 5633TIP3    H216864   3.319   3.458   3.460
 5634TIP3   OH216865   5.852   3.975   0.121
 5634TIP3    H116866   5.921   3.913   0.148
 5634TIP3    H216867   5.811   4.001   0.203
 5635TIP3   OH216868   7.002   0.812   1.971
 5635TIP3    H116869   6.943   0.742   1.944
 5635TIP3    H216870   7.049   0.836   1.892
 5636TIP3   OH216871   2.938   4.196   1.932
 5636TIP3    H116872   2.933   4.255   1.857
 5636TIP3    H216873   2.894   4.243   2.002
 5637TIP3   OH216874   3.619   0.925   0.765
 5637TIP3    H116875   3.692   0.943   0.824
 5637TIP3    H216876   3.610   1.005   0.713
 5638TIP3   OH216877   0.974   6.644   5.831
 5638TIP3    H116878   1.019   6.725   5.854
 5638TIP3    H216879   0.949   6.606   5.915
 5639TIP3   OH216880   3.462   0.736   2.737
 5639TIP3    H116881   3.530   0.670   2.752
 5639TIP3    H216882   3.509   0.811   2.701
 5640TIP3   OH216883   4.038   0.535   5.711
 5640TIP3    H116884   4.029   0.516   5.804
 5640TIP3    H216885   3.959   0.498   5.671
 5641TIP3   OH216886   7.032   0.891   3.693
 5641TIP3    H116887   7.082   0.809   3.703
 5641TIP3    H216888   7.075   0.952   3.753
 5642TIP3   OH216889   0.669   0.751   5.296
 5642TIP3    H116890   0.700   0.813   5.230
 5642TIP3    H216891   0.602   0.699   5.252
 5643TIP3   OH216892   6.203   2.083   5.446
 5643TIP3    H116893   6.208   2.048   5.535
 5643TIP3    H216894   6.133   2.032   5.405
 5644TIP3   OH216895   1.532   2.197   1.378
 5644TIP3    H116896   1.438   2.212   1.370
 5644TIP3    H216897   1.564   2.273   1.427
 5645TIP3   OH216898   0.841   5.849   2.738
 5645TIP3    H116899   0.912   5.866   2.801
 5645TIP3    H216900   0.832   5.754   2.737
 5646TIP3   OH216901   0.103   5.576   1.164
 5646TIP3    H116902   0.026   5.627   1.142
 5646TIP3    H216903   0.160   5.637   1.211
 5647TIP3   OH216904   2.873   4.033   5.761
 5647TIP3    H116905   2.874   4.075   5.675
 5647TIP3    H216906   2.851   3.942   5.744
 5648TIP3   OH216907   2.734   6.496   3.423
 5648TIP3    H116908   2.822   6.459   3.431
 5648TIP3    H216909   2.745   6.575   3.372
 5649TIP3   OH216910   3.810   6.559   0.372
 5649TIP3    H116911   3.811   6.654   0.357
 5649TIP3    H216912   3.844   6.548   0.460
 5650TIP3   OH216913   4.780   2.131   5.011
 5650TIP3    H116914   4.735   2.118   5.095
 5650TIP3    H216915   4.833   2.209   5.025
 5651TIP3   OH216916   4.094   4.439   1.800
 5651TIP3    H116917   4.072   4.367   1.860
 5651TIP3    H216918   4.162   4.403   1.743
 5652TIP3   OH216919   3.997   0.967   4.398
 5652TIP3    H116920   4.021   0.985   4.307
 5652TIP3    H216921   4.011   0.873   4.408
 5653TIP3   OH216922   6.390   2.768   0.711
 5653TIP3    H116923   6.459   2.737   0.652
 5653TIP3    H216924   6.395   2.709   0.786
 5654TIP3   OH216925   2.523   1.705   4.677
 5654TIP3    H116926   2.438   1.694   4.721
 5654TIP3    H216927   2.536   1.623   4.630
 5655TIP3   OH216928   6.102   1.252   4.298
 5655TIP3    H116929   6.088   1.334   4.346
 5655TIP3    H216930   6.081   1.273   4.207
 5656TIP3   OH216931   2.925   3.956   5.237
 5656TIP3    H116932   2.947   3.869   5.271
 5656TIP3    H216933   2.996   3.978   5.178
 5657TIP3   OH216934   5.391   6.788   4.894
 5657TIP3    H116935   5.305   6.759   4.926
 5657TIP3    H216936   5.422   6.849   4.961
 5658TIP3   OH216937   4.983   2.469   0.988
 5658TIP3    H116938   4.967   2.455   1.081
 5658TIP3    H216939   5.041   2.546   0.985
 5659TIP3   OH216940   1.088   1.618   3.214
 5659TIP3    H116941   1.008   1.616   3.267
 5659TIP3    H216942   1.133   1.536   3.236
 5660TIP3   OH216943   1.368   3.921   1.720
 5660TIP3    H116944   1.430   3.850   1.704
 5660TIP3    H216945   1.282   3.884   1.696
 5661TIP3   OH216946   5.375   3.237   4.021
 5661TIP3    H116947   5.282   3.255   4.029
 5661TIP3    H216948   5.404   3.293   3.949
 5662TIP3   OH216949   2.780   4.082   1.364
 5662TIP3    H116950   2.760   4.162   1.315
 5662TIP3    H216951   2.875   4.083   1.374
 5663TIP3   OH216952   0.232   5.718   2.050
 5663TIP3    H116953   0.305   5.684   2.102
 5663TIP3    H216954   0.268   5.727   1.962
 5664TIP3   OH216955   7.186   4.399   3.648
 5664TIP3    H116956   7.151   4.456   3.579
 5664TIP3    H216957   7.112   4.345   3.674
 5665TIP3   OH216958   5.348   3.097   1.857
 5665TIP3    H116959   5.311   3.162   1.916
 5665TIP3    H216960   5.333   3.013   1.900
 5666TIP3   OH216961   0.070   3.895   4.366
 5666TIP3    H116962   0.128   3.836   4.415
 5666TIP3    H216963   0.126   3.931   4.297
 5667TIP3   OH216964   1.448   3.284   4.885
 5667TIP3    H116965   1.502   3.250   4.956
 5667TIP3    H216966   1.485   3.245   4.806
 5668TIP3   OH216967   4.116   1.231   4.216
 5668TIP3    H116968   4.104   1.148   4.171
 5668TIP3    H216969   4.172   1.282   4.157
 5669TIP3   OH216970   0.628   1.066   3.368
 5669TIP3    H116971   0.549   1.090   3.417
 5669TIP3    H216972   0.700   1.097   3.422
 5670TIP3   OH216973   5.396   2.214   1.857
 5670TIP3    H116974   5.477   2.165   1.871
 5670TIP3    H216975   5.409   2.296   1.905
 5671TIP3   OH216976   2.825   1.950   2.927
 5671TIP3    H116977   2.775   1.870   2.912
 5671TIP3    H216978   2.774   2.019   2.885
 5672TIP3   OH216979   1.253   3.398   1.460
 5672TIP3    H116980   1.296   3.465   1.406
 5672TIP3    H216981   1.218   3.446   1.534
 5673TIP3   OH216982   3.826   3.447   2.914
 5673TIP3    H116983   3.882   3.385   2.959
 5673TIP3    H216984   3.830   3.527   2.967
 5674TIP3   OH216985   6.663   5.471   2.103
 5674TIP3    H116986   6.686   5.385   2.138
 5674TIP3    H216987   6.692   5.468   2.012
 5675TIP3   OH216988   6.576   5.028   2.981
 5675TIP3    H116989   6.528   5.092   2.929
 5675TIP3    H216990   6.507   4.976   3.024
 5676TIP3   OH216991   4.555   0.113   4.653
 5676TIP3    H116992   4.472   0.118   4.702
 5676TIP3    H216993   4.564   0.020   4.633
 5677TIP3   OH216994   6.386   5.138   1.932
 5677TIP3    H116995   6.420   5.049   1.931
 5677TIP3    H216996   6.291   5.128   1.924
 5678TIP3   OH216997   2.094   6.096   0.122
 5678TIP3    H116998   2.115   6.190   0.122
 5678TIP3    H216999   2.119   6.065   0.209
 5679TIP3   OH217000   5.786   4.861   1.366
 5679TIP3    H117001   5.850   4.820   1.309
 5679TIP3    H217002   5.802   4.822   1.452
 5680TIP3   OH217003   3.658   2.199   1.639
 5680TIP3    H117004   3.664   2.116   1.593
 5680TIP3    H217005   3.675   2.177   1.731
 5681TIP3   OH217006   1.816   3.579   5.053
 5681TIP3    H117007   1.827   3.522   5.129
 5681TIP3    H217008   1.840   3.666   5.085
 5682TIP3   OH217009   2.436   6.663   5.700
 5682TIP3    H117010   2.350   6.703   5.693
 5682TIP3    H217011   2.467   6.688   5.787
 5683TIP3   OH217012   3.150   0.898   1.195
 5683TIP3    H117013   3.109   0.812   1.189
 5683TIP3    H217014   3.135   0.938   1.109
 5684TIP3   OH217015   3.089   2.768   2.528
 5684TIP3    H117016   3.026   2.731   2.590
 5684TIP3    H217017   3.057   2.741   2.442
 5685TIP3   OH217018   4.032   5.799   2.060
 5685TIP3    H117019   3.995   5.783   2.147
 5685TIP3    H217020   4.065   5.888   2.063
 5686TIP3   OH217021   6.428   3.747   5.622
 5686TIP3    H117022   6.375   3.703   5.688
 5686TIP3    H217023   6.500   3.787   5.672
 5687TIP3   OH217024   2.035   6.117   4.164
 5687TIP3    H117025   2.043   6.189   4.102
 5687TIP3    H217026   2.123   6.079   4.168
 5688TIP3   OH217027   4.795   0.590   2.025
 5688TIP3    H117028   4.875   0.552   2.061
 5688TIP3    H217029   4.745   0.617   2.103
 5689TIP3   OH217030   5.484   1.177   2.358
 5689TIP3    H117031   5.499   1.243   2.426
 5689TIP3    H217032   5.548   1.109   2.377
 5690TIP3   OH217033   1.232   0.502   4.286
 5690TIP3    H117034   1.155   0.491   4.231
 5690TIP3    H217035   1.212   0.577   4.341
 5691TIP3   OH217036   2.150   4.021   2.861
 5691TIP3    H117037   2.206   3.945   2.875
 5691TIP3    H217038   2.062   3.984   2.849
 5692TIP3   OH217039   1.270   0.088   4.713
 5692TIP3    H117040   1.363   0.095   4.695
 5692TIP3    H217041   1.238   0.024   4.649
 5693TIP3   OH217042  -0.023   1.990   1.991
 5693TIP3    H117043   0.054   2.047   1.979
 5693TIP3    H217044  -0.011   1.954   2.079
 5694TIP3   OH217045   5.702   0.734   5.294
 5694TIP3    H117046   5.790   0.741   5.257
 5694TIP3    H217047   5.697   0.807   5.356
 5695TIP3   OH217048   2.734   4.635   0.078
 5695TIP3    H117049   2.753   4.656   0.170
 5695TIP3    H217050   2.647   4.672   0.062
 5696TIP3   OH217051   1.676   6.231   4.598
 5696TIP3    H117052   1.763   6.268   4.615
 5696TIP3    H217053   1.694   6.153   4.545
 5697TIP3   OH217054   0.095   2.933   1.568
 5697TIP3    H117055   0.145   2.949   1.489
 5697TIP3    H217056   0.035   2.862   1.545
 5698TIP3   OH217057   2.396   5.421   5.150
 5698TIP3    H117058   2.467   5.360   5.131
 5698TIP3    H217059   2.331   5.403   5.082
 5699TIP3   OH217060   4.740   0.475   1.750
 5699TIP3    H117061   4.822   0.461   1.702
 5699TIP3    H217062   4.764   0.464   1.842
 5700TIP3   OH217063   0.716   6.154   0.200
 5700TIP3    H117064   0.656   6.178   0.130
 5700TIP3    H217065   0.706   6.222   0.266
 5701TIP3   OH217066   4.534   0.183   1.345
 5701TIP3    H117067   4.457   0.131   1.366
 5701TIP3    H217068   4.598   0.160   1.411
 5702TIP3   OH217069   3.444   0.688   1.088
 5702TIP3    H117070   3.385   0.664   1.159
 5702TIP3    H217071   3.526   0.712   1.131
 5703TIP3   OH217072   4.680   4.455   2.272
 5703TIP3    H117073   4.586   4.439   2.282
 5703TIP3    H217074   4.708   4.392   2.206
 5704TIP3   OH217075   2.790   1.706   5.296
 5704TIP3    H117076   2.718   1.766   5.276
 5704TIP3    H217077   2.862   1.736   5.242
 5705TIP3   OH217078   6.719   5.291   3.573
 5705TIP3    H117079   6.800   5.331   3.606
 5705TIP3    H217080   6.748   5.238   3.499
 5706TIP3   OH217081   0.772   0.959   5.843
 5706TIP3    H117082   0.858   0.940   5.805
 5706TIP3    H217083   0.741   1.035   5.795
 5707TIP3   OH217084   7.121   6.311   0.655
 5707TIP3    H117085   7.035   6.299   0.615
 5707TIP3    H217086   7.170   6.234   0.629
 5708TIP3   OH217087   5.395   6.470   3.428
 5708TIP3    H117088   5.399   6.375   3.441
 5708TIP3    H217089   5.480   6.493   3.391
 5709TIP3   OH217090   0.350   2.829   5.023
 5709TIP3    H117091   0.390   2.821   5.110
 5709TIP3    H217092   0.421   2.861   4.967
 5710TIP3   OH217093   5.723   5.317   1.466
 5710TIP3    H117094   5.635   5.290   1.439
 5710TIP3    H217095   5.750   5.251   1.530
 5711TIP3   OH217096   1.886   4.992   2.051
 5711TIP3    H117097   1.791   4.979   2.052
 5711TIP3    H217098   1.922   4.909   2.020
 5712TIP3   OH217099   2.547   2.185   5.888
 5712TIP3    H117100   2.524   2.237   5.811
 5712TIP3    H217101   2.505   2.231   5.961
 5713TIP3   OH217102   6.611   6.075   3.205
 5713TIP3    H117103   6.535   6.051   3.258
 5713TIP3    H217104   6.582   6.061   3.115
 5714TIP3   OH217105   3.764   0.700   0.405
 5714TIP3    H117106   3.816   0.727   0.481
 5714TIP3    H217107   3.790   0.609   0.389
 5715TIP3   OH217108   5.772   5.124   0.957
 5715TIP3    H117109   5.728   5.155   1.036
 5715TIP3    H217110   5.751   5.190   0.890
 5716TIP3   OH217111   3.202   1.969   1.071
 5716TIP3    H117112   3.169   1.943   0.985
 5716TIP3    H217113   3.273   1.907   1.089
 5717TIP3   OH217114   1.816   1.742   0.649
 5717TIP3    H117115   1.788   1.824   0.688
 5717TIP3    H217116   1.876   1.704   0.714
 5718TIP3   OH217117   0.408   3.365   5.442
 5718TIP3    H117118   0.371   3.292   5.392
 5718TIP3    H217119   0.498   3.338   5.461
 5719TIP3   OH217120   2.543   0.488   5.623
 5719TIP3    H117121   2.536   0.526   5.710
 5719TIP3    H217122   2.631   0.448   5.622
 5720TIP3   OH217123   5.299   4.103   1.588
 5720TIP3    H117124   5.241   4.056   1.528
 5720TIP3    H217125   5.240   4.135   1.657
 5721TIP3   OH217126   1.200   1.000   2.703
 5721TIP3    H117127   1.110   0.994   2.671
 5721TIP3    H217128   1.254   0.960   2.634
 5722TIP3   OH217129   3.626   1.072   2.393
 5722TIP3    H117130   3.550   1.043   2.445
 5722TIP3    H217131   3.620   1.167   2.393
 5723TIP3   OH217132   4.059   2.696   1.356
 5723TIP3    H117133   4.128   2.646   1.312
 5723TIP3    H217134   3.994   2.630   1.381
 5724TIP3   OH217135   0.321   4.962   2.114
 5724TIP3    H117136   0.319   4.911   2.033
 5724TIP3    H217137   0.378   5.036   2.094
 5725TIP3   OH217138   4.012   4.779   0.540
 5725TIP3    H117139   3.978   4.850   0.486
 5725TIP3    H217140   4.057   4.822   0.612
 5726TIP3   OH217141   2.170   3.598   2.649
 5726TIP3    H117142   2.151   3.608   2.742
 5726TIP3    H217143   2.261   3.567   2.647
 5727TIP3   OH217144   2.857   6.139   0.268
 5727TIP3    H117145   2.843   6.195   0.344
 5727TIP3    H217146   2.863   6.199   0.194
 5728TIP3   OH217147   5.703   4.573   2.834
 5728TIP3    H117148   5.689   4.649   2.778
 5728TIP3    H217149   5.617   4.530   2.837
 5729TIP3   OH217150   1.760   1.738   0.367
 5729TIP3    H117151   1.774   1.752   0.460
 5729TIP3    H217152   1.784   1.646   0.353
 5730TIP3   OH217153   3.121   5.656   1.009
 5730TIP3    H117154   3.029   5.664   1.031
 5730TIP3    H217155   3.135   5.721   0.940
 5731TIP3   OH217156   0.035   0.963   5.119
 5731TIP3    H117157   0.042   1.007   5.204
 5731TIP3    H217158   0.086   1.017   5.059
 5732TIP3   OH217159   5.756   1.527   2.906
 5732TIP3    H117160   5.806   1.472   2.966
 5732TIP3    H217161   5.733   1.604   2.957
 5733TIP3   OH217162   6.497   4.716   3.967
 5733TIP3    H117163   6.584   4.754   3.979
 5733TIP3    H217164   6.447   4.750   4.041
 5734TIP3   OH217165   0.922   1.465   2.728
 5734TIP3    H117166   0.989   1.426   2.672
 5734TIP3    H217167   0.972   1.520   2.789
 5735TIP3   OH217168   0.498   0.546   2.216
 5735TIP3    H117169   0.501   0.498   2.299
 5735TIP3    H217170   0.554   0.622   2.230
 5736TIP3   OH217171   1.589   4.114   3.844
 5736TIP3    H117172   1.502   4.120   3.802
 5736TIP3    H217173   1.650   4.139   3.775
 5737TIP3   OH217174   5.176   0.171   1.653
 5737TIP3    H117175   5.083   0.149   1.644
 5737TIP3    H217176   5.222   0.094   1.619
 5738TIP3   OH217177   1.311   1.487   1.268
 5738TIP3    H117178   1.363   1.559   1.232
 5738TIP3    H217179   1.328   1.413   1.210
 5739TIP3   OH217180   3.566   5.965   3.551
 5739TIP3    H117181   3.514   5.884   3.549
 5739TIP3    H217182   3.561   5.993   3.643
 5740TIP3   OH217183   4.708   1.576   2.570
 5740TIP3    H117184   4.692   1.511   2.639
 5740TIP3    H217185   4.623   1.590   2.530
 5741TIP3   OH217186   4.011   3.020   2.383
 5741TIP3    H117187   4.092   3.053   2.343
 5741TIP3    H217188   4.002   2.932   2.347
 5742TIP3   OH217189   2.146   0.510   5.349
 5742TIP3    H117190   2.220   0.524   5.407
 5742TIP3    H217191   2.080   0.467   5.403
 5743TIP3   OH217192   4.033   2.201   2.900
 5743TIP3    H117193   4.095   2.272   2.919
 5743TIP3    H217194   3.971   2.203   2.972
 5744TIP3   OH217195   4.878   3.693   1.965
 5744TIP3    H117196   4.792   3.650   1.961
 5744TIP3    H217197   4.860   3.779   2.002
 5745TIP3   OH217198   0.467   4.041   5.396
 5745TIP3    H117199   0.469   3.988   5.476
 5745TIP3    H217200   0.525   4.116   5.415
 5746TIP3   OH217201   4.119   0.494   1.026
 5746TIP3    H117202   4.058   0.469   1.096
 5746TIP3    H217203   4.206   0.475   1.062
 5747TIP3   OH217204   0.000   2.696   3.802
 5747TIP3    H117205   0.025   2.674   3.892
 5747TIP3    H217206   0.019   2.617   3.751
 5748TIP3   OH217207   0.523   4.151   5.826
 5748TIP3    H117208   0.548   4.150   5.918
 5748TIP3    H217209   0.487   4.063   5.809
 5749TIP3   OH217210   4.011   3.805   1.251
 5749TIP3    H117211   4.105   3.823   1.258
 5749TIP3    H217212   4.001   3.718   1.291
 5750TIP3   OH217213   7.143   1.800   0.354
 5750TIP3    H117214   7.047   1.797   0.352
 5750TIP3    H217215   7.167   1.855   0.279
 5751TIP3   OH217216   3.464   5.043   0.502
 5751TIP3    H117217   3.468   4.955   0.465
 5751TIP3    H217218   3.438   5.030   0.593
 5752TIP3   OH217219   4.719   6.419   1.090
 5752TIP3    H117220   4.798   6.472   1.081
 5752TIP3    H217221   4.700   6.389   1.002
 5753TIP3   OH217222   6.005   5.314   1.868
 5753TIP3    H117223   6.003   5.309   1.772
 5753TIP3    H217224   6.066   5.246   1.895
 5754TIP3   OH217225   2.952   1.154   0.690
 5754TIP3    H117226   2.997   1.187   0.768
 5754TIP3    H217227   2.894   1.085   0.723
 5755TIP3   OH217228   2.075   4.020   1.104
 5755TIP3    H117229   2.140   4.090   1.101
 5755TIP3    H217230   2.126   3.939   1.097
 5756TIP3   OH217231   1.346   0.567   0.559
 5756TIP3    H117232   1.401   0.564   0.637
 5756TIP3    H217233   1.350   0.478   0.523
 5757TIP3   OH217234   0.858   6.300   0.526
 5757TIP3    H117235   0.810   6.332   0.602
 5757TIP3    H217236   0.808   6.331   0.451
 5758TIP3   OH217237   5.852   1.570   4.792
 5758TIP3    H117238   5.840   1.524   4.875
 5758TIP3    H217239   5.892   1.505   4.734
 5759TIP3   OH217240   5.309   0.752   2.300
 5759TIP3    H117241   5.291   0.660   2.282
 5759TIP3    H217242   5.383   0.751   2.361
 5760TIP3   OH217243   2.836   2.195   5.475
 5760TIP3    H117244   2.931   2.184   5.469
 5760TIP3    H217245   2.823   2.266   5.538
 5761TIP3   OH217246   7.113   3.180   4.868
 5761TIP3    H117247   7.105   3.085   4.863
 5761TIP3    H217248   7.079   3.211   4.784
 5762TIP3   OH217249   5.341   6.198   0.146
 5762TIP3    H117250   5.274   6.152   0.095
 5762TIP3    H217251   5.316   6.290   0.142
 5763TIP3   OH217252   0.686   0.018   2.576
 5763TIP3    H117253   0.727  -0.033   2.646
 5763TIP3    H217254   0.657   0.098   2.619
 5764TIP3   OH217255   4.390   2.962   1.891
 5764TIP3    H117256   4.479   2.958   1.855
 5764TIP3    H217257   4.355   2.874   1.879
 5765TIP3   OH217258   4.614   0.622   5.424
 5765TIP3    H117259   4.534   0.589   5.384
 5765TIP3    H217260   4.675   0.630   5.351
 5766TIP3   OH217261   4.231   5.955   1.047
 5766TIP3    H117262   4.266   6.019   1.110
 5766TIP3    H217263   4.246   5.870   1.089
 5767TIP3   OH217264   4.217   0.551   4.899
 5767TIP3    H117265   4.154   0.536   4.970
 5767TIP3    H217266   4.171   0.607   4.838
 5768TIP3   OH217267   1.542   0.924   5.070
 5768TIP3    H117268   1.489   0.845   5.080
 5768TIP3    H217269   1.494   0.977   5.007
 5769TIP3   OH217270   2.596   3.793   3.991
 5769TIP3    H117271   2.530   3.853   4.026
 5769TIP3    H217272   2.552   3.750   3.917
 5770TIP3   OH217273   4.792   4.365   2.522
 5770TIP3    H117274   4.767   4.409   2.440
 5770TIP3    H217275   4.887   4.364   2.520
 5771TIP3   OH217276   6.087   1.123   5.876
 5771TIP3    H117277   6.040   1.159   5.801
 5771TIP3    H217278   6.154   1.067   5.837
 5772TIP3   OH217279   2.397   2.596   2.416
 5772TIP3    H117280   2.339   2.556   2.480
 5772TIP3    H217281   2.360   2.571   2.331
 5773TIP3   OH217282   3.279   6.502   0.634
 5773TIP3    H117283   3.322   6.558   0.698
 5773TIP3    H217284   3.351   6.466   0.582
 5774TIP3   OH217285   6.107   6.567   1.685
 5774TIP3    H117286   6.077   6.556   1.776
 5774TIP3    H217287   6.077   6.487   1.641
 5775TIP3   OH217288   4.994   0.761   0.118
 5775TIP3    H117289   4.998   0.686   0.178
 5775TIP3    H217290   4.920   0.813   0.150
 5776TIP3   OH217291   1.383   0.927   0.941
 5776TIP3    H117292   1.411   0.989   1.008
 5776TIP3    H217293   1.462   0.877   0.921
 5777TIP3   OH217294   0.047   2.002   4.033
 5777TIP3    H117295   0.100   2.078   4.058
 5777TIP3    H217296  -0.033   2.039   3.996
 5778TIP3   OH217297   2.115   3.802   5.169
 5778TIP3    H117298   2.125   3.746   5.092
 5778TIP3    H217299   2.101   3.890   5.134
 5779TIP3   OH217300   3.684   5.979   3.174
 5779TIP3    H117301   3.720   6.061   3.142
 5779TIP3    H217302   3.611   5.960   3.115
 5780TIP3   OH217303   2.293   0.565   1.770
 5780TIP3    H117304   2.349   0.586   1.844
 5780TIP3    H217305   2.336   0.491   1.727
 5781TIP3   OH217306   1.794   4.059   0.994
 5781TIP3    H117307   1.825   4.134   0.943
 5781TIP3    H217308   1.699   4.063   0.988
 5782TIP3   OH217309   1.368   5.854   1.274
 5782TIP3    H117310   1.457   5.871   1.241
 5782TIP3    H217311   1.345   5.935   1.321
 5783TIP3   OH217312   1.598   0.496   1.198
 5783TIP3    H117313   1.665   0.520   1.262
 5783TIP3    H217314   1.642   0.437   1.138
 5784TIP3   OH217315   6.245   6.651   1.169
 5784TIP3    H117316   6.275   6.671   1.258
 5784TIP3    H217317   6.279   6.564   1.151
 5785TIP3   OH217318   0.041   1.756   1.416
 5785TIP3    H117319  -0.011   1.778   1.493
 5785TIP3    H217320   0.058   1.840   1.374
 5786TIP3   OH217321   5.561   0.304   0.535
 5786TIP3    H117322   5.656   0.311   0.523
 5786TIP3    H217323   5.545   0.344   0.621
 5787TIP3   OH217324   6.099   3.196   4.102
 5787TIP3    H117325   6.126   3.123   4.047
 5787TIP3    H217326   6.151   3.270   4.072
 5788TIP3   OH217327   1.521   1.054   1.840
 5788TIP3    H117328   1.439   1.025   1.881
 5788TIP3    H217329   1.569   0.973   1.824
 5789TIP3   OH217330   6.612   1.188   1.343
 5789TIP3    H117331   6.612   1.272   1.298
 5789TIP3    H217332   6.698   1.150   1.322
 5790TIP3   OH217333   5.717   6.666   5.126
 5790TIP3    H117334   5.812   6.662   5.120
 5790TIP3    H217335   5.695   6.598   5.190
 5791TIP3   OH217336   1.395   6.450   1.108
 5791TIP3    H117337   1.418   6.421   1.196
 5791TIP3    H217338   1.329   6.387   1.078
 5792TIP3   OH217339   2.483   4.850   2.535
 5792TIP3    H117340   2.394   4.825   2.512
 5792TIP3    H217341   2.488   4.944   2.518
 5793TIP3   OH217342   1.233   6.705   4.804
 5793TIP3    H117343   1.174   6.780   4.813
 5793TIP3    H217344   1.229   6.682   4.711
 5794TIP3   OH217345   6.828   2.920   0.332
 5794TIP3    H117346   6.827   3.010   0.367
 5794TIP3    H217347   6.740   2.887   0.347
 5795TIP3   OH217348   1.912   4.526   2.579
 5795TIP3    H117349   1.820   4.508   2.601
 5795TIP3    H217350   1.921   4.620   2.592
 5796TIP3   OH217351   0.517   4.569   2.952
 5796TIP3    H117352   0.472   4.543   3.033
 5796TIP3    H217353   0.455   4.626   2.907
 5797TIP3   OH217354   2.582   3.205   5.513
 5797TIP3    H117355   2.493   3.240   5.501
 5797TIP3    H217356   2.572   3.110   5.504
 5798TIP3   OH217357   4.232   4.820   1.660
 5798TIP3    H117358   4.211   4.908   1.629
 5798TIP3    H217359   4.282   4.834   1.741
 5799TIP3   OH217360   6.424   2.663   5.818
 5799TIP3    H117361   6.331   2.683   5.831
 5799TIP3    H217362   6.423   2.588   5.758
 5800TIP3   OH217363   2.659   1.463   5.197
 5800TIP3    H117364   2.651   1.456   5.102
 5800TIP3    H217365   2.716   1.539   5.211
 5801TIP3   OH217366   6.295   3.488   1.367
 5801TIP3    H117367   6.340   3.461   1.287
 5801TIP3    H217368   6.320   3.579   1.379
 5802TIP3   OH217369   2.903   2.661   0.668
 5802TIP3    H117370   2.836   2.691   0.729
 5802TIP3    H217371   2.856   2.649   0.585
 5803TIP3   OH217372   3.130   3.260   5.740
 5803TIP3    H117373   3.124   3.197   5.668
 5803TIP3    H217374   3.179   3.215   5.808
 5804TIP3   OH217375   4.675   5.987   4.540
 5804TIP3    H117376   4.718   5.910   4.504
 5804TIP3    H217377   4.649   6.038   4.464
 5805TIP3   OH217378   4.435   1.229   0.202
 5805TIP3    H117379   4.341   1.248   0.200
 5805TIP3    H217380   4.461   1.255   0.291
 5806TIP3   OH217381   3.745   3.005   3.827
 5806TIP3    H117382   3.826   3.049   3.852
 5806TIP3    H217383   3.722   2.951   3.903
 5807TIP3   OH217384   6.542   5.181   4.960
 5807TIP3    H117385   6.499   5.259   4.926
 5807TIP3    H217386   6.598   5.151   4.889
 5808TIP3   OH217387   2.666   2.907   2.344
 5808TIP3    H117388   2.583   2.909   2.298
 5808TIP3    H217389   2.678   2.997   2.375
 5809TIP3   OH217390   2.168   0.310   0.168
 5809TIP3    H117391   2.205   0.271   0.088
 5809TIP3    H217392   2.087   0.351   0.138
 5810TIP3   OH217393   6.964   3.317   0.750
 5810TIP3    H117394   6.987   3.249   0.813
 5810TIP3    H217395   6.922   3.270   0.678
 5811TIP3   OH217396   6.860   5.065   2.354
 5811TIP3    H117397   6.790   5.010   2.387
 5811TIP3    H217398   6.927   5.062   2.422
 5812TIP3   OH217399   1.862   0.565   3.537
 5812TIP3    H117400   1.850   0.478   3.575
 5812TIP3    H217401   1.820   0.560   3.451
 5813TIP3   OH217402   0.859   2.975   1.019
 5813TIP3    H117403   0.948   3.009   1.018
 5813TIP3    H217404   0.824   3.003   1.103
 5814TIP3   OH217405   5.161   0.131   1.028
 5814TIP3    H117406   5.166   0.086   0.944
 5814TIP3    H217407   5.068   0.152   1.038
 5815TIP3   OH217408   0.041   3.362   1.810
 5815TIP3    H117409   0.033   3.422   1.884
 5815TIP3    H217410   0.022   3.416   1.733
 5816TIP3   OH217411   2.762   5.943   1.649
 5816TIP3    H117412   2.857   5.943   1.645
 5816TIP3    H217413   2.740   5.884   1.721
 5817TIP3   OH217414   0.184   2.027   5.279
 5817TIP3    H117415   0.276   2.034   5.254
 5817TIP3    H217416   0.139   2.090   5.223
 5818TIP3   OH217417   4.605   1.281   5.159
 5818TIP3    H117418   4.632   1.190   5.145
 5818TIP3    H217419   4.510   1.280   5.151
 5819TIP3   OH217420   3.325   1.112   5.174
 5819TIP3    H117421   3.399   1.159   5.213
 5819TIP3    H217422   3.280   1.073   5.249
 5820TIP3   OH217423   4.246   5.993   5.036
 5820TIP3    H117424   4.182   5.958   4.974
 5820TIP3    H217425   4.328   5.997   4.986
 5821TIP3   OH217426   6.175   4.636   1.281
 5821TIP3    H117427   6.246   4.688   1.245
 5821TIP3    H217428   6.106   4.641   1.214
 5822TIP3   OH217429   2.614   6.441   1.375
 5822TIP3    H117430   2.633   6.429   1.468
 5822TIP3    H217431   2.700   6.453   1.334
 5823TIP3   OH217432   4.970   0.480   4.570
 5823TIP3    H117433   4.891   0.473   4.623
 5823TIP3    H217434   5.005   0.567   4.589
 5824TIP3   OH217435   6.927   3.157   4.655
 5824TIP3    H117436   6.898   3.224   4.593
 5824TIP3    H217437   6.985   3.100   4.604
 5825TIP3   OH217438   2.169   5.398   2.170
 5825TIP3    H117439   2.089   5.409   2.119
 5825TIP3    H217440   2.161   5.311   2.208
 5826TIP3   OH217441   6.578   5.736   3.418
 5826TIP3    H117442   6.535   5.653   3.441
 5826TIP3    H217443   6.671   5.718   3.429
 5827TIP3   OH217444   4.493   5.632   0.363
 5827TIP3    H117445   4.478   5.707   0.420
 5827TIP3    H217446   4.505   5.670   0.276
 5828TIP3   OH217447   0.679   4.970   1.334
 5828TIP3    H117448   0.759   4.940   1.291
 5828TIP3    H217449   0.693   4.954   1.427
 5829TIP3   OH217450   6.620   3.109   4.670
 5829TIP3    H117451   6.701   3.149   4.701
 5829TIP3    H217452   6.576   3.177   4.620
 5830TIP3   OH217453   1.279   6.529   0.675
 5830TIP3    H117454   1.215   6.585   0.631
 5830TIP3    H217455   1.341   6.505   0.606
 5831TIP3   OH217456   5.839   6.284   0.829
 5831TIP3    H117457   5.847   6.380   0.833
 5831TIP3    H217458   5.904   6.252   0.892
 5832TIP3   OH217459   2.395   1.248   5.523
 5832TIP3    H117460   2.370   1.169   5.474
 5832TIP3    H217461   2.346   1.318   5.480
 5833TIP3   OH217462   3.334   1.626   5.106
 5833TIP3    H117463   3.341   1.576   5.187
 5833TIP3    H217464   3.408   1.687   5.109
 5834TIP3   OH217465   5.675   6.670   1.287
 5834TIP3    H117466   5.771   6.677   1.283
 5834TIP3    H217467   5.646   6.757   1.314
 5835TIP3   OH217468   5.732   5.102   4.740
 5835TIP3    H117469   5.800   5.050   4.784
 5835TIP3    H217470   5.776   5.139   4.664
 5836TIP3   OH217471   6.215   0.927   5.580
 5836TIP3    H117472   6.288   0.867   5.563
 5836TIP3    H217473   6.255   1.014   5.578
 5837TIP3   OH217474   5.423   5.277   1.446
 5837TIP3    H117475   5.430   5.184   1.469
 5837TIP3    H217476   5.394   5.319   1.528
 5838TIP3   OH217477   5.351   5.571   2.562
 5838TIP3    H117478   5.351   5.567   2.466
 5838TIP3    H217479   5.258   5.577   2.585
 5839TIP3   OH217480   0.688   3.033   0.135
 5839TIP3    H117481   0.601   3.017   0.172
 5839TIP3    H217482   0.703   2.958   0.076
 5840TIP3   OH217483   5.075   0.538   5.421
 5840TIP3    H117484   5.114   0.622   5.445
 5840TIP3    H217485   5.006   0.524   5.486
 5841TIP3   OH217486   2.508   2.523   5.185
 5841TIP3    H117487   2.545   2.606   5.155
 5841TIP3    H217488   2.415   2.541   5.196
 5842TIP3   OH217489   4.709   0.418   4.010
 5842TIP3    H117490   4.688   0.481   4.079
 5842TIP3    H217491   4.628   0.368   3.998
 5843TIP3   OH217492   1.372   6.305   1.603
 5843TIP3    H117493   1.322   6.384   1.623
 5843TIP3    H217494   1.305   6.238   1.587
 5844TIP3   OH217495   4.838   3.414   5.693
 5844TIP3    H117496   4.890   3.338   5.668
 5844TIP3    H217497   4.901   3.485   5.701
 5845TIP3   OH217498   3.865   6.764   3.248
 5845TIP3    H117499   3.788   6.814   3.273
 5845TIP3    H217500   3.856   6.749   3.154
 5846TIP3   OH217501   5.937   3.652   2.555
 5846TIP3    H117502   5.956   3.634   2.647
 5846TIP3    H217503   5.951   3.569   2.510
 5847TIP3   OH217504   5.227   1.259   2.287
 5847TIP3    H117505   5.306   1.236   2.335
 5847TIP3    H217506   5.161   1.196   2.316
 5848TIP3   OH217507   6.038   2.536   2.877
 5848TIP3    H117508   6.046   2.605   2.943
 5848TIP3    H217509   6.019   2.583   2.796
 5849TIP3   OH217510   0.339   1.622   3.711
 5849TIP3    H117511   0.275   1.579   3.653
 5849TIP3    H217512   0.286   1.675   3.771
 5850TIP3   OH217513   0.330   5.355   2.786
 5850TIP3    H117514   0.329   5.356   2.690
 5850TIP3    H217515   0.423   5.362   2.809
 5851TIP3   OH217516   2.363   3.916   3.826
 5851TIP3    H117517   2.441   3.971   3.832
 5851TIP3    H217518   2.334   3.925   3.735
 5852TIP3   OH217519   1.393   2.314   3.600
 5852TIP3    H117520   1.423   2.405   3.610
 5852TIP3    H217521   1.469   2.261   3.624
 5853TIP3   OH217522   5.157   6.174   0.897
 5853TIP3    H117523   5.091   6.106   0.882
 5853TIP3    H217524   5.240   6.127   0.898
 5854TIP3   OH217525   1.646   2.177   1.979
 5854TIP3    H117526   1.639   2.083   1.992
 5854TIP3    H217527   1.607   2.215   2.058
 5855TIP3   OH217528   3.381   1.320   4.671
 5855TIP3    H117529   3.363   1.273   4.752
 5855TIP3    H217530   3.452   1.381   4.694
 5856TIP3   OH217531   4.924   0.078   3.675
 5856TIP3    H117532   4.993   0.090   3.740
 5856TIP3    H217533   4.871   0.157   3.681
 5857TIP3   OH217534   6.641   1.594   2.822
 5857TIP3    H117535   6.693   1.652   2.877
 5857TIP3    H217536   6.550   1.609   2.850
 5858TIP3   OH217537   3.245   3.775   3.049
 5858TIP3    H117538   3.225   3.776   2.955
 5858TIP3    H217539   3.254   3.868   3.072
 5859TIP3   OH217540   2.155   3.767   4.536
 5859TIP3    H117541   2.147   3.859   4.561
 5859TIP3    H217542   2.164   3.768   4.441
 5860TIP3   OH217543   4.569   6.135   0.395
 5860TIP3    H117544   4.649   6.159   0.348
 5860TIP3    H217545   4.593   6.146   0.488
 5861TIP3   OH217546   3.235   2.460   2.716
 5861TIP3    H117547   3.217   2.486   2.806
 5861TIP3    H217548   3.312   2.512   2.691
 5862TIP3   OH217549   3.710   2.124   5.514
 5862TIP3    H117550   3.713   2.211   5.554
 5862TIP3    H217551   3.700   2.065   5.589
 5863TIP3   OH217552   0.256   5.571   3.180
 5863TIP3    H117553   0.201   5.541   3.252
 5863TIP3    H217554   0.233   5.663   3.169
 5864TIP3   OH217555   0.753   6.106   2.354
 5864TIP3    H117556   0.811   6.109   2.430
 5864TIP3    H217557   0.690   6.036   2.374
 5865TIP3   OH217558   0.570   2.270   0.167
 5865TIP3    H117559   0.620   2.195   0.133
 5865TIP3    H217560   0.484   2.262   0.125
 5866TIP3   OH217561   6.799   1.618   4.927
 5866TIP3    H117562   6.884   1.660   4.941
 5866TIP3    H217563   6.819   1.525   4.921
 5867TIP3   OH217564   4.001   3.971   3.069
 5867TIP3    H117565   3.933   3.933   3.124
 5867TIP3    H217566   3.993   3.925   2.985
 5868TIP3   OH217567   3.644   0.247   3.387
 5868TIP3    H117568   3.629   0.290   3.303
 5868TIP3    H217569   3.674   0.159   3.364
 5869TIP3   OH217570   5.199   4.476   5.272
 5869TIP3    H117571   5.174   4.565   5.298
 5869TIP3    H217572   5.268   4.488   5.207
 5870TIP3   OH217573   5.440   3.370   3.796
 5870TIP3    H117574   5.496   3.428   3.846
 5870TIP3    H217575   5.452   3.397   3.705
 5871TIP3   OH217576   5.504   5.507   4.300
 5871TIP3    H117577   5.577   5.465   4.344
 5871TIP3    H217578   5.532   5.515   4.209
 5872TIP3   OH217579   0.453   4.498   0.938
 5872TIP3    H117580   0.387   4.461   0.998
 5872TIP3    H217581   0.530   4.442   0.949
 5873TIP3   OH217582   0.494   4.289   1.497
 5873TIP3    H117583   0.430   4.261   1.562
 5873TIP3    H217584   0.441   4.324   1.425
 5874TIP3   OH217585   4.144   1.758   5.457
 5874TIP3    H117586   4.163   1.713   5.539
 5874TIP3    H217587   4.186   1.703   5.390
 5875TIP3   OH217588   1.599   2.071   4.268
 5875TIP3    H117589   1.544   2.146   4.294
 5875TIP3    H217590   1.541   1.995   4.277
 5876TIP3   OH217591   1.563   6.332   5.826
 5876TIP3    H117592   1.565   6.404   5.762
 5876TIP3    H217593   1.470   6.311   5.835
 5877TIP3   OH217594   0.969   5.098   1.684
 5877TIP3    H117595   0.927   5.184   1.687
 5877TIP3    H217596   0.997   5.089   1.593
 5878TIP3   OH217597   2.562   6.318   2.659
 5878TIP3    H117598   2.643   6.269   2.673
 5878TIP3    H217599   2.560   6.336   2.565
 5879TIP3   OH217600   3.532   6.027   0.205
 5879TIP3    H117601   3.449   6.068   0.229
 5879TIP3    H217602   3.581   6.096   0.161
 5880TIP3   OH217603   5.077   1.922   2.422
 5880TIP3    H117604   4.990   1.930   2.382
 5880TIP3    H217605   5.126   1.996   2.387
 5881TIP3   OH217606   2.922   3.757   0.042
 5881TIP3    H117607   2.959   3.670   0.028
 5881TIP3    H217608   2.977   3.815  -0.011
 5882TIP3   OH217609   6.732   3.805   0.337
 5882TIP3    H117610   6.686   3.799   0.253
 5882TIP3    H217611   6.708   3.725   0.383
 5883TIP3   OH217612   4.638   5.883   4.137
 5883TIP3    H117613   4.676   5.827   4.205
 5883TIP3    H217614   4.595   5.953   4.185
 5884TIP3   OH217615   4.649   2.409   1.021
 5884TIP3    H117616   4.676   2.468   0.950
 5884TIP3    H217617   4.703   2.436   1.096
 5885TIP3   OH217618   1.947   3.933   5.682
 5885TIP3    H117619   1.919   3.940   5.773
 5885TIP3    H217620   2.040   3.957   5.684
 5886TIP3   OH217621   1.502   1.365   2.715
 5886TIP3    H117622   1.564   1.379   2.787
 5886TIP3    H217623   1.436   1.306   2.751
 5887TIP3   OH217624   1.076   6.715   5.324
 5887TIP3    H117625   1.126   6.764   5.259
 5887TIP3    H217626   0.989   6.705   5.285
 5888TIP3   OH217627   0.837   0.941   1.329
 5888TIP3    H117628   0.893   0.922   1.254
 5888TIP3    H217629   0.898   0.954   1.402
 5889TIP3   OH217630   5.675   3.398   2.096
 5889TIP3    H117631   5.623   3.325   2.128
 5889TIP3    H217632   5.648   3.472   2.150
 5890TIP3   OH217633   2.509   3.491   1.195
 5890TIP3    H117634   2.415   3.475   1.186
 5890TIP3    H217635   2.519   3.585   1.183
 5891TIP3   OH217636   0.026   3.169   0.351
 5891TIP3    H117637   0.105   3.222   0.347
 5891TIP3    H217638   0.055   3.080   0.334
 5892TIP3   OH217639   6.012   6.199   1.101
 5892TIP3    H117640   6.074   6.251   1.049
 5892TIP3    H217641   6.063   6.171   1.177
 5893TIP3   OH217642   6.896   1.050   4.611
 5893TIP3    H117643   6.805   1.077   4.618
 5893TIP3    H217644   6.917   1.062   4.518
 5894TIP3   OH217645   4.819   2.888   5.183
 5894TIP3    H117646   4.791   2.972   5.219
 5894TIP3    H217647   4.840   2.908   5.091
 5895TIP3   OH217648   6.745   4.862   1.838
 5895TIP3    H117649   6.655   4.893   1.833
 5895TIP3    H217650   6.798   4.935   1.806
 5896TIP3   OH217651   4.179   6.757   3.783
 5896TIP3    H117652   4.268   6.721   3.786
 5896TIP3    H217653   4.174   6.799   3.697
 5897TIP3   OH217654   6.173   3.555   2.736
 5897TIP3    H117655   6.175   3.500   2.657
 5897TIP3    H217656   6.096   3.526   2.784
 5898TIP3   OH217657   5.895   5.171   2.582
 5898TIP3    H117658   5.828   5.116   2.622
 5898TIP3    H217659   5.972   5.160   2.639
 5899TIP3   OH217660   6.573   2.499   1.295
 5899TIP3    H117661   6.494   2.537   1.332
 5899TIP3    H217662   6.571   2.522   1.202
 5900TIP3   OH217663   0.158   1.215   3.528
 5900TIP3    H117664   0.075   1.262   3.529
 5900TIP3    H217665   0.134   1.123   3.521
 5901TIP3   OH217666   3.652   3.282   5.111
 5901TIP3    H117667   3.730   3.335   5.094
 5901TIP3    H217668   3.684   3.193   5.118
 5902TIP3   OH217669   2.724   4.639   5.782
 5902TIP3    H117670   2.736   4.707   5.848
 5902TIP3    H217671   2.755   4.678   5.701
 5903TIP3   OH217672   1.655   1.312   2.932
 5903TIP3    H117673   1.659   1.229   2.979
 5903TIP3    H217674   1.738   1.355   2.952
 5904TIP3   OH217675   6.276   3.893   5.906
 5904TIP3    H117676   6.218   3.938   5.845
 5904TIP3    H217677   6.251   3.800   5.899
 5905TIP3   OH217678   0.497   0.759   1.658
 5905TIP3    H117679   0.533   0.707   1.587
 5905TIP3    H217680   0.498   0.701   1.734
 5906TIP3   OH217681   5.449   5.156   0.773
 5906TIP3    H117682   5.379   5.174   0.836
 5906TIP3    H217683   5.420   5.077   0.727
 5907TIP3   OH217684   6.213   3.836   1.150
 5907TIP3    H117685   6.144   3.843   1.216
 5907TIP3    H217686   6.166   3.820   1.068
 5908TIP3   OH217687   1.922   6.808   1.423
 5908TIP3    H117688   1.854   6.849   1.369
 5908TIP3    H217689   1.878   6.736   1.468
 5909TIP3   OH217690   1.929   5.672   1.572
 5909TIP3    H117691   1.910   5.596   1.517
 5909TIP3    H217692   1.888   5.745   1.526
 5910TIP3   OH217693   5.204   5.733   4.883
 5910TIP3    H117694   5.279   5.691   4.926
 5910TIP3    H217695   5.241   5.769   4.802
 5911TIP3   OH217696   5.561   2.528   4.816
 5911TIP3    H117697   5.633   2.589   4.798
 5911TIP3    H217698   5.482   2.579   4.801
 5912TIP3   OH217699   0.884   5.279   1.261
 5912TIP3    H117700   0.799   5.323   1.258
 5912TIP3    H217701   0.864   5.187   1.242
 5913TIP3   OH217702   4.261   2.457   5.295
 5913TIP3    H117703   4.250   2.428   5.205
 5913TIP3    H217704   4.334   2.519   5.293
 5914TIP3   OH217705   6.570   0.303   2.212
 5914TIP3    H117706   6.560   0.288   2.118
 5914TIP3    H217707   6.512   0.239   2.252
 5915TIP3   OH217708   0.279   1.431   2.197
 5915TIP3    H117709   0.288   1.349   2.149
 5915TIP3    H217710   0.367   1.467   2.201
 5916TIP3   OH217711   6.792   5.820   2.976
 5916TIP3    H117712   6.703   5.854   2.980
 5916TIP3    H217713   6.799   5.761   3.051
 5917TIP3   OH217714   5.998   2.442   2.168
 5917TIP3    H117715   5.965   2.354   2.150
 5917TIP3    H217716   6.070   2.454   2.107
 5918TIP3   OH217717   4.685   1.857   3.512
 5918TIP3    H117718   4.769   1.888   3.477
 5918TIP3    H217719   4.680   1.765   3.485
 5919TIP3   OH217720   4.368   5.677   2.718
 5919TIP3    H117721   4.380   5.697   2.625
 5919TIP3    H217722   4.416   5.596   2.732
 5920TIP3   OH217723   7.175   2.962   4.705
 5920TIP3    H117724   7.154   2.921   4.788
 5920TIP3    H217725   7.228   2.897   4.659
 5921TIP3   OH217726   4.209   0.074   3.238
 5921TIP3    H117727   4.227   0.128   3.316
 5921TIP3    H217728   4.244  -0.012   3.260
 5922TIP3   OH217729   4.101   1.581   1.607
 5922TIP3    H117730   4.040   1.652   1.626
 5922TIP3    H217731   4.046   1.510   1.572
 5923TIP3   OH217732   6.865   4.251   2.304
 5923TIP3    H117733   6.781   4.251   2.349
 5923TIP3    H217734   6.929   4.232   2.374
 5924TIP3   OH217735   1.263   2.343   1.382
 5924TIP3    H117736   1.294   2.422   1.337
 5924TIP3    H217737   1.255   2.369   1.474
 5925TIP3   OH217738   6.846   3.294   2.030
 5925TIP3    H117739   6.909   3.235   1.989
 5925TIP3    H217740   6.768   3.288   1.974
 5926TIP3   OH217741   2.522   3.964   4.702
 5926TIP3    H117742   2.560   3.877   4.716
 5926TIP3    H217743   2.449   3.950   4.643
 5927TIP3   OH217744   5.958   2.446   1.479
 5927TIP3    H117745   6.000   2.412   1.400
 5927TIP3    H217746   6.004   2.528   1.497
 5928TIP3   OH217747   0.587   3.992   3.478
 5928TIP3    H117748   0.508   3.960   3.434
 5928TIP3    H217749   0.604   4.077   3.438
 5929TIP3   OH217750   3.150   3.061   1.494
 5929TIP3    H117751   3.069   3.087   1.539
 5929TIP3    H217752   3.220   3.084   1.556
 5930TIP3   OH217753   3.100   1.222   2.774
 5930TIP3    H117754   3.100   1.311   2.810
 5930TIP3    H217755   3.106   1.165   2.851
 5931TIP3   OH217756   6.512   4.960   1.720
 5931TIP3    H117757   6.466   4.908   1.654
 5931TIP3    H217758   6.480   5.049   1.707
 5932TIP3   OH217759   3.965   5.562   5.291
 5932TIP3    H117760   3.961   5.654   5.263
 5932TIP3    H217761   3.899   5.519   5.238
 5933TIP3   OH217762   6.062   3.743   0.936
 5933TIP3    H117763   5.981   3.727   0.983
 5933TIP3    H217764   6.042   3.815   0.877
 5934TIP3   OH217765   0.857   0.317   1.630
 5934TIP3    H117766   0.829   0.374   1.702
 5934TIP3    H217767   0.906   0.375   1.572
 5935TIP3   OH217768   6.685   0.352   4.473
 5935TIP3    H117769   6.677   0.265   4.434
 5935TIP3    H217770   6.693   0.336   4.567
 5936TIP3   OH217771   2.550   2.672   3.715
 5936TIP3    H117772   2.561   2.766   3.705
 5936TIP3    H217773   2.639   2.637   3.712
 5937TIP3   OH217774   5.865   2.648   3.322
 5937TIP3    H117775   5.810   2.570   3.315
 5937TIP3    H217776   5.831   2.707   3.256
 5938TIP3   OH217777   6.634   3.151   2.820
 5938TIP3    H117778   6.719   3.190   2.798
 5938TIP3    H217779   6.576   3.179   2.749
 5939TIP3   OH217780   0.022   4.798   1.439
 5939TIP3    H117781   0.091   4.743   1.402
 5939TIP3    H217782   0.015   4.872   1.379
 5940TIP3   OH217783   3.944   4.385   2.701
 5940TIP3    H117784   3.998   4.441   2.644
 5940TIP3    H217785   3.870   4.441   2.725
 5941TIP3   OH217786   6.942   2.233   3.523
 5941TIP3    H117787   6.950   2.321   3.560
 5941TIP3    H217788   6.848   2.222   3.509
 5942TIP3   OH217789   2.121   0.517   2.672
 5942TIP3    H117790   2.185   0.451   2.646
 5942TIP3    H217791   2.050   0.466   2.712
 5943TIP3   OH217792   0.292   3.810   3.570
 5943TIP3    H117793   0.314   3.719   3.589
 5943TIP3    H217794   0.357   3.861   3.619
 5944TIP3   OH217795   6.303   6.812   0.491
 5944TIP3    H117796   6.293   6.717   0.490
 5944TIP3    H217797   6.380   6.829   0.435
 5945TIP3   OH217798   4.877   3.560   3.639
 5945TIP3    H117799   4.966   3.592   3.624
 5945TIP3    H217800   4.822   3.638   3.635
 5946TIP3   OH217801   2.499   5.331   0.786
 5946TIP3    H117802   2.516   5.373   0.702
 5946TIP3    H217803   2.425   5.379   0.823
 5947TIP3   OH217804   2.020   1.531   2.482
 5947TIP3    H117805   1.952   1.540   2.549
 5947TIP3    H217806   2.073   1.457   2.512
 5948TIP3   OH217807   5.266   4.530   0.608
 5948TIP3    H117808   5.261   4.614   0.561
 5948TIP3    H217809   5.268   4.464   0.539
 5949TIP3   OH217810   5.345   0.195   5.329
 5949TIP3    H117811   5.394   0.271   5.360
 5949TIP3    H217812   5.401   0.120   5.350
 5950TIP3   OH217813   2.067   2.604   4.569
 5950TIP3    H117814   2.044   2.674   4.508
 5950TIP3    H217815   2.161   2.612   4.581
 5951TIP3   OH217816   7.189   6.233   1.809
 5951TIP3    H117817   7.194   6.151   1.858
 5951TIP3    H217818   7.097   6.257   1.812
 5952TIP3   OH217819   2.754   1.714   2.690
 5952TIP3    H117820   2.723   1.755   2.608
 5952TIP3    H217821   2.682   1.729   2.752
 5953TIP3   OH217822   3.635   4.048   3.420
 5953TIP3    H117823   3.598   3.995   3.349
 5953TIP3    H217824   3.573   4.037   3.492
 5954TIP3   OH217825   3.938   5.056   2.868
 5954TIP3    H117826   3.930   5.050   2.963
 5954TIP3    H217827   3.864   5.112   2.841
 5955TIP3   OH217828   7.022   2.884   2.300
 5955TIP3    H117829   7.092   2.930   2.254
 5955TIP3    H217830   7.066   2.837   2.371
 5956TIP3   OH217831   1.596   5.513   0.612
 5956TIP3    H117832   1.566   5.482   0.698
 5956TIP3    H217833   1.598   5.608   0.620
 5957TIP3   OH217834   5.106   0.122   2.636
 5957TIP3    H117835   5.176   0.109   2.701
 5957TIP3    H217836   5.055   0.042   2.639
 5958TIP3   OH217837   4.171   5.100   0.772
 5958TIP3    H117838   4.246   5.159   0.783
 5958TIP3    H217839   4.177   5.070   0.681
 5959TIP3   OH217840   6.606   0.256   2.513
 5959TIP3    H117841   6.632   0.280   2.424
 5959TIP3    H217842   6.634   0.329   2.567
 5960TIP3   OH217843   1.675   4.455   2.275
 5960TIP3    H117844   1.750   4.396   2.281
 5960TIP3    H217845   1.714   4.542   2.263
 5961TIP3   OH217846   5.477   1.470   0.285
 5961TIP3    H117847   5.564   1.494   0.317
 5961TIP3    H217848   5.438   1.552   0.255
 5962TIP3   OH217849   3.628   3.636   3.640
 5962TIP3    H117850   3.534   3.649   3.654
 5962TIP3    H217851   3.670   3.700   3.697
 5963TIP3   OH217852   5.429   3.575   0.384
 5963TIP3    H117853   5.414   3.583   0.290
 5963TIP3    H217854   5.485   3.498   0.392
 5964TIP3   OH217855   3.944   5.015   0.919
 5964TIP3    H117856   3.905   4.986   0.836
 5964TIP3    H217857   4.033   5.039   0.897
 5965TIP3   OH217858   3.404   4.812   2.616
 5965TIP3    H117859   3.316   4.850   2.624
 5965TIP3    H217860   3.413   4.793   2.522
 5966TIP3   OH217861   0.138   5.214   3.373
 5966TIP3    H117862   0.100   5.292   3.333
 5966TIP3    H217863   0.191   5.247   3.445
 5967TIP3   OH217864   2.321   1.365   2.987
 5967TIP3    H117865   2.398   1.421   2.989
 5967TIP3    H217866   2.351   1.281   3.022
 5968TIP3   OH217867   1.342   3.957   4.284
 5968TIP3    H117868   1.317   3.942   4.193
 5968TIP3    H217869   1.349   4.052   4.291
 5969TIP3   OH217870   3.343   6.266   3.108
 5969TIP3    H117871   3.349   6.361   3.120
 5969TIP3    H217872   3.307   6.256   3.019
 5970TIP3   OH217873   5.280   1.896   0.964
 5970TIP3    H117874   5.371   1.912   0.939
 5970TIP3    H217875   5.249   1.830   0.901
 5971TIP3   OH217876   2.399   2.238   0.514
 5971TIP3    H117877   2.347   2.184   0.454
 5971TIP3    H217878   2.412   2.321   0.467
 5972TIP3   OH217879   0.037   1.933   2.676
 5972TIP3    H117880   0.061   1.872   2.745
 5972TIP3    H217881  -0.027   1.992   2.717
 5973TIP3   OH217882   5.772   5.952   3.733
 5973TIP3    H117883   5.749   5.881   3.793
 5973TIP3    H217884   5.737   6.031   3.774
 5974TIP3   OH217885   4.632   2.814   1.155
 5974TIP3    H117886   4.619   2.837   1.247
 5974TIP3    H217887   4.555   2.763   1.133
 5975TIP3   OH217888   6.818   1.259   5.760
 5975TIP3    H117889   6.883   1.193   5.785
 5975TIP3    H217890   6.869   1.336   5.737
 5976TIP3   OH217891   3.586   5.182   5.567
 5976TIP3    H117892   3.526   5.257   5.564
 5976TIP3    H217893   3.666   5.214   5.526
 5977TIP3   OH217894   2.002   5.649   3.459
 5977TIP3    H117895   2.058   5.600   3.399
 5977TIP3    H217896   2.054   5.658   3.539
 5978TIP3   OH217897   1.624   5.188   5.518
 5978TIP3    H117898   1.536   5.210   5.487
 5978TIP3    H217899   1.614   5.105   5.565
 5979TIP3   OH217900   4.956   6.277   3.568
 5979TIP3    H117901   4.883   6.333   3.542
 5979TIP3    H217902   4.979   6.229   3.488
 5980TIP3   OH217903   6.006   3.421   0.042
 5980TIP3    H117904   5.990   3.462   0.127
 5980TIP3    H217905   6.101   3.421   0.032
 5981TIP3   OH217906   6.927   2.088   0.950
 5981TIP3    H117907   6.872   2.025   0.902
 5981TIP3    H217908   6.874   2.168   0.954
 5982TIP3   OH217909   4.363   4.233   3.572
 5982TIP3    H117910   4.330   4.271   3.491
 5982TIP3    H217911   4.298   4.168   3.596
 5983TIP3   OH217912   1.250   5.900   0.322
 5983TIP3    H117913   1.158   5.875   0.312
 5983TIP3    H217914   1.259   5.924   0.414
 5984TIP3   OH217915   2.212   4.329   3.542
 5984TIP3    H117916   2.303   4.358   3.543
 5984TIP3    H217917   2.202   4.279   3.624
 5985TIP3   OH217918   1.960   0.602   4.339
 5985TIP3    H117919   1.920   0.538   4.398
 5985TIP3    H217920   2.053   0.581   4.342
 5986TIP3   OH217921   1.685   4.335   4.364
 5986TIP3    H117922   1.671   4.301   4.276
 5986TIP3    H217923   1.640   4.419   4.364
 5987TIP3   OH217924   2.676   6.672   0.772
 5987TIP3    H117925   2.684   6.598   0.832
 5987TIP3    H217926   2.722   6.644   0.693
 5988TIP3   OH217927   3.642   3.544   0.449
 5988TIP3    H117928   3.674   3.612   0.389
 5988TIP3    H217929   3.643   3.586   0.535
 5989TIP3   OH217930   1.031   4.265   1.895
 5989TIP3    H117931   0.942   4.299   1.899
 5989TIP3    H217932   1.063   4.292   1.809
 5990TIP3   OH217933   4.949   6.587   4.333
 5990TIP3    H117934   4.886   6.555   4.397
 5990TIP3    H217935   5.034   6.558   4.367
 5991TIP3   OH217936   4.699   1.670   0.675
 5991TIP3    H117937   4.614   1.634   0.700
 5991TIP3    H217938   4.705   1.655   0.581
 5992TIP3   OH217939   4.055   5.263   5.052
 5992TIP3    H117940   4.106   5.259   5.133
 5992TIP3    H217941   4.116   5.234   4.984
 5993TIP3   OH217942   6.984   1.952   1.851
 5993TIP3    H117943   6.916   1.924   1.913
 5993TIP3    H217944   7.060   1.971   1.905
 5994TIP3   OH217945   2.592   6.756   5.239
 5994TIP3    H117946   2.669   6.702   5.256
 5994TIP3    H217947   2.611   6.799   5.155
 5995TIP3   OH217948   4.997   1.266   5.767
 5995TIP3    H117949   4.955   1.183   5.791
 5995TIP3    H217950   4.965   1.328   5.832
 5996TIP3   OH217951   5.486   3.969   3.182
 5996TIP3    H117952   5.449   3.894   3.229
 5996TIP3    H217953   5.579   3.951   3.178
 5997TIP3   OH217954   6.453   3.493   1.691
 5997TIP3    H117955   6.420   3.549   1.761
 5997TIP3    H217956   6.500   3.553   1.633
 5998TIP3   OH217957   4.569   4.018   1.285
 5998TIP3    H117958   4.557   3.959   1.210
 5998TIP3    H217959   4.625   3.969   1.346
 5999TIP3   OH217960   4.512   5.702   0.097
 5999TIP3    H117961   4.457   5.775   0.126
 5999TIP3    H217962   4.524   5.717   0.003
 6000TIP3   OH217963   3.198   5.235   3.904
 6000TIP3    H117964   3.292   5.221   3.891
 6000TIP3    H217965   3.161   5.232   3.815
 6001TIP3   OH217966   3.185   6.697   2.869
 6001TIP3    H117967   3.172   6.643   2.791
 6001TIP3    H217968   3.099   6.735   2.887
 6002TIP3   OH217969   6.793   0.766   2.280
 6002TIP3    H117970   6.718   0.826   2.289
 6002TIP3    H217971   6.753   0.680   2.271
 6003TIP3   OH217972   1.255   2.316   4.886
 6003TIP3    H117973   1.177   2.332   4.832
 6003TIP3    H217974   1.316   2.271   4.828
 6004TIP3   OH217975   4.236   0.169   1.873
 6004TIP3    H117976   4.164   0.157   1.811
 6004TIP3    H217977   4.295   0.231   1.830
 6005TIP3   OH217978   3.785   4.354   0.035
 6005TIP3    H117979   3.879   4.373   0.033
 6005TIP3    H217980   3.771   4.313   0.121
 6006TIP3   OH217981   5.601   3.360   0.398
 6006TIP3    H117982   5.689   3.358   0.360
 6006TIP3    H217983   5.614   3.331   0.488
 6007TIP3   OH217984   0.265   2.309   1.114
 6007TIP3    H117985   0.183   2.351   1.087
 6007TIP3    H217986   0.327   2.382   1.120
 6008TIP3   OH217987   4.645   5.177   5.573
 6008TIP3    H117988   4.551   5.173   5.587
 6008TIP3    H217989   4.665   5.103   5.516
 6009TIP3   OH217990   0.604   3.394   3.149
 6009TIP3    H117991   0.514   3.362   3.157
 6009TIP3    H217992   0.657   3.316   3.133
 6010TIP3   OH217993   4.954   4.660   1.414
 6010TIP3    H117994   5.009   4.650   1.337
 6010TIP3    H217995   4.984   4.591   1.474
 6011TIP3   OH217996   6.925   4.086   3.083
 6011TIP3    H117997   6.897   4.035   3.159
 6011TIP3    H217998   6.914   4.177   3.109
 6012TIP3   OH217999   5.262   5.642   4.391
 6012TIP3    H118000   5.344   5.596   4.373
 6012TIP3    H218001   5.254   5.706   4.320
 6013TIP3   OH218002   6.705   1.521   5.179
 6013TIP3    H118003   6.729   1.430   5.165
 6013TIP3    H218004   6.736   1.566   5.100
 6014TIP3   OH218005   6.656   0.868   5.181
 6014TIP3    H118006   6.673   0.957   5.212
 6014TIP3    H218007   6.665   0.814   5.260
 6015TIP3   OH218008   6.428   4.262   3.320
 6015TIP3    H118009   6.379   4.264   3.402
 6015TIP3    H218010   6.504   4.319   3.335
 6016TIP3   OH218011   4.266   1.083   1.146
 6016TIP3    H118012   4.242   1.000   1.105
 6016TIP3    H218013   4.187   1.138   1.137
 6017TIP3   OH218014   4.639   4.040   3.358
 6017TIP3    H118015   4.628   4.032   3.453
 6017TIP3    H218016   4.662   4.132   3.344
 6018TIP3   OH218017   3.632   6.783   2.816
 6018TIP3    H118018   3.667   6.761   2.729
 6018TIP3    H218019   3.658   6.710   2.871
 6019TIP3   OH218020   2.212   4.375   0.513
 6019TIP3    H118021   2.161   4.344   0.589
 6019TIP3    H218022   2.226   4.468   0.530
 6020TIP3   OH218023   5.878   5.837   1.993
 6020TIP3    H118024   5.844   5.878   1.913
 6020TIP3    H218025   5.960   5.797   1.966
 6021TIP3   OH218026   2.118   0.956   1.434
 6021TIP3    H118027   2.192   0.896   1.450
 6021TIP3    H218028   2.119   1.016   1.508
 6022TIP3   OH218029   3.556   6.604   4.474
 6022TIP3    H118030   3.512   6.565   4.399
 6022TIP3    H218031   3.618   6.538   4.503
 6023TIP3   OH218032   4.487   0.587   2.733
 6023TIP3    H118033   4.503   0.608   2.825
 6023TIP3    H218034   4.565   0.540   2.705
 6024TIP3   OH218035   6.873   1.170   4.111
 6024TIP3    H118036   6.837   1.090   4.072
 6024TIP3    H218037   6.838   1.171   4.200
 6025TIP3   OH218038   3.143   1.641   4.659
 6025TIP3    H118039   3.057   1.680   4.672
 6025TIP3    H218040   3.164   1.602   4.744
 6026TIP3   OH218041   0.032   1.372   0.676
 6026TIP3    H118042  -0.002   1.371   0.765
 6026TIP3    H218043  -0.016   1.301   0.632
 6027TIP3   OH218044   2.549   5.458   3.180
 6027TIP3    H118045   2.534   5.398   3.107
 6027TIP3    H218046   2.576   5.402   3.252
 6028TIP3   OH218047   4.307   0.973   2.967
 6028TIP3    H118048   4.367   1.047   2.973
 6028TIP3    H218049   4.337   0.922   2.892
 6029TIP3   OH218050   2.312   3.230   5.531
 6029TIP3    H118051   2.256   3.284   5.585
 6029TIP3    H218052   2.309   3.271   5.445
 6030TIP3   OH218053   0.777   3.378   5.419
 6030TIP3    H118054   0.732   3.301   5.454
 6030TIP3    H218055   0.792   3.358   5.327
 6031TIP3   OH218056   3.993   2.662   1.030
 6031TIP3    H118057   3.988   2.615   0.947
 6031TIP3    H218058   4.062   2.616   1.078
 6032TIP3   OH218059   5.333   4.200   3.782
 6032TIP3    H118060   5.340   4.105   3.774
 6032TIP3    H218061   5.252   4.214   3.830
 6033TIP3   OH218062   4.780   0.663   5.209
 6033TIP3    H118063   4.853   0.718   5.237
 6033TIP3    H218064   4.794   0.651   5.115
 6034TIP3   OH218065   1.484   3.274   3.581
 6034TIP3    H118066   1.569   3.313   3.600
 6034TIP3    H218067   1.472   3.209   3.651
 6035TIP3   OH218068   7.049   1.089   5.742
 6035TIP3    H118069   7.142   1.093   5.721
 6035TIP3    H218070   7.031   0.997   5.759
 6036TIP3   OH218071   4.146   5.564   5.799
 6036TIP3    H118072   4.119   5.548   5.708
 6036TIP3    H218073   4.123   5.483   5.845
 6037TIP3   OH218074   5.634   2.799   2.201
 6037TIP3    H118075   5.649   2.838   2.114
 6037TIP3    H218076   5.705   2.736   2.212
 6038TIP3   OH218077   4.242   1.558   3.417
 6038TIP3    H118078   4.226   1.560   3.323
 6038TIP3    H218079   4.164   1.598   3.456
 6039TIP3   OH218080   2.316   2.536   4.403
 6039TIP3    H118081   2.361   2.619   4.419
 6039TIP3    H218082   2.284   2.543   4.312
 6040TIP3   OH218083   4.911   5.089   1.240
 6040TIP3    H118084   4.834   5.118   1.191
 6040TIP3    H218085   4.876   5.031   1.308
 6041TIP3   OH218086   0.360   0.806   0.066
 6041TIP3    H118087   0.323   0.732   0.115
 6041TIP3    H218088   0.414   0.765  -0.001
 6042TIP3   OH218089   6.787   3.172   4.873
 6042TIP3    H118090   6.867   3.163   4.821
 6042TIP3    H218091   6.767   3.083   4.902
 6043TIP3   OH218092   5.689   4.908   0.163
 6043TIP3    H118093   5.735   4.936   0.083
 6043TIP3    H218094   5.607   4.870   0.131
 6044TIP3   OH218095   5.227   4.163   1.159
 6044TIP3    H118096   5.161   4.146   1.092
 6044TIP3    H218097   5.190   4.127   1.239
 6045TIP3   OH218098   3.345   0.306   3.821
 6045TIP3    H118099   3.358   0.275   3.732
 6045TIP3    H218100   3.371   0.231   3.876
 6046TIP3   OH218101   2.945   0.815   0.426
 6046TIP3    H118102   2.986   0.772   0.501
 6046TIP3    H218103   2.884   0.750   0.391
 6047TIP3   OH218104   6.927   6.757   2.656
 6047TIP3    H118105   7.019   6.740   2.674
 6047TIP3    H218106   6.882   6.675   2.677
 6048TIP3   OH218107   3.035   2.838   5.535
 6048TIP3    H118108   3.012   2.825   5.443
 6048TIP3    H218109   2.954   2.866   5.577
 6049TIP3   OH218110   3.204   2.233   3.381
 6049TIP3    H118111   3.209   2.155   3.325
 6049TIP3    H218112   3.293   2.269   3.379
 6050TIP3   OH218113   0.216   3.646   4.785
 6050TIP3    H118114   0.208   3.656   4.879
 6050TIP3    H218115   0.308   3.626   4.770
 6051TIP3   OH218116   5.122   3.039   3.994
 6051TIP3    H118117   5.106   3.109   4.058
 6051TIP3    H218118   5.167   3.083   3.921
 6052TIP3   OH218119   3.960   5.318   0.817
 6052TIP3    H118120   3.893   5.250   0.818
 6052TIP3    H218121   4.031   5.282   0.871
 6053TIP3   OH218122   5.969   3.293   2.739
 6053TIP3    H118123   5.992   3.344   2.817
 6053TIP3    H218124   6.048   3.294   2.685
 6054TIP3   OH218125   5.892   1.720   0.981
 6054TIP3    H118126   5.806   1.716   1.022
 6054TIP3    H218127   5.915   1.629   0.964
 6055TIP3   OH218128   0.840   1.962   1.557
 6055TIP3    H118129   0.921   1.963   1.609
 6055TIP3    H218130   0.787   1.894   1.597
 6056TIP3   OH218131   3.175   4.034   4.609
 6056TIP3    H118132   3.243   3.972   4.635
 6056TIP3    H218133   3.223   4.116   4.595
 6057TIP3   OH218134   6.677   6.529   2.218
 6057TIP3    H118135   6.606   6.542   2.154
 6057TIP3    H218136   6.648   6.455   2.270
 6058TIP3   OH218137   5.550   3.605   2.296
 6058TIP3    H118138   5.550   3.672   2.228
 6058TIP3    H218139   5.529   3.653   2.376
 6059TIP3   OH218140   6.383   3.749   1.388
 6059TIP3    H118141   6.306   3.794   1.424
 6059TIP3    H218142   6.379   3.767   1.294
 6060TIP3   OH218143   5.234   2.545   2.271
 6060TIP3    H118144   5.219   2.509   2.358
 6060TIP3    H218145   5.231   2.640   2.284
 6061TIP3   OH218146   6.878   5.025   2.084
 6061TIP3    H118147   6.872   5.060   2.172
 6061TIP3    H218148   6.796   4.978   2.071
 6062TIP3   OH218149   3.023   2.527   5.483
 6062TIP3    H118150   2.934   2.560   5.471
 6062TIP3    H218151   3.059   2.581   5.553
 6063TIP3   OH218152   2.741   3.221   2.378
 6063TIP3    H118153   2.750   3.304   2.332
 6063TIP3    H218154   2.827   3.206   2.418
 6064TIP3   OH218155   2.434   4.866   0.345
 6064TIP3    H118156   2.510   4.809   0.335
 6064TIP3    H218157   2.456   4.945   0.295
 6065TIP3   OH218158   3.454   4.852   3.865
 6065TIP3    H118159   3.448   4.758   3.849
 6065TIP3    H218160   3.365   4.879   3.885
 6066TIP3   OH218161   5.585   6.109   4.165
 6066TIP3    H118162   5.568   6.177   4.230
 6066TIP3    H218163   5.676   6.085   4.179
 6067TIP3   OH218164   3.942   6.255   2.205
 6067TIP3    H118165   3.911   6.345   2.191
 6067TIP3    H218166   4.021   6.265   2.257
 6068TIP3   OH218167   3.843   2.445   4.760
 6068TIP3    H118168   3.884   2.447   4.846
 6068TIP3    H218169   3.809   2.533   4.748
 6069TIP3   OH218170   3.694   0.516   5.342
 6069TIP3    H118171   3.727   0.561   5.265
 6069TIP3    H218172   3.692   0.582   5.410
 6070TIP3   OH218173   6.072   1.645   1.283
 6070TIP3    H118174   5.993   1.699   1.279
 6070TIP3    H218175   6.040   1.556   1.268
 6071TIP3   OH218176   6.763   5.595   4.993
 6071TIP3    H118177   6.823   5.666   5.019
 6071TIP3    H218178   6.785   5.524   5.053
 6072TIP3   OH218179   1.531   3.897   3.024
 6072TIP3    H118180   1.508   3.806   3.002
 6072TIP3    H218181   1.517   3.946   2.944
 6073TIP3   OH218182   0.957   0.746   3.522
 6073TIP3    H118183   0.875   0.697   3.536
 6073TIP3    H218184   1.023   0.678   3.506
 6074TIP3   OH218185   5.750   5.267   4.313
 6074TIP3    H118186   5.673   5.280   4.259
 6074TIP3    H218187   5.804   5.205   4.265
 6075TIP3   OH218188   4.414   3.755   2.348
 6075TIP3    H118189   4.326   3.727   2.320
 6075TIP3    H218190   4.402   3.788   2.437
 6076TIP3   OH218191   3.436   6.622   1.484
 6076TIP3    H118192   3.379   6.554   1.448
 6076TIP3    H218193   3.395   6.704   1.459
 6077TIP3   OH218194   2.707   2.508   3.417
 6077TIP3    H118195   2.643   2.506   3.346
 6077TIP3    H218196   2.778   2.451   3.386
 6078TIP3   OH218197   5.691   3.978   2.733
 6078TIP3    H118198   5.704   4.069   2.761
 6078TIP3    H218199   5.753   3.966   2.662
 6079TIP3   OH218200   4.759   1.316   4.927
 6079TIP3    H118201   4.676   1.304   4.973
 6079TIP3    H218202   4.753   1.405   4.892
 6080TIP3   OH218203   6.642   2.823   1.338
 6080TIP3    H118204   6.731   2.798   1.361
 6080TIP3    H218205   6.613   2.879   1.410
 6081TIP3   OH218206   1.859   4.565   3.183
 6081TIP3    H118207   1.895   4.576   3.272
 6081TIP3    H218208   1.864   4.652   3.144
 6082TIP3   OH218209  -0.015   0.100   0.063
 6082TIP3    H118210   0.060   0.159   0.058
 6082TIP3    H218211   0.022   0.015   0.088
 6083TIP3   OH218212   5.199   2.900   4.640
 6083TIP3    H118213   5.238   2.978   4.679
 6083TIP3    H218214   5.176   2.925   4.551
 6084TIP3   OH218215   6.678   1.474   4.273
 6084TIP3    H118216   6.615   1.429   4.329
 6084TIP3    H218217   6.653   1.566   4.277
 6085TIP3   OH218218   6.301   2.078   0.551
 6085TIP3    H118219   6.244   2.071   0.474
 6085TIP3    H218220   6.254   2.033   0.621
 6086TIP3   OH218221   6.688   2.703   0.577
 6086TIP3    H118222   6.777   2.726   0.601
 6086TIP3    H218223   6.696   2.656   0.494
 6087TIP3   OH218224   4.094   6.296   0.298
 6087TIP3    H118225   4.077   6.357   0.369
 6087TIP3    H218226   4.009   6.258   0.277
 6088TIP3   OH218227   4.186   1.770   1.173
 6088TIP3    H118228   4.276   1.788   1.198
 6088TIP3    H218229   4.169   1.830   1.100
 6089TIP3   OH218230   3.864   2.661   5.045
 6089TIP3    H118231   3.922   2.735   5.064
 6089TIP3    H218232   3.776   2.697   5.049
 6090TIP3   OH218233   6.583   3.043   0.112
 6090TIP3    H118234   6.519   3.078   0.050
 6090TIP3    H218235   6.568   2.949   0.111
 6091TIP3   OH218236   0.885   2.096   0.047
 6091TIP3    H118237   0.867   2.019  -0.007
 6091TIP3    H218238   0.836   2.080   0.127
 6092TIP3   OH218239   5.622   6.605   2.715
 6092TIP3    H118240   5.707   6.579   2.750
 6092TIP3    H218241   5.599   6.534   2.655
 6093TIP3   OH218242   5.204   3.682   0.495
 6093TIP3    H118243   5.217   3.760   0.549
 6093TIP3    H218244   5.293   3.657   0.468
 6094TIP3   OH218245   1.521   4.008   5.871
 6094TIP3    H118246   1.605   3.962   5.879
 6094TIP3    H218247   1.455   3.938   5.871
 6095TIP3   OH218248   7.162   2.512   0.713
 6095TIP3    H118249   7.100   2.451   0.674
 6095TIP3    H218250   7.248   2.481   0.684
 6096TIP3   OH218251   0.074   0.174   1.780
 6096TIP3    H118252   0.087   0.112   1.852
 6096TIP3    H218253   0.058   0.118   1.703
 6097TIP3   OH218254   0.888   5.092   3.563
 6097TIP3    H118255   0.879   4.999   3.583
 6097TIP3    H218256   0.895   5.096   3.468
 6098TIP3   OH218257   3.252   2.296   1.827
 6098TIP3    H118258   3.345   2.314   1.815
 6098TIP3    H218259   3.236   2.310   1.920
 6099TIP3   OH218260   1.266   3.403   0.689
 6099TIP3    H118261   1.289   3.375   0.600
 6099TIP3    H218262   1.175   3.430   0.682
 6100TIP3   OH218263   1.940   5.758   2.750
 6100TIP3    H118264   1.951   5.845   2.711
 6100TIP3    H218265   1.877   5.715   2.693
 6101TIP3   OH218266   6.010   6.665   5.055
 6101TIP3    H118267   6.083   6.665   5.117
 6101TIP3    H218268   6.028   6.593   4.995
 6102TIP3   OH218269   1.112   2.836   0.384
 6102TIP3    H118270   1.097   2.920   0.342
 6102TIP3    H218271   1.049   2.777   0.343
 6103TIP3   OH218272   1.136   3.658   3.667
 6103TIP3    H118273   1.163   3.748   3.647
 6103TIP3    H218274   1.105   3.662   3.758
 6104TIP3   OH218275   2.834   6.407   3.860
 6104TIP3    H118276   2.756   6.442   3.903
 6104TIP3    H218277   2.802   6.334   3.807
 6105TIP3   OH218278   0.647   6.270   4.945
 6105TIP3    H118279   0.627   6.217   5.022
 6105TIP3    H218280   0.651   6.360   4.979
 6106TIP3   OH218281   1.307   3.961   5.330
 6106TIP3    H118282   1.397   3.928   5.329
 6106TIP3    H218283   1.272   3.940   5.243
 6107TIP3   OH218284   3.592   2.695   3.617
 6107TIP3    H118285   3.677   2.659   3.591
 6107TIP3    H218286   3.529   2.648   3.562
 6108TIP3   OH218287   5.437   4.682   1.809
 6108TIP3    H118288   5.420   4.602   1.859
 6108TIP3    H218289   5.360   4.737   1.824
 6109TIP3   OH218290   0.531   3.417   0.137
 6109TIP3    H118291   0.485   3.484   0.086
 6109TIP3    H218292   0.493   3.335   0.108
 6110TIP3   OH218293   3.196   4.407   3.175
 6110TIP3    H118294   3.284   4.372   3.184
 6110TIP3    H218295   3.204   4.499   3.202
 6111TIP3   OH218296   6.704   0.108   1.189
 6111TIP3    H118297   6.662   0.026   1.164
 6111TIP3    H218298   6.772   0.121   1.122
 6112TIP3   OH218299   5.078   5.439   0.581
 6112TIP3    H118300   5.064   5.518   0.632
 6112TIP3    H218301   5.129   5.468   0.505
 6113TIP3   OH218302   0.328   1.484   2.461
 6113TIP3    H118303   0.312   1.466   2.368
 6113TIP3    H218304   0.383   1.562   2.461
 6114TIP3   OH218305   0.410   2.362   2.927
 6114TIP3    H118306   0.447   2.288   2.880
 6114TIP3    H218307   0.427   2.437   2.870
 6115TIP3   OH218308   5.609   4.664   5.827
 6115TIP3    H118309   5.559   4.662   5.909
 6115TIP3    H218310   5.645   4.576   5.819
 6116TIP3   OH218311   4.694   4.799   3.954
 6116TIP3    H118312   4.765   4.844   3.999
 6116TIP3    H218313   4.737   4.739   3.894
 6117TIP3   OH218314   6.571   6.298   5.015
 6117TIP3    H118315   6.480   6.313   4.990
 6117TIP3    H218316   6.565   6.258   5.102
 6118TIP3   OH218317   1.886   1.930   2.477
 6118TIP3    H118318   1.883   1.854   2.419
 6118TIP3    H218319   1.947   1.990   2.436
 6119TIP3   OH218320   0.820   3.612   2.049
 6119TIP3    H118321   0.865   3.684   2.092
 6119TIP3    H218322   0.727   3.631   2.061
 6120TIP3   OH218323   5.175   2.774   3.896
 6120TIP3    H118324   5.182   2.786   3.801
 6120TIP3    H218325   5.157   2.862   3.929
 6121TIP3   OH218326   6.821   1.372   4.568
 6121TIP3    H118327   6.820   1.465   4.547
 6121TIP3    H218328   6.828   1.368   4.663
 6122TIP3   OH218329   3.677   4.625   5.266
 6122TIP3    H118330   3.719   4.710   5.277
 6122TIP3    H218331   3.713   4.591   5.184
 6123TIP3   OH218332   5.293   6.585   1.047
 6123TIP3    H118333   5.257   6.517   0.989
 6123TIP3    H218334   5.366   6.622   0.997
 6124TIP3   OH218335   3.211   4.523   2.767
 6124TIP3    H118336   3.145   4.562   2.825
 6124TIP3    H218337   3.173   4.527   2.680
 6125TIP3   OH218338   4.363   0.909   0.663
 6125TIP3    H118339   4.454   0.882   0.680
 6125TIP3    H218340   4.352   0.988   0.716
 6126TIP3   OH218341   6.423   4.224   4.385
 6126TIP3    H118342   6.457   4.167   4.454
 6126TIP3    H218343   6.433   4.312   4.420
 6127TIP3   OH218344   4.599   1.048   2.705
 6127TIP3    H118345   4.650   1.100   2.642
 6127TIP3    H218346   4.521   1.100   2.721
 6128TIP3   OH218347   0.672   4.628   0.140
 6128TIP3    H118348   0.694   4.704   0.086
 6128TIP3    H218349   0.752   4.575   0.139
 6129TIP3   OH218350   5.445   4.847   2.593
 6129TIP3    H118351   5.462   4.890   2.509
 6129TIP3    H218352   5.478   4.758   2.581
 6130TIP3   OH218353   4.159   2.082   3.247
 6130TIP3    H118354   4.073   2.071   3.205
 6130TIP3    H218355   4.146   2.153   3.310
 6131TIP3   OH218356   0.768   2.139   4.594
 6131TIP3    H118357   0.712   2.146   4.517
 6131TIP3    H218358   0.776   2.229   4.626
 6132TIP3   OH218359   4.349   6.577   5.331
 6132TIP3    H118360   4.284   6.512   5.358
 6132TIP3    H218361   4.379   6.549   5.245
 6133TIP3   OH218362   5.939   0.442   4.610
 6133TIP3    H118363   5.850   0.464   4.637
 6133TIP3    H218364   5.959   0.361   4.656
 6134TIP3   OH218365   1.873   1.081   2.228
 6134TIP3    H118366   1.878   1.099   2.135
 6134TIP3    H218367   1.850   0.988   2.234
 6135TIP3   OH218368   0.593   0.034   0.460
 6135TIP3    H118369   0.606  -0.061   0.462
 6135TIP3    H218370   0.632   0.065   0.542
 6136TIP3   OH218371   6.603   6.593   1.643
 6136TIP3    H118372   6.672   6.640   1.597
 6136TIP3    H218373   6.540   6.570   1.575
 6137TIP3   OH218374   5.045   6.460   3.912
 6137TIP3    H118375   4.951   6.474   3.905
 6137TIP3    H218376   5.057   6.428   4.002
 6138TIP3   OH218377   1.125   2.663   3.276
 6138TIP3    H118378   1.161   2.626   3.196
 6138TIP3    H218379   1.098   2.587   3.327
 6139TIP3   OH218380   3.746   0.739   3.315
 6139TIP3    H118381   3.709   0.704   3.396
 6139TIP3    H218382   3.770   0.829   3.336
 6140TIP3   OH218383   5.780   2.401   0.803
 6140TIP3    H118384   5.757   2.312   0.831
 6140TIP3    H218385   5.780   2.397   0.708
 6141TIP3   OH218386   3.894   5.952   0.196
 6141TIP3    H118387   3.959   5.899   0.242
 6141TIP3    H218388   3.909   6.041   0.228
 6142TIP3   OH218389   5.466   4.319   4.742
 6142TIP3    H118390   5.535   4.255   4.721
 6142TIP3    H218391   5.388   4.286   4.698
 6143TIP3   OH218392   4.996   1.663   0.702
 6143TIP3    H118393   5.025   1.753   0.692
 6143TIP3    H218394   4.904   1.663   0.676
 6144TIP3   OH218395   5.776   0.213   4.840
 6144TIP3    H118396   5.733   0.280   4.787
 6144TIP3    H218397   5.787   0.139   4.780
 6145TIP3   OH218398   1.516   0.149   4.633
 6145TIP3    H118399   1.574   0.150   4.709
 6145TIP3    H218400   1.561   0.095   4.568
 6146TIP3   OH218401   6.087   6.083   3.386
 6146TIP3    H118402   6.082   6.011   3.448
 6146TIP3    H218403   6.019   6.063   3.321
 6147TIP3   OH218404   4.481   0.701   3.978
 6147TIP3    H118405   4.543   0.661   4.038
 6147TIP3    H218406   4.533   0.724   3.901
 6148TIP3   OH218407   0.564   2.793   1.219
 6148TIP3    H118408   0.611   2.712   1.200
 6148TIP3    H218409   0.523   2.777   1.305
 6149TIP3   OH218410   5.330   1.406   1.419
 6149TIP3    H118411   5.305   1.314   1.412
 6149TIP3    H218412   5.398   1.407   1.487
 6150TIP3   OH218413   4.879   4.178   4.229
 6150TIP3    H118414   4.839   4.191   4.143
 6150TIP3    H218415   4.973   4.184   4.213
 6151TIP3   OH218416   0.569   4.044   3.064
 6151TIP3    H118417   0.567   3.999   3.149
 6151TIP3    H218418   0.654   4.088   3.063
 6152TIP3   OH218419   1.654   2.068   2.486
 6152TIP3    H118420   1.680   1.976   2.476
 6152TIP3    H218421   1.712   2.101   2.555
 6153TIP3   OH218422   7.072   5.747   4.297
 6153TIP3    H118423   7.071   5.686   4.371
 6153TIP3    H218424   7.066   5.834   4.337
 6154TIP3   OH218425   1.430   0.438   4.986
 6154TIP3    H118426   1.413   0.446   4.892
 6154TIP3    H218427   1.485   0.360   4.994
 6155TIP3   OH218428   5.402   0.964   5.623
 6155TIP3    H118429   5.458   0.918   5.685
 6155TIP3    H218430   5.337   1.008   5.677
 6156TIP3   OH218431   6.022   6.522   0.108
 6156TIP3    H118432   6.051   6.436   0.138
 6156TIP3    H218433   6.075   6.584   0.158
 6157TIP3   OH218434   1.852   0.326   3.639
 6157TIP3    H118435   1.802   0.331   3.721
 6157TIP3    H218436   1.808   0.258   3.588
 6158TIP3   OH218437   4.258   4.859   2.215
 6158TIP3    H118438   4.275   4.787   2.276
 6158TIP3    H218439   4.345   4.893   2.192
 6159TIP3   OH218440   1.007   5.049   3.312
 6159TIP3    H118441   0.958   4.979   3.271
 6159TIP3    H218442   1.097   5.016   3.316
 6160TIP3   OH218443   7.203   6.574   2.921
 6160TIP3    H118444   7.126   6.520   2.933
 6160TIP3    H218445   7.191   6.646   2.983
 6161TIP3   OH218446   0.777   1.679   3.795
 6161TIP3    H118447   0.813   1.671   3.707
 6161TIP3    H218448   0.830   1.748   3.836
 6162TIP3   OH218449   0.274   5.540   2.352
 6162TIP3    H118450   0.314   5.627   2.344
 6162TIP3    H218451   0.284   5.501   2.265
 6163TIP3   OH218452   2.321   5.412   5.726
 6163TIP3    H118453   2.409   5.386   5.749
 6163TIP3    H218454   2.277   5.331   5.700
 6164TIP3   OH218455   4.112   5.589   3.355
 6164TIP3    H118456   4.096   5.500   3.386
 6164TIP3    H218457   4.138   5.637   3.434
 6165TIP3   OH218458   2.423   4.381   2.897
 6165TIP3    H118459   2.416   4.354   2.805
 6165TIP3    H218460   2.434   4.299   2.945
 6166TIP3   OH218461   6.134   4.776   0.600
 6166TIP3    H118462   6.125   4.788   0.695
 6166TIP3    H218463   6.170   4.688   0.590
 6167TIP3   OH218464   1.594   5.721   4.936
 6167TIP3    H118465   1.670   5.748   4.988
 6167TIP3    H218466   1.623   5.642   4.891
 6168TIP3   OH218467   4.653   5.371   2.567
 6168TIP3    H118468   4.673   5.309   2.497
 6168TIP3    H218469   4.623   5.450   2.522
 6169TIP3   OH218470   6.113   4.600   0.340
 6169TIP3    H118471   6.094   4.538   0.411
 6169TIP3    H218472   6.167   4.667   0.380
 6170TIP3   OH218473   5.490   1.224   0.844
 6170TIP3    H118474   5.555   1.226   0.915
 6170TIP3    H218475   5.533   1.268   0.771
 6171TIP3   OH218476   1.135   4.831   5.274
 6171TIP3    H118477   1.171   4.781   5.200
 6171TIP3    H218478   1.044   4.801   5.280
 6172TIP3   OH218479   1.820   0.320   1.137
 6172TIP3    H118480   1.902   0.364   1.117
 6172TIP3    H218481   1.844   0.229   1.152
 6173TIP3   OH218482   3.336   2.705   2.308
 6173TIP3    H118483   3.397   2.762   2.262
 6173TIP3    H218484   3.265   2.690   2.245
 6174TIP3   OH218485   4.499   0.238   4.010
 6174TIP3    H118486   4.474   0.169   4.071
 6174TIP3    H218487   4.420   0.253   3.957
 6175TIP3   OH218488   3.406   6.795   2.998
 6175TIP3    H118489   3.332   6.758   2.949
 6175TIP3    H218490   3.454   6.846   2.933
 6176TIP3   OH218491   5.106   3.471   1.101
 6176TIP3    H118492   5.173   3.405   1.086
 6176TIP3    H218493   5.096   3.515   1.017
 6177TIP3   OH218494   3.289   1.855   0.380
 6177TIP3    H118495   3.366   1.799   0.387
 6177TIP3    H218496   3.322   1.944   0.392
 6178TIP3   OH218497   2.411   4.244   5.544
 6178TIP3    H118498   2.396   4.332   5.508
 6178TIP3    H218499   2.414   4.258   5.639
 6179TIP3   OH218500   6.709   4.080   4.886
 6179TIP3    H118501   6.757   3.999   4.876
 6179TIP3    H218502   6.771   4.149   4.862
 6180TIP3   OH218503   0.414   5.493   0.094
 6180TIP3    H118504   0.332   5.505   0.142
 6180TIP3    H218505   0.431   5.399   0.099
 6181TIP3   OH218506   3.133   6.185   1.548
 6181TIP3    H118507   3.148   6.142   1.464
 6181TIP3    H218508   3.089   6.119   1.602
 6182TIP3   OH218509   1.784   0.582   0.951
 6182TIP3    H118510   1.787   0.611   1.042
 6182TIP3    H218511   1.723   0.508   0.951
 6183TIP3   OH218512   3.231   1.332   4.010
 6183TIP3    H118513   3.179   1.278   3.951
 6183TIP3    H218514   3.175   1.345   4.086
 6184TIP3   OH218515   6.476   3.941   3.979
 6184TIP3    H118516   6.411   3.928   3.911
 6184TIP3    H218517   6.551   3.981   3.935
 6185TIP3   OH218518   2.926   6.349   1.489
 6185TIP3    H118519   3.007   6.310   1.522
 6185TIP3    H218520   2.871   6.359   1.566
 6186TIP3   OH218521   4.316   1.603   0.263
 6186TIP3    H118522   4.355   1.683   0.227
 6186TIP3    H218523   4.266   1.566   0.190
 6187TIP3   OH218524   2.658   3.962   2.052
 6187TIP3    H118525   2.672   3.940   2.144
 6187TIP3    H218526   2.566   3.990   2.048
 6188TIP3   OH218527   5.981   6.343   2.528
 6188TIP3    H118528   6.055   6.398   2.550
 6188TIP3    H218529   5.936   6.389   2.458
 6189TIP3   OH218530   1.018   5.614   2.339
 6189TIP3    H118531   1.112   5.600   2.351
 6189TIP3    H218532   1.007   5.623   2.244
 6190TIP3   OH218533   4.853   4.388   0.352
 6190TIP3    H118534   4.922   4.400   0.286
 6190TIP3    H218535   4.836   4.294   0.353
 6191TIP3   OH218536   3.907   5.926   5.481
 6191TIP3    H118537   3.959   6.002   5.456
 6191TIP3    H218538   3.925   5.914   5.574
 6192TIP3   OH218539   6.947   5.732   3.819
 6192TIP3    H118540   6.939   5.736   3.915
 6192TIP3    H218541   6.946   5.823   3.791
 6193TIP3   OH218542   0.358  -0.013   4.044
 6193TIP3    H118543   0.365   0.082   4.038
 6193TIP3    H218544   0.403  -0.036   4.124
 6194TIP3   OH218545   5.422   5.362   0.584
 6194TIP3    H118546   5.425   5.294   0.652
 6194TIP3    H218547   5.359   5.426   0.617
 6195TIP3   OH218548   3.251   5.765   1.693
 6195TIP3    H118549   3.330   5.736   1.740
 6195TIP3    H218550   3.279   5.773   1.602
 6196TIP3   OH218551   2.567   6.495   2.244
 6196TIP3    H118552   2.543   6.512   2.153
 6196TIP3    H218553   2.507   6.426   2.272
 6197TIP3   OH218554   6.952   5.098   1.410
 6197TIP3    H118555   7.043   5.118   1.388
 6197TIP3    H218556   6.925   5.033   1.345
 6198TIP3   OH218557   4.307   2.826   1.577
 6198TIP3    H118558   4.377   2.765   1.554
 6198TIP3    H218559   4.348   2.887   1.639
 6199TIP3   OH218560   3.421   4.411   1.248
 6199TIP3    H118561   3.485   4.449   1.309
 6199TIP3    H218562   3.373   4.346   1.299
 6200TIP3   OH218563   4.277   1.572   2.023
 6200TIP3    H118564   4.313   1.618   1.946
 6200TIP3    H218565   4.192   1.614   2.038
 6201TIP3   OH218566   4.595   1.900   2.073
 6201TIP3    H118567   4.552   1.818   2.097
 6201TIP3    H218568   4.672   1.874   2.024
 6202TIP3   OH218569   7.165   3.857   5.359
 6202TIP3    H118570   7.242   3.862   5.415
 6202TIP3    H218571   7.184   3.785   5.298
 6203TIP3   OH218572   6.395   1.046   0.652
 6203TIP3    H118573   6.392   1.096   0.570
 6203TIP3    H218574   6.315   1.072   0.698
 6204TIP3   OH218575   5.383   5.039   2.944
 6204TIP3    H118576   5.365   5.060   2.852
 6204TIP3    H218577   5.475   5.014   2.945
 6205TIP3   OH218578   4.083   2.787   2.859
 6205TIP3    H118579   4.073   2.842   2.781
 6205TIP3    H218580   4.109   2.701   2.826
 6206TIP3   OH218581   2.162   6.229   0.771
 6206TIP3    H118582   2.093   6.293   0.756
 6206TIP3    H218583   2.158   6.210   0.865
 6207TIP3   OH218584   1.240   4.066   5.863
 6207TIP3    H118585   1.224   3.982   5.819
 6207TIP3    H218586   1.332   4.085   5.846
 6208TIP3   OH218587   0.194   3.150   3.620
 6208TIP3    H118588   0.159   3.091   3.554
 6208TIP3    H218589   0.123   3.161   3.683
 6209TIP3   OH218590   0.117   4.854   4.602
 6209TIP3    H118591   0.137   4.805   4.522
 6209TIP3    H218592   0.199   4.897   4.625
 6210TIP3   OH218593   0.312   3.369   3.208
 6210TIP3    H118594   0.221   3.340   3.196
 6210TIP3    H218595   0.315   3.402   3.298
 6211TIP3   OH218596   6.199   1.708   5.346
 6211TIP3    H118597   6.293   1.697   5.361
 6211TIP3    H218598   6.165   1.737   5.431
 6212TIP3   OH218599   2.735   1.069   1.716
 6212TIP3    H118600   2.713   1.124   1.641
 6212TIP3    H218601   2.653   1.061   1.765
 6213TIP3   OH218602   5.463   5.196   5.819
 6213TIP3    H118603   5.516   5.268   5.785
 6213TIP3    H218604   5.397   5.239   5.874
 6214TIP3   OH218605   0.557   3.700   2.111
 6214TIP3    H118606   0.503   3.765   2.066
 6214TIP3    H218607   0.495   3.632   2.138
 6215TIP3   OH218608   3.904   1.782   1.604
 6215TIP3    H118609   3.898   1.808   1.512
 6215TIP3    H218610   3.816   1.798   1.639
 6216TIP3   OH218611   1.876   5.470   2.882
 6216TIP3    H118612   1.873   5.473   2.978
 6216TIP3    H218613   1.800   5.521   2.853
 6217TIP3   OH218614   2.337   0.688   0.797
 6217TIP3    H118615   2.394   0.689   0.720
 6217TIP3    H218616   2.258   0.641   0.767
 6218TIP3   OH218617   2.719   0.131   1.704
 6218TIP3    H118618   2.646   0.182   1.738
 6218TIP3    H218619   2.760   0.093   1.782
 6219TIP3   OH218620   1.695   0.614   5.097
 6219TIP3    H118621   1.601   0.604   5.114
 6219TIP3    H218622   1.733   0.635   5.183
 6220TIP3   OH218623   4.716   6.572   4.473
 6220TIP3    H118624   4.714   6.530   4.558
 6220TIP3    H218625   4.694   6.664   4.491
 6221TIP3   OH218626   2.221   0.922   1.806
 6221TIP3    H118627   2.149   0.865   1.779
 6221TIP3    H218628   2.218   0.921   1.902
 6222TIP3   OH218629   3.351   2.094   4.352
 6222TIP3    H118630   3.356   2.053   4.265
 6222TIP3    H218631   3.388   2.181   4.338
 6223TIP3   OH218632   6.378   0.429   4.302
 6223TIP3    H118633   6.435   0.504   4.319
 6223TIP3    H218634   6.309   0.436   4.368
 6224TIP3   OH218635   1.585   2.237   3.767
 6224TIP3    H118636   1.646   2.311   3.768
 6224TIP3    H218637   1.637   2.163   3.737
 6225TIP3   OH218638   4.915   5.420   0.966
 6225TIP3    H118639   4.951   5.500   0.928
 6225TIP3    H218640   4.928   5.429   1.060
 6226TIP3   OH218641   2.656   1.239   0.244
 6226TIP3    H118642   2.726   1.179   0.271
 6226TIP3    H218643   2.693   1.286   0.170
 6227TIP3   OH218644   4.988   6.773   3.705
 6227TIP3    H118645   4.994   6.767   3.610
 6227TIP3    H218646   4.917   6.836   3.721
 6228TIP3   OH218647   6.992   6.394   2.914
 6228TIP3    H118648   7.017   6.306   2.885
 6228TIP3    H218649   6.925   6.380   2.980
 6229TIP3   OH218650   5.356   2.989   3.311
 6229TIP3    H118651   5.385   3.027   3.394
 6229TIP3    H218652   5.281   3.042   3.285
 6230TIP3   OH218653   1.965   3.839   0.258
 6230TIP3    H118654   1.884   3.879   0.288
 6230TIP3    H218655   2.020   3.913   0.231
 6231TIP3   OH218656   3.191   4.187   4.867
 6231TIP3    H118657   3.202   4.211   4.775
 6231TIP3    H218658   3.196   4.271   4.914
 6232TIP3   OH218659   6.229   6.381   3.721
 6232TIP3    H118660   6.171   6.309   3.745
 6232TIP3    H218661   6.182   6.427   3.651
 6233TIP3   OH218662   1.353   4.360   5.399
 6233TIP3    H118663   1.292   4.346   5.326
 6233TIP3    H218664   1.439   4.362   5.358
 6234TIP3   OH218665   2.066   4.604   0.409
 6234TIP3    H118666   2.016   4.546   0.466
 6234TIP3    H218667   2.025   4.594   0.323
 6235TIP3   OH218668   1.213   1.039   3.417
 6235TIP3    H118669   1.285   1.054   3.356
 6235TIP3    H218670   1.252   0.991   3.490
 6236TIP3   OH218671   3.232   3.823   1.967
 6236TIP3    H118672   3.244   3.773   2.048
 6236TIP3    H218673   3.201   3.909   1.996
 6237TIP3   OH218674   4.531   1.147   5.884
 6237TIP3    H118675   4.455   1.180   5.930
 6237TIP3    H218676   4.497   1.116   5.800
 6238TIP3   OH218677   4.939   2.461   4.388
 6238TIP3    H118678   4.999   2.531   4.414
 6238TIP3    H218679   4.863   2.472   4.445
 6239TIP3   OH218680   1.191   4.785   1.727
 6239TIP3    H118681   1.213   4.874   1.755
 6239TIP3    H218682   1.237   4.729   1.790
 6240TIP3   OH218683   2.001   0.831   2.395
 6240TIP3    H118684   1.960   0.801   2.476
 6240TIP3    H218685   1.934   0.818   2.328
 6241TIP3   OH218686   2.037   5.558   2.420
 6241TIP3    H118687   2.063   5.489   2.482
 6241TIP3    H218688   1.979   5.513   2.358
 6242TIP3   OH218689   4.581   4.325   3.377
 6242TIP3    H118690   4.523   4.275   3.319
 6242TIP3    H218691   4.617   4.394   3.320
 6243TIP3   OH218692   0.254   4.430   1.114
 6243TIP3    H118693   0.189   4.361   1.128
 6243TIP3    H218694   0.298   4.440   1.199
 6244TIP3   OH218695   5.186   6.552   0.315
 6244TIP3    H118696   5.171   6.645   0.332
 6244TIP3    H218697   5.194   6.513   0.401
 6245TIP3   OH218698   3.686   5.045   4.506
 6245TIP3    H118699   3.642   4.963   4.524
 6245TIP3    H218700   3.697   5.046   4.411
 6246TIP3   OH218701   3.100   1.132   3.050
 6246TIP3    H118702   3.007   1.123   3.072
 6246TIP3    H218703   3.146   1.111   3.132
 6247TIP3   OH218704   2.774   3.982   0.474
 6247TIP3    H118705   2.704   3.926   0.508
 6247TIP3    H218706   2.843   3.976   0.540
 6248TIP3   OH218707   0.240   6.619   5.448
 6248TIP3    H118708   0.184   6.546   5.474
 6248TIP3    H218709   0.219   6.688   5.511
 6249TIP3   OH218710   4.211   3.751   5.745
 6249TIP3    H118711   4.116   3.747   5.737
 6249TIP3    H218712   4.243   3.679   5.691
 6250TIP3   OH218713   0.774   4.258   4.395
 6250TIP3    H118714   0.765   4.352   4.376
 6250TIP3    H218715   0.702   4.239   4.454
 6251TIP3   OH218716   1.425   1.578   2.260
 6251TIP3    H118717   1.521   1.571   2.261
 6251TIP3    H218718   1.395   1.487   2.254
 6252TIP3   OH218719   6.333   4.995   4.988
 6252TIP3    H118720   6.390   5.071   4.995
 6252TIP3    H218721   6.309   4.975   5.078
 6253TIP3   OH218722   3.305   6.022   2.227
 6253TIP3    H118723   3.366   6.066   2.168
 6253TIP3    H218724   3.330   5.930   2.222
 6254TIP3   OH218725   2.567   6.763   0.076
 6254TIP3    H118726   2.473   6.760   0.058
 6254TIP3    H218727   2.575   6.827   0.147
 6255TIP3   OH218728   5.712   3.720   0.490
 6255TIP3    H118729   5.678   3.748   0.575
 6255TIP3    H218730   5.746   3.800   0.450
 6256TIP3   OH218731   6.655   2.411   0.134
 6256TIP3    H118732   6.685   2.415   0.043
 6256TIP3    H218733   6.560   2.402   0.128
 6257TIP3   OH218734   6.283   3.181   5.118
 6257TIP3    H118735   6.215   3.162   5.182
 6257TIP3    H218736   6.243   3.164   5.033
 6258TIP3   OH218737   4.493   5.929   1.859
 6258TIP3    H118738   4.420   5.867   1.863
 6258TIP3    H218739   4.565   5.879   1.821
 6259TIP3   OH218740   1.757   6.237   3.530
 6259TIP3    H118741   1.747   6.153   3.575
 6259TIP3    H218742   1.850   6.258   3.538
 6260TIP3   OH218743   2.208   4.822   3.149
 6260TIP3    H118744   2.120   4.806   3.184
 6260TIP3    H218745   2.208   4.777   3.064
 6261TIP3   OH218746   1.612   0.180   1.292
 6261TIP3    H118747   1.674   0.108   1.281
 6261TIP3    H218748   1.668   0.258   1.299
 6262TIP3   OH218749   4.443   4.211   3.181
 6262TIP3    H118750   4.453   4.212   3.086
 6262TIP3    H218751   4.400   4.128   3.200
 6263TIP3   OH218752   6.199   0.240   2.281
 6263TIP3    H118753   6.230   0.306   2.343
 6263TIP3    H218754   6.216   0.278   2.195
 6264TIP3   OH218755   0.955   0.946   3.335
 6264TIP3    H118756   0.959   0.910   3.424
 6264TIP3    H218757   1.040   0.987   3.321
 6265TIP3   OH218758   5.250   2.096   3.818
 6265TIP3    H118759   5.215   2.172   3.771
 6265TIP3    H218760   5.177   2.035   3.822
 6266TIP3   OH218761   4.931   1.632   5.368
 6266TIP3    H118762   4.999   1.612   5.432
 6266TIP3    H218763   4.863   1.567   5.385
 6267TIP3   OH218764   6.232   6.448   5.538
 6267TIP3    H118765   6.321   6.434   5.572
 6267TIP3    H218766   6.176   6.393   5.593
 6268TIP3   OH218767   5.217   3.263   4.847
 6268TIP3    H118768   5.230   3.330   4.914
 6268TIP3    H218769   5.134   3.221   4.871
 6269TIP3   OH218770   4.182   5.273   2.954
 6269TIP3    H118771   4.149   5.362   2.958
 6269TIP3    H218772   4.113   5.224   2.908
 6270TIP3   OH218773   1.701   6.555   4.820
 6270TIP3    H118774   1.770   6.505   4.776
 6270TIP3    H218775   1.705   6.526   4.911
 6271TIP3   OH218776   3.976   1.518   0.164
 6271TIP3    H118777   3.922   1.482   0.094
 6271TIP3    H218778   4.066   1.498   0.138
 6272TIP3   OH218779   2.363   0.734   5.251
 6272TIP3    H118780   2.371   0.647   5.213
 6272TIP3    H218781   2.391   0.793   5.181
 6273TIP3   OH218782   2.408   0.187   4.034
 6273TIP3    H118783   2.491   0.202   4.079
 6273TIP3    H218784   2.385   0.096   4.057
 6274TIP3   OH218785   1.718   2.721   1.642
 6274TIP3    H118786   1.804   2.679   1.644
 6274TIP3    H218787   1.687   2.706   1.553
 6275TIP3   OH218788   5.695   3.276   2.745
 6275TIP3    H118789   5.665   3.317   2.664
 6275TIP3    H218790   5.790   3.287   2.744
 6276TIP3   OH218791   3.676   6.558   5.184
 6276TIP3    H118792   3.590   6.534   5.219
 6276TIP3    H218793   3.682   6.652   5.198
 6277TIP3   OH218794   1.527   3.346   2.143
 6277TIP3    H118795   1.528   3.335   2.048
 6277TIP3    H218796   1.507   3.258   2.177
 6278TIP3   OH218797   4.039   0.499   5.112
 6278TIP3    H118798   4.045   0.441   5.188
 6278TIP3    H218799   3.950   0.533   5.114
 6279TIP3   OH218800   1.131   5.359   4.075
 6279TIP3    H118801   1.212   5.397   4.041
 6279TIP3    H218802   1.144   5.355   4.170
 6280TIP3   OH218803   4.949   4.876   2.332
 6280TIP3    H118804   5.019   4.919   2.381
 6280TIP3    H218805   4.936   4.932   2.255
 6281TIP3   OH218806   4.493   1.117   2.011
 6281TIP3    H118807   4.562   1.114   1.944
 6281TIP3    H218808   4.486   1.210   2.034
 6282TIP3   OH218809   2.273   0.074   0.281
 6282TIP3    H118810   2.218   0.001   0.254
 6282TIP3    H218811   2.217   0.151   0.273
 6283TIP3   OH218812   2.854   2.108   2.282
 6283TIP3    H118813   2.872   2.040   2.347
 6283TIP3    H218814   2.802   2.174   2.329
 6284TIP3   OH218815   1.111   1.786   4.214
 6284TIP3    H118816   1.037   1.730   4.237
 6284TIP3    H218817   1.120   1.776   4.119
 6285TIP3   OH218818   5.559   1.099   4.750
 6285TIP3    H118819   5.466   1.102   4.727
 6285TIP3    H218820   5.560   1.070   4.841
 6286TIP3   OH218821   4.374   4.089   2.153
 6286TIP3    H118822   4.429   4.097   2.232
 6286TIP3    H218823   4.295   4.046   2.184
 6287TIP3   OH218824   2.128   2.716   2.517
 6287TIP3    H118825   2.115   2.660   2.440
 6287TIP3    H218826   2.040   2.742   2.543
 6288TIP3   OH218827   2.421   1.264   5.176
 6288TIP3    H118828   2.348   1.275   5.114
 6288TIP3    H218829   2.456   1.353   5.186
 6289TIP3   OH218830   2.952   4.093   0.683
 6289TIP3    H118831   3.004   4.153   0.630
 6289TIP3    H218832   2.966   4.122   0.773
 6290TIP3   OH218833   3.968   2.521   5.318
 6290TIP3    H118834   4.060   2.509   5.295
 6290TIP3    H218835   3.958   2.476   5.402
 6291TIP3   OH218836   4.540   3.426   4.996
 6291TIP3    H118837   4.558   3.497   5.058
 6291TIP3    H218838   4.467   3.459   4.944
 6292TIP3   OH218839   5.141   4.694   3.152
 6292TIP3    H118840   5.158   4.625   3.216
 6292TIP3    H218841   5.228   4.713   3.115
 6293TIP3   OH218842   6.832   0.156   0.522
 6293TIP3    H118843   6.856   0.065   0.534
 6293TIP3    H218844   6.749   0.166   0.568
 6294TIP3   OH218845   3.142   5.493   4.198
 6294TIP3    H118846   3.085   5.562   4.232
 6294TIP3    H218847   3.217   5.540   4.161
 6295TIP3   OH218848   6.746   3.407   4.981
 6295TIP3    H118849   6.683   3.398   5.052
 6295TIP3    H218850   6.745   3.322   4.937
 6296TIP3   OH218851   3.996   0.370   3.223
 6296TIP3    H118852   4.049   0.382   3.302
 6296TIP3    H218853   3.939   0.447   3.222
 6297TIP3   OH218854   6.744   3.310   1.344
 6297TIP3    H118855   6.673   3.325   1.407
 6297TIP3    H218856   6.784   3.229   1.373
 6298TIP3   OH218857   5.060   4.410   2.497
 6298TIP3    H118858   5.126   4.345   2.474
 6298TIP3    H218859   5.104   4.494   2.486
 6299TIP3   OH218860   6.656   2.016   2.465
 6299TIP3    H118861   6.722   1.996   2.531
 6299TIP3    H218862   6.681   2.103   2.432
 6300TIP3   OH218863   2.663   1.522   1.944
 6300TIP3    H118864   2.631   1.488   1.861
 6300TIP3    H218865   2.638   1.456   2.008
 6301TIP3   OH218866   1.312   0.058   3.461
 6301TIP3    H118867   1.269   0.143   3.457
 6301TIP3    H218868   1.349   0.053   3.550
 6302TIP3   OH218869   6.459   5.723   5.528
 6302TIP3    H118870   6.459   5.652   5.593
 6302TIP3    H218871   6.551   5.746   5.518
 6303TIP3   OH218872   1.859   0.816   1.755
 6303TIP3    H118873   1.899   0.882   1.812
 6303TIP3    H218874   1.933   0.769   1.716
 6304TIP3   OH218875   2.725   0.197   5.210
 6304TIP3    H118876   2.650   0.216   5.266
 6304TIP3    H218877   2.723   0.264   5.143
 6305TIP3   OH218878   1.924   1.525   5.800
 6305TIP3    H118879   1.872   1.459   5.845
 6305TIP3    H218880   1.894   1.521   5.709
 6306TIP3   OH218881   4.739   0.151   2.632
 6306TIP3    H118882   4.806   0.217   2.649
 6306TIP3    H218883   4.717   0.116   2.718
 6307TIP3   OH218884   2.134   4.945   3.633
 6307TIP3    H118885   2.086   5.006   3.578
 6307TIP3    H218886   2.190   4.896   3.573
 6308TIP3   OH218887   0.964   6.058   2.151
 6308TIP3    H118888   1.033   6.052   2.217
 6308TIP3    H218889   0.887   6.085   2.200
 6309TIP3   OH218890   1.125   5.732   5.106
 6309TIP3    H118891   1.106   5.814   5.061
 6309TIP3    H218892   1.155   5.758   5.193
 6310TIP3   OH218893   3.961   1.825   1.341
 6310TIP3    H118894   4.045   1.830   1.297
 6310TIP3    H218895   3.912   1.901   1.309
 6311TIP3   OH218896   5.363   3.860   4.255
 6311TIP3    H118897   5.309   3.813   4.191
 6311TIP3    H218898   5.371   3.948   4.220
 6312TIP3   OH218899   6.264   6.237   5.358
 6312TIP3    H118900   6.282   6.331   5.357
 6312TIP3    H218901   6.169   6.230   5.359
 6313TIP3   OH218902   3.440   2.557   4.909
 6313TIP3    H118903   3.357   2.572   4.953
 6313TIP3    H218904   3.419   2.558   4.815
 6314TIP3   OH218905   1.096   1.448   5.464
 6314TIP3    H118906   1.149   1.373   5.438
 6314TIP3    H218907   1.157   1.508   5.506
 6315TIP3   OH218908   4.933   0.107   1.545
 6315TIP3    H118909   4.909   0.089   1.454
 6315TIP3    H218910   4.849   0.109   1.591
 6316TIP3   OH218911   4.177   2.254   2.627
 6316TIP3    H118912   4.124   2.187   2.586
 6316TIP3    H218913   4.121   2.293   2.694
 6317TIP3   OH218914   2.206   1.053   2.355
 6317TIP3    H118915   2.187   0.966   2.321
 6317TIP3    H218916   2.130   1.075   2.409
 6318TIP3   OH218917   0.927   3.639   2.849
 6318TIP3    H118918   1.007   3.679   2.883
 6318TIP3    H218919   0.859   3.667   2.910
 6319TIP3   OH218920   6.753   4.855   3.090
 6319TIP3    H118921   6.719   4.921   3.031
 6319TIP3    H218922   6.712   4.875   3.175
 6320TIP3   OH218923   4.717   5.738   2.554
 6320TIP3    H118924   4.712   5.708   2.645
 6320TIP3    H218925   4.655   5.683   2.507
 6321TIP3   OH218926   4.307   3.474   4.049
 6321TIP3    H118927   4.378   3.528   4.082
 6321TIP3    H218928   4.252   3.456   4.125
 6322TIP3   OH218929   6.628   4.343   0.106
 6322TIP3    H118930   6.564   4.286   0.149
 6322TIP3    H218931   6.703   4.286   0.091
 6323TIP3   OH218932   1.132   1.638   2.435
 6323TIP3    H118933   1.063   1.575   2.459
 6323TIP3    H218934   1.172   1.663   2.518
 6324TIP3   OH218935   6.810   6.575   0.793
 6324TIP3    H118936   6.802   6.659   0.837
 6324TIP3    H218937   6.720   6.541   0.790
 6325TIP3   OH218938   2.868   0.872   1.603
 6325TIP3    H118939   2.901   0.902   1.518
 6325TIP3    H218940   2.830   0.950   1.643
 6326TIP3   OH218941   2.381   1.366   1.335
 6326TIP3    H118942   2.330   1.298   1.292
 6326TIP3    H218943   2.431   1.320   1.402
 6327TIP3   OH218944   5.648   4.757   3.994
 6327TIP3    H118945   5.583   4.828   3.987
 6327TIP3    H218946   5.606   4.682   3.952
 6328TIP3   OH218947   5.074   4.498   0.882
 6328TIP3    H118948   5.082   4.428   0.818
 6328TIP3    H218949   5.121   4.572   0.842
 6329TIP3   OH218950   2.293   4.584   4.305
 6329TIP3    H118951   2.224   4.580   4.371
 6329TIP3    H218952   2.276   4.666   4.258
 6330TIP3   OH218953   0.077   3.826   3.966
 6330TIP3    H118954   0.067   3.771   3.889
 6330TIP3    H218955   0.096   3.764   4.037
 6331TIP3   OH218956   0.098   0.769   1.986
 6331TIP3    H118957   0.014   0.791   2.025
 6331TIP3    H218958   0.150   0.736   2.060
 6332TIP3   OH218959   2.719   5.089   1.131
 6332TIP3    H118960   2.663   5.011   1.132
 6332TIP3    H218961   2.760   5.090   1.218
 6333TIP3   OH218962   1.129   1.043   4.511
 6333TIP3    H118963   1.083   1.062   4.429
 6333TIP3    H218964   1.086   0.964   4.544
 6334TIP3   OH218965   4.866   2.182   3.249
 6334TIP3    H118966   4.834   2.137   3.327
 6334TIP3    H218967   4.866   2.115   3.181
 6335TIP3   OH218968   1.754   2.587   0.452
 6335TIP3    H118969   1.674   2.638   0.467
 6335TIP3    H218970   1.731   2.498   0.481
 6336TIP3   OH218971   1.311   1.059   0.441
 6336TIP3    H118972   1.397   1.028   0.410
 6336TIP3    H218973   1.249   1.027   0.375
 6337TIP3   OH218974   0.135   1.789   5.395
 6337TIP3    H118975   0.179   1.868   5.364
 6337TIP3    H218976   0.055   1.783   5.342
 6338TIP3   OH218977   4.360   0.375   1.224
 6338TIP3    H118978   4.439   0.330   1.254
 6338TIP3    H218979   4.291   0.308   1.230
 6339TIP3   OH218980   7.186   6.025   0.753
 6339TIP3    H118981   7.224   5.940   0.775
 6339TIP3    H218982   7.160   6.017   0.661
 6340TIP3   OH218983   2.554   3.868   0.629
 6340TIP3    H118984   2.565   3.783   0.672
 6340TIP3    H218985   2.568   3.932   0.698
 6341TIP3   OH218986   4.791   1.080   1.235
 6341TIP3    H118987   4.724   1.048   1.175
 6341TIP3    H218988   4.772   1.173   1.245
 6342TIP3   OH218989   5.529   2.357   4.532
 6342TIP3    H118990   5.486   2.419   4.591
 6342TIP3    H218991   5.487   2.374   4.447
 6343TIP3   OH218992   0.262   2.247   3.506
 6343TIP3    H118993   0.355   2.230   3.520
 6343TIP3    H218994   0.257   2.282   3.417
 6344TIP3   OH218995   6.182   4.040   3.079
 6344TIP3    H118996   6.114   3.973   3.080
 6344TIP3    H218997   6.217   4.039   3.168
 6345TIP3   OH218998   3.088   3.362   0.723
 6345TIP3    H118999   3.108   3.270   0.704
 6345TIP3    H219000   3.125   3.410   0.649
 6346TIP3   OH219001   3.815   3.704   1.934
 6346TIP3    H119002   3.877   3.696   2.007
 6346TIP3    H219003   3.729   3.697   1.975
 6347TIP3   OH219004   5.510   1.334   1.620
 6347TIP3    H119005   5.547   1.369   1.701
 6347TIP3    H219006   5.492   1.242   1.639
 6348TIP3   OH219007   3.967   0.775   0.191
 6348TIP3    H119008   3.949   0.682   0.207
 6348TIP3    H219009   3.884   0.810   0.160
 6349TIP3   OH219010   2.394   6.521   3.142
 6349TIP3    H119011   2.375   6.612   3.163
 6349TIP3    H219012   2.407   6.520   3.047
 6350TIP3   OH219013   4.949   0.324   2.611
 6350TIP3    H119014   5.007   0.394   2.641
 6350TIP3    H219015   5.009   0.253   2.586
 6351TIP3   OH219016   3.881   0.855   1.552
 6351TIP3    H119017   3.802   0.852   1.606
 6351TIP3    H219018   3.912   0.765   1.549
 6352TIP3   OH219019   5.275   0.266   0.515
 6352TIP3    H119020   5.355   0.308   0.483
 6352TIP3    H219021   5.229   0.237   0.436
 6353TIP3   OH219022   1.925   3.842   3.820
 6353TIP3    H119023   2.005   3.794   3.839
 6353TIP3    H219024   1.860   3.803   3.879
 6354TIP3   OH219025   5.343   3.331   1.150
 6354TIP3    H119026   5.430   3.343   1.189
 6354TIP3    H219027   5.301   3.267   1.207
 6355TIP3   OH219028   6.906   4.182   0.633
 6355TIP3    H119029   6.863   4.217   0.555
 6355TIP3    H219030   6.990   4.148   0.601
 6356TIP3   OH219031   0.476   2.453   4.862
 6356TIP3    H119032   0.416   2.412   4.800
 6356TIP3    H219033   0.422   2.517   4.909
 6357TIP3   OH219034   2.384   6.745   0.692
 6357TIP3    H119035   2.443   6.805   0.737
 6357TIP3    H219036   2.331   6.707   0.762
 6358TIP3   OH219037   3.290   5.111   1.901
 6358TIP3    H119038   3.354   5.104   1.831
 6358TIP3    H219039   3.222   5.168   1.865
 6359TIP3   OH219040   6.573   2.184   2.712
 6359TIP3    H119041   6.554   2.205   2.621
 6359TIP3    H219042   6.555   2.265   2.760
 6360TIP3   OH219043   4.965   2.254   0.834
 6360TIP3    H119044   4.969   2.325   0.897
 6360TIP3    H219045   5.042   2.201   0.853
 6361TIP3   OH219046   3.510   3.997   4.046
 6361TIP3    H119047   3.441   4.049   4.005
 6361TIP3    H219048   3.578   4.060   4.067
 6362TIP3   OH219049   6.830   1.734   5.872
 6362TIP3    H119050   6.826   1.718   5.778
 6362TIP3    H219051   6.739   1.733   5.901
 6363TIP3   OH219052   0.905   6.719   5.574
 6363TIP3    H119053   0.973   6.727   5.507
 6363TIP3    H219054   0.953   6.697   5.654
 6364TIP3   OH219055   1.574   3.385   1.325
 6364TIP3    H119056   1.562   3.414   1.235
 6364TIP3    H219057   1.552   3.292   1.324
 6365TIP3   OH219058   7.226   3.583   2.359
 6365TIP3    H119059   7.196   3.622   2.277
 6365TIP3    H219060   7.147   3.544   2.397
 6366TIP3   OH219061   0.472   5.694   3.691
 6366TIP3    H119062   0.504   5.781   3.710
 6366TIP3    H219063   0.527   5.662   3.620
 6367TIP3   OH219064   3.687   5.447   5.223
 6367TIP3    H119065   3.649   5.360   5.205
 6367TIP3    H219066   3.647   5.474   5.306
 6368TIP3   OH219067   5.060   6.402   5.714
 6368TIP3    H119068   5.022   6.427   5.629
 6368TIP3    H219069   5.118   6.328   5.693
 6369TIP3   OH219070   0.736   2.482   5.014
 6369TIP3    H119071   0.761   2.428   5.089
 6369TIP3    H219072   0.669   2.430   4.969
 6370TIP3   OH219073   2.485   0.454   3.384
 6370TIP3    H119074   2.570   0.487   3.415
 6370TIP3    H219075   2.508   0.384   3.322
 6371TIP3   OH219076   2.077   5.914   2.163
 6371TIP3    H119077   2.167   5.948   2.159
 6371TIP3    H219078   2.088   5.819   2.163
 6372TIP3   OH219079   1.441   2.652   4.254
 6372TIP3    H119080   1.413   2.694   4.336
 6372TIP3    H219081   1.484   2.572   4.282
 6373TIP3   OH219082   4.094   0.851   1.047
 6373TIP3    H119083   4.040   0.794   0.991
 6373TIP3    H219084   4.096   0.806   1.131
 6374TIP3   OH219085   3.000   1.723   2.586
 6374TIP3    H119086   2.927   1.726   2.647
 6374TIP3    H219087   3.078   1.714   2.641
 6375TIP3   OH219088   1.435   4.514   0.998
 6375TIP3    H119089   1.354   4.509   1.050
 6375TIP3    H219090   1.505   4.515   1.063
 6376TIP3   OH219091   4.798   0.459   1.344
 6376TIP3    H119092   4.729   0.398   1.317
 6376TIP3    H219093   4.782   0.537   1.290
 6377TIP3   OH219094   5.565   2.512   0.349
 6377TIP3    H119095   5.483   2.562   0.349
 6377TIP3    H219096   5.538   2.421   0.361
 6378TIP3   OH219097   6.327   3.642   2.978
 6378TIP3    H119098   6.392   3.572   2.974
 6378TIP3    H219099   6.279   3.635   2.896
 6379TIP3   OH219100   4.727   1.448   1.988
 6379TIP3    H119101   4.718   1.399   1.906
 6379TIP3    H219102   4.642   1.439   2.031
 6380TIP3   OH219103   6.373   1.758   4.848
 6380TIP3    H119104   6.373   1.744   4.942
 6380TIP3    H219105   6.291   1.804   4.830
 6381TIP3   OH219106   5.428   5.900   1.905
 6381TIP3    H119107   5.489   5.973   1.911
 6381TIP3    H219108   5.423   5.866   1.995
 6382TIP3   OH219109   1.475   4.612   2.437
 6382TIP3    H119110   1.450   4.555   2.364
 6382TIP3    H219111   1.500   4.695   2.395
 6383TIP3   OH219112   5.315   2.869   2.003
 6383TIP3    H119113   5.367   2.801   1.960
 6383TIP3    H219114   5.225   2.837   1.999
 6384TIP3   OH219115   1.502   2.416   0.259
 6384TIP3    H119116   1.567   2.401   0.190
 6384TIP3    H219117   1.514   2.343   0.320
 6385TIP3   OH219118   5.599   1.390   4.930
 6385TIP3    H119119   5.654   1.440   4.991
 6385TIP3    H219120   5.661   1.340   4.876
 6386TIP3   OH219121   0.728   2.059   2.541
 6386TIP3    H119122   0.739   2.115   2.464
 6386TIP3    H219123   0.817   2.042   2.571
 6387TIP3   OH219124   5.016   0.126   0.439
 6387TIP3    H119125   4.967   0.148   0.360
 6387TIP3    H219126   4.994   0.195   0.502
 6388TIP3   OH219127   6.971   0.356   5.760
 6388TIP3    H119128   7.060   0.391   5.772
 6388TIP3    H219129   6.983   0.261   5.761
 6389TIP3   OH219130   3.231   2.628   5.057
 6389TIP3    H119131   3.256   2.633   5.149
 6389TIP3    H219132   3.136   2.630   5.057
 6390TIP3   OH219133   6.818   1.792   3.655
 6390TIP3    H119134   6.821   1.796   3.560
 6390TIP3    H219135   6.737   1.836   3.679
 6391TIP3   OH219136   0.781   2.649   3.485
 6391TIP3    H119137   0.759   2.718   3.549
 6391TIP3    H219138   0.705   2.590   3.487
 6392TIP3   OH219139   0.293   3.247   1.809
 6392TIP3    H119140   0.209   3.292   1.815
 6392TIP3    H219141   0.304   3.205   1.894
 6393TIP3   OH219142   5.591   4.117   1.591
 6393TIP3    H119143   5.498   4.100   1.607
 6393TIP3    H219144   5.604   4.095   1.498
 6394TIP3   OH219145   6.091   0.343   4.895
 6394TIP3    H119146   6.058   0.255   4.875
 6394TIP3    H219147   6.036   0.373   4.968
 6395TIP3   OH219148   1.104   4.660   3.424
 6395TIP3    H119149   1.078   4.568   3.418
 6395TIP3    H219150   1.029   4.709   3.390
 6396TIP3   OH219151   0.861   2.328   2.701
 6396TIP3    H119152   0.926   2.263   2.673
 6396TIP3    H219153   0.910   2.386   2.760
 6397TIP3   OH219154   5.366   6.067   3.791
 6397TIP3    H119155   5.287   6.120   3.781
 6397TIP3    H219156   5.373   6.020   3.708
 6398TIP3   OH219157   1.062   1.955   3.762
 6398TIP3    H119158   1.063   1.990   3.673
 6398TIP3    H219159   1.141   1.990   3.802
 6399TIP3   OH219160   0.796   0.520   0.829
 6399TIP3    H119161   0.824   0.434   0.798
 6399TIP3    H219162   0.813   0.579   0.755
 6400TIP3   OH219163   4.618   4.541   0.669
 6400TIP3    H119164   4.640   4.611   0.731
 6400TIP3    H219165   4.693   4.539   0.609
 6401TIP3   OH219166   7.046   3.851   4.536
 6401TIP3    H119167   7.075   3.798   4.610
 6401TIP3    H219168   7.125   3.865   4.484
 6402TIP3   OH219169   6.451   5.654   3.850
 6402TIP3    H119170   6.533   5.624   3.891
 6402TIP3    H219171   6.383   5.606   3.897
 6403TIP3   OH219172   1.203   3.914   5.083
 6403TIP3    H119173   1.110   3.927   5.065
 6403TIP3    H219174   1.247   3.981   5.030
 6404TIP3   OH219175   3.422   6.319   5.600
 6404TIP3    H119176   3.334   6.297   5.630
 6404TIP3    H219177   3.415   6.410   5.571
 6405TIP3   OH219178   7.158   2.961   3.642
 6405TIP3    H119179   7.198   2.891   3.693
 6405TIP3    H219180   7.082   2.921   3.600
 6406TIP3   OH219181   3.461   1.898   1.792
 6406TIP3    H119182   3.370   1.871   1.807
 6406TIP3    H219183   3.473   1.973   1.850
 6407TIP3   OH219184   4.615   6.686   1.177
 6407TIP3    H119185   4.639   6.594   1.188
 6407TIP3    H219186   4.688   6.735   1.213
 6408TIP3   OH219187   2.866   0.090   3.684
 6408TIP3    H119188   2.794   0.146   3.654
 6408TIP3    H219189   2.943   0.148   3.684
 6409TIP3   OH219190   4.798   3.713   5.361
 6409TIP3    H119191   4.746   3.749   5.433
 6409TIP3    H219192   4.737   3.706   5.288
 6410TIP3   OH219193   3.759   1.303   4.196
 6410TIP3    H119194   3.704   1.258   4.260
 6410TIP3    H219195   3.716   1.288   4.112
 6411TIP3   OH219196   1.741   5.702   2.245
 6411TIP3    H119197   1.777   5.788   2.223
 6411TIP3    H219198   1.669   5.690   2.183
 6412TIP3   OH219199   2.344   4.166   0.389
 6412TIP3    H119200   2.381   4.195   0.306
 6412TIP3    H219201   2.334   4.246   0.440
 6413TIP3   OH219202   5.843   6.712   2.331
 6413TIP3    H119203   5.752   6.739   2.345
 6413TIP3    H219204   5.894   6.768   2.388
 6414TIP3   OH219205   4.827   2.159   1.800
 6414TIP3    H119206   4.832   2.210   1.881
 6414TIP3    H219207   4.885   2.084   1.814
 6415TIP3   OH219208   0.501   6.365   1.837
 6415TIP3    H119209   0.585   6.403   1.861
 6415TIP3    H219210   0.445   6.441   1.819
 6416TIP3   OH219211   5.216   4.852   1.576
 6416TIP3    H119212   5.238   4.785   1.512
 6416TIP3    H219213   5.183   4.804   1.652
 6417TIP3   OH219214   2.034   6.607   4.782
 6417TIP3    H119215   2.105   6.555   4.744
 6417TIP3    H219216   2.014   6.561   4.864
 6418TIP3   OH219217   2.316   1.270   1.855
 6418TIP3    H119218   2.406   1.244   1.873
 6418TIP3    H219219   2.266   1.238   1.930
 6419TIP3   OH219220   6.716   0.085   4.401
 6419TIP3    H119221   6.643   0.056   4.346
 6419TIP3    H219222   6.794   0.062   4.351
 6420TIP3   OH219223   3.650   2.794   5.364
 6420TIP3    H119224   3.572   2.848   5.352
 6420TIP3    H219225   3.699   2.838   5.433
 6421TIP3   OH219226   3.563   3.916   0.164
 6421TIP3    H119227   3.572   4.003   0.125
 6421TIP3    H219228   3.484   3.921   0.218
 6422TIP3   OH219229   0.476   4.416   0.420
 6422TIP3    H119230   0.561   4.398   0.381
 6422TIP3    H219231   0.449   4.499   0.381
 6423TIP3   OH219232   3.493   0.797   4.520
 6423TIP3    H119233   3.457   0.885   4.529
 6423TIP3    H219234   3.458   0.749   4.595
 6424TIP3   OH219235   0.209   6.135   4.276
 6424TIP3    H119236   0.194   6.228   4.293
 6424TIP3    H219237   0.304   6.123   4.287
 6425TIP3   OH219238   6.041   4.471   1.926
 6425TIP3    H119239   6.129   4.459   1.960
 6425TIP3    H219240   5.989   4.402   1.967
 6426TIP3   OH219241   6.861   6.200   4.678
 6426TIP3    H119242   6.947   6.241   4.671
 6426TIP3    H219243   6.847   6.159   4.593
 6427TIP3   OH219244   5.304   5.133   4.409
 6427TIP3    H119245   5.367   5.120   4.480
 6427TIP3    H219246   5.235   5.186   4.447
 6428TIP3   OH219247   1.231   6.373   5.076
 6428TIP3    H119248   1.172   6.383   5.150
 6428TIP3    H219249   1.187   6.311   5.017
 6429TIP3   OH219250   7.132   5.309   3.163
 6429TIP3    H119251   7.221   5.297   3.130
 6429TIP3    H219252   7.106   5.395   3.129
 6430TIP3   OH219253   6.229   2.117   1.698
 6430TIP3    H119254   6.249   2.051   1.765
 6430TIP3    H219255   6.134   2.111   1.687
 6431TIP3   OH219256   4.117   4.937   5.723
 6431TIP3    H119257   4.152   4.851   5.745
 6431TIP3    H219258   4.172   4.998   5.772
 6432TIP3   OH219259   3.652   6.075   5.666
 6432TIP3    H119260   3.571   6.081   5.717
 6432TIP3    H219261   3.701   6.003   5.706
 6433TIP3   OH219262   4.668   6.685   5.336
 6433TIP3    H119263   4.616   6.730   5.269
 6433TIP3    H219264   4.691   6.601   5.297
 6434TIP3   OH219265   0.928   3.637   0.506
 6434TIP3    H119266   0.880   3.562   0.472
 6434TIP3    H219267   0.965   3.606   0.589
 6435TIP3   OH219268   3.601   4.366   0.979
 6435TIP3    H119269   3.588   4.461   0.978
 6435TIP3    H219270   3.626   4.347   1.070
 6436TIP3   OH219271   1.195   0.356   4.732
 6436TIP3    H119272   1.262   0.391   4.674
 6436TIP3    H219273   1.192   0.262   4.712
 6437TIP3   OH219274   5.498   2.365   4.247
 6437TIP3    H119275   5.559   2.410   4.189
 6437TIP3    H219276   5.416   2.414   4.239
 6438TIP3   OH219277   1.429   6.228   4.130
 6438TIP3    H119278   1.488   6.181   4.188
 6438TIP3    H219279   1.440   6.320   4.152
 6439TIP3   OH219280   5.190   0.662   4.678
 6439TIP3    H119281   5.180   0.723   4.751
 6439TIP3    H219282   5.204   0.718   4.602
 6440TIP3   OH219283   0.697   0.618   3.541
 6440TIP3    H119284   0.678   0.526   3.556
 6440TIP3    H219285   0.639   0.643   3.469
 6441TIP3   OH219286   2.154   3.795   1.482
 6441TIP3    H119287   2.094   3.859   1.442
 6441TIP3    H219288   2.152   3.720   1.422
 6442TIP3   OH219289   4.930   5.686   2.362
 6442TIP3    H119290   4.864   5.720   2.422
 6442TIP3    H219291   5.011   5.729   2.389
 6443TIP3   OH219292   3.704   0.256   2.918
 6443TIP3    H119293   3.703   0.339   2.870
 6443TIP3    H219294   3.791   0.253   2.958
 6444TIP3   OH219295   4.017   2.680   5.654
 6444TIP3    H119296   4.036   2.588   5.673
 6444TIP3    H219297   3.921   2.683   5.646
 6445TIP3   OH219298   4.843   3.134   2.012
 6445TIP3    H119299   4.813   3.222   1.993
 6445TIP3    H219300   4.785   3.102   2.081
 6446TIP3   OH219301   5.829   5.910   2.457
 6446TIP3    H119302   5.746   5.886   2.414
 6446TIP3    H219303   5.891   5.918   2.385
 6447TIP3   OH219304   5.729   4.863   3.706
 6447TIP3    H119305   5.642   4.893   3.733
 6447TIP3    H219306   5.790   4.912   3.761
 6448TIP3   OH219307   0.888   2.711   4.608
 6448TIP3    H119308   0.842   2.701   4.691
 6448TIP3    H219309   0.966   2.656   4.617
 6449TIP3   OH219310   0.989   1.945   4.878
 6449TIP3    H119311   0.961   2.029   4.915
 6449TIP3    H219312   1.080   1.936   4.907
 6450TIP3   OH219313   4.875   3.637   4.324
 6450TIP3    H119314   4.882   3.614   4.231
 6450TIP3    H219315   4.914   3.725   4.329
 6451TIP3   OH219316   5.484   2.119   4.694
 6451TIP3    H119317   5.518   2.197   4.652
 6451TIP3    H219318   5.478   2.141   4.787
 6452TIP3   OH219319   3.269   4.950   5.523
 6452TIP3    H119320   3.258   5.036   5.483
 6452TIP3    H219321   3.356   4.921   5.494
 6453TIP3   OH219322   5.226   3.529   4.182
 6453TIP3    H119323   5.253   3.516   4.273
 6453TIP3    H219324   5.307   3.546   4.135
 6454TIP3   OH219325   1.540   5.426   0.877
 6454TIP3    H119326   1.593   5.443   0.955
 6454TIP3    H219327   1.468   5.370   0.909
 6455TIP3   OH219328   3.149   4.326   1.040
 6455TIP3    H119329   3.215   4.260   1.061
 6455TIP3    H219330   3.126   4.365   1.124
 6456TIP3   OH219331   5.918   3.165   5.637
 6456TIP3    H119332   5.941   3.110   5.712
 6456TIP3    H219333   5.869   3.106   5.578
 6457TIP3   OH219334   2.789   4.223   0.227
 6457TIP3    H119335   2.730   4.184   0.162
 6457TIP3    H219336   2.848   4.151   0.251
 6458TIP3   OH219337   5.498   4.150   1.097
 6458TIP3    H119338   5.508   4.237   1.135
 6458TIP3    H219339   5.406   4.128   1.110
 6459TIP3   OH219340   2.580   1.878   2.049
 6459TIP3    H119341   2.644   1.807   2.045
 6459TIP3    H219342   2.497   1.834   2.067
 6460TIP3   OH219343   4.678   3.834   5.567
 6460TIP3    H119344   4.597   3.877   5.597
 6460TIP3    H219345   4.736   3.838   5.642
 6461TIP3   OH219346   5.375   0.849   3.656
 6461TIP3    H119347   5.463   0.827   3.626
 6461TIP3    H219348   5.332   0.764   3.668
 6462TIP3   OH219349   1.626   4.576   1.943
 6462TIP3    H119350   1.554   4.514   1.946
 6462TIP3    H219351   1.699   4.531   1.985
 6463TIP3   OH219352   1.088   4.027   0.814
 6463TIP3    H119353   1.150   3.986   0.874
 6463TIP3    H219354   1.031   3.956   0.786
 6464TIP3   OH219355   3.091   3.890   1.715
 6464TIP3    H119356   3.145   3.945   1.773
 6464TIP3    H219357   3.001   3.912   1.739
 6465TIP3   OH219358   1.091   6.120   1.925
 6465TIP3    H119359   1.062   6.094   2.012
 6465TIP3    H219360   1.024   6.180   1.894
 6466TIP3   OH219361   4.549   6.674   3.293
 6466TIP3    H119362   4.617   6.724   3.339
 6466TIP3    H219363   4.555   6.586   3.330
 6467TIP3   OH219364   1.976   4.874   3.839
 6467TIP3    H119365   2.039   4.875   3.910
 6467TIP3    H219366   2.021   4.916   3.766
 6468TIP3   OH219367   5.431   2.127   4.386
 6468TIP3    H119368   5.442   2.199   4.323
 6468TIP3    H219369   5.391   2.168   4.462
 6469TIP3   OH219370   5.502   0.812   2.132
 6469TIP3    H119371   5.433   0.816   2.197
 6469TIP3    H219372   5.483   0.884   2.072
 6470TIP3   OH219373   1.255   0.957   5.383
 6470TIP3    H119374   1.243   0.864   5.361
 6470TIP3    H219375   1.230   0.963   5.475
 6471TIP3   OH219376   3.783   0.651   0.952
 6471TIP3    H119377   3.855   0.670   0.892
 6471TIP3    H219378   3.704   0.666   0.900
 6472TIP3   OH219379   3.843   5.247   1.907
 6472TIP3    H119380   3.887   5.312   1.962
 6472TIP3    H219381   3.914   5.201   1.863
 6473TIP3   OH219382   1.110   4.119   2.104
 6473TIP3    H119383   1.158   4.166   2.173
 6473TIP3    H219384   1.101   4.183   2.033
 6474TIP3   OH219385   3.111   0.169   4.988
 6474TIP3    H119386   3.181   0.184   5.051
 6474TIP3    H219387   3.140   0.094   4.936
 6475TIP3   OH219388   6.532   3.261   0.531
 6475TIP3    H119389   6.612   3.309   0.511
 6475TIP3    H219390   6.520   3.273   0.625
 6476TIP3   OH219391   0.540   1.920   1.484
 6476TIP3    H119392   0.548   2.015   1.496
 6476TIP3    H219393   0.466   1.895   1.539
 6477TIP3   OH219394   0.947   3.445   3.274
 6477TIP3    H119395   0.961   3.361   3.231
 6477TIP3    H219396   0.859   3.438   3.311
 6478TIP3   OH219397   6.113   4.036   5.737
 6478TIP3    H119398   6.019   4.020   5.733
 6478TIP3    H219399   6.135   4.071   5.650
 6479TIP3   OH219400   5.566   5.113   1.915
 6479TIP3    H119401   5.528   5.101   1.828
 6479TIP3    H219402   5.595   5.026   1.940
 6480TIP3   OH219403   0.565   2.892   4.853
 6480TIP3    H119404   0.560   2.892   4.758
 6480TIP3    H219405   0.645   2.843   4.873
 6481TIP3   OH219406   1.681   1.519   2.313
 6481TIP3    H119407   1.737   1.528   2.390
 6481TIP3    H219408   1.724   1.453   2.259
 6482TIP3   OH219409   2.614   3.858   4.277
 6482TIP3    H119410   2.628   3.945   4.242
 6482TIP3    H219411   2.689   3.807   4.245
 6483TIP3   OH219412   1.817   1.261   1.836
 6483TIP3    H119413   1.835   1.354   1.826
 6483TIP3    H219414   1.725   1.257   1.862
 6484TIP3   OH219415   5.693   2.141   2.503
 6484TIP3    H119416   5.669   2.202   2.573
 6484TIP3    H219417   5.756   2.189   2.450
 6485TIP3   OH219418   2.501   5.393   2.505
 6485TIP3    H119419   2.547   5.477   2.504
 6485TIP3    H219420   2.482   5.377   2.597
 6486TIP3   OH219421   5.153   2.136   2.276
 6486TIP3    H119422   5.088   2.204   2.297
 6486TIP3    H219423   5.226   2.185   2.239
 6487TIP3   OH219424   3.954   0.240   1.810
 6487TIP3    H119425   3.904   0.170   1.852
 6487TIP3    H219426   3.942   0.227   1.716
 6488TIP3   OH219427   3.710   5.161   0.472
 6488TIP3    H119428   3.712   5.239   0.527
 6488TIP3    H219429   3.620   5.129   0.479
 6489TIP3   OH219430   0.092   2.433   3.634
 6489TIP3    H119431   0.122   2.427   3.724
 6489TIP3    H219432   0.134   2.360   3.589
 6490TIP3   OH219433   2.401   4.642   2.208
 6490TIP3    H119434   2.345   4.574   2.171
 6490TIP3    H219435   2.408   4.619   2.300
 6491TIP3   OH219436   5.205   4.308   0.052
 6491TIP3    H119437   5.285   4.358   0.035
 6491TIP3    H219438   5.215   4.229   0.000
 6492TIP3   OH219439   5.104   0.990   0.857
 6492TIP3    H119440   5.141   1.014   0.942
 6492TIP3    H219441   5.154   1.040   0.793
 6493TIP3   OH219442   5.160   3.241   4.574
 6493TIP3    H119443   5.168   3.325   4.529
 6493TIP3    H219444   5.196   3.258   4.661
 6494TIP3   OH219445   5.538   4.053   1.872
 6494TIP3    H119446   5.509   4.132   1.917
 6494TIP3    H219447   5.590   4.086   1.798
 6495TIP3   OH219448   6.775   0.576   4.351
 6495TIP3    H119449   6.838   0.615   4.413
 6495TIP3    H219450   6.769   0.484   4.378
 6496TIP3   OH219451   5.409   4.907   4.019
 6496TIP3    H119452   5.364   4.895   4.102
 6496TIP3    H219453   5.339   4.907   3.954
 6497TIP3   OH219454   2.998   3.570   3.241
 6497TIP3    H119455   2.960   3.494   3.197
 6497TIP3    H219456   2.922   3.622   3.269
 6498TIP3   OH219457   6.382   2.494   4.361
 6498TIP3    H119458   6.427   2.500   4.276
 6498TIP3    H219459   6.442   2.538   4.422
 6499TIP3   OH219460   3.338   5.203   1.351
 6499TIP3    H119461   3.312   5.154   1.274
 6499TIP3    H219462   3.427   5.232   1.333
 6500TIP3   OH219463   4.868   3.093   3.832
 6500TIP3    H119464   4.818   3.045   3.899
 6500TIP3    H219465   4.955   3.054   3.835
 6501TIP3   OH219466   2.258   2.506   3.412
 6501TIP3    H119467   2.350   2.493   3.435
 6501TIP3    H219468   2.243   2.445   3.339
 6502TIP3   OH219469   3.180   6.130   1.283
 6502TIP3    H119470   3.252   6.118   1.220
 6502TIP3    H219471   3.134   6.046   1.282
 6503TIP3   OH219472   2.939   3.909   4.690
 6503TIP3    H119473   3.027   3.946   4.692
 6503TIP3    H219474   2.896   3.948   4.767
 6504TIP3   OH219475   4.498   3.073   4.876
 6504TIP3    H119476   4.472   3.143   4.936
 6504TIP3    H219477   4.591   3.089   4.860
 6505TIP3   OH219478   4.479   3.626   3.492
 6505TIP3    H119479   4.432   3.606   3.573
 6505TIP3    H219480   4.422   3.595   3.422
 6506TIP3   OH219481   2.649   2.527   0.584
 6506TIP3    H119482   2.694   2.549   0.503
 6506TIP3    H219483   2.698   2.452   0.618
 6507TIP3   OH219484   4.185   6.650   1.195
 6507TIP3    H119485   4.175   6.595   1.273
 6507TIP3    H219486   4.124   6.722   1.208
 6508TIP3   OH219487   4.905   4.795   4.311
 6508TIP3    H119488   4.990   4.839   4.321
 6508TIP3    H219489   4.844   4.866   4.290
 6509TIP3   OH219490   2.152   6.020   4.579
 6509TIP3    H119491   2.244   6.026   4.601
 6509TIP3    H219492   2.111   6.093   4.625
 6510TIP3   OH219493   3.095   0.686   0.652
 6510TIP3    H119494   3.019   0.671   0.709
 6510TIP3    H219495   3.159   0.728   0.710
 6511TIP3   OH219496   0.087   4.902   2.845
 6511TIP3    H119497  -0.007   4.886   2.848
 6511TIP3    H219498   0.102   4.948   2.763
 6512TIP3   OH219499   7.136   0.245   5.063
 6512TIP3    H119500   7.219   0.268   5.104
 6512TIP3    H219501   7.160   0.191   4.987
 6513TIP3   OH219502   3.233   2.208   4.806
 6513TIP3    H119503   3.275   2.283   4.763
 6513TIP3    H219504   3.197   2.156   4.734
 6514TIP3   OH219505   4.889   5.109   0.817
 6514TIP3    H119506   4.851   5.195   0.800
 6514TIP3    H219507   4.834   5.048   0.768
 6515TIP3   OH219508   2.258   4.648   2.921
 6515TIP3    H119509   2.307   4.568   2.937
 6515TIP3    H219510   2.200   4.628   2.848
 6516TIP3   OH219511   2.343   2.053   1.411
 6516TIP3    H119512   2.318   2.048   1.319
 6516TIP3    H219513   2.386   2.138   1.421
 6517TIP3   OH219514   6.364   0.396   0.496
 6517TIP3    H119515   6.276   0.363   0.478
 6517TIP3    H219516   6.354   0.448   0.575
 6518TIP3   OH219517   1.771   3.854   2.306
 6518TIP3    H119518   1.738   3.839   2.218
 6518TIP3    H219519   1.863   3.829   2.303
 6519TIP3   OH219520   5.570   0.112   1.537
 6519TIP3    H119521   5.579   0.196   1.491
 6519TIP3    H219522   5.569   0.047   1.467
 6520TIP3   OH219523   4.196   6.517   2.234
 6520TIP3    H119524   4.241   6.560   2.307
 6520TIP3    H219525   4.170   6.432   2.269
 6521TIP3   OH219526   3.603   1.565   5.626
 6521TIP3    H119527   3.666   1.501   5.592
 6521TIP3    H219528   3.523   1.549   5.576
 6522TIP3   OH219529   4.470   2.127   1.977
 6522TIP3    H119530   4.513   2.048   2.011
 6522TIP3    H219531   4.422   2.162   2.053
 6523TIP3   OH219532   6.448   0.209   5.810
 6523TIP3    H119533   6.535   0.233   5.842
 6523TIP3    H219534   6.408   0.161   5.883
 6524TIP3   OH219535   4.252   4.905   3.062
 6524TIP3    H119536   4.233   4.829   3.116
 6524TIP3    H219537   4.272   4.975   3.124
 6525TIP3   OH219538   0.852   3.177   3.922
 6525TIP3    H119539   0.784   3.131   3.872
 6525TIP3    H219540   0.934   3.137   3.894
 6526TIP3   OH219541   1.559   5.984   1.495
 6526TIP3    H119542   1.487   6.046   1.481
 6526TIP3    H219543   1.544   5.949   1.582
 6527TIP3   OH219544   3.865   5.031   3.604
 6527TIP3    H119545   3.822   4.981   3.673
 6527TIP3    H219546   3.877   4.969   3.532
 6528TIP3   OH219547   4.236   4.693   0.408
 6528TIP3    H119548   4.270   4.648   0.486
 6528TIP3    H219549   4.153   4.731   0.437
 6529TIP3   OH219550   1.445   3.095   3.818
 6529TIP3    H119551   1.431   3.072   3.909
 6529TIP3    H219552   1.367   3.063   3.772
 6530TIP3   OH219553   4.528   3.201   5.142
 6530TIP3    H119554   4.438   3.199   5.173
 6530TIP3    H219555   4.538   3.287   5.101
 6531TIP3   OH219556   4.200   0.589   3.697
 6531TIP3    H119557   4.267   0.657   3.687
 6531TIP3    H219558   4.179   0.591   3.790
 6532TIP3   OH219559   6.283   1.446   5.639
 6532TIP3    H119560   6.357   1.481   5.589
 6532TIP3    H219561   6.318   1.432   5.727
 6533TIP3   OH219562   3.117   2.280   5.459
 6533TIP3    H119563   3.090   2.368   5.485
 6533TIP3    H219564   3.086   2.271   5.369
 6534TIP3   OH219565   2.430   0.839   1.024
 6534TIP3    H119566   2.427   0.796   0.939
 6534TIP3    H219567   2.388   0.777   1.084
 6535TIP3   OH219568   3.160   4.690   5.472
 6535TIP3    H119569   3.189   4.659   5.385
 6535TIP3    H219570   3.175   4.784   5.470
 6536TIP3   OH219571   4.578   2.173   1.153
 6536TIP3    H119572   4.604   2.259   1.119
 6536TIP3    H219573   4.600   2.112   1.082
 6537TIP3   OH219574   5.605   1.885   4.721
 6537TIP3    H119575   5.541   1.956   4.727
 6537TIP3    H219576   5.567   1.824   4.657
 6538TIP3   OH219577   7.160   2.745   5.071
 6538TIP3    H119578   7.213   2.707   5.001
 6538TIP3    H219579   7.126   2.669   5.119
 6539TIP3   OH219580   1.435   6.785   3.331
 6539TIP3    H119581   1.392   6.701   3.348
 6539TIP3    H219582   1.484   6.804   3.411
 6540TIP3   OH219583   4.507   2.507   2.134
 6540TIP3    H119584   4.461   2.589   2.117
 6540TIP3    H219585   4.475   2.448   2.065
 6541TIP3   OH219586   6.419   1.363   3.177
 6541TIP3    H119587   6.394   1.388   3.266
 6541TIP3    H219588   6.458   1.276   3.186
 6542TIP3   OH219589   4.259   2.588   4.289
 6542TIP3    H119590   4.253   2.551   4.201
 6542TIP3    H219591   4.298   2.518   4.342
 6543TIP3   OH219592   0.068   4.183   3.041
 6543TIP3    H119593   0.054   4.268   2.999
 6543TIP3    H219594   0.154   4.156   3.011
 6544TIP3   OH219595   2.141   2.268   2.780
 6544TIP3    H119596   2.093   2.194   2.817
 6544TIP3    H219597   2.155   2.327   2.855
 6545TIP3   OH219598   6.090   2.236   0.930
 6545TIP3    H119599   6.181   2.208   0.937
 6545TIP3    H219600   6.040   2.163   0.967
 6546TIP3   OH219601   0.664   3.363   3.733
 6546TIP3    H119602   0.743   3.400   3.693
 6546TIP3    H219603   0.669   3.270   3.712
 6547TIP3   OH219604   6.229   6.757   5.224
 6547TIP3    H119605   6.276   6.812   5.160
 6547TIP3    H219606   6.252   6.795   5.309
 6548TIP3   OH219607   0.977   5.178   5.127
 6548TIP3    H119608   0.890   5.140   5.114
 6548TIP3    H219609   0.963   5.273   5.116
 6549TIP3   OH219610   3.596   4.960   0.236
 6549TIP3    H119611   3.631   4.906   0.307
 6549TIP3    H219612   3.576   4.897   0.166
 6550TIP3   OH219613   0.824   4.637   0.388
 6550TIP3    H119614   0.786   4.560   0.347
 6550TIP3    H219615   0.907   4.607   0.424
 6551TIP3   OH219616   6.583   1.926   1.740
 6551TIP3    H119617   6.593   1.902   1.832
 6551TIP3    H219618   6.584   2.022   1.740
 6552TIP3   OH219619   1.063   1.467   3.555
 6552TIP3    H119620   1.127   1.437   3.491
 6552TIP3    H219621   1.115   1.495   3.630
 6553TIP3   OH219622   1.864   4.400   1.965
 6553TIP3    H119623   1.804   4.327   1.980
 6553TIP3    H219624   1.947   4.359   1.942
 6554TIP3   OH219625   6.272   4.622   4.977
 6554TIP3    H119626   6.325   4.641   5.054
 6554TIP3    H219627   6.330   4.572   4.919
 6555TIP3   OH219628   1.424   5.669   3.329
 6555TIP3    H119629   1.386   5.592   3.371
 6555TIP3    H219630   1.350   5.711   3.285
 6556TIP3   OH219631   1.902   5.509   2.014
 6556TIP3    H119632   1.838   5.552   1.957
 6556TIP3    H219633   1.962   5.464   1.955
 6557TIP3   OH219634   1.494   3.599   1.903
 6557TIP3    H119635   1.486   3.504   1.895
 6557TIP3    H219636   1.409   3.628   1.935
 6558TIP3   OH219637   6.286   1.429   1.881
 6558TIP3    H119638   6.366   1.377   1.877
 6558TIP3    H219639   6.299   1.487   1.955
 6559TIP3   OH219640   0.573   4.292   2.710
 6559TIP3    H119641   0.552   4.210   2.664
 6559TIP3    H219642   0.636   4.266   2.777
 6560TIP3   OH219643   3.365   4.725   5.722
 6560TIP3    H119644   3.307   4.767   5.658
 6560TIP3    H219645   3.428   4.794   5.746
 6561TIP3   OH219646   7.047   1.358   5.387
 6561TIP3    H119647   7.136   1.372   5.355
 6561TIP3    H219648   7.037   1.419   5.460
 6562TIP3   OH219649   7.153   3.634   3.796
 6562TIP3    H119650   7.127   3.597   3.712
 6562TIP3    H219651   7.071   3.665   3.835
 6563TIP3   OH219652   3.978   5.720   0.584
 6563TIP3    H119653   3.911   5.667   0.628
 6563TIP3    H219654   4.059   5.700   0.631
 6564TIP3   OH219655   1.849   5.853   1.975
 6564TIP3    H119656   1.911   5.895   2.035
 6564TIP3    H219657   1.763   5.871   2.013
 6565TIP3   OH219658   1.121   1.286   2.679
 6565TIP3    H119659   1.196   1.227   2.684
 6565TIP3    H219660   1.045   1.228   2.682
 6566TIP3   OH219661   4.263   5.946   0.738
 6566TIP3    H119662   4.264   5.949   0.834
 6566TIP3    H219663   4.192   5.886   0.716
 6567TIP3   OH219664   1.148   4.357   4.327
 6567TIP3    H119665   1.234   4.316   4.337
 6567TIP3    H219666   1.099   4.297   4.271
 6568TIP3   OH219667   0.260   1.697   4.623
 6568TIP3    H119668   0.239   1.660   4.537
 6568TIP3    H219669   0.209   1.644   4.685
 6569TIP3   OH219670   2.893   0.148   2.742
 6569TIP3    H119671   2.897   0.210   2.669
 6569TIP3    H219672   2.984   0.139   2.771
 6570TIP3   OH219673   4.276   5.966   5.635
 6570TIP3    H119674   4.248   5.931   5.551
 6570TIP3    H219675   4.200   6.014   5.668
 6571TIP3   OH219676   0.175   5.203   0.023
 6571TIP3    H119677   0.171   5.290  -0.017
 6571TIP3    H219678   0.258   5.202   0.070
 6572TIP3   OH219679   5.976   1.969   5.292
 6572TIP3    H119680   5.949   2.044   5.239
 6572TIP3    H219681   5.897   1.943   5.339
 6573TIP3   OH219682   2.295   5.981   4.214
 6573TIP3    H119683   2.373   5.949   4.261
 6573TIP3    H219684   2.234   5.907   4.218
 6574TIP3   OH219685   3.215   5.289   5.785
 6574TIP3    H119686   3.233   5.295   5.691
 6574TIP3    H219687   3.242   5.200   5.809
 6575TIP3   OH219688   5.184   4.468   1.149
 6575TIP3    H119689   5.194   4.387   1.197
 6575TIP3    H219690   5.155   4.441   1.062
 6576TIP3   OH219691   2.362   2.893   5.418
 6576TIP3    H119692   2.432   2.900   5.482
 6576TIP3    H219693   2.390   2.949   5.345
 6577TIP3   OH219694   2.889   2.376   3.220
 6577TIP3    H119695   2.832   2.323   3.165
 6577TIP3    H219696   2.906   2.321   3.297
 6578TIP3   OH219697   2.269   4.892   2.172
 6578TIP3    H119698   2.285   4.801   2.196
 6578TIP3    H219699   2.313   4.903   2.088
 6579TIP3   OH219700   4.155   1.179   2.174
 6579TIP3    H119701   4.204   1.098   2.189
 6579TIP3    H219702   4.162   1.194   2.079
 6580TIP3   OH219703   6.258   3.045   5.487
 6580TIP3    H119704   6.335   3.089   5.452
 6580TIP3    H219705   6.237   2.978   5.422
 6581TIP3   OH219706   3.365   6.075   3.300
 6581TIP3    H119707   3.333   5.989   3.271
 6581TIP3    H219708   3.352   6.132   3.224
 6582TIP3   OH219709   5.355   2.437   5.765
 6582TIP3    H119710   5.373   2.524   5.730
 6582TIP3    H219711   5.351   2.381   5.687
 6583TIP3   OH219712   6.921   5.553   0.412
 6583TIP3    H119713   6.851   5.572   0.350
 6583TIP3    H219714   6.978   5.630   0.407
 6584TIP3   OH219715   5.961   3.751   2.820
 6584TIP3    H119716   6.012   3.830   2.804
 6584TIP3    H219717   6.004   3.709   2.895
 6585TIP3   OH219718   2.701   5.909   4.075
 6585TIP3    H119719   2.764   5.947   4.014
 6585TIP3    H219720   2.630   5.876   4.019
 6586TIP3   OH219721   6.317   2.378   1.705
 6586TIP3    H119722   6.290   2.287   1.692
 6586TIP3    H219723   6.397   2.386   1.652
 6587TIP3   OH219724   2.257   2.063   4.560
 6587TIP3    H119725   2.341   2.018   4.566
 6587TIP3    H219726   2.198   2.010   4.615
 6588TIP3   OH219727   1.785   2.531   4.504
 6588TIP3    H119728   1.788   2.448   4.456
 6588TIP3    H219729   1.873   2.567   4.494
 6589TIP3   OH219730   0.955   4.806   0.989
 6589TIP3    H119731   0.914   4.752   0.921
 6589TIP3    H219732   0.913   4.892   0.979
 6590TIP3   OH219733   5.164   2.204   4.781
 6590TIP3    H119734   5.222   2.253   4.839
 6590TIP3    H219735   5.189   2.113   4.792
 6591TIP3   OH219736   0.523   5.956   1.377
 6591TIP3    H119737   0.465   6.029   1.397
 6591TIP3    H219738   0.569   5.983   1.298
 6592TIP3   OH219739   5.312   6.614   2.616
 6592TIP3    H119740   5.383   6.665   2.577
 6592TIP3    H219741   5.242   6.617   2.551
 6593TIP3   OH219742   1.573   4.197   2.443
 6593TIP3    H119743   1.579   4.167   2.352
 6593TIP3    H219744   1.504   4.142   2.481
 6594TIP3   OH219745   2.924   1.628   4.408
 6594TIP3    H119746   2.912   1.618   4.502
 6594TIP3    H219747   2.881   1.551   4.370
 6595TIP3   OH219748   6.019   1.001   1.863
 6595TIP3    H119749   6.108   1.034   1.874
 6595TIP3    H219750   5.976   1.023   1.946
 6596TIP3   OH219751   3.248   1.888   4.757
 6596TIP3    H119752   3.194   1.810   4.742
 6596TIP3    H219753   3.213   1.953   4.697
 6597TIP3   OH219754   0.434   5.090   4.960
 6597TIP3    H119755   0.379   5.110   4.884
 6597TIP3    H219756   0.475   5.006   4.938
 6598TIP3   OH219757   5.505   5.340   5.029
 6598TIP3    H119758   5.437   5.289   5.073
 6598TIP3    H219759   5.464   5.425   5.011
 6599TIP3   OH219760   1.200   1.230   1.813
 6599TIP3    H119761   1.240   1.167   1.873
 6599TIP3    H219762   1.222   1.316   1.850
 6600TIP3   OH219763   4.932   4.968   4.000
 6600TIP3    H119764   4.958   4.996   3.912
 6600TIP3    H219765   4.995   5.010   4.058
 6601TIP3   OH219766   1.088   1.883   5.546
 6601TIP3    H119767   1.099   1.926   5.631
 6601TIP3    H219768   1.176   1.883   5.507
 6602TIP3   OH219769   4.721   3.624   1.102
 6602TIP3    H119770   4.660   3.606   1.173
 6602TIP3    H219771   4.726   3.542   1.052
 6603TIP3   OH219772   6.403   6.653   3.829
 6603TIP3    H119773   6.485   6.648   3.878
 6603TIP3    H219774   6.423   6.614   3.744
 6604TIP3   OH219775   6.864   4.493   2.023
 6604TIP3    H119776   6.911   4.573   1.998
 6604TIP3    H219777   6.772   4.516   2.018
 6605TIP3   OH219778   6.284   4.799   1.598
 6605TIP3    H119779   6.217   4.826   1.534
 6605TIP3    H219780   6.357   4.768   1.544
 6606TIP3   OH219781   1.275   4.394   3.536
 6606TIP3    H119782   1.340   4.463   3.524
 6606TIP3    H219783   1.327   4.313   3.544
 6607TIP3   OH219784   1.267   1.993   0.377
 6607TIP3    H119785   1.199   1.974   0.441
 6607TIP3    H219786   1.281   1.910   0.331
 6608TIP3   OH219787   4.177   0.872   3.764
 6608TIP3    H119788   4.099   0.817   3.756
 6608TIP3    H219789   4.190   0.880   3.859
 6609TIP3   OH219790   3.037   3.188   4.188
 6609TIP3    H119791   3.076   3.267   4.227
 6609TIP3    H219792   2.987   3.148   4.259
 6610TIP3   OH219793   1.149   3.795   1.488
 6610TIP3    H119794   1.219   3.761   1.433
 6610TIP3    H219795   1.121   3.875   1.444
 6611TIP3   OH219796   6.798   4.272   5.597
 6611TIP3    H119797   6.719   4.251   5.547
 6611TIP3    H219798   6.827   4.356   5.560
 6612TIP3   OH219799   3.817   6.387   5.855
 6612TIP3    H119800   3.722   6.396   5.852
 6612TIP3    H219801   3.836   6.307   5.807
 6613TIP3   OH219802   5.005   1.998   5.158
 6613TIP3    H119803   5.048   1.999   5.244
 6613TIP3    H219804   4.953   2.078   5.156
 6614TIP3   OH219805   5.491   3.260   2.906
 6614TIP3    H119806   5.563   3.256   2.843
 6614TIP3    H219807   5.412   3.268   2.853
 6615TIP3   OH219808   3.193   5.795   2.015
 6615TIP3    H119809   3.130   5.723   2.022
 6615TIP3    H219810   3.258   5.776   2.082
 6616TIP3   OH219811   5.752   1.719   0.132
 6616TIP3    H119812   5.816   1.758   0.192
 6616TIP3    H219813   5.729   1.790   0.072
 6617TIP3   OH219814   6.886   2.036   4.936
 6617TIP3    H119815   6.946   2.006   4.868
 6617TIP3    H219816   6.927   2.117   4.969
 6618TIP3   OH219817   0.781   2.853   4.385
 6618TIP3    H119818   0.849   2.817   4.442
 6618TIP3    H219819   0.820   2.852   4.298
 6619TIP3   OH219820   6.672   5.859   0.418
 6619TIP3    H119821   6.727   5.824   0.348
 6619TIP3    H219822   6.732   5.874   0.490
 6620TIP3   OH219823   2.168   3.560   1.364
 6620TIP3    H119824   2.218   3.513   1.297
 6620TIP3    H219825   2.085   3.512   1.370
 6621TIP3   OH219826   6.458   5.602   2.895
 6621TIP3    H119827   6.421   5.624   2.980
 6621TIP3    H219828   6.382   5.591   2.838
 6622TIP3   OH219829   4.944   2.372   5.089
 6622TIP3    H119830   4.934   2.457   5.130
 6622TIP3    H219831   5.018   2.331   5.136
 6623TIP3   OH219832   2.746   3.703   0.235
 6623TIP3    H119833   2.799   3.696   0.315
 6623TIP3    H219834   2.805   3.745   0.172
 6624TIP3   OH219835   1.457   1.957   4.769
 6624TIP3    H119836   1.455   1.910   4.685
 6624TIP3    H219837   1.545   1.942   4.803
 6625TIP3   OH219838   2.434   4.410   4.967
 6625TIP3    H119839   2.425   4.402   4.872
 6625TIP3    H219840   2.464   4.323   4.996
 6626TIP3   OH219841   3.470   5.846   0.893
 6626TIP3    H119842   3.521   5.869   0.970
 6626TIP3    H219843   3.533   5.805   0.833
 6627TIP3   OH219844   0.521   5.147   2.114
 6627TIP3    H119845   0.579   5.167   2.188
 6627TIP3    H219846   0.572   5.170   2.037
 6628TIP3   OH219847   3.700   3.767   2.693
 6628TIP3    H119848   3.720   3.784   2.601
 6628TIP3    H219849   3.605   3.768   2.698
 6629TIP3   OH219850   3.594   3.239   3.807
 6629TIP3    H119851   3.641   3.168   3.851
 6629TIP3    H219852   3.656   3.276   3.745
 6630TIP3   OH219853   6.931   1.236   0.971
 6630TIP3    H119854   6.869   1.289   1.021
 6630TIP3    H219855   6.884   1.154   0.954
 6631TIP3   OH219856   1.063   0.581   2.258
 6631TIP3    H119857   1.003   0.529   2.205
 6631TIP3    H219858   1.008   0.622   2.325
 6632TIP3   OH219859   0.960   3.285   2.896
 6632TIP3    H119860   0.969   3.265   2.989
 6632TIP3    H219861   0.999   3.372   2.887
 6633TIP3   OH219862   3.911   3.775   0.774
 6633TIP3    H119863   3.900   3.823   0.856
 6633TIP3    H219864   3.826   3.782   0.730
 6634TIP3   OH219865   5.433   3.947   1.379
 6634TIP3    H119866   5.434   3.897   1.297
 6634TIP3    H219867   5.341   3.948   1.405
 6635TIP3   OH219868   1.172   3.413   5.779
 6635TIP3    H119869   1.103   3.410   5.712
 6635TIP3    H219870   1.251   3.435   5.730
 6636TIP3   OH219871   2.268   2.001   3.505
 6636TIP3    H119872   2.194   1.988   3.564
 6636TIP3    H219873   2.295   2.091   3.520
 6637TIP3   OH219874   7.141   3.192   1.322
 6637TIP3    H119875   7.061   3.140   1.316
 6637TIP3    H219876   7.179   3.186   1.234
 6638TIP3   OH219877   3.020   6.657   0.084
 6638TIP3    H119878   3.100   6.611   0.057
 6638TIP3    H219879   3.020   6.651   0.179
 6639TIP3   OH219880   0.975   0.135   2.826
 6639TIP3    H119881   0.963   0.090   2.742
 6639TIP3    H219882   0.918   0.088   2.886
 6640TIP3   OH219883   4.060   6.152   3.170
 6640TIP3    H119884   4.030   6.179   3.257
 6640TIP3    H219885   4.146   6.192   3.160
 6641TIP3   OH219886   4.909   1.252   0.099
 6641TIP3    H119887   4.955   1.224   0.178
 6641TIP3    H219888   4.957   1.210   0.027
 6642TIP3   OH219889   4.201   0.720   4.376
 6642TIP3    H119890   4.107   0.705   4.387
 6642TIP3    H219891   4.242   0.660   4.437
 6643TIP3   OH219892   6.536   4.237   0.816
 6643TIP3    H119893   6.545   4.293   0.893
 6643TIP3    H219894   6.529   4.148   0.851
 6644TIP3   OH219895   5.646   4.974   2.968
 6644TIP3    H119896   5.676   4.998   2.880
 6644TIP3    H219897   5.687   5.039   3.025
 6645TIP3   OH219898   1.339   5.678   2.726
 6645TIP3    H119899   1.274   5.609   2.715
 6645TIP3    H219900   1.342   5.692   2.821
 6646TIP3   OH219901   5.281   3.608   0.830
 6646TIP3    H119902   5.340   3.540   0.800
 6646TIP3    H219903   5.322   3.642   0.909
 6647TIP3   OH219904   4.237   0.736   0.078
 6647TIP3    H119905   4.164   0.784   0.118
 6647TIP3    H219906   4.195   0.672   0.021
 6648TIP3   OH219907   6.397   2.910   4.581
 6648TIP3    H119908   6.430   3.000   4.589
 6648TIP3    H219909   6.450   2.871   4.511
 6649TIP3   OH219910   2.572   0.569   4.619
 6649TIP3    H119911   2.538   0.617   4.544
 6649TIP3    H219912   2.600   0.485   4.582
 6650TIP3   OH219913   2.956   5.636   4.334
 6650TIP3    H119914   3.015   5.643   4.409
 6650TIP3    H219915   2.929   5.725   4.316
 6651TIP3   OH219916   0.259   2.805   0.655
 6651TIP3    H119917   0.220   2.880   0.700
 6651TIP3    H219918   0.327   2.842   0.599
 6652TIP3   OH219919   4.428   3.955   2.574
 6652TIP3    H119920   4.437   3.881   2.634
 6652TIP3    H219921   4.517   3.987   2.561
 6653TIP3   OH219922   7.037   3.421   1.401
 6653TIP3    H119923   7.077   3.338   1.373
 6653TIP3    H219924   7.004   3.460   1.320
 6654TIP3   OH219925   1.727   6.620   3.016
 6654TIP3    H119926   1.787   6.545   3.008
 6654TIP3    H219927   1.664   6.593   3.083
 6655TIP3   OH219928   3.634   6.397   2.845
 6655TIP3    H119929   3.727   6.413   2.856
 6655TIP3    H219930   3.628   6.305   2.820
 6656TIP3   OH219931   3.051   2.550   5.809
 6656TIP3    H119932   3.105   2.589   5.878
 6656TIP3    H219933   2.976   2.608   5.801
 6657TIP3   OH219934   6.378   4.118   2.221
 6657TIP3    H119935   6.292   4.089   2.249
 6657TIP3    H219936   6.438   4.051   2.253
 6658TIP3   OH219937   4.518   0.728   0.164
 6658TIP3    H119938   4.439   0.738   0.112
 6658TIP3    H219939   4.565   0.811   0.153
 6659TIP3   OH219940   5.584   2.888   2.626
 6659TIP3    H119941   5.655   2.889   2.562
 6659TIP3    H219942   5.627   2.898   2.710
 6660TIP3   OH219943   1.749   0.612   3.296
 6660TIP3    H119944   1.755   0.634   3.203
 6660TIP3    H219945   1.655   0.603   3.312
 6661TIP3   OH219946   5.131   0.784   5.539
 6661TIP3    H119947   5.214   0.772   5.585
 6661TIP3    H219948   5.099   0.870   5.567
 6662TIP3   OH219949   6.775   3.651   4.587
 6662TIP3    H119950   6.798   3.630   4.677
 6662TIP3    H219951   6.853   3.628   4.536
 6663TIP3   OH219952   0.416   1.944   5.605
 6663TIP3    H119953   0.403   2.038   5.619
 6663TIP3    H219954   0.488   1.939   5.543
 6664TIP3   OH219955   0.703   2.996   1.787
 6664TIP3    H119956   0.619   3.034   1.761
 6664TIP3    H219957   0.762   3.018   1.716
 6665TIP3   OH219958   6.094   2.927   0.447
 6665TIP3    H119959   6.128   2.938   0.358
 6665TIP3    H219960   6.132   3.000   0.496
 6666TIP3   OH219961   0.194   6.172   3.810
 6666TIP3    H119962   0.217   6.134   3.894
 6666TIP3    H219963   0.102   6.199   3.820
 6667TIP3   OH219964   0.449   2.042   5.173
 6667TIP3    H119965   0.537   2.007   5.179
 6667TIP3    H219966   0.439   2.065   5.080
 6668TIP3   OH219967   6.702   1.311   2.823
 6668TIP3    H119968   6.627   1.254   2.805
 6668TIP3    H219969   6.666   1.400   2.821
 6669TIP3   OH219970   0.737   6.477   0.113
 6669TIP3    H119971   0.806   6.525   0.158
 6669TIP3    H219972   0.768   6.469   0.023
 6670TIP3   OH219973   1.160   2.464   2.045
 6670TIP3    H119974   1.178   2.549   2.084
 6670TIP3    H219975   1.243   2.416   2.052
 6671TIP3   OH219976   0.234   1.297   3.010
 6671TIP3    H119977   0.234   1.277   3.103
 6671TIP3    H219978   0.179   1.229   2.970
 6672TIP3   OH219979   3.719   4.645   4.335
 6672TIP3    H119980   3.674   4.667   4.253
 6672TIP3    H219981   3.656   4.669   4.403
 6673TIP3   OH219982   2.056   6.211   1.034
 6673TIP3    H119983   2.113   6.196   1.109
 6673TIP3    H219984   1.990   6.272   1.065
 6674TIP3   OH219985   4.657   4.580   5.124
 6674TIP3    H119986   4.623   4.491   5.114
 6674TIP3    H219987   4.749   4.573   5.099
 6675TIP3   OH219988   6.441   5.494   5.658
 6675TIP3    H119989   6.464   5.470   5.748
 6675TIP3    H219990   6.345   5.488   5.656
 6676TIP3   OH219991   3.483   2.682   4.009
 6676TIP3    H119992   3.442   2.706   4.092
 6676TIP3    H219993   3.489   2.764   3.961
 6677TIP3   OH219994   6.397   5.358   5.418
 6677TIP3    H119995   6.478   5.340   5.370
 6677TIP3    H219996   6.427   5.385   5.505
 6678TIP3   OH219997   4.114   5.898   2.394
 6678TIP3    H119998   4.158   5.936   2.318
 6678TIP3    H219999   4.118   5.967   2.460
 6679TIP3   OH220000   2.344   0.060   3.365
 6679TIP3    H120001   2.261   0.038   3.407
 6679TIP3    H220002   2.398   0.093   3.436
 6680TIP3   OH220003   4.073   1.357   3.562
 6680TIP3    H120004   4.123   1.281   3.594
 6680TIP3    H220005   4.127   1.391   3.491
 6681TIP3   OH220006   5.798   1.515   3.908
 6681TIP3    H120007   5.783   1.576   3.980
 6681TIP3    H220008   5.722   1.456   3.910
 6682TIP3   OH220009   1.067   1.715   1.758
 6682TIP3    H120010   1.110   1.745   1.678
 6682TIP3    H220011   0.978   1.693   1.730
 6683TIP3   OH220012   0.337   4.979   4.695
 6683TIP3    H120013   0.417   4.936   4.723
 6683TIP3    H220014   0.365   5.046   4.633
 6684TIP3   OH220015   0.862   4.766   5.245
 6684TIP3    H120016   0.851   4.687   5.193
 6684TIP3    H220017   0.805   4.831   5.203
 6685TIP3   OH220018   0.546   4.789   3.534
 6685TIP3    H120019   0.494   4.740   3.598
 6685TIP3    H220020   0.525   4.881   3.553
 6686TIP3   OH220021   1.867   4.287   1.264
 6686TIP3    H120022   1.883   4.373   1.303
 6686TIP3    H220023   1.880   4.300   1.170
 6687TIP3   OH220024   2.716   5.268   3.296
 6687TIP3    H120025   2.805   5.233   3.303
 6687TIP3    H220026   2.703   5.283   3.203
 6688TIP3   OH220027   4.093   2.049   2.197
 6688TIP3    H120028   4.053   2.121   2.147
 6688TIP3    H220029   4.185   2.074   2.206
 6689TIP3   OH220030   5.609   5.961   5.681
 6689TIP3    H120031   5.600   6.053   5.709
 6689TIP3    H220032   5.690   5.960   5.630
 6690TIP3   OH220033   4.518   6.369   1.265
 6690TIP3    H120034   4.591   6.380   1.203
 6690TIP3    H220035   4.486   6.280   1.248
 6691TIP3   OH220036   5.748   4.632   0.717
 6691TIP3    H120037   5.767   4.724   0.701
 6691TIP3    H220038   5.661   4.632   0.758
 6692TIP3   OH220039   2.855   2.384   1.527
 6692TIP3    H120040   2.929   2.348   1.576
 6692TIP3    H220041   2.831   2.314   1.466
 6693TIP3   OH220042   0.415   6.196   0.903
 6693TIP3    H120043   0.460   6.271   0.941
 6693TIP3    H220044   0.330   6.230   0.875
 6694TIP3   OH220045   3.253   1.130   3.301
 6694TIP3    H120046   3.309   1.079   3.359
 6694TIP3    H220047   3.241   1.214   3.346
 6695TIP3   OH220048   5.638   3.593   1.828
 6695TIP3    H120049   5.701   3.523   1.837
 6695TIP3    H220050   5.564   3.567   1.883
 6696TIP3   OH220051   6.485   1.206   0.358
 6696TIP3    H120052   6.450   1.205   0.269
 6696TIP3    H220053   6.496   1.299   0.379
 6697TIP3   OH220054   6.361   0.962   1.548
 6697TIP3    H120055   6.313   0.917   1.478
 6697TIP3    H220056   6.394   0.891   1.603
 6698TIP3   OH220057   3.885   2.136   2.681
 6698TIP3    H120058   3.945   2.158   2.751
 6698TIP3    H220059   3.917   2.052   2.647
 6699TIP3   OH220060   1.863   1.771   3.505
 6699TIP3    H120061   1.929   1.821   3.554
 6699TIP3    H220062   1.799   1.745   3.572
 6700TIP3   OH220063   0.811   3.887   5.516
 6700TIP3    H120064   0.774   3.957   5.570
 6700TIP3    H220065   0.904   3.909   5.509
 6701TIP3   OH220066   3.216   2.580   1.148
 6701TIP3    H120067   3.227   2.609   1.239
 6701TIP3    H220068   3.278   2.508   1.138
 6702TIP3   OH220069   3.207   6.385   1.718
 6702TIP3    H120070   3.195   6.306   1.665
 6702TIP3    H220071   3.299   6.410   1.703
 6703TIP3   OH220072   2.440   1.069   3.016
 6703TIP3    H120073   2.426   1.011   3.091
 6703TIP3    H220074   2.370   1.047   2.955
 6704TIP3   OH220075   3.803   0.444   1.134
 6704TIP3    H120076   3.726   0.456   1.189
 6704TIP3    H220077   3.795   0.509   1.065
 6705TIP3   OH220078   2.066   1.308   4.158
 6705TIP3    H120079   2.069   1.354   4.074
 6705TIP3    H220080   2.106   1.368   4.220
 6706TIP3   OH220081   5.937   2.237   2.403
 6706TIP3    H120082   5.942   2.170   2.334
 6706TIP3    H220083   6.028   2.264   2.416
 6707TIP3   OH220084   3.204   2.597   1.851
 6707TIP3    H120085   3.174   2.624   1.938
 6707TIP3    H220086   3.185   2.503   1.848
 6708TIP3   OH220087   0.049   6.207   2.804
 6708TIP3    H120088   0.070   6.262   2.728
 6708TIP3    H220089  -0.042   6.183   2.792
 6709TIP3   OH220090   6.641   5.233   1.082
 6709TIP3    H120091   6.686   5.293   1.141
 6709TIP3    H220092   6.636   5.280   0.999
 6710TIP3   OH220093   1.021   3.517   0.739
 6710TIP3    H120094   1.046   3.554   0.823
 6710TIP3    H220095   0.941   3.469   0.757
 6711TIP3   OH220096   2.400   2.831   1.148
 6711TIP3    H120097   2.389   2.923   1.125
 6711TIP3    H220098   2.455   2.833   1.227
 6712TIP3   OH220099   6.306   1.834   3.916
 6712TIP3    H120100   6.335   1.745   3.935
 6712TIP3    H220101   6.234   1.849   3.978
 6713TIP3   OH220102   1.408   5.919   0.879
 6713TIP3    H120103   1.316   5.943   0.885
 6713TIP3    H220104   1.415   5.836   0.927
 6714TIP3   OH220105   3.606   5.072   1.826
 6714TIP3    H120106   3.634   5.056   1.916
 6714TIP3    H220107   3.651   5.152   1.800
 6715TIP3   OH220108   3.521   1.982   0.843
 6715TIP3    H120109   3.459   2.049   0.814
 6715TIP3    H220110   3.531   1.998   0.937
 6716TIP3   OH220111   5.785   1.230   4.100
 6716TIP3    H120112   5.868   1.207   4.058
 6716TIP3    H220113   5.734   1.271   4.031
 6717TIP3   OH220114   4.320   5.328   4.264
 6717TIP3    H120115   4.380   5.259   4.293
 6717TIP3    H220116   4.236   5.306   4.304
 6718TIP3   OH220117   5.004   5.993   3.285
 6718TIP3    H120118   5.083   5.949   3.254
 6718TIP3    H220119   5.034   6.048   3.357
 6719TIP3   OH220120   3.878   3.279   0.112
 6719TIP3    H120121   3.960   3.328   0.118
 6719TIP3    H220122   3.835   3.314   0.034
 6720TIP3   OH220123   4.965   1.355   4.385
 6720TIP3    H120124   4.986   1.417   4.454
 6720TIP3    H220125   4.869   1.350   4.386
 6721TIP3   OH220126   1.751   1.506   2.645
 6721TIP3    H120127   1.658   1.506   2.665
 6721TIP3    H220128   1.780   1.417   2.668
 6722TIP3   OH220129   2.939   5.034   4.997
 6722TIP3    H120130   2.892   4.951   4.994
 6722TIP3    H220131   3.026   5.014   4.964
 6723TIP3   OH220132   5.920   1.453   0.969
 6723TIP3    H120133   5.964   1.421   0.890
 6723TIP3    H220134   5.972   1.418   1.041
 6724TIP3   OH220135   5.539   0.964   0.751
 6724TIP3    H120136   5.515   1.045   0.796
 6724TIP3    H220137   5.620   0.937   0.793
 6725TIP3   OH220138   5.153   6.430   0.830
 6725TIP3    H120139   5.146   6.336   0.850
 6725TIP3    H220140   5.215   6.435   0.757
 6726TIP3   OH220141   5.268   0.619   3.384
 6726TIP3    H120142   5.194   0.559   3.370
 6726TIP3    H220143   5.253   0.655   3.472
 6727TIP3   OH220144   3.749   6.119   5.139
 6727TIP3    H120145   3.688   6.112   5.212
 6727TIP3    H220146   3.793   6.203   5.152
 6728TIP3   OH220147   2.454   6.591   3.586
 6728TIP3    H120148   2.429   6.669   3.636
 6728TIP3    H220149   2.452   6.619   3.495
 6729TIP3   OH220150   6.019   1.362   1.243
 6729TIP3    H120151   6.079   1.302   1.287
 6729TIP3    H220152   5.937   1.314   1.234
 6730TIP3   OH220153   0.962   2.708   1.194
 6730TIP3    H120154   0.947   2.716   1.099
 6730TIP3    H220155   1.055   2.727   1.205
 6731TIP3   OH220156   2.431   1.374   1.050
 6731TIP3    H120157   2.489   1.322   0.994
 6731TIP3    H220158   2.433   1.329   1.134
 6732TIP3   OH220159   4.313   6.202   4.204
 6732TIP3    H120160   4.307   6.297   4.195
 6732TIP3    H220161   4.381   6.176   4.142
 6733TIP3   OH220162   0.361   2.560   0.175
 6733TIP3    H120163   0.316   2.592   0.253
 6733TIP3    H220164   0.448   2.599   0.179
 6734TIP3   OH220165   6.090   6.579   3.118
 6734TIP3    H120166   6.050   6.650   3.168
 6734TIP3    H220167   6.065   6.499   3.165
 6735TIP3   OH220168   1.345   0.807   2.195
 6735TIP3    H120169   1.331   0.713   2.199
 6735TIP3    H220170   1.257   0.845   2.201
 6736TIP3   OH220171   3.095   0.571   4.273
 6736TIP3    H120172   3.055   0.634   4.334
 6736TIP3    H220173   3.188   0.592   4.276
 6737TIP3   OH220174   1.192   5.900   4.887
 6737TIP3    H120175   1.283   5.895   4.856
 6737TIP3    H220176   1.147   5.952   4.820
 6738TIP3   OH220177   1.120   0.414   1.177
 6738TIP3    H120178   1.098   0.488   1.120
 6738TIP3    H220179   1.193   0.446   1.229
 6739TIP3   OH220180   0.004   3.498   0.293
 6739TIP3    H120181   0.034   3.408   0.307
 6739TIP3    H220182   0.084   3.548   0.274
 6740TIP3   OH220183   4.585   2.196   2.333
 6740TIP3    H120184   4.632   2.240   2.263
 6740TIP3    H220185   4.624   2.230   2.414
 6741TIP3   OH220186   1.305   5.356   1.014
 6741TIP3    H120187   1.210   5.355   1.011
 6741TIP3    H220188   1.327   5.368   1.106
 6742TIP3   OH220189   1.715   1.028   2.731
 6742TIP3    H120190   1.676   1.016   2.818
 6742TIP3    H220191   1.651   1.079   2.682
 6743TIP3   OH220192   3.677   2.922   3.093
 6743TIP3    H120193   3.724   2.999   3.060
 6743TIP3    H220194   3.670   2.864   3.018
 6744TIP3   OH220195   6.836   6.504   2.698
 6744TIP3    H120196   6.847   6.466   2.785
 6744TIP3    H220197   6.742   6.495   2.680
 6745TIP3   OH220198   5.183   5.460   1.464
 6745TIP3    H120199   5.241   5.449   1.538
 6745TIP3    H220200   5.172   5.372   1.427
 6746TIP3   OH220201   3.995   3.397   5.866
 6746TIP3    H120202   3.899   3.392   5.868
 6746TIP3    H220203   4.019   3.362   5.780
 6747TIP3   OH220204   0.750   0.976   5.145
 6747TIP3    H120205   0.749   1.014   5.057
 6747TIP3    H220206   0.835   1.002   5.181
 6748TIP3   OH220207   0.919   1.220   3.304
 6748TIP3    H120208   0.846   1.269   3.267
 6748TIP3    H220209   0.914   1.134   3.262
 6749TIP3   OH220210   2.179   2.153   3.892
 6749TIP3    H120211   2.098   2.113   3.862
 6749TIP3    H220212   2.241   2.140   3.819
 6750TIP3   OH220213   3.478   6.368   0.472
 6750TIP3    H120214   3.569   6.349   0.493
 6750TIP3    H220215   3.479   6.394   0.380
 6751TIP3   OH220216   3.637   2.645   2.919
 6751TIP3    H120217   3.718   2.598   2.900
 6751TIP3    H220218   3.576   2.577   2.949
 6752TIP3   OH220219   1.060   0.230   4.208
 6752TIP3    H120220   1.039   0.199   4.120
 6752TIP3    H220221   1.042   0.324   4.204
 6753TIP3   OH220222   1.013   5.822   1.436
 6753TIP3    H120223   1.012   5.835   1.341
 6753TIP3    H220224   1.091   5.868   1.467
 6754TIP3   OH220225   3.736   5.458   2.149
 6754TIP3    H120226   3.684   5.430   2.074
 6754TIP3    H220227   3.673   5.464   2.221
 6755TIP3   OH220228   5.778   6.239   3.812
 6755TIP3    H120229   5.852   6.267   3.866
 6755TIP3    H220230   5.701   6.257   3.866
 6756TIP3   OH220231   4.526   3.946   4.469
 6756TIP3    H120232   4.506   3.881   4.402
 6756TIP3    H220233   4.447   3.950   4.523
 6757TIP3   OH220234   2.768   3.416   2.156
 6757TIP3    H120235   2.814   3.466   2.223
 6757TIP3    H220236   2.732   3.482   2.097
 6758TIP3   OH220237   2.856   5.600   1.091
 6758TIP3    H120238   2.819   5.579   1.177
 6758TIP3    H220239   2.781   5.601   1.032
 6759TIP3   OH220240   6.627   6.487   4.287
 6759TIP3    H120241   6.686   6.549   4.329
 6759TIP3    H220242   6.624   6.413   4.348
 6760TIP3   OH220243   0.520   5.970   2.134
 6760TIP3    H120244   0.510   6.012   2.049
 6760TIP3    H220245   0.459   6.016   2.191
 6761TIP3   OH220246   4.397   3.659   0.520
 6761TIP3    H120247   4.482   3.700   0.533
 6761TIP3    H220248   4.342   3.692   0.591
 6762TIP3   OH220249   4.334   2.443   1.847
 6762TIP3    H120250   4.295   2.389   1.778
 6762TIP3    H220251   4.292   2.414   1.928
 6763TIP3   OH220252   5.429   0.971   1.658
 6763TIP3    H120253   5.334   0.984   1.664
 6763TIP3    H220254   5.450   0.994   1.568
 6764TIP3   OH220255   5.697   3.494   3.287
 6764TIP3    H120256   5.663   3.515   3.200
 6764TIP3    H220257   5.762   3.426   3.271
 6765TIP3   OH220258   6.591   1.628   4.738
 6765TIP3    H120259   6.520   1.682   4.773
 6765TIP3    H220260   6.660   1.634   4.804
 6766TIP3   OH220261   1.199   5.852   5.339
 6766TIP3    H120262   1.228   5.942   5.344
 6766TIP3    H220263   1.128   5.846   5.403
 6767TIP3   OH220264   3.787   3.316   4.677
 6767TIP3    H120265   3.879   3.292   4.688
 6767TIP3    H220266   3.749   3.244   4.627
 6768TIP3   OH220267   3.133   4.470   4.100
 6768TIP3    H120268   3.053   4.519   4.119
 6768TIP3    H220269   3.202   4.518   4.144
 6769TIP3   OH220270   4.056   0.670   3.988
 6769TIP3    H120271   4.146   0.653   4.016
 6769TIP3    H220272   4.003   0.659   4.068
 6770TIP3   OH220273   3.044   1.188   5.046
 6770TIP3    H120274   3.078   1.208   5.133
 6770TIP3    H220275   3.037   1.092   5.045
 6771TIP3   OH220276   2.255   0.294   0.597
 6771TIP3    H120277   2.346   0.310   0.572
 6771TIP3    H220278   2.261   0.230   0.668
 6772TIP3   OH220279   4.314   6.568   5.775
 6772TIP3    H120280   4.329   6.507   5.848
 6772TIP3    H220281   4.325   6.655   5.814
 6773TIP3   OH220282   3.875   0.867   3.619
 6773TIP3    H120283   3.845   0.800   3.680
 6773TIP3    H220284   3.933   0.820   3.559
 6774TIP3   OH220285   4.485   0.816   5.029
 6774TIP3    H120286   4.476   0.868   4.949
 6774TIP3    H220287   4.474   0.879   5.100
 6775TIP3   OH220288   0.802   0.625   2.714
 6775TIP3    H120289   0.756   0.642   2.796
 6775TIP3    H220290   0.876   0.569   2.739
 6776TIP3   OH220291   5.785   1.515   5.577
 6776TIP3    H120292   5.738   1.557   5.505
 6776TIP3    H220293   5.877   1.540   5.563
 6777TIP3   OH220294   2.827   5.694   0.168
 6777TIP3    H120295   2.862   5.660   0.086
 6777TIP3    H220296   2.888   5.763   0.194
 6778TIP3   OH220297   0.209   2.839   1.823
 6778TIP3    H120298   0.169   2.753   1.834
 6778TIP3    H220299   0.175   2.871   1.739
 6779TIP3   OH220300   3.544   4.280   3.832
 6779TIP3    H120301   3.531   4.302   3.740
 6779TIP3    H220302   3.489   4.203   3.847
 6780TIP3   OH220303   1.413   1.613   2.940
 6780TIP3    H120304   1.498   1.652   2.917
 6780TIP3    H220305   1.353   1.687   2.943
 6781TIP3   OH220306   0.444   2.169   4.940
 6781TIP3    H120307   0.452   2.255   4.897
 6781TIP3    H220308   0.381   2.121   4.887
 6782TIP3   OH220309   4.628   3.799   0.504
 6782TIP3    H120310   4.642   3.825   0.413
 6782TIP3    H220311   4.667   3.713   0.512
 6783TIP3   OH220312   0.632   4.283   3.451
 6783TIP3    H120313   0.626   4.324   3.538
 6783TIP3    H220314   0.547   4.299   3.411
 6784TIP3   OH220315   0.059   2.852   4.292
 6784TIP3    H120316   0.011   2.850   4.208
 6784TIP3    H220317  -0.003   2.816   4.355
 6785TIP3   OH220318   3.306   3.935   0.606
 6785TIP3    H120319   3.285   3.930   0.699
 6785TIP3    H220320   3.375   4.001   0.601
 6786TIP3   OH220321   2.630   3.253   1.161
 6786TIP3    H120322   2.611   3.196   1.235
 6786TIP3    H220323   2.586   3.335   1.182
 6787TIP3   OH220324   6.844   2.727   4.854
 6787TIP3    H120325   6.811   2.765   4.772
 6787TIP3    H220326   6.891   2.649   4.827
 6788TIP3   OH220327   1.219   2.280   3.138
 6788TIP3    H120328   1.290   2.276   3.075
 6788TIP3    H220329   1.254   2.331   3.211
 6789TIP3   OH220330   5.940   3.714   2.045
 6789TIP3    H120331   5.995   3.792   2.037
 6789TIP3    H220332   5.919   3.690   1.955
 6790TIP3   OH220333   3.482   1.411   4.989
 6790TIP3    H120334   3.434   1.491   5.012
 6790TIP3    H220335   3.535   1.392   5.067
 6791TIP3   OH220336   1.657   5.793   3.227
 6791TIP3    H120337   1.692   5.772   3.140
 6791TIP3    H220338   1.580   5.737   3.236
 6792TIP3   OH220339   7.052   4.890   4.617
 6792TIP3    H120340   7.143   4.862   4.610
 6792TIP3    H220341   7.058   4.981   4.646
 6793TIP3   OH220342   1.025   4.201   5.731
 6793TIP3    H120343   1.095   4.169   5.787
 6793TIP3    H220344   1.005   4.289   5.765
 6794TIP3   OH220345   2.153   4.807   0.797
 6794TIP3    H120346   2.228   4.841   0.846
 6794TIP3    H220347   2.187   4.792   0.709
 6795TIP3   OH220348   1.244   6.322   2.390
 6795TIP3    H120349   1.216   6.349   2.477
 6795TIP3    H220350   1.176   6.355   2.331
 6796TIP3   OH220351   2.331   4.562   5.827
 6796TIP3    H120352   2.321   4.657   5.824
 6796TIP3    H220353   2.273   4.533   5.897
 6797TIP3   OH220354   0.459   0.295   0.357
 6797TIP3    H120355   0.432   0.354   0.427
 6797TIP3    H220356   0.477   0.212   0.400
 6798TIP3   OH220357   7.105   4.101   2.091
 6798TIP3    H120358   7.044   4.029   2.106
 6798TIP3    H220359   7.160   4.103   2.170
 6799TIP3   OH220360   2.284   3.098   5.792
 6799TIP3    H120361   2.301   3.004   5.802
 6799TIP3    H220362   2.296   3.114   5.699
 6800TIP3   OH220363   5.968   4.906   3.454
 6800TIP3    H120364   6.043   4.908   3.394
 6800TIP3    H220365   5.984   4.979   3.514
 6801TIP3   OH220366   5.588   0.355   1.403
 6801TIP3    H120367   5.612   0.405   1.481
 6801TIP3    H220368   5.499   0.383   1.383
 6802TIP3   OH220369   1.009   6.218   5.016
 6802TIP3    H120370   0.943   6.281   4.986
 6802TIP3    H220371   0.958   6.140   5.039
 6803TIP3   OH220372   1.324   4.726   1.251
 6803TIP3    H120373   1.411   4.742   1.215
 6803TIP3    H220374   1.332   4.747   1.344
 6804TIP3   OH220375   2.839   2.655   0.381
 6804TIP3    H120376   2.765   2.699   0.341
 6804TIP3    H220377   2.877   2.603   0.310
 6805TIP3   OH220378   5.689   5.146   0.637
 6805TIP3    H120379   5.686   5.140   0.542
 6805TIP3    H220380   5.598   5.162   0.663
 6806TIP3   OH220381   0.354   3.951   2.649
 6806TIP3    H120382   0.400   3.906   2.719
 6806TIP3    H220383   0.346   3.885   2.579
 6807TIP3   OH220384   3.298   1.625   0.982
 6807TIP3    H120385   3.221   1.626   1.038
 6807TIP3    H220386   3.345   1.546   1.007
 6808TIP3   OH220387   6.242   1.077   4.523
 6808TIP3    H120388   6.263   1.106   4.435
 6808TIP3    H220389   6.219   1.157   4.570
 6809TIP3   OH220390   5.775   0.329  -0.003
 6809TIP3    H120391   5.812   0.303   0.081
 6809TIP3    H220392   5.741   0.417   0.012
 6810TIP3   OH220393   4.448   3.329   5.858
 6810TIP3    H120394   4.406   3.356   5.940
 6810TIP3    H220395   4.411   3.242   5.840
 6811TIP3   OH220396   4.803   6.028   2.216
 6811TIP3    H120397   4.748   5.974   2.273
 6811TIP3    H220398   4.818   5.973   2.139
 6812TIP3   OH220399   5.915   3.282   3.649
 6812TIP3    H120400   5.904   3.374   3.628
 6812TIP3    H220401   5.871   3.271   3.734
 6813TIP3   OH220402   1.713   5.971   2.684
 6813TIP3    H120403   1.743   6.049   2.731
 6813TIP3    H220404   1.790   5.938   2.638
 6814TIP3   OH220405   3.641   2.357   0.987
 6814TIP3    H120406   3.569   2.337   0.926
 6814TIP3    H220407   3.713   2.302   0.958
 6815TIP3   OH220408   2.139   0.315   3.733
 6815TIP3    H120409   2.195   0.333   3.658
 6815TIP3    H220410   2.049   0.329   3.701
 6816TIP3   OH220411   2.251   6.795   3.544
 6816TIP3    H120412   2.174   6.838   3.506
 6816TIP3    H220413   2.216   6.741   3.615
 6817TIP3   OH220414   1.458   3.417   3.884
 6817TIP3    H120415   1.472   3.496   3.832
 6817TIP3    H220416   1.425   3.353   3.821
 6818TIP3   OH220417   2.328   0.946   0.492
 6818TIP3    H120418   2.372   1.022   0.529
 6818TIP3    H220419   2.355   0.943   0.401
 6819TIP3   OH220420   3.367   4.101   1.281
 6819TIP3    H120421   3.462   4.097   1.287
 6819TIP3    H220422   3.339   4.138   1.364
 6820TIP3   OH220423   6.285   3.298   0.108
 6820TIP3    H120424   6.325   3.372   0.062
 6820TIP3    H220425   6.326   3.298   0.195
 6821TIP3   OH220426   6.742   5.308   2.315
 6821TIP3    H120427   6.772   5.217   2.319
 6821TIP3    H220428   6.822   5.360   2.314
 6822TIP3   OH220429   5.067   2.225   5.563
 6822TIP3    H120430   5.123   2.247   5.488
 6822TIP3    H220431   4.983   2.266   5.543
 6823TIP3   OH220432   3.004   5.857   5.012
 6823TIP3    H120433   2.993   5.777   5.063
 6823TIP3    H220434   3.097   5.879   5.022
 6824TIP3   OH220435   4.447   1.722   5.751
 6824TIP3    H120436   4.540   1.730   5.773
 6824TIP3    H220437   4.435   1.629   5.731
 6825TIP3   OH220438   3.882   0.576   1.570
 6825TIP3    H120439   3.851   0.616   1.652
 6825TIP3    H220440   3.809   0.522   1.540
 6826TIP3   OH220441   6.044   5.059   0.790
 6826TIP3    H120442   5.952   5.057   0.764
 6826TIP3    H220443   6.060   4.973   0.829
 6827TIP3   OH220444   6.469   5.396   4.130
 6827TIP3    H120445   6.379   5.381   4.100
 6827TIP3    H220446   6.460   5.427   4.220
 6828TIP3   OH220447   2.693   3.699   1.012
 6828TIP3    H120448   2.670   3.665   0.926
 6828TIP3    H220449   2.704   3.793   0.998
 6829TIP3   OH220450   2.978   2.750   5.030
 6829TIP3    H120451   3.024   2.825   4.992
 6829TIP3    H220452   2.886   2.769   5.014
 6830TIP3   OH220453   5.414   5.612   2.952
 6830TIP3    H120454   5.435   5.584   3.042
 6830TIP3    H220455   5.433   5.534   2.899
 6831TIP3   OH220456   6.817   6.714   1.541
 6831TIP3    H120457   6.843   6.723   1.449
 6831TIP3    H220458   6.890   6.751   1.590
 6832TIP3   OH220459   7.204   4.065   1.097
 6832TIP3    H120460   7.229   4.133   1.035
 6832TIP3    H220461   7.137   4.106   1.152
 6833TIP3   OH220462   6.896   2.702   0.130
 6833TIP3    H120463   6.984   2.664   0.124
 6833TIP3    H220464   6.912   2.796   0.139
 6834TIP3   OH220465   6.109   1.046   0.733
 6834TIP3    H120466   6.039   0.984   0.754
 6834TIP3    H220467   6.111   1.049   0.637
 6835TIP3   OH220468   0.083   5.414   2.017
 6835TIP3    H120469   0.160   5.458   2.053
 6835TIP3    H220470   0.110   5.323   2.007
 6836TIP3   OH220471   4.769   4.394   4.884
 6836TIP3    H120472   4.843   4.335   4.899
 6836TIP3    H220473   4.715   4.349   4.818
 6837TIP3   OH220474   2.893   0.929   1.056
 6837TIP3    H120475   2.862   0.852   1.104
 6837TIP3    H220476   2.847   1.003   1.096
 6838TIP3   OH220477   0.548   6.709   2.516
 6838TIP3    H120478   0.593   6.670   2.591
 6838TIP3    H220479   0.455   6.707   2.539
 6839TIP3   OH220480   6.075   2.761   0.938
 6839TIP3    H120481   6.025   2.793   1.014
 6839TIP3    H220482   6.047   2.670   0.928
 6840TIP3   OH220483   1.895   4.542   4.096
 6840TIP3    H120484   1.828   4.549   4.028
 6840TIP3    H220485   1.892   4.451   4.123
 6841TIP3   OH220486   4.904   3.140   2.590
 6841TIP3    H120487   4.931   3.050   2.608
 6841TIP3    H220488   4.814   3.131   2.558
 6842TIP3   OH220489   1.206   5.073   1.107
 6842TIP3    H120490   1.255   5.066   1.026
 6842TIP3    H220491   1.272   5.061   1.176
 6843TIP3   OH220492   1.266   0.702   5.294
 6843TIP3    H120493   1.317   0.699   5.214
 6843TIP3    H220494   1.321   0.659   5.360
 6844TIP3   OH220495   5.155   5.760   1.353
 6844TIP3    H120496   5.241   5.801   1.364
 6844TIP3    H220497   5.173   5.666   1.357
 6845TIP3   OH220498   5.812   3.645   4.232
 6845TIP3    H120499   5.747   3.688   4.288
 6845TIP3    H220500   5.792   3.552   4.240
 6846TIP3   OH220501   6.962   0.377   2.669
 6846TIP3    H120502   6.885   0.425   2.640
 6846TIP3    H220503   7.031   0.401   2.606
 6847TIP3   OH220504   0.078   5.090   1.534
 6847TIP3    H120505   0.132   5.168   1.521
 6847TIP3    H220506   0.045   5.068   1.447
 6848TIP3   OH220507   6.391   4.438   2.520
 6848TIP3    H120508   6.486   4.428   2.509
 6848TIP3    H220509   6.373   4.398   2.605
 6849TIP3   OH220510   5.175   0.973   1.699
 6849TIP3    H120511   5.135   1.045   1.650
 6849TIP3    H220512   5.103   0.911   1.713
 6850TIP3   OH220513   6.951   6.330   1.997
 6850TIP3    H120514   6.913   6.261   2.051
 6850TIP3    H220515   6.879   6.362   1.943
 6851TIP3   OH220516   0.187   0.506   4.451
 6851TIP3    H120517   0.276   0.496   4.483
 6851TIP3    H220518   0.161   0.594   4.479
 6852TIP3   OH220519   4.293   1.925   4.227
 6852TIP3    H120520   4.236   1.990   4.186
 6852TIP3    H220521   4.288   1.944   4.321
 6853TIP3   OH220522   5.880   3.334   5.239
 6853TIP3    H120523   5.921   3.366   5.159
 6853TIP3    H220524   5.899   3.401   5.304
 6854TIP3   OH220525   5.001   3.480   3.339
 6854TIP3    H120526   4.927   3.498   3.280
 6854TIP3    H220527   5.004   3.385   3.345
 6855TIP3   OH220528   0.145   2.643   4.928
 6855TIP3    H120529   0.169   2.567   4.981
 6855TIP3    H220530   0.220   2.702   4.934
 6856TIP3   OH220531   5.120   3.106   0.959
 6856TIP3    H120532   5.154   3.186   0.918
 6856TIP3    H220533   5.138   3.037   0.895
 6857TIP3   OH220534   3.517   1.344   4.021
 6857TIP3    H120535   3.438   1.392   4.047
 6857TIP3    H220536   3.485   1.258   3.993
 6858TIP3   OH220537   1.714   1.701   2.109
 6858TIP3    H120538   1.710   1.737   2.198
 6858TIP3    H220539   1.704   1.606   2.121
 6859TIP3   OH220540   3.025   5.000   5.815
 6859TIP3    H120541   3.052   4.910   5.832
 6859TIP3    H220542   3.040   5.011   5.721
 6860TIP3   OH220543   6.731   3.521   5.686
 6860TIP3    H120544   6.706   3.534   5.594
 6860TIP3    H220545   6.826   3.528   5.686
 6861TIP3   OH220546   4.720   5.833   1.724
 6861TIP3    H120547   4.694   5.855   1.635
 6861TIP3    H220548   4.815   5.820   1.719
 6862TIP3   OH220549   1.037   6.146   3.165
 6862TIP3    H120550   1.097   6.207   3.123
 6862TIP3    H220551   1.092   6.097   3.226
 6863TIP3   OH220552   2.476   6.668   2.442
 6863TIP3    H120553   2.527   6.599   2.400
 6863TIP3    H220554   2.428   6.709   2.370
 6864TIP3   OH220555   3.489   6.126   2.051
 6864TIP3    H120556   3.575   6.090   2.029
 6864TIP3    H220557   3.505   6.220   2.062
 6865TIP3   OH220558   0.677   3.366   5.151
 6865TIP3    H120559   0.638   3.281   5.129
 6865TIP3    H220560   0.761   3.367   5.105
 6866TIP3   OH220561   3.808   6.684   4.714
 6866TIP3    H120562   3.727   6.641   4.742
 6866TIP3    H220563   3.868   6.674   4.789
 6867TIP3   OH220564   6.906   0.082   1.406
 6867TIP3    H120565   6.855   0.108   1.329
 6867TIP3    H220566   6.856   0.012   1.447
 6868TIP3   OH220567   6.216   1.979   3.676
 6868TIP3    H120568   6.139   1.923   3.691
 6868TIP3    H220569   6.286   1.938   3.726
 6869TIP3   OH220570   6.544   4.920   5.269
 6869TIP3    H120571   6.559   4.879   5.354
 6869TIP3    H220572   6.480   4.863   5.226
 6870TIP3   OH220573   2.785   5.253   0.910
 6870TIP3    H120574   2.716   5.320   0.901
 6870TIP3    H220575   2.759   5.202   0.987
 6871TIP3   OH220576   3.233   6.371   4.739
 6871TIP3    H120577   3.211   6.302   4.676
 6871TIP3    H220578   3.148   6.404   4.768
 6872TIP3   OH220579   3.887   3.899   1.002
 6872TIP3    H120580   3.919   3.841   1.071
 6872TIP3    H220581   3.821   3.953   1.045
 6873TIP3   OH220582   6.285   5.817   0.377
 6873TIP3    H120583   6.340   5.750   0.336
 6873TIP3    H220584   6.265   5.782   0.463
 6874TIP3   OH220585   2.326   2.797   1.821
 6874TIP3    H120586   2.360   2.753   1.743
 6874TIP3    H220587   2.312   2.727   1.884
 6875TIP3   OH220588   6.541   2.212   2.112
 6875TIP3    H120589   6.532   2.307   2.114
 6875TIP3    H220590   6.464   2.182   2.064
 6876TIP3   OH220591   2.234   3.705   0.451
 6876TIP3    H120592   2.251   3.612   0.466
 6876TIP3    H220593   2.320   3.742   0.433
 6877TIP3   OH220594   0.225   0.769   5.660
 6877TIP3    H120595   0.299   0.725   5.618
 6877TIP3    H220596   0.150   0.748   5.604
 6878TIP3   OH220597   1.463   0.505   2.213
 6878TIP3    H120598   1.451   0.502   2.118
 6878TIP3    H220599   1.528   0.575   2.226
 6879TIP3   OH220600   3.299   5.274   4.301
 6879TIP3    H120601   3.249   5.352   4.278
 6879TIP3    H220602   3.337   5.245   4.218
 6880TIP3   OH220603   2.634   3.211   4.787
 6880TIP3    H120604   2.668   3.121   4.790
 6880TIP3    H220605   2.679   3.250   4.712
 6881TIP3   OH220606   0.510   3.640   1.780
 6881TIP3    H120607   0.557   3.712   1.738
 6881TIP3    H220608   0.450   3.683   1.842
 6882TIP3   OH220609   1.675   1.089   0.476
 6882TIP3    H120610   1.619   1.038   0.418
 6882TIP3    H220611   1.747   1.119   0.420
 6883TIP3   OH220612   2.634   2.278   4.247
 6883TIP3    H120613   2.660   2.357   4.295
 6883TIP3    H220614   2.541   2.267   4.266
 6884TIP3   OH220615   6.049   2.654   2.611
 6884TIP3    H120616   6.108   2.586   2.581
 6884TIP3    H220617   6.074   2.732   2.562
 6885TIP3   OH220618   6.893   0.432   4.881
 6885TIP3    H120619   6.869   0.403   4.969
 6885TIP3    H220620   6.913   0.351   4.834
 6886TIP3   OH220621   2.355   5.663   3.116
 6886TIP3    H120622   2.348   5.716   3.196
 6886TIP3    H220623   2.432   5.607   3.131
 6887TIP3   OH220624   3.345   2.083   3.623
 6887TIP3    H120625   3.375   2.132   3.546
 6887TIP3    H220626   3.286   2.017   3.587
 6888TIP3   OH220627   3.941   0.069   4.826
 6888TIP3    H120628   3.894   0.130   4.770
 6888TIP3    H220629   4.009   0.122   4.869
 6889TIP3   OH220630   1.088   0.863   4.911
 6889TIP3    H120631   1.178   0.893   4.902
 6889TIP3    H220632   1.081   0.834   5.002
 6890TIP3   OH220633   4.567   0.869   1.576
 6890TIP3    H120634   4.544   0.925   1.501
 6890TIP3    H220635   4.574   0.781   1.538
 6891TIP3   OH220636   6.901   6.772   3.407
 6891TIP3    H120637   6.836   6.752   3.474
 6891TIP3    H220638   6.856   6.831   3.347
 6892TIP3   OH220639   3.027   5.387   0.950
 6892TIP3    H120640   3.025   5.482   0.960
 6892TIP3    H220641   2.937   5.364   0.927
 6893TIP3   OH220642   1.136   1.777   4.510
 6893TIP3    H120643   1.060   1.833   4.529
 6893TIP3    H220644   1.153   1.790   4.417
 6894TIP3   OH220645   5.104   4.965   2.555
 6894TIP3    H120646   5.021   4.976   2.601
 6894TIP3    H220647   5.142   4.885   2.592
 6895TIP3   OH220648   7.165   0.655   1.041
 6895TIP3    H120649   7.196   0.616   0.959
 6895TIP3    H220650   7.141   0.581   1.096
 6896TIP3   OH220651   2.251   6.231   3.401
 6896TIP3    H120652   2.278   6.154   3.451
 6896TIP3    H220653   2.333   6.276   3.381
 6897TIP3   OH220654   2.837   0.254   4.773
 6897TIP3    H120655   2.789   0.319   4.824
 6897TIP3    H220656   2.835   0.175   4.827
 6898TIP3   OH220657   0.569   0.027   0.877
 6898TIP3    H120658   0.618   0.100   0.840
 6898TIP3    H220659   0.498   0.012   0.814
 6899TIP3   OH220660   0.730   6.612   0.875
 6899TIP3    H120661   0.677   6.692   0.870
 6899TIP3    H220662   0.802   6.627   0.814
 6900TIP3   OH220663   3.475   6.704   4.719
 6900TIP3    H120664   3.401   6.667   4.768
 6900TIP3    H220665   3.476   6.654   4.637
 6901TIP3   OH220666   2.413   2.570   0.015
 6901TIP3    H120667   2.318   2.555   0.012
 6901TIP3    H220668   2.425   2.657  -0.023
 6902TIP3   OH220669   0.212   5.653   3.584
 6902TIP3    H120670   0.165   5.599   3.647
 6902TIP3    H220671   0.296   5.670   3.626
 6903TIP3   OH220672   5.831   4.875   0.979
 6903TIP3    H120673   5.826   4.970   0.970
 6903TIP3    H220674   5.847   4.844   0.890
 6904TIP3   OH220675   6.023   5.866   1.382
 6904TIP3    H120676   6.082   5.794   1.406
 6904TIP3    H220677   6.044   5.885   1.291
 6905TIP3   OH220678   6.677   1.992   0.408
 6905TIP3    H120679   6.759   2.036   0.430
 6905TIP3    H220680   6.641   1.964   0.493
 6906TIP3   OH220681   0.699   4.541   4.456
 6906TIP3    H120682   0.783   4.565   4.417
 6906TIP3    H220683   0.659   4.625   4.480
 6907TIP3   OH220684   5.041   3.988   3.689
 6907TIP3    H120685   5.061   3.988   3.595
 6907TIP3    H220686   5.113   3.941   3.729
 6908TIP3   OH220687   4.561   4.064   3.609
 6908TIP3    H120688   4.512   4.147   3.613
 6908TIP3    H220689   4.503   4.000   3.649
 6909TIP3   OH220690   2.694   4.788   3.813
 6909TIP3    H120691   2.637   4.728   3.766
 6909TIP3    H220692   2.725   4.739   3.889
 6910TIP3   OH220693   5.724   3.775   5.493
 6910TIP3    H120694   5.805   3.745   5.535
 6910TIP3    H220695   5.669   3.697   5.489
 6911TIP3   OH220696   1.357   0.595   1.055
 6911TIP3    H120697   1.353   0.563   0.965
 6911TIP3    H220698   1.434   0.553   1.092
 6912TIP3   OH220699   4.489   5.561   1.879
 6912TIP3    H120700   4.464   5.510   1.956
 6912TIP3    H220701   4.412   5.614   1.859
 6913TIP3   OH220702   5.225   3.250   2.074
 6913TIP3    H120703   5.218   3.186   2.145
 6913TIP3    H220704   5.171   3.324   2.104
 6914TIP3   OH220705   2.648   4.099   0.045
 6914TIP3    H120706   2.654   4.116  -0.049
 6914TIP3    H220707   2.611   4.011   0.051
 6915TIP3   OH220708   6.841   1.052   1.272
 6915TIP3    H120709   6.892   0.972   1.260
 6915TIP3    H220710   6.799   1.067   1.188
 6916TIP3   OH220711   4.123   0.275   2.144
 6916TIP3    H120712   4.173   0.233   2.073
 6916TIP3    H220713   4.099   0.204   2.203
 6917TIP3   OH220714   5.326   0.380   0.952
 6917TIP3    H120715   5.283   0.304   0.993
 6917TIP3    H220716   5.311   0.452   1.013
 6918TIP3   OH220717   0.846   1.617   1.626
 6918TIP3    H120718   0.881   1.529   1.639
 6918TIP3    H220719   0.848   1.630   1.531
 6919TIP3   OH220720   3.764   3.069   0.873
 6919TIP3    H120721   3.825   3.014   0.923
 6919TIP3    H220722   3.678   3.049   0.910
 6920TIP3   OH220723   3.620   5.772   2.075
 6920TIP3    H120724   3.596   5.845   2.018
 6920TIP3    H220725   3.674   5.715   2.021
 6921TIP3   OH220726   6.927   1.328   3.447
 6921TIP3    H120727   6.991   1.333   3.376
 6921TIP3    H220728   6.852   1.380   3.417
 6922TIP3   OH220729   3.006   2.942   4.554
 6922TIP3    H120730   3.079   2.885   4.581
 6922TIP3    H220731   2.934   2.919   4.613
 6923TIP3   OH220732   3.835   6.587   2.474
 6923TIP3    H120733   3.760   6.646   2.474
 6923TIP3    H220734   3.903   6.634   2.425
 6924TIP3   OH220735   6.121   1.075   2.632
 6924TIP3    H120736   6.097   1.050   2.721
 6924TIP3    H220737   6.202   1.028   2.614
 6925TIP3   OH220738   5.385   0.916   0.977
 6925TIP3    H120739   5.372   0.876   0.891
 6925TIP3    H220740   5.442   0.855   1.023
 6926TIP3   OH220741   3.796   1.905   0.026
 6926TIP3    H120742   3.709   1.907   0.066
 6926TIP3    H220743   3.856   1.930   0.096
 6927TIP3   OH220744   4.245   5.254   4.589
 6927TIP3    H120745   4.234   5.232   4.681
 6927TIP3    H220746   4.157   5.273   4.557
 6928TIP3   OH220747   0.382   3.876   0.505
 6928TIP3    H120748   0.397   3.968   0.527
 6928TIP3    H220749   0.455   3.853   0.448
 6929TIP3   OH220750   2.298   1.631   3.362
 6929TIP3    H120751   2.283   1.643   3.456
 6929TIP3    H220752   2.343   1.547   3.355
 6930TIP3   OH220753   2.121   4.068   0.165
 6930TIP3    H120754   2.157   4.090   0.079
 6930TIP3    H220755   2.133   4.148   0.217
 6931TIP3   OH220756   5.784   1.894   1.948
 6931TIP3    H120757   5.711   1.853   1.996
 6931TIP3    H220758   5.862   1.862   1.992
 6932TIP3   OH220759   6.243   3.411   3.995
 6932TIP3    H120760   6.323   3.369   3.963
 6932TIP3    H220761   6.271   3.460   4.072
 6933TIP3   OH220762   1.178   5.981   4.588
 6933TIP3    H120763   1.112   5.913   4.572
 6933TIP3    H220764   1.262   5.935   4.580
 6934TIP3   OH220765   4.855   6.171   2.493
 6934TIP3    H120766   4.778   6.115   2.489
 6934TIP3    H220767   4.833   6.246   2.437
 6935TIP3   OH220768   5.749   5.669   5.330
 6935TIP3    H120769   5.735   5.584   5.288
 6935TIP3    H220770   5.834   5.698   5.297
 6936TIP3   OH220771   3.723   5.937   0.955
 6936TIP3    H120772   3.808   5.910   0.920
 6936TIP3    H220773   3.684   5.990   0.886
 6937TIP3   OH220774   1.536   3.584   3.039
 6937TIP3    H120775   1.488   3.595   3.121
 6937TIP3    H220776   1.477   3.533   2.983
 6938TIP3   OH220777   1.466   4.040   0.122
 6938TIP3    H120778   1.520   3.979   0.073
 6938TIP3    H220779   1.426   4.096   0.056
 6939TIP3   OH220780   1.685   5.198   2.248
 6939TIP3    H120781   1.631   5.190   2.326
 6939TIP3    H220782   1.634   5.155   2.179
 6940TIP3   OH220783   6.767   4.677   3.786
 6940TIP3    H120784   6.735   4.693   3.875
 6940TIP3    H220785   6.750   4.584   3.770
 6941TIP3   OH220786   1.389   6.104   5.045
 6941TIP3    H120787   1.422   6.140   4.963
 6941TIP3    H220788   1.295   6.092   5.030
 6942TIP3   OH220789   0.278   0.556   4.766
 6942TIP3    H120790   0.202   0.503   4.742
 6942TIP3    H220791   0.251   0.602   4.845
 6943TIP3   OH220792   6.834   3.847   3.235
 6943TIP3    H120793   6.828   3.797   3.153
 6943TIP3    H220794   6.928   3.854   3.252
 6944TIP3   OH220795   4.612   5.958   4.995
 6944TIP3    H120796   4.600   5.877   4.944
 6944TIP3    H220797   4.707   5.970   5.000
 6945TIP3   OH220798   3.136   4.053   2.073
 6945TIP3    H120799   3.071   4.086   2.010
 6945TIP3    H220800   3.122   4.106   2.151
 6946TIP3   OH220801   1.807   1.273   3.834
 6946TIP3    H120802   1.747   1.347   3.831
 6946TIP3    H220803   1.890   1.310   3.864
 6947TIP3   OH220804   3.799   1.017   0.932
 6947TIP3    H120805   3.775   1.090   0.989
 6947TIP3    H220806   3.888   1.037   0.902
 6948TIP3   OH220807   1.982   4.961   0.591
 6948TIP3    H120808   2.015   4.928   0.507
 6948TIP3    H220809   2.000   5.055   0.589
 6949TIP3   OH220810   5.508   1.449   1.875
 6949TIP3    H120811   5.513   1.411   1.962
 6949TIP3    H220812   5.525   1.542   1.888
 6950TIP3   OH220813   5.462   2.282   4.922
 6950TIP3    H120814   5.486   2.294   5.013
 6950TIP3    H220815   5.462   2.370   4.885
 6951TIP3   OH220816   5.236   1.088   0.325
 6951TIP3    H120817   5.259   1.172   0.366
 6951TIP3    H220818   5.306   1.074   0.261
 6952TIP3   OH220819   0.217   1.025   0.035
 6952TIP3    H120820   0.287   0.963   0.056
 6952TIP3    H220821   0.256   1.086  -0.027
 6953TIP3   OH220822   6.551   2.745   5.509
 6953TIP3    H120823   6.616   2.808   5.542
 6953TIP3    H220824   6.549   2.676   5.575
 6954TIP3   OH220825   0.141   6.449   0.797
 6954TIP3    H120826   0.067   6.446   0.737
 6954TIP3    H220827   0.107   6.492   0.876
 6955TIP3   OH220828   0.331   1.636   4.097
 6955TIP3    H120829   0.320   1.692   4.021
 6955TIP3    H220830   0.308   1.548   4.066
 6956TIP3   OH220831   6.481   5.079   1.287
 6956TIP3    H120832   6.415   5.137   1.325
 6956TIP3    H220833   6.536   5.137   1.235
 6957TIP3   OH220834   3.842   6.088   1.151
 6957TIP3    H120835   3.917   6.133   1.113
 6957TIP3    H220836   3.822   6.018   1.089
 6958TIP3   OH220837   2.934   0.209   1.125
 6958TIP3    H120838   2.879   0.218   1.047
 6958TIP3    H220839   2.894   0.138   1.175
 6959TIP3   OH220840   1.021   2.322   3.681
 6959TIP3    H120841   1.079   2.257   3.642
 6959TIP3    H220842   1.060   2.342   3.766
 6960TIP3   OH220843   1.187   2.585   4.169
 6960TIP3    H120844   1.274   2.578   4.208
 6960TIP3    H220845   1.180   2.509   4.111
 6961TIP3   OH220846   4.235   2.810   5.299
 6961TIP3    H120847   4.258   2.842   5.212
 6961TIP3    H220848   4.311   2.833   5.353
 6962TIP3   OH220849   3.170   4.276   2.911
 6962TIP3    H120850   3.189   4.303   3.001
 6962TIP3    H220851   3.199   4.351   2.858
 6963TIP3   OH220852   6.203   0.565   4.118
 6963TIP3    H120853   6.278   0.505   4.118
 6963TIP3    H220854   6.207   0.607   4.204
 6964TIP3   OH220855   5.102   1.126   3.114
 6964TIP3    H120856   5.081   1.147   3.023
 6964TIP3    H220857   5.060   1.041   3.130
 6965TIP3   OH220858   6.120   1.288   0.493
 6965TIP3    H120859   6.046   1.303   0.434
 6965TIP3    H220860   6.137   1.194   0.487
 6966TIP3   OH220861   6.187   3.000   1.282
 6966TIP3    H120862   6.113   2.991   1.222
 6966TIP3    H220863   6.248   2.932   1.255
 6967TIP3   OH220864   3.979   3.664   4.010
 6967TIP3    H120865   4.073   3.647   4.003
 6967TIP3    H220866   3.963   3.674   4.103
 6968TIP3   OH220867   1.666   6.272   0.272
 6968TIP3    H120868   1.626   6.282   0.186
 6968TIP3    H220869   1.632   6.344   0.324
 6969TIP3   OH220870   5.788   2.614   5.474
 6969TIP3    H120871   5.828   2.611   5.562
 6969TIP3    H220872   5.717   2.677   5.482
 6970TIP3   OH220873   2.168   6.143   2.452
 6970TIP3    H120874   2.187   6.177   2.540
 6970TIP3    H220875   2.250   6.105   2.423
 6971TIP3   OH220876   4.947   6.688   0.584
 6971TIP3    H120877   4.904   6.768   0.553
 6971TIP3    H220878   4.883   6.619   0.568
 6972TIP3   OH220879   3.925   0.053   3.933
 6972TIP3    H120880   3.831   0.037   3.923
 6972TIP3    H220881   3.960  -0.031   3.964
 6973TIP3   OH220882   2.577   5.143   4.743
 6973TIP3    H120883   2.595   5.196   4.821
 6973TIP3    H220884   2.584   5.205   4.670
 6974TIP3   OH220885   3.477   5.231   0.187
 6974TIP3    H120886   3.485   5.156   0.246
 6974TIP3    H220887   3.566   5.244   0.154
 6975TIP3   OH220888   6.362   3.015   1.496
 6975TIP3    H120889   6.332   3.055   1.414
 6975TIP3    H220890   6.283   2.978   1.535
 6976TIP3   OH220891   2.221   2.899   0.910
 6976TIP3    H120892   2.313   2.924   0.920
 6976TIP3    H220893   2.218   2.850   0.828
 6977TIP3   OH220894   4.487   3.575   5.536
 6977TIP3    H120895   4.395   3.591   5.557
 6977TIP3    H220896   4.536   3.614   5.609
 6978TIP3   OH220897   1.055   4.265   0.431
 6978TIP3    H120898   0.978   4.322   0.431
 6978TIP3    H220899   1.060   4.231   0.342
 6979TIP3   OH220900   4.882   5.367   5.407
 6979TIP3    H120901   4.786   5.373   5.399
 6979TIP3    H220902   4.897   5.282   5.447
 6980TIP3   OH220903   5.906   0.125   1.382
 6980TIP3    H120904   5.893   0.154   1.472
 6980TIP3    H220905   5.823   0.084   1.359
 6981TIP3   OH220906   4.337   2.949   0.545
 6981TIP3    H120907   4.352   2.964   0.451
 6981TIP3    H220908   4.282   3.022   0.572
 6982TIP3   OH220909   5.954   1.316   1.634
 6982TIP3    H120910   5.987   1.342   1.720
 6982TIP3    H220911   6.032   1.314   1.578
 6983TIP3   OH220912   0.834   4.338   3.787
 6983TIP3    H120913   0.744   4.351   3.757
 6983TIP3    H220914   0.829   4.352   3.882
 6984TIP3   OH220915   4.276   0.560   4.108
 6984TIP3    H120916   4.307   0.586   4.195
 6984TIP3    H220917   4.345   0.586   4.049
 6985TIP3   OH220918   0.374   5.328   2.521
 6985TIP3    H120919   0.328   5.390   2.465
 6985TIP3    H220920   0.427   5.276   2.461
 6986TIP3   OH220921   1.889   2.345   2.668
 6986TIP3    H120922   1.836   2.271   2.698
 6986TIP3    H220923   1.971   2.338   2.717
 6987TIP3   OH220924   3.584   1.435   3.281
 6987TIP3    H120925   3.573   1.523   3.317
 6987TIP3    H220926   3.553   1.443   3.190
 6988TIP3   OH220927   1.422   1.834   3.713
 6988TIP3    H120928   1.474   1.853   3.791
 6988TIP3    H220929   1.362   1.907   3.706
 6989TIP3   OH220930   5.550   3.435   3.529
 6989TIP3    H120931   5.625   3.435   3.470
 6989TIP3    H220932   5.576   3.495   3.600
 6990TIP3   OH220933   0.761   1.285   0.204
 6990TIP3    H120934   0.848   1.289   0.166
 6990TIP3    H220935   0.773   1.248   0.291
 6991TIP3   OH220936   2.744   4.250   0.916
 6991TIP3    H120937   2.787   4.201   0.985
 6991TIP3    H220938   2.795   4.331   0.907
 6992TIP3   OH220939   3.228   4.302   4.563
 6992TIP3    H120940   3.219   4.286   4.469
 6992TIP3    H220941   3.149   4.349   4.588
 6993TIP3   OH220942   4.941   6.540   0.947
 6993TIP3    H120943   4.995   6.487   0.888
 6993TIP3    H220944   4.970   6.630   0.932
 6994TIP3   OH220945   4.210   0.297   3.887
 6994TIP3    H120946   4.196   0.281   3.980
 6994TIP3    H220947   4.124   0.284   3.847
 6995TIP3   OH220948   6.572   6.441   0.768
 6995TIP3    H120949   6.633   6.393   0.825
 6995TIP3    H220950   6.565   6.387   0.689
 6996TIP3   OH220951   4.868   0.836   0.874
 6996TIP3    H120952   4.913   0.756   0.844
 6996TIP3    H220953   4.938   0.901   0.883
 6997TIP3   OH220954   5.286   5.205   5.193
 6997TIP3    H120955   5.258   5.242   5.109
 6997TIP3    H220956   5.213   5.151   5.221
 6998TIP3   OH220957   1.971   1.688   1.149
 6998TIP3    H120958   2.011   1.625   1.088
 6998TIP3    H220959   2.044   1.718   1.203
 6999TIP3   OH220960   1.829   6.722   1.968
 6999TIP3    H120961   1.739   6.698   1.945
 6999TIP3    H220962   1.840   6.811   1.935
 7000TIP3   OH220963   7.078   4.550   3.201
 7000TIP3    H120964   7.102   4.639   3.226
 7000TIP3    H220965   7.011   4.561   3.133
 7001TIP3   OH220966   7.057   5.041   1.052
 7001TIP3    H120967   7.061   4.991   0.970
 7001TIP3    H220968   7.031   5.129   1.024
 7002TIP3   OH220969   2.897   6.249   0.525
 7002TIP3    H120970   2.932   6.160   0.529
 7002TIP3    H220971   2.975   6.305   0.532
 7003TIP3   OH220972   0.382   2.570   4.480
 7003TIP3    H120973   0.385   2.481   4.516
 7003TIP3    H220974   0.469   2.584   4.444
 7004TIP3   OH220975   1.464   6.472   0.439
 7004TIP3    H120976   1.403   6.405   0.407
 7004TIP3    H220977   1.442   6.551   0.389
 7005TIP3   OH220978   2.424   4.312   5.797
 7005TIP3    H120979   2.364   4.386   5.796
 7005TIP3    H220980   2.506   4.347   5.834
 7006TIP3   OH220981   0.796   5.761   4.049
 7006TIP3    H120982   0.870   5.806   4.090
 7006TIP3    H220983   0.809   5.775   3.955
 7007TIP3   OH220984   6.830   2.350   2.673
 7007TIP3    H120985   6.898   2.303   2.722
 7007TIP3    H220986   6.761   2.285   2.661
 7008TIP3   OH220987   5.762   1.234   5.675
 7008TIP3    H120988   5.845   1.205   5.636
 7008TIP3    H220989   5.770   1.329   5.680
 7009TIP3   OH220990   7.067   2.958   0.214
 7009TIP3    H120991   6.985   2.949   0.262
 7009TIP3    H220992   7.047   3.019   0.142
 7010TIP3   OH220993   3.803   0.217   0.469
 7010TIP3    H120994   3.824   0.296   0.419
 7010TIP3    H220995   3.888   0.183   0.496
 7011TIP3   OH220996   4.808   3.835   2.480
 7011TIP3    H120997   4.728   3.809   2.526
 7011TIP3    H220998   4.850   3.752   2.456
 7012TIP3   OH220999   5.380   1.366   4.060
 7012TIP3    H121000   5.305   1.319   4.096
 7012TIP3    H221001   5.399   1.435   4.123
 7013TIP3   OH221002   4.655   3.166   2.487
 7013TIP3    H121003   4.659   3.260   2.473
 7013TIP3    H221004   4.566   3.149   2.518
 7014TIP3   OH221005   4.951   3.004   1.526
 7014TIP3    H121006   5.041   3.019   1.496
 7014TIP3    H221007   4.940   3.064   1.599
 7015TIP3   OH221008   4.287   0.102   2.401
 7015TIP3    H121009   4.383   0.101   2.398
 7015TIP3    H221010   4.265   0.179   2.454
 7016TIP3   OH221011   5.011   2.228   3.728
 7016TIP3    H121012   5.030   2.182   3.810
 7016TIP3    H221013   5.006   2.321   3.753
 7017TIP3   OH221014   2.207   1.264   0.924
 7017TIP3    H121015   2.168   1.183   0.957
 7017TIP3    H221016   2.301   1.255   0.943
 7018TIP3   OH221017   2.199   0.614   2.393
 7018TIP3    H121018   2.188   0.598   2.487
 7018TIP3    H221019   2.167   0.703   2.380
 7019TIP3   OH221020   5.035   3.232   2.379
 7019TIP3    H121021   5.107   3.209   2.437
 7019TIP3    H221022   4.958   3.191   2.418
 7020TIP3   OH221023   6.487   4.991   2.224
 7020TIP3    H121024   6.436   5.056   2.273
 7020TIP3    H221025   6.542   4.949   2.290
 7021TIP3   OH221026   3.624   5.408   1.604
 7021TIP3    H121027   3.669   5.478   1.556
 7021TIP3    H221028   3.645   5.328   1.556
 7022TIP3   OH221029   6.205   6.001   5.107
 7022TIP3    H121030   6.125   6.049   5.130
 7022TIP3    H221031   6.275   6.065   5.115
 7023TIP3   OH221032   6.090   5.141   0.517
 7023TIP3    H121033   6.022   5.203   0.491
 7023TIP3    H221034   6.079   5.132   0.612
 7024TIP3   OH221035   5.239   0.811   2.727
 7024TIP3    H121036   5.311   0.790   2.668
 7024TIP3    H221037   5.275   0.793   2.814
 7025TIP3   OH221038   6.689   0.522   2.301
 7025TIP3    H121039   6.623   0.566   2.354
 7025TIP3    H221040   6.646   0.442   2.270
 7026TIP3   OH221041   3.784   2.979   5.530
 7026TIP3    H121042   3.805   2.957   5.621
 7026TIP3    H221043   3.747   3.067   5.534
 7027TIP3   OH221044   0.366   4.180   2.293
 7027TIP3    H121045   0.375   4.257   2.349
 7027TIP3    H221046   0.416   4.202   2.215
 7028TIP3   OH221047   0.522   4.216   0.054
 7028TIP3    H121048   0.467   4.174  -0.012
 7028TIP3    H221049   0.511   4.310   0.037
 7029TIP3   OH221050   3.163   0.162   0.801
 7029TIP3    H121051   3.222   0.189   0.871
 7029TIP3    H221052   3.220   0.152   0.724
 7030TIP3   OH221053   3.278   0.038   3.478
 7030TIP3    H121054   3.186   0.013   3.480
 7030TIP3    H221055   3.305   0.024   3.387
 7031TIP3   OH221056   1.059   6.424   3.775
 7031TIP3    H121057   1.033   6.349   3.722
 7031TIP3    H221058   1.035   6.500   3.723
 7032TIP3   OH221059   0.381   5.031   0.515
 7032TIP3    H121060   0.452   5.012   0.577
 7032TIP3    H221061   0.357   4.946   0.479
 7033TIP3   OH221062   1.774   5.795   2.975
 7033TIP3    H121063   1.722   5.783   2.896
 7033TIP3    H221064   1.864   5.773   2.948
 7034TIP3   OH221065   5.953   0.193   1.119
 7034TIP3    H121066   5.918   0.282   1.117
 7034TIP3    H221067   5.938   0.164   1.209
 7035TIP3   OH221068   5.780   4.902   0.679
 7035TIP3    H121069   5.825   4.916   0.596
 7035TIP3    H221070   5.735   4.985   0.696
 7036TIP3   OH221071   2.747   6.176   5.219
 7036TIP3    H121072   2.675   6.211   5.271
 7036TIP3    H221073   2.709   6.161   5.132
 7037TIP3   OH221074   0.206   6.384   2.945
 7037TIP3    H121075   0.131   6.443   2.957
 7037TIP3    H221076   0.169   6.309   2.900
 7038TIP3   OH221077   4.332   0.425   0.512
 7038TIP3    H121078   4.402   0.364   0.539
 7038TIP3    H221079   4.345   0.436   0.418
 7039TIP3   OH221080   3.850   4.400   3.069
 7039TIP3    H121081   3.779   4.372   3.011
 7039TIP3    H221082   3.829   4.361   3.154
 7040TIP3   OH221083   3.006   4.217   3.987
 7040TIP3    H121084   3.063   4.292   4.003
 7040TIP3    H221085   3.032   4.152   4.052
 7041TIP3   OH221086   6.551   5.920   2.976
 7041TIP3    H121087   6.511   5.869   3.046
 7041TIP3    H221088   6.483   5.926   2.909
 7042TIP3   OH221089   2.871   2.740   0.014
 7042TIP3    H121090   2.817   2.771   0.087
 7042TIP3    H221091   2.826   2.770  -0.064
 7043TIP3   OH221092   0.781   1.341   4.005
 7043TIP3    H121093   0.753   1.295   4.084
 7043TIP3    H221094   0.813   1.272   3.947
 7044TIP3   OH221095   5.775   5.128   1.684
 7044TIP3    H121096   5.757   5.161   1.772
 7044TIP3    H221097   5.838   5.058   1.698
 7045TIP3   OH221098   6.427   6.003   4.843
 7045TIP3    H121099   6.474   6.071   4.795
 7045TIP3    H221100   6.472   5.922   4.819
 7046TIP3   OH221101   6.059   3.407   5.035
 7046TIP3    H121102   6.153   3.421   5.027
 7046TIP3    H221103   6.024   3.427   4.948
 7047TIP3   OH221104   4.264   3.043   2.230
 7047TIP3    H121105   4.215   3.092   2.165
 7047TIP3    H221106   4.309   2.975   2.180
 7048TIP3   OH221107   4.923   4.234   1.246
 7048TIP3    H121108   4.836   4.268   1.225
 7048TIP3    H221109   4.932   4.156   1.192
 7049TIP3   OH221110   3.535   5.437   1.124
 7049TIP3    H121111   3.455   5.486   1.140
 7049TIP3    H221112   3.605   5.496   1.150
 7050TIP3   OH221113   4.896   3.436   5.365
 7050TIP3    H121114   4.901   3.528   5.392
 7050TIP3    H221115   4.815   3.404   5.405
 7051TIP3   OH221116   3.846   4.191   5.330
 7051TIP3    H121117   3.934   4.176   5.364
 7051TIP3    H221118   3.853   4.271   5.278
 7052TIP3   OH221119   0.596   4.191   2.110
 7052TIP3    H121120   0.587   4.130   2.037
 7052TIP3    H221121   0.657   4.147   2.170
 7053TIP3   OH221122   5.321   6.736   3.793
 7053TIP3    H121123   5.390   6.704   3.851
 7053TIP3    H221124   5.360   6.736   3.706
 7054TIP3   OH221125   6.404   5.101   3.463
 7054TIP3    H121126   6.480   5.046   3.484
 7054TIP3    H221127   6.436   5.162   3.397
 7055TIP3   OH221128   7.096   0.633   3.821
 7055TIP3    H121129   7.002   0.652   3.826
 7055TIP3    H221130   7.124   0.626   3.913
 7056TIP3   OH221131   5.947   6.711   4.535
 7056TIP3    H121132   5.928   6.732   4.443
 7056TIP3    H221133   5.866   6.731   4.582
 7057TIP3   OH221134   0.732   6.513   2.700
 7057TIP3    H121135   0.702   6.517   2.791
 7057TIP3    H221136   0.736   6.420   2.680
 7058TIP3   OH221137   2.613   5.859   5.846
 7058TIP3    H121138   2.555   5.933   5.831
 7058TIP3    H221139   2.668   5.885   5.920
 7059TIP3   OH221140   3.224   5.942   0.952
 7059TIP3    H121141   3.253   6.033   0.942
 7059TIP3    H221142   3.298   5.890   0.919
 7060TIP3   OH221143   3.678   5.950   2.295
 7060TIP3    H121144   3.706   5.985   2.210
 7060TIP3    H221145   3.677   5.856   2.282
 7061TIP3   OH221146   0.668   6.359   2.264
 7061TIP3    H121147   0.597   6.348   2.202
 7061TIP3    H221148   0.697   6.269   2.284
 7062TIP3   OH221149   5.602   4.521   5.336
 7062TIP3    H121150   5.526   4.549   5.284
 7062TIP3    H221151   5.588   4.428   5.350
 7063TIP3   OH221152   2.285   2.319   2.229
 7063TIP3    H121153   2.252   2.294   2.143
 7063TIP3    H221154   2.380   2.328   2.217
 7064TIP3   OH221155   7.144   2.005   0.140
 7064TIP3    H121156   7.104   2.088   0.168
 7064TIP3    H221157   7.080   1.967   0.080
 7065TIP3   OH221158   1.493   5.734   0.104
 7065TIP3    H121159   1.440   5.724   0.025
 7065TIP3    H221160   1.447   5.801   0.155
 7066TIP3   OH221161   6.162   5.240   4.144
 7066TIP3    H121162   6.082   5.188   4.133
 7066TIP3    H221163   6.225   5.199   4.085
 7067TIP3   OH221164   4.990   0.245   4.463
 7067TIP3    H121165   4.912   0.212   4.507
 7067TIP3    H221166   4.997   0.336   4.491
 7068TIP3   OH221167   5.633   0.883   4.526
 7068TIP3    H121168   5.653   0.960   4.579
 7068TIP3    H221169   5.610   0.918   4.440
 7069TIP3   OH221170   1.971   5.216   2.884
 7069TIP3    H121171   2.062   5.220   2.854
 7069TIP3    H221172   1.937   5.305   2.871
 7070TIP3   OH221173   1.795   1.549   5.543
 7070TIP3    H121174   1.731   1.603   5.589
 7070TIP3    H221175   1.832   1.607   5.477
 7071TIP3   OH221176   6.068   6.487   4.227
 7071TIP3    H121177   6.075   6.411   4.284
 7071TIP3    H221178   6.144   6.481   4.169
 7072TIP3   OH221179   4.288   5.937   3.911
 7072TIP3    H121180   4.324   5.872   3.970
 7072TIP3    H221181   4.334   6.018   3.933
 7073TIP3   OH221182   3.313   6.406   1.314
 7073TIP3    H121183   3.243   6.371   1.258
 7073TIP3    H221184   3.343   6.330   1.364
 7074TIP3   OH221185   6.097   6.021   0.728
 7074TIP3    H121186   6.155   6.098   0.725
 7074TIP3    H221187   6.157   5.947   0.726
 7075TIP3   OH221188   1.038   3.273   1.325
 7075TIP3    H121189   1.038   3.335   1.252
 7075TIP3    H221190   1.125   3.283   1.365
 7076TIP3   OH221191   0.155   0.894   1.747
 7076TIP3    H121192   0.160   0.846   1.830
 7076TIP3    H221193   0.235   0.947   1.746
 7077TIP3   OH221194   1.781   4.574   4.797
 7077TIP3    H121195   1.694   4.537   4.808
 7077TIP3    H221196   1.815   4.583   4.886
 7078TIP3   OH221197   4.601   5.268   3.656
 7078TIP3    H121198   4.547   5.319   3.595
 7078TIP3    H221199   4.688   5.268   3.615
 7079TIP3   OH221200   5.735   5.721   5.005
 7079TIP3    H121201   5.819   5.747   5.043
 7079TIP3    H221202   5.728   5.627   5.023
 7080TIP3   OH221203   3.654   1.442   5.227
 7080TIP3    H121204   3.735   1.485   5.256
 7080TIP3    H221205   3.590   1.465   5.294
 7081TIP3   OH221206   2.148   6.626   2.767
 7081TIP3    H121207   2.171   6.600   2.677
 7081TIP3    H221208   2.103   6.550   2.803
 7082TIP3   OH221209   1.897   0.870   3.423
 7082TIP3    H121210   1.957   0.865   3.498
 7082TIP3    H221211   1.856   0.784   3.419
 7083TIP3   OH221212   2.884   1.807   1.089
 7083TIP3    H121213   2.840   1.856   1.019
 7083TIP3    H221214   2.846   1.842   1.170
 7084TIP3   OH221215   0.214   4.006   1.566
 7084TIP3    H121216   0.127   4.015   1.525
 7084TIP3    H221217   0.239   3.915   1.549
 7085TIP3   OH221218   6.261   5.069   5.485
 7085TIP3    H121219   6.278   4.975   5.495
 7085TIP3    H221220   6.275   5.105   5.572
 7086TIP3   OH221221   0.407   6.197   1.454
 7086TIP3    H121222   0.319   6.206   1.492
 7086TIP3    H221223   0.460   6.263   1.499
 7087TIP3   OH221224   0.917   5.848   0.976
 7087TIP3    H121225   0.889   5.856   0.884
 7087TIP3    H221226   0.866   5.774   1.009
 7088TIP3   OH221227   5.130   6.217   3.784
 7088TIP3    H121228   5.110   6.294   3.837
 7088TIP3    H221229   5.083   6.231   3.702
 7089TIP3   OH221230   0.895   1.688   1.365
 7089TIP3    H121231   0.931   1.631   1.297
 7089TIP3    H221232   0.953   1.764   1.366
 7090TIP3   OH221233   1.760   0.303   4.238
 7090TIP3    H121234   1.710   0.238   4.187
 7090TIP3    H221235   1.771   0.376   4.178
 7091TIP3   OH221236   6.625   2.328   3.075
 7091TIP3    H121237   6.711   2.371   3.079
 7091TIP3    H221238   6.580   2.372   3.003
 7092TIP3   OH221239   2.040   2.947   4.577
 7092TIP3    H121240   2.044   2.877   4.512
 7092TIP3    H221241   2.029   2.901   4.661
 7093TIP3   OH221242   6.531   1.055   0.903
 7093TIP3    H121243   6.468   1.038   0.973
 7093TIP3    H221244   6.483   1.036   0.823
 7094TIP3   OH221245   0.749   0.952   4.583
 7094TIP3    H121246   0.684   0.937   4.515
 7094TIP3    H221247   0.754   1.047   4.591
 7095TIP3   OH221248   5.308   0.777   4.464
 7095TIP3    H121249   5.379   0.835   4.437
 7095TIP3    H221250   5.251   0.771   4.387
 7096TIP3   OH221251   1.186   6.017   5.698
 7096TIP3    H121252   1.133   5.939   5.684
 7096TIP3    H221253   1.167   6.044   5.788
 7097TIP3   OH221254   3.828   6.347   1.702
 7097TIP3    H121255   3.818   6.439   1.727
 7097TIP3    H221256   3.915   6.323   1.733
 7098TIP3   OH221257   4.104   6.615   4.012
 7098TIP3    H121258   4.022   6.661   4.028
 7098TIP3    H221259   4.147   6.664   3.942
 7099TIP3   OH221260   0.989   0.410   5.478
 7099TIP3    H121261   0.900   0.374   5.470
 7099TIP3    H221262   0.992   0.447   5.566
 7100TIP3   OH221263   2.893   4.973   0.328
 7100TIP3    H121264   2.944   4.940   0.401
 7100TIP3    H221265   2.834   5.038   0.366
 7101TIP3   OH221266   5.135   3.167   3.239
 7101TIP3    H121267   5.091   3.087   3.269
 7101TIP3    H221268   5.145   3.155   3.144
 7102TIP3   OH221269   5.722   0.106   2.499
 7102TIP3    H121270   5.633   0.092   2.532
 7102TIP3    H221271   5.723   0.063   2.414
 7103TIP3   OH221272   4.064   4.793   3.436
 7103TIP3    H121273   4.001   4.740   3.486
 7103TIP3    H221274   4.053   4.765   3.345
 7104TIP3   OH221275   2.639   4.258   0.549
 7104TIP3    H121276   2.680   4.191   0.495
 7104TIP3    H221277   2.706   4.280   0.615
 7105TIP3   OH221278   3.965   0.101   0.987
 7105TIP3    H121279   3.902   0.138   1.050
 7105TIP3    H221280   3.929   0.015   0.965
 7106TIP3   OH221281   0.969   2.286   0.249
 7106TIP3    H121282   0.885   2.321   0.277
 7106TIP3    H221283   0.947   2.221   0.183
 7107TIP3   OH221284   4.840   4.717   1.074
 7107TIP3    H121285   4.901   4.791   1.070
 7107TIP3    H221286   4.881   4.648   1.022
 7108TIP3   OH221287   4.956   1.114   2.861
 7108TIP3    H121288   4.894   1.064   2.807
 7108TIP3    H221289   5.039   1.109   2.814
 7109TIP3   OH221290   0.331   2.063   3.034
 7109TIP3    H121291   0.314   2.157   3.027
 7109TIP3    H221292   0.267   2.033   3.099
 7110TIP3   OH221293   0.727   6.425   1.980
 7110TIP3    H121294   0.690   6.431   2.068
 7110TIP3    H221295   0.821   6.438   1.993
 7111TIP3   OH221296   6.816   2.532   1.085
 7111TIP3    H121297   6.910   2.550   1.084
 7111TIP3    H221298   6.806   2.455   1.029
 7112TIP3   OH221299   4.819   1.645   4.452
 7112TIP3    H121300   4.768   1.607   4.380
 7112TIP3    H221301   4.844   1.732   4.421
 7113TIP3   OH221302   0.445   4.422   1.824
 7113TIP3    H121303   0.424   4.450   1.735
 7113TIP3    H221304   0.443   4.327   1.820
 7114TIP3   OH221305   3.000   6.557   0.679
 7114TIP3    H121306   3.000   6.653   0.688
 7114TIP3    H221307   3.093   6.535   0.669
 7115TIP3   OH221308   1.528   1.647   4.635
 7115TIP3    H121309   1.582   1.578   4.597
 7115TIP3    H221310   1.557   1.727   4.591
 7116TIP3   OH221311   5.866   4.936   2.376
 7116TIP3    H121312   5.796   4.967   2.432
 7116TIP3    H221313   5.938   4.917   2.436
 7117TIP3   OH221314   2.510   3.096   3.109
 7117TIP3    H121315   2.584   3.044   3.078
 7117TIP3    H221316   2.502   3.074   3.201
 7118TIP3   OH221317   4.118   1.816   4.727
 7118TIP3    H121318   4.202   1.812   4.773
 7118TIP3    H221319   4.082   1.901   4.750
 7119TIP3   OH221320   1.072   4.654   1.419
 7119TIP3    H121321   1.158   4.661   1.378
 7119TIP3    H221322   1.086   4.680   1.510
 7120TIP3   OH221323   5.835   0.592   0.369
 7120TIP3    H121324   5.876   0.617   0.452
 7120TIP3    H221325   5.883   0.643   0.303
 7121TIP3   OH221326   6.708   4.980   3.491
 7121TIP3    H121327   6.800   4.973   3.517
 7121TIP3    H221328   6.686   4.893   3.458
 7122TIP3   OH221329   3.684   1.986   1.473
 7122TIP3    H121330   3.635   1.904   1.476
 7122TIP3    H221331   3.727   1.985   1.388
 7123TIP3   OH221332   3.752   6.355   0.797
 7123TIP3    H121333   3.804   6.415   0.851
 7123TIP3    H221334   3.762   6.389   0.708
 7124TIP3   OH221335   1.595   4.463   3.786
 7124TIP3    H121336   1.672   4.411   3.809
 7124TIP3    H221337   1.589   4.528   3.856
 7125TIP3   OH221338   3.937   5.026   0.094
 7125TIP3    H121339   3.936   5.070   0.009
 7125TIP3    H221340   4.000   5.075   0.146
 7126TIP3   OH221341   2.282   5.504   5.412
 7126TIP3    H121342   2.322   5.489   5.326
 7126TIP3    H221343   2.353   5.492   5.474
 7127TIP3   OH221344   5.186   4.968   4.234
 7127TIP3    H121345   5.258   4.983   4.295
 7127TIP3    H221346   5.134   5.048   4.239
 7128TIP3   OH221347   1.551   1.997   3.206
 7128TIP3    H121348   1.629   2.033   3.248
 7128TIP3    H221349   1.545   1.907   3.239
 7129TIP3   OH221350   1.265   5.331   2.058
 7129TIP3    H121351   1.242   5.406   2.113
 7129TIP3    H221352   1.259   5.364   1.969
 7130TIP3   OH221353   2.332   1.878   3.815
 7130TIP3    H121354   2.358   1.836   3.733
 7130TIP3    H221355   2.237   1.867   3.819
 7131TIP3   OH221356   3.886   4.758   2.866
 7131TIP3    H121357   3.825   4.684   2.862
 7131TIP3    H221358   3.874   4.805   2.784
 7132TIP3   OH221359   3.399   4.762   3.560
 7132TIP3    H121360   3.469   4.704   3.590
 7132TIP3    H221361   3.440   4.817   3.494
 7133TIP3   OH221362   0.290   2.861   3.946
 7133TIP3    H121363   0.314   2.768   3.953
 7133TIP3    H221364   0.196   2.863   3.966
 7134TIP3   OH221365   6.215   3.462   4.524
 7134TIP3    H121366   6.211   3.558   4.532
 7134TIP3    H221367   6.139   3.439   4.470
 7135TIP3   OH221368   5.825   5.401   5.566
 7135TIP3    H121369   5.778   5.360   5.638
 7135TIP3    H221370   5.813   5.495   5.579
 7136TIP3   OH221371   4.882   6.670   3.278
 7136TIP3    H121372   4.904   6.622   3.198
 7136TIP3    H221373   4.909   6.760   3.261
 7137TIP3   OH221374   6.884   4.471   5.318
 7137TIP3    H121375   6.901   4.559   5.284
 7137TIP3    H221376   6.967   4.443   5.355
 7138TIP3   OH221377   5.127   6.543   1.973
 7138TIP3    H121378   5.068   6.508   2.040
 7138TIP3    H221379   5.128   6.637   1.989
 7139TIP3   OH221380   6.742   5.045   5.134
 7139TIP3    H121381   6.692   5.120   5.102
 7139TIP3    H221382   6.681   4.999   5.192
 7140TIP3   OH221383   3.031   3.501   0.046
 7140TIP3    H121384   3.043   3.444   0.122
 7140TIP3    H221385   3.117   3.503   0.004
 7141TIP3   OH221386   4.598   2.244   4.820
 7141TIP3    H121387   4.687   2.238   4.785
 7141TIP3    H221388   4.610   2.255   4.914
 7142TIP3   OH221389   3.806   5.604   1.598
 7142TIP3    H121390   3.864   5.638   1.666
 7142TIP3    H221391   3.778   5.681   1.549
 7143TIP3   OH221392   4.251   5.545   5.287
 7143TIP3    H121393   4.163   5.583   5.279
 7143TIP3    H221394   4.308   5.609   5.244
 7144TIP3   OH221395   0.580   0.625   1.164
 7144TIP3    H121396   0.522   0.665   1.229
 7144TIP3    H221397   0.596   0.695   1.100
 7145TIP3   OH221398   6.316   2.290   1.363
 7145TIP3    H121399   6.394   2.282   1.309
 7145TIP3    H221400   6.301   2.201   1.397
 7146TIP3   OH221401   3.628   1.028   5.892
 7146TIP3    H121402   3.549   1.053   5.939
 7146TIP3    H221403   3.625   1.080   5.811
 7147TIP3   OH221404   0.737   3.513   2.357
 7147TIP3    H121405   0.762   3.426   2.325
 7147TIP3    H221406   0.737   3.568   2.278
 7148TIP3   OH221407   4.041   6.627   0.129
 7148TIP3    H121408   3.960   6.589   0.161
 7148TIP3    H221409   4.088   6.652   0.209
 7149TIP3   OH221410   5.324   3.916   3.705
 7149TIP3    H121411   5.377   3.849   3.748
 7149TIP3    H221412   5.371   3.934   3.624
 7150TIP3   OH221413   7.015   3.490   4.149
 7150TIP3    H121414   6.919   3.492   4.141
 7150TIP3    H221415   7.040   3.582   4.160
 7151TIP3   OH221416   6.762   6.174   5.795
 7151TIP3    H121417   6.669   6.149   5.796
 7151TIP3    H221418   6.761   6.270   5.800
 7152TIP3   OH221419   6.892   3.601   4.833
 7152TIP3    H121420   6.970   3.546   4.820
 7152TIP3    H221421   6.833   3.547   4.884
 7153TIP3   OH221422   2.272   5.209   0.536
 7153TIP3    H121423   2.227   5.205   0.621
 7153TIP3    H221424   2.201   5.210   0.471
 7154TIP3   OH221425   0.201   0.372   2.892
 7154TIP3    H121426   0.177   0.348   2.803
 7154TIP3    H221427   0.250   0.454   2.883
 7155TIP3   OH221428   0.848   1.461   0.860
 7155TIP3    H121429   0.759   1.492   0.843
 7155TIP3    H221430   0.892   1.467   0.775
 7156TIP3   OH221431   2.509   4.415   0.953
 7156TIP3    H121432   2.459   4.368   0.887
 7156TIP3    H221433   2.595   4.372   0.954
 7157TIP3   OH221434   0.999   5.766   0.345
 7157TIP3    H121435   0.959   5.740   0.428
 7157TIP3    H221436   0.927   5.803   0.295
 7158TIP3   OH221437   5.224   6.779   2.825
 7158TIP3    H121438   5.299   6.831   2.852
 7158TIP3    H221439   5.255   6.729   2.749
 7159TIP3   OH221440   5.907   4.180   3.368
 7159TIP3    H121441   5.977   4.159   3.429
 7159TIP3    H221442   5.868   4.261   3.402
 7160TIP3   OH221443   1.431   5.385   5.222
 7160TIP3    H121444   1.392   5.465   5.255
 7160TIP3    H221445   1.435   5.397   5.127
 7161TIP3   OH221446   3.483   6.010   1.596
 7161TIP3    H121447   3.485   6.061   1.515
 7161TIP3    H221448   3.417   6.054   1.650
 7162TIP3   OH221449   6.660   6.580   3.091
 7162TIP3    H121450   6.588   6.544   3.143
 7162TIP3    H221451   6.621   6.595   3.005
 7163TIP3   OH221452   0.872   3.661   5.063
 7163TIP3    H121453   0.798   3.673   5.123
 7163TIP3    H221454   0.923   3.590   5.102
 7164TIP3   OH221455   2.318   0.187   3.127
 7164TIP3    H121456   2.338   0.107   3.079
 7164TIP3    H221457   2.331   0.165   3.219
 7165TIP3   OH221458   1.542   1.733   3.201
 7165TIP3    H121459   1.602   1.664   3.229
 7165TIP3    H221460   1.457   1.689   3.190
 7166TIP3   OH221461   4.637   5.822   0.831
 7166TIP3    H121462   4.569   5.785   0.886
 7166TIP3    H221463   4.710   5.839   0.890
 7167TIP3   OH221464   4.695   0.062   4.977
 7167TIP3    H121465   4.683  -0.033   4.971
 7167TIP3    H221466   4.607   0.098   4.970
 7168TIP3   OH221467   3.764   0.380   3.659
 7168TIP3    H121468   3.723   0.322   3.595
 7168TIP3    H221469   3.850   0.341   3.677
 7169TIP3   OH221470   1.510   0.935   3.776
 7169TIP3    H121471   1.550   0.851   3.752
 7169TIP3    H221472   1.548   0.956   3.861
 7170TIP3   OH221473   2.608   0.543   2.119
 7170TIP3    H121474   2.600   0.473   2.184
 7170TIP3    H221475   2.688   0.522   2.071
 7171TIP3   OH221476   1.776   1.551   1.872
 7171TIP3    H121477   1.742   1.601   1.798
 7171TIP3    H221478   1.740   1.594   1.949
 7172TIP3   OH221479   2.119   6.572   3.731
 7172TIP3    H121480   2.137   6.486   3.693
 7172TIP3    H221481   2.089   6.553   3.820
 7173TIP3   OH221482   2.815   1.430   3.202
 7173TIP3    H121483   2.794   1.342   3.168
 7173TIP3    H221484   2.909   1.439   3.188
 7174TIP3   OH221485   6.886   3.253   2.742
 7174TIP3    H121486   6.969   3.301   2.738
 7174TIP3    H221487   6.896   3.184   2.677
 7175TIP3   OH221488   6.466   1.915   3.428
 7175TIP3    H121489   6.379   1.955   3.428
 7175TIP3    H221490   6.498   1.927   3.339
 7176TIP3   OH221491   3.164   1.801   3.765
 7176TIP3    H121492   3.181   1.707   3.771
 7176TIP3    H221493   3.070   1.808   3.752
 7177TIP3   OH221494   6.593   2.742   0.103
 7177TIP3    H121495   6.550   2.684   0.039
 7177TIP3    H221496   6.681   2.706   0.112
 7178TIP3   OH221497   3.199   6.704   3.888
 7178TIP3    H121498   3.254   6.771   3.848
 7178TIP3    H221499   3.215   6.626   3.836
 7179TIP3   OH221500   6.637   2.812   2.586
 7179TIP3    H121501   6.632   2.905   2.611
 7179TIP3    H221502   6.709   2.777   2.639
 7180TIP3   OH221503   7.235   2.459   1.337
 7180TIP3    H121504   7.147   2.442   1.302
 7180TIP3    H221505   7.231   2.549   1.369
 7181TIP3   OH221506   5.463   3.644   0.115
 7181TIP3    H121507   5.516   3.569   0.089
 7181TIP3    H221508   5.513   3.720   0.087
 7182TIP3   OH221509   7.016   5.031   5.187
 7182TIP3    H121510   7.044   4.993   5.104
 7182TIP3    H221511   6.922   5.045   5.177
 7183TIP3   OH221512   4.920   3.405   4.625
 7183TIP3    H121513   4.904   3.361   4.541
 7183TIP3    H221514   4.983   3.349   4.670
 7184TIP3   OH221515   3.997   5.237   0.258
 7184TIP3    H121516   3.972   5.329   0.253
 7184TIP3    H221517   3.987   5.214   0.350
 7185TIP3   OH221518   2.776   6.673   5.579
 7185TIP3    H121519   2.707   6.608   5.586
 7185TIP3    H221520   2.781   6.713   5.666
 7186TIP3   OH221521   2.718   4.717   2.426
 7186TIP3    H121522   2.684   4.662   2.497
 7186TIP3    H221523   2.703   4.806   2.456
 7187TIP3   OH221524   0.801   5.768   4.908
 7187TIP3    H121525   0.739   5.733   4.971
 7187TIP3    H221526   0.846   5.839   4.954
 7188TIP3   OH221527   4.131   2.948   5.533
 7188TIP3    H121528   4.042   2.914   5.532
 7188TIP3    H221529   4.186   2.870   5.535
 7189TIP3   OH221530   1.467   4.935   5.607
 7189TIP3    H121531   1.563   4.940   5.601
 7189TIP3    H221532   1.442   4.877   5.535
 7190TIP3   OH221533   6.836   5.674   3.541
 7190TIP3    H121534   6.850   5.759   3.583
 7190TIP3    H221535   6.821   5.614   3.614
 7191TIP3   OH221536   1.035   5.485   5.708
 7191TIP3    H121537   1.062   5.577   5.711
 7191TIP3    H221538   1.068   5.448   5.790
 7192TIP3   OH221539   5.899   5.750   5.731
 7192TIP3    H121540   5.927   5.673   5.781
 7192TIP3    H221541   5.980   5.793   5.706
 7193TIP3   OH221542   6.188   2.396   5.224
 7193TIP3    H121543   6.135   2.471   5.252
 7193TIP3    H221544   6.268   2.436   5.187
 7194TIP3   OH221545   2.661   1.966   3.596
 7194TIP3    H121546   2.609   1.919   3.531
 7194TIP3    H221547   2.649   2.058   3.575
 7195TIP3   OH221548   6.931   2.340   3.239
 7195TIP3    H121549   6.891   2.296   3.314
 7195TIP3    H221550   7.024   2.318   3.244
 7196TIP3   OH221551   6.326   0.834   2.336
 7196TIP3    H121552   6.284   0.851   2.252
 7196TIP3    H221553   6.282   0.893   2.397
 7197TIP3   OH221554   6.215   4.255   1.487
 7197TIP3    H121555   6.149   4.276   1.554
 7197TIP3    H221556   6.266   4.336   1.478
 7198TIP3   OH221557   5.438   0.350   4.902
 7198TIP3    H121558   5.427   0.414   4.972
 7198TIP3    H221559   5.386   0.274   4.930
 7199TIP3   OH221560   6.057   4.438   3.664
 7199TIP3    H121561   5.996   4.511   3.651
 7199TIP3    H221562   6.119   4.470   3.729
 7200TIP3   OH221563   1.205   3.614   4.201
 7200TIP3    H121564   1.237   3.534   4.160
 7200TIP3    H221565   1.214   3.681   4.133
 7201TIP3   OH221566   7.048   2.526   3.558
 7201TIP3    H121567   7.121   2.471   3.587
 7201TIP3    H221568   7.072   2.553   3.470
 7202TIP3   OH221569   4.305   5.699   1.102
 7202TIP3    H121570   4.391   5.737   1.116
 7202TIP3    H221571   4.294   5.636   1.173
 7203TIP3   OH221572   2.342   3.621   0.210
 7203TIP3    H121573   2.419   3.571   0.238
 7203TIP3    H221574   2.376   3.710   0.197
 7204TIP3   OH221575   5.089   3.930   0.188
 7204TIP3    H121576   5.118   3.843   0.215
 7204TIP3    H221577   5.168   3.971   0.152
 7205TIP3   OH221578   1.135   2.961   5.725
 7205TIP3    H121579   1.163   2.870   5.737
 7205TIP3    H221580   1.059   2.970   5.782
 7206TIP3   OH221581   1.903   2.282   0.918
 7206TIP3    H121582   1.964   2.245   0.981
 7206TIP3    H221583   1.868   2.360   0.962
 7207TIP3   OH221584   5.669   0.112   5.545
 7207TIP3    H121585   5.743   0.055   5.570
 7207TIP3    H221586   5.619   0.060   5.483
 7208TIP3   OH221587   0.091   2.087   1.719
 7208TIP3    H121588   0.089   2.122   1.630
 7208TIP3    H221589   0.183   2.092   1.745
 7209TIP3   OH221590   4.071   6.005   3.760
 7209TIP3    H121591   4.072   6.096   3.792
 7209TIP3    H221592   4.137   5.961   3.812
 7210TIP3   OH221593   6.792   0.927   1.527
 7210TIP3    H121594   6.852   0.977   1.472
 7210TIP3    H221595   6.706   0.940   1.488
 7211TIP3   OH221596   6.709   0.592   4.753
 7211TIP3    H121597   6.792   0.571   4.797
 7211TIP3    H221598   6.651   0.519   4.775
 7212TIP3   OH221599   4.174   0.585   3.025
 7212TIP3    H121600   4.187   0.532   3.104
 7212TIP3    H221601   4.085   0.620   3.034
 7213TIP3   OH221602   7.183   3.528   1.596
 7213TIP3    H121603   7.209   3.611   1.555
 7213TIP3    H221604   7.126   3.487   1.531
 7214TIP3   OH221605   5.826   5.089   5.145
 7214TIP3    H121606   5.785   5.112   5.228
 7214TIP3    H221607   5.758   5.104   5.080
 7215TIP3   OH221608   0.605   1.020   0.193
 7215TIP3    H121609   0.682   1.000   0.245
 7215TIP3    H221610   0.631   1.094   0.139
 7216TIP3   OH221611   0.566   6.044   4.834
 7216TIP3    H121612   0.583   6.135   4.859
 7216TIP3    H221613   0.652   6.011   4.807
 7217TIP3   OH221614   3.345   5.726   5.767
 7217TIP3    H121615   3.438   5.742   5.753
 7217TIP3    H221616   3.341   5.641   5.810
 7218TIP3   OH221617   2.207   3.638   5.822
 7218TIP3    H121618   2.271   3.583   5.867
 7218TIP3    H221619   2.142   3.659   5.889
 7219TIP3   OH221620   3.160   0.649   2.089
 7219TIP3    H121621   3.109   0.677   2.165
 7219TIP3    H221622   3.102   0.588   2.042
 7220TIP3   OH221623   4.292   1.640   4.457
 7220TIP3    H121624   4.359   1.575   4.481
 7220TIP3    H221625   4.334   1.724   4.471
 7221TIP3   OH221626   2.382   5.183   4.344
 7221TIP3    H121627   2.341   5.239   4.279
 7221TIP3    H221628   2.475   5.186   4.324
 7222TIP3   OH221629   7.144   6.033   4.222
 7222TIP3    H121630   7.228   6.077   4.234
 7222TIP3    H221631   7.083   6.103   4.199
 7223TIP3   OH221632   3.432   2.951   3.931
 7223TIP3    H121633   3.345   2.990   3.935
 7223TIP3    H221634   3.455   2.955   3.838
 7224TIP3   OH221635   0.250   0.277   1.004
 7224TIP3    H121636   0.235   0.352   0.946
 7224TIP3    H221637   0.247   0.314   1.092
 7225TIP3   OH221638   6.020   2.979   0.738
 7225TIP3    H121639   6.064   2.921   0.801
 7225TIP3    H221640   5.952   2.925   0.699
 7226TIP3   OH221641   0.488   4.228   4.908
 7226TIP3    H121642   0.463   4.135   4.909
 7226TIP3    H221643   0.564   4.232   4.966
 7227TIP3   OH221644   5.124   3.253   4.170
 7227TIP3    H121645   5.057   3.258   4.237
 7227TIP3    H221646   5.203   3.287   4.213
 7228TIP3   OH221647   5.783   0.665   4.295
 7228TIP3    H121648   5.708   0.658   4.235
 7228TIP3    H221649   5.767   0.745   4.344
 7229TIP3   OH221650   2.664   4.567   5.466
 7229TIP3    H121651   2.591   4.628   5.478
 7229TIP3    H221652   2.742   4.620   5.481
 7230TIP3   OH221653   3.160   6.165   3.475
 7230TIP3    H121654   3.229   6.164   3.408
 7230TIP3    H221655   3.202   6.128   3.553
 7231TIP3   OH221656   5.664   5.777   1.107
 7231TIP3    H121657   5.583   5.825   1.123
 7231TIP3    H221658   5.708   5.774   1.192
 7232TIP3   OH221659   6.911   3.920   2.176
 7232TIP3    H121660   6.893   3.834   2.139
 7232TIP3    H221661   6.827   3.949   2.213
 7233TIP3   OH221662   4.935   4.531   4.190
 7233TIP3    H121663   4.943   4.622   4.220
 7233TIP3    H221664   4.973   4.532   4.103
 7234TIP3   OH221665   0.451   0.533   4.499
 7234TIP3    H121666   0.508   0.496   4.431
 7234TIP3    H221667   0.505   0.599   4.543
 7235TIP3   OH221668   5.261   4.603   4.410
 7235TIP3    H121669   5.191   4.668   4.408
 7235TIP3    H221670   5.341   4.654   4.423
 7236TIP3   OH221671   1.210   1.759   1.526
 7236TIP3    H121672   1.281   1.822   1.523
 7236TIP3    H221673   1.188   1.744   1.434
 7237TIP3   OH221674   3.563  -0.017   3.073
 7237TIP3    H121675   3.478   0.020   3.100
 7237TIP3    H221676   3.614   0.059   3.045
 7238TIP3   OH221677   6.915   1.013   0.695
 7238TIP3    H121678   6.958   0.954   0.758
 7238TIP3    H221679   6.824   0.982   0.692
 7239TIP3   OH221680   4.985   6.779   4.711
 7239TIP3    H121681   5.011   6.698   4.666
 7239TIP3    H221682   5.017   6.849   4.654
 7240TIP3   OH221683   4.391   0.081   4.871
 7240TIP3    H121684   4.389  -0.012   4.851
 7240TIP3    H221685   4.345   0.089   4.954
 7241TIP3   OH221686   5.501   4.999   3.743
 7241TIP3    H121687   5.477   4.997   3.650
 7241TIP3    H221688   5.430   4.953   3.787
 7242TIP3   OH221689   4.850   5.335   1.739
 7242TIP3    H121690   4.920   5.287   1.784
 7242TIP3    H221691   4.790   5.266   1.710
 7243TIP3   OH221692   4.647   3.678   5.132
 7243TIP3    H121693   4.626   3.771   5.132
 7243TIP3    H221694   4.573   3.637   5.179
 7244TIP3   OH221695   4.292   3.464   5.679
 7244TIP3    H121696   4.263   3.403   5.612
 7244TIP3    H221697   4.350   3.413   5.735
 7245TIP3   OH221698   1.577   0.325   3.408
 7245TIP3    H121699   1.616   0.242   3.436
 7245TIP3    H221700   1.578   0.321   3.312
 7246TIP3   OH221701   4.469   6.463   3.491
 7246TIP3    H121702   4.412   6.386   3.490
 7246TIP3    H221703   4.411   6.535   3.516
 7247TIP3   OH221704   1.351   4.795   1.492
 7247TIP3    H121705   1.316   4.796   1.581
 7247TIP3    H221706   1.385   4.883   1.478
 7248TIP3   OH221707   2.771   5.437   2.715
 7248TIP3    H121708   2.685   5.396   2.724
 7248TIP3    H221709   2.764   5.519   2.763
 7249TIP3   OH221710   4.042   1.230   1.183
 7249TIP3    H121711   4.076   1.313   1.150
 7249TIP3    H221712   3.951   1.227   1.153
 7250TIP3   OH221713   1.102   0.219   3.066
 7250TIP3    H121714   1.038   0.200   3.136
 7250TIP3    H221715   1.058   0.191   2.986
 7251TIP3   OH221716   0.531   5.894   2.963
 7251TIP3    H121717   0.489   5.809   2.947
 7251TIP3    H221718   0.613   5.873   3.006
 7252TIP3   OH221719   5.869   2.786   3.974
 7252TIP3    H121720   5.823   2.739   3.904
 7252TIP3    H221721   5.851   2.879   3.956
 7253TIP3   OH221722   5.480   3.967   3.494
 7253TIP3    H121723   5.494   4.054   3.457
 7253TIP3    H221724   5.565   3.924   3.489
 7254TIP3   OH221725   3.525   0.638   0.754
 7254TIP3    H121726   3.470   0.717   0.754
 7254TIP3    H221727   3.471   0.572   0.798
 7255TIP3   OH221728   2.518   6.111   1.706
 7255TIP3    H121729   2.494   6.141   1.618
 7255TIP3    H221730   2.573   6.035   1.692
 7256TIP3   OH221731   2.392   1.869   1.639
 7256TIP3    H121732   2.482   1.896   1.656
 7256TIP3    H221733   2.387   1.864   1.543
 7257TIP3   OH221734   3.258   0.927   5.569
 7257TIP3    H121735   3.281   1.015   5.599
 7257TIP3    H221736   3.197   0.942   5.497
 7258TIP3   OH221737   5.573   6.410   5.750
 7258TIP3    H121738   5.536   6.446   5.831
 7258TIP3    H221739   5.590   6.318   5.770
 7259TIP3   OH221740   5.449   6.302   0.574
 7259TIP3    H121741   5.426   6.212   0.550
 7259TIP3    H221742   5.494   6.293   0.658
 7260TIP3   OH221743   5.594   2.960   5.298
 7260TIP3    H121744   5.518   2.922   5.254
 7260TIP3    H221745   5.613   3.039   5.248
 7261TIP3   OH221746   4.471   0.253   0.855
 7261TIP3    H121747   4.498   0.249   0.763
 7261TIP3    H221748   4.416   0.175   0.867
 7262TIP3   OH221749   0.026   6.098   0.489
 7262TIP3    H121750   0.013   6.180   0.441
 7262TIP3    H221751   0.024   6.030   0.422
 7263TIP3   OH221752   1.895   4.403   0.200
 7263TIP3    H121753   1.850   4.328   0.241
 7263TIP3    H221754   1.987   4.391   0.222
 7264TIP3   OH221755   1.842   6.063   5.128
 7264TIP3    H121756   1.867   6.128   5.062
 7264TIP3    H221757   1.771   6.104   5.176
 7265TIP3   OH221758   1.646   3.154   4.702
 7265TIP3    H121759   1.712   3.093   4.737
 7265TIP3    H221760   1.602   3.104   4.633
 7266TIP3   OH221761   4.450   0.835   2.500
 7266TIP3    H121762   4.486   0.836   2.412
 7266TIP3    H221763   4.489   0.758   2.542
 7267TIP3   OH221764   4.995   5.659   3.183
 7267TIP3    H121765   5.012   5.566   3.170
 7267TIP3    H221766   4.900   5.668   3.177
 7268TIP3   OH221767   1.846   0.356   4.490
 7268TIP3    H121768   1.906   0.288   4.521
 7268TIP3    H221769   1.807   0.320   4.411
 7269TIP3   OH221770   1.377   3.709   1.384
 7269TIP3    H121771   1.388   3.783   1.324
 7269TIP3    H221772   1.452   3.716   1.444
 7270TIP3   OH221773   4.222   1.995   4.504
 7270TIP3    H121774   4.258   2.082   4.519
 7270TIP3    H221775   4.232   1.949   4.587
 7271TIP3   OH221776   3.825   2.452   0.115
 7271TIP3    H121777   3.789   2.479   0.199
 7271TIP3    H221778   3.919   2.441   0.131
 7272TIP3   OH221779   4.554   5.812   1.117
 7272TIP3    H121780   4.649   5.802   1.123
 7272TIP3    H221781   4.536   5.896   1.159
 7273TIP3   OH221782   5.217   3.316   5.157
 7273TIP3    H121783   5.268   3.387   5.118
 7273TIP3    H221784   5.268   3.287   5.233
 7274TIP3   OH221785   5.752   1.118   1.621
 7274TIP3    H121786   5.819   1.169   1.666
 7274TIP3    H221787   5.770   1.131   1.528
 7275TIP3   OH221788   2.131   1.814   4.627
 7275TIP3    H121789   2.102   1.863   4.704
 7275TIP3    H221790   2.146   1.725   4.659
 7276TIP3   OH221791   4.607   3.091   1.650
 7276TIP3    H121792   4.596   3.093   1.555
 7276TIP3    H221793   4.614   3.183   1.676
 7277TIP3   OH221794   0.023   3.444   3.586
 7277TIP3    H121795   0.036   3.397   3.669
 7277TIP3    H221796   0.112   3.454   3.551
 7278TIP3   OH221797   3.358   3.807   0.350
 7278TIP3    H121798   3.268   3.819   0.320
 7278TIP3    H221799   3.355   3.833   0.443
 7279TIP3   OH221800   2.960   0.417   3.272
 7279TIP3    H121801   2.934   0.508   3.256
 7279TIP3    H221802   3.006   0.420   3.356
 7280TIP3   OH221803   6.618   6.691   3.995
 7280TIP3    H121804   6.708   6.695   4.028
 7280TIP3    H221805   6.597   6.782   3.972
 7281TIP3   OH221806   0.833   6.028   3.296
 7281TIP3    H121807   0.782   6.094   3.342
 7281TIP3    H221808   0.892   6.078   3.239
 7282TIP3   OH221809   3.745   2.639   4.399
 7282TIP3    H121810   3.715   2.729   4.387
 7282TIP3    H221811   3.780   2.613   4.314
 7283TIP3   OH221812   6.981   3.438   2.386
 7283TIP3    H121813   6.909   3.457   2.447
 7283TIP3    H221814   7.009   3.350   2.410
 7284TIP3   OH221815   5.867   3.325   4.826
 7284TIP3    H121816   5.873   3.234   4.796
 7284TIP3    H221817   5.786   3.358   4.787
 7285TIP3   OH221818   6.921   3.955   1.741
 7285TIP3    H121819   6.923   4.009   1.661
 7285TIP3    H221820   6.892   3.869   1.710
 7286TIP3   OH221821   5.152   5.125   1.640
 7286TIP3    H121822   5.125   5.154   1.553
 7286TIP3    H221823   5.202   5.045   1.625
 7287TIP3   OH221824   0.509   6.506   4.310
 7287TIP3    H121825   0.587   6.458   4.282
 7287TIP3    H221826   0.462   6.524   4.228
 7288TIP3   OH221827   2.304   1.646   1.268
 7288TIP3    H121828   2.322   1.553   1.281
 7288TIP3    H221829   2.258   1.673   1.347
 7289TIP3   OH221830   3.127   4.744   4.144
 7289TIP3    H121831   3.079   4.789   4.214
 7289TIP3    H221832   3.159   4.815   4.088
 7290TIP3   OH221833   4.812   5.015   2.619
 7290TIP3    H121834   4.786   4.976   2.536
 7290TIP3    H221835   4.729   5.040   2.661
 7291TIP3   OH221836   4.483   0.148   5.332
 7291TIP3    H121837   4.468   0.207   5.406
 7291TIP3    H221838   4.565   0.178   5.294
 7292TIP3   OH221839   0.793   6.762   1.425
 7292TIP3    H121840   0.776   6.681   1.376
 7292TIP3    H221841   0.707   6.790   1.456
 7293TIP3   OH221842   5.591   2.436   1.595
 7293TIP3    H121843   5.537   2.486   1.656
 7293TIP3    H221844   5.538   2.429   1.516
 7294TIP3   OH221845   1.160   0.290   3.396
 7294TIP3    H121846   1.186   0.325   3.311
 7294TIP3    H221847   1.077   0.244   3.379
 7295TIP3   OH221848   6.565   1.449   5.563
 7295TIP3    H121849   6.590   1.456   5.655
 7295TIP3    H221850   6.596   1.363   5.536
 7296TIP3   OH221851   2.201   1.923   5.626
 7296TIP3    H121852   2.197   2.005   5.577
 7296TIP3    H221853   2.256   1.866   5.572
 7297TIP3   OH221854   2.084   3.060   0.336
 7297TIP3    H121855   1.989   3.060   0.347
 7297TIP3    H221856   2.105   3.148   0.306
 7298TIP3   OH221857   1.375   1.160   4.469
 7298TIP3    H121858   1.354   1.251   4.448
 7298TIP3    H221859   1.291   1.120   4.491
 7299TIP3   OH221860   3.040   4.125   1.474
 7299TIP3    H121861   3.005   4.128   1.563
 7299TIP3    H221862   3.062   4.033   1.460
 7300TIP3   OH221863   6.065   4.115   4.733
 7300TIP3    H121864   6.110   4.033   4.751
 7300TIP3    H221865   6.087   4.171   4.807
 7301TIP3   OH221866   2.699   2.276   3.033
 7301TIP3    H121867   2.669   2.204   2.977
 7301TIP3    H221868   2.753   2.330   2.976
 7302TIP3   OH221869   1.168   0.887   0.254
 7302TIP3    H121870   1.169   0.838   0.337
 7302TIP3    H221871   1.206   0.826   0.191
 7303TIP3   OH221872   7.092   5.279   2.132
 7303TIP3    H121873   7.166   5.331   2.103
 7303TIP3    H221874   7.055   5.242   2.051
 7304TIP3   OH221875   4.421   2.923   1.315
 7304TIP3    H121876   4.396   2.876   1.235
 7304TIP3    H221877   4.376   2.877   1.385
 7305TIP3   OH221878   3.849   4.959   0.374
 7305TIP3    H121879   3.861   4.986   0.283
 7305TIP3    H221880   3.818   5.038   0.419
 7306TIP3   OH221881   4.544   2.916   3.343
 7306TIP3    H121882   4.607   2.844   3.345
 7306TIP3    H221883   4.598   2.995   3.348
 7307TIP3   OH221884   4.785   1.682   1.199
 7307TIP3    H121885   4.793   1.660   1.106
 7307TIP3    H221886   4.832   1.765   1.208
 7308TIP3   OH221887   6.741   4.105   4.286
 7308TIP3    H121888   6.795   4.029   4.309
 7308TIP3    H221889   6.651   4.077   4.306
 7309TIP3   OH221890   7.054   5.001   0.782
 7309TIP3    H121891   7.028   5.076   0.729
 7309TIP3    H221892   6.986   4.935   0.765
 7310TIP3   OH221893   4.814   3.320   4.912
 7310TIP3    H121894   4.837   3.354   4.826
 7310TIP3    H221895   4.718   3.322   4.913
 7311TIP3   OH221896   2.347   5.292   1.221
 7311TIP3    H121897   2.291   5.230   1.268
 7311TIP3    H221898   2.286   5.357   1.185
 7312TIP3   OH221899   1.865   1.272   4.821
 7312TIP3    H121900   1.949   1.235   4.794
 7312TIP3    H221901   1.844   1.227   4.902
 7313TIP3   OH221902   2.757   0.861   2.337
 7313TIP3    H121903   2.670   0.878   2.373
 7313TIP3    H221904   2.754   0.899   2.249
 7314TIP3   OH221905   5.128   2.916   0.284
 7314TIP3    H121906   5.060   2.928   0.350
 7314TIP3    H221907   5.164   2.829   0.302
 7315TIP3   OH221908   1.042   5.201   5.392
 7315TIP3    H121909   1.041   5.296   5.406
 7315TIP3    H221910   0.995   5.188   5.310
 7316TIP3   OH221911   3.148   0.195   2.857
 7316TIP3    H121912   3.100   0.262   2.906
 7316TIP3    H221913   3.206   0.155   2.923
 7317TIP3   OH221914   2.056   1.508   0.959
 7317TIP3    H121915   2.135   1.460   0.981
 7317TIP3    H221916   1.991   1.440   0.941
 7318TIP3   OH221917   3.073   3.813   0.267
 7318TIP3    H121918   3.030   3.781   0.188
 7318TIP3    H221919   3.069   3.908   0.260
 7319TIP3   OH221920   0.225   6.294   4.969
 7319TIP3    H121921   0.260   6.265   4.885
 7319TIP3    H221922   0.251   6.387   4.975
 7320TIP3   OH221923   5.521   1.371   4.509
 7320TIP3    H121924   5.466   1.293   4.523
 7320TIP3    H221925   5.597   1.338   4.461
 7321TIP3   OH221926   3.794   2.183   0.849
 7321TIP3    H121927   3.748   2.100   0.863
 7321TIP3    H221928   3.835   2.173   0.762
 7322TIP3   OH221929   4.533   1.327   3.653
 7322TIP3    H121930   4.591   1.390   3.697
 7322TIP3    H221931   4.451   1.332   3.703
 7323TIP3   OH221932   6.030   5.978   2.277
 7323TIP3    H121933   6.116   5.937   2.276
 7323TIP3    H221934   6.016   6.006   2.187
 7324TIP3   OH221935   5.756   2.680   1.573
 7324TIP3    H121936   5.677   2.691   1.626
 7324TIP3    H221937   5.773   2.586   1.574
 7325TIP3   OH221938   5.176   1.295   4.982
 7325TIP3    H121939   5.120   1.306   5.059
 7325TIP3    H221940   5.132   1.229   4.929
 7326TIP3   OH221941   6.454   5.757   1.976
 7326TIP3    H121942   6.364   5.789   1.966
 7326TIP3    H221943   6.450   5.699   2.052
 7327TIP3   OH221944   3.281   5.881   0.261
 7327TIP3    H121945   3.366   5.909   0.227
 7327TIP3    H221946   3.281   5.909   0.353
 7328TIP3   OH221947   2.047   2.834   5.342
 7328TIP3    H121948   2.140   2.846   5.325
 7328TIP3    H221949   2.038   2.740   5.359
 7329TIP3   OH221950   1.100   2.163   2.266
 7329TIP3    H121951   1.020   2.124   2.229
 7329TIP3    H221952   1.075   2.191   2.354
 7330TIP3   OH221953   4.046   6.251   5.721
 7330TIP3    H121954   4.107   6.235   5.792
 7330TIP3    H221955   4.026   6.345   5.727
 7331TIP3   OH221956   4.249   6.591   4.771
 7331TIP3    H121957   4.186   6.661   4.792
 7331TIP3    H221958   4.273   6.607   4.680
 7332TIP3   OH221959   5.303   2.389   0.171
 7332TIP3    H121960   5.342   2.313   0.214
 7332TIP3    H221961   5.209   2.373   0.174
 7333TIP3   OH221962   1.249   5.132   4.851
 7333TIP3    H121963   1.244   5.095   4.939
 7333TIP3    H221964   1.169   5.101   4.807
 7334TIP3   OH221965   5.711   6.126   0.640
 7334TIP3    H121966   5.723   6.197   0.703
 7334TIP3    H221967   5.799   6.095   0.620
 7335TIP3   OH221968   1.776   2.801   0.090
 7335TIP3    H121969   1.835   2.876   0.091
 7335TIP3    H221970   1.832   2.726   0.113
 7336TIP3   OH221971   6.405   0.035   1.296
 7336TIP3    H121972   6.347   0.028   1.220
 7336TIP3    H221973   6.412   0.129   1.312
 7337TIP3   OH221974   4.352   4.715   3.754
 7337TIP3    H121975   4.354   4.751   3.666
 7337TIP3    H221976   4.403   4.635   3.749
 7338TIP3   OH221977   2.737   0.225   3.445
 7338TIP3    H121978   2.723   0.257   3.356
 7338TIP3    H221979   2.710   0.133   3.442
 7339TIP3   OH221980   6.148   3.223   3.519
 7339TIP3    H121981   6.225   3.184   3.561
 7339TIP3    H221982   6.085   3.235   3.591
 7340TIP3   OH221983   2.563   4.884   1.164
 7340TIP3    H121984   2.500   4.907   1.232
 7340TIP3    H221985   2.548   4.791   1.147
 7341TIP3   OH221986   5.660   4.840   1.912
 7341TIP3    H121987   5.653   4.797   1.826
 7341TIP3    H221988   5.729   4.791   1.957
 7342TIP3   OH221989   2.179   4.316   0.780
 7342TIP3    H121990   2.181   4.359   0.866
 7342TIP3    H221991   2.260   4.264   0.778
 7343TIP3   OH221992   6.099   5.827   1.119
 7343TIP3    H121993   6.059   5.741   1.111
 7343TIP3    H221994   6.041   5.885   1.070
 7344TIP3   OH221995   0.491   3.464   1.100
 7344TIP3    H121996   0.482   3.548   1.144
 7344TIP3    H221997   0.550   3.480   1.027
 7345TIP3   OH221998   2.477   1.077   2.199
 7345TIP3    H121999   2.417   1.066   2.273
 7345TIP3    H222000   2.554   1.120   2.237
 7346TIP3   OH222001   6.961   3.184   0.454
 7346TIP3    H122002   7.051   3.198   0.427
 7346TIP3    H222003   6.964   3.108   0.511
 7347TIP3   OH222004   4.422   1.888   1.171
 7347TIP3    H122005   4.417   1.920   1.081
 7347TIP3    H222006   4.426   1.967   1.225
 7348TIP3   OH222007   6.830   2.763   3.292
 7348TIP3    H122008   6.802   2.835   3.236
 7348TIP3    H222009   6.899   2.719   3.243
 7349TIP3   OH222010   2.439   4.376   4.698
 7349TIP3    H122011   2.427   4.304   4.636
 7349TIP3    H222012   2.355   4.422   4.697
 7350TIP3   OH222013   4.226   0.113   0.272
 7350TIP3    H122014   4.239   0.136   0.364
 7350TIP3    H222015   4.313   0.116   0.233
 7351TIP3   OH222016   6.075   3.549   1.805
 7351TIP3    H122017   6.119   3.472   1.770
 7351TIP3    H222018   6.145   3.602   1.841
 7352TIP3   OH222019   0.230   2.209   2.065
 7352TIP3    H122020   0.314   2.170   2.040
 7352TIP3    H222021   0.214   2.175   2.153
 7353TIP3   OH222022   6.731   6.587   5.274
 7353TIP3    H122023   6.817   6.552   5.252
 7353TIP3    H222024   6.695   6.617   5.190
 7354TIP3   OH222025   3.109   5.286   1.750
 7354TIP3    H122026   3.126   5.320   1.663
 7354TIP3    H222027   3.014   5.276   1.755
 7355TIP3   OH222028   2.887   3.224   1.398
 7355TIP3    H122029   2.855   3.137   1.420
 7355TIP3    H222030   2.932   3.254   1.477
 7356TIP3   OH222031   5.944   3.071   3.082
 7356TIP3    H122032   5.906   3.022   3.155
 7356TIP3    H222033   5.938   3.162   3.109
 7357TIP3   OH222034   5.013   4.529   3.888
 7357TIP3    H122035   5.018   4.449   3.836
 7357TIP3    H222036   5.096   4.532   3.935
 7358TIP3   OH222037   6.039   6.306   3.905
 7358TIP3    H122038   6.026   6.253   3.983
 7358TIP3    H222039   6.046   6.396   3.937
 7359TIP3   OH222040   3.330   4.393   2.453
 7359TIP3    H122041   3.322   4.457   2.383
 7359TIP3    H222042   3.346   4.310   2.408
 7360TIP3   OH222043   5.853   0.598   1.609
 7360TIP3    H122044   5.771   0.549   1.599
 7360TIP3    H222045   5.835   0.683   1.569
 7361TIP3   OH222046   0.039   5.345   0.348
 7361TIP3    H122047   0.084   5.419   0.308
 7361TIP3    H222048  -0.022   5.314   0.281
 7362TIP3   OH222049   4.019   1.446   1.854
 7362TIP3    H122050   4.015   1.433   1.759
 7362TIP3    H222051   3.951   1.510   1.872
 7363TIP3   OH222052   2.793   0.941   0.752
 7363TIP3    H122053   2.826   0.855   0.778
 7363TIP3    H222054   2.750   0.927   0.668
 7364TIP3   OH222055   3.397   1.663   5.863
 7364TIP3    H122056   3.371   1.748   5.830
 7364TIP3    H222057   3.478   1.643   5.816
 7365TIP3   OH222058   6.453   2.957   4.062
 7365TIP3    H122059   6.548   2.945   4.052
 7365TIP3    H222060   6.441   2.974   4.155
 7366TIP3   OH222061   3.647   4.097   5.470
 7366TIP3    H122062   3.699   4.125   5.395
 7366TIP3    H222063   3.576   4.044   5.433
 7367TIP3   OH222064   1.139   2.568   0.768
 7367TIP3    H122065   1.158   2.649   0.720
 7367TIP3    H222066   1.192   2.573   0.847
 7368TIP3   OH222067   0.682   0.335   2.644
 7368TIP3    H122068   0.739   0.394   2.693
 7368TIP3    H222069   0.632   0.289   2.711
 7369TIP3   OH222070   7.237   1.700   0.102
 7369TIP3    H122071   7.180   1.772   0.074
 7369TIP3    H222072   7.184   1.650   0.163
 7370TIP3   OH222073   4.297   6.264   3.431
 7370TIP3    H122074   4.206   6.243   3.453
 7370TIP3    H222075   4.338   6.180   3.416
 7371TIP3   OH222076   1.756   3.272   5.255
 7371TIP3    H122077   1.844   3.242   5.279
 7371TIP3    H222078   1.708   3.275   5.337
 7372TIP3   OH222079   5.428   3.459   1.569
 7372TIP3    H122080   5.521   3.442   1.581
 7372TIP3    H222081   5.384   3.396   1.627
 7373TIP3   OH222082   3.395   6.465   0.915
 7373TIP3    H122083   3.448   6.435   0.842
 7373TIP3    H222084   3.458   6.497   0.980
 7374TIP3   OH222085   2.667   0.248   2.027
 7374TIP3    H122086   2.614   0.250   2.106
 7374TIP3    H222087   2.608   0.277   1.958
 7375TIP3   OH222088   5.679   4.379   2.550
 7375TIP3    H122089   5.720   4.397   2.634
 7375TIP3    H222090   5.623   4.303   2.566
 7376TIP3   OH222091   6.466   3.373   3.600
 7376TIP3    H122092   6.501   3.286   3.621
 7376TIP3    H222093   6.534   3.414   3.547
 7377TIP3   OH222094   1.023   0.477   1.463
 7377TIP3    H122095   0.958   0.538   1.429
 7377TIP3    H222096   1.107   0.520   1.448
 7378TIP3   OH222097   5.972   3.315   0.454
 7378TIP3    H122098   6.063   3.298   0.479
 7378TIP3    H222099   5.923   3.313   0.537
 7379TIP3   OH222100   1.319   5.996   0.046
 7379TIP3    H122101   1.306   5.973   0.138
 7379TIP3    H222102   1.340   5.914   0.002
 7380TIP3   OH222103   4.722   0.412   5.062
 7380TIP3    H122104   4.701   0.333   5.112
 7380TIP3    H222105   4.637   0.453   5.045
 7381TIP3   OH222106   6.716   3.176   2.364
 7381TIP3    H122107   6.638   3.191   2.419
 7381TIP3    H222108   6.681   3.132   2.286
 7382TIP3   OH222109   0.454   3.021   1.700
 7382TIP3    H122110   0.461   2.991   1.791
 7382TIP3    H222111   0.384   3.086   1.702
 7383TIP3   OH222112   2.514   4.641   3.307
 7383TIP3    H122113   2.488   4.578   3.240
 7383TIP3    H222114   2.607   4.623   3.322
 7384TIP3   OH222115   1.393   0.025   2.104
 7384TIP3    H122116   1.298   0.023   2.096
 7384TIP3    H222117   1.411   0.091   2.171
 7385TIP3   OH222118   6.189   2.181   5.052
 7385TIP3    H122119   6.252   2.113   5.028
 7385TIP3    H222120   6.216   2.208   5.140
 7386TIP3   OH222121   6.535   3.090   3.063
 7386TIP3    H122122   6.504   3.002   3.042
 7386TIP3    H222123   6.559   3.127   2.978
 7387TIP3   OH222124   5.382   4.370   2.624
 7387TIP3    H122125   5.414   4.431   2.691
 7387TIP3    H222126   5.312   4.321   2.667
 7388TIP3   OH222127   0.691   0.095   4.633
 7388TIP3    H122128   0.718   0.182   4.660
 7388TIP3    H222129   0.630   0.066   4.700
 7389TIP3   OH222130   1.045   0.156   5.573
 7389TIP3    H122131   1.137   0.141   5.553
 7389TIP3    H222132   1.030   0.248   5.550
 7390TIP3   OH222133   3.532   6.464   4.220
 7390TIP3    H122134   3.453   6.418   4.189
 7390TIP3    H222135   3.605   6.415   4.180
 7391TIP3   OH222136   5.566   6.389   4.243
 7391TIP3    H122137   5.658   6.414   4.237
 7391TIP3    H222138   5.529   6.412   4.158
 7392TIP3   OH222139   4.161   3.982   2.298
 7392TIP3    H122140   4.087   3.937   2.258
 7392TIP3    H222141   4.185   3.926   2.372
 7393TIP3   OH222142   6.358   4.826   5.507
 7393TIP3    H122143   6.448   4.803   5.528
 7393TIP3    H222144   6.308   4.745   5.521
 7394TIP3   OH222145   4.276   3.659   0.268
 7394TIP3    H122146   4.292   3.683   0.360
 7394TIP3    H222147   4.251   3.567   0.271
 7395TIP3   OH222148   4.850   0.979   1.477
 7395TIP3    H122149   4.838   1.026   1.395
 7395TIP3    H222150   4.835   1.044   1.545
 7396TIP3   OH222151   5.740   3.854   1.367
 7396TIP3    H122152   5.689   3.812   1.437
 7396TIP3    H222153   5.717   3.805   1.288
 7397TIP3   OH222154   1.177   3.310   4.994
 7397TIP3    H122155   1.262   3.299   4.950
 7397TIP3    H222156   1.121   3.243   4.955
 7398TIP3   OH222157   6.710   6.666   3.559
 7398TIP3    H122158   6.621   6.636   3.538
 7398TIP3    H222159   6.728   6.627   3.645
 7399TIP3   OH222160   5.247   3.894   4.716
 7399TIP3    H122161   5.199   3.897   4.799
 7399TIP3    H222162   5.209   3.819   4.669
 7400TIP3   OH222163   5.613   5.353   0.846
 7400TIP3    H122164   5.555   5.281   0.823
 7400TIP3    H222165   5.571   5.394   0.922
 7401TIP3   OH222166   3.101   0.336   4.060
 7401TIP3    H122167   3.117   0.384   4.141
 7401TIP3    H222168   3.168   0.368   3.999
 7402TIP3   OH222169   1.870   2.863   3.316
 7402TIP3    H122170   1.961   2.839   3.303
 7402TIP3    H222171   1.839   2.804   3.385
 7403TIP3   OH222172   5.344   0.664   4.186
 7403TIP3    H122173   5.341   0.756   4.163
 7403TIP3    H222174   5.270   0.625   4.139
 7404TIP3   OH222175   5.919   0.417   1.820
 7404TIP3    H122176   5.908   0.483   1.752
 7404TIP3    H222177   5.852   0.438   1.885
 7405TIP3   OH222178   5.084   4.784   0.275
 7405TIP3    H122179   5.013   4.848   0.266
 7405TIP3    H222180   5.076   4.752   0.365
 7406TIP3   OH222181   1.526   6.362   2.379
 7406TIP3    H122182   1.564   6.275   2.391
 7406TIP3    H222183   1.432   6.346   2.368
 7407TIP3   OH222184   0.060   4.983   0.593
 7407TIP3    H122185   0.130   4.996   0.529
 7407TIP3    H222186   0.027   5.071   0.610
 7408TIP3   OH222187   4.567   6.418   4.290
 7408TIP3    H122188   4.558   6.455   4.202
 7408TIP3    H222189   4.628   6.477   4.334
 7409TIP3   OH222190   3.629   3.382   1.660
 7409TIP3    H122191   3.588   3.440   1.724
 7409TIP3    H222192   3.719   3.371   1.692
 7410TIP3   OH222193   6.795   3.326   4.512
 7410TIP3    H122194   6.864   3.379   4.472
 7410TIP3    H222195   6.714   3.367   4.483
 7411TIP3   OH222196   3.559   6.585   0.300
 7411TIP3    H122197   3.527   6.577   0.390
 7411TIP3    H222198   3.645   6.544   0.302
 7412TIP3   OH222199   2.671   4.233   2.800
 7412TIP3    H122200   2.766   4.238   2.806
 7412TIP3    H222201   2.646   4.172   2.870
 7413TIP3   OH222202   3.019   5.443   4.913
 7413TIP3    H122203   3.101   5.458   4.865
 7413TIP3    H222204   3.038   5.472   5.002
 7414TIP3   OH222205   1.313   2.636   3.536
 7414TIP3    H122206   1.225   2.674   3.544
 7414TIP3    H222207   1.350   2.678   3.459
 7415TIP3   OH222208   3.759   1.470   0.003
 7415TIP3    H122209   3.696   1.492   0.071
 7415TIP3    H222210   3.705   1.440  -0.071
 7416TIP3   OH222211   3.750   1.929   4.243
 7416TIP3    H122212   3.668   1.879   4.236
 7416TIP3    H222213   3.810   1.884   4.185
 7417TIP3   OH222214   3.465   1.116   2.641
 7417TIP3    H122215   3.542   1.174   2.639
 7417TIP3    H222216   3.437   1.117   2.733
 7418TIP3   OH222217   3.038  -0.011   1.805
 7418TIP3    H122218   3.117   0.022   1.847
 7418TIP3    H222219   2.971  -0.008   1.873
 7419TIP3   OH222220   2.586   1.907   5.300
 7419TIP3    H122221   2.625   1.990   5.273
 7419TIP3    H222222   2.502   1.932   5.339
 7420TIP3   OH222223   7.120   5.816   5.602
 7420TIP3    H122224   7.070   5.749   5.554
 7420TIP3    H222225   7.055   5.880   5.629
 7421TIP3   OH222226   2.292   6.250   2.705
 7421TIP3    H122227   2.377   6.274   2.669
 7421TIP3    H222228   2.256   6.332   2.738
 7422TIP3   OH222229   4.029   2.186   0.271
 7422TIP3    H122230   4.106   2.137   0.245
 7422TIP3    H222231   4.035   2.268   0.221
 7423TIP3   OH222232   6.976   5.420   4.729
 7423TIP3    H122233   7.022   5.449   4.808
 7423TIP3    H222234   7.004   5.329   4.718
 7424TIP3   OH222235   6.460   5.996   3.433
 7424TIP3    H122236   6.535   5.939   3.453
 7424TIP3    H222237   6.390   5.965   3.489
 7425TIP3   OH222238   4.005   1.551   5.687
 7425TIP3    H122239   3.949   1.509   5.752
 7425TIP3    H222240   4.052   1.619   5.737
 7426TIP3   OH222241   6.458   1.776   0.111
 7426TIP3    H122242   6.485   1.861   0.144
 7426TIP3    H222243   6.416   1.794   0.027
 7427TIP3   OH222244   2.264   6.092   4.924
 7427TIP3    H122245   2.327   6.050   4.984
 7427TIP3    H222246   2.310   6.096   4.840
 7428TIP3   OH222247   3.843   3.897   1.596
 7428TIP3    H122248   3.767   3.901   1.538
 7428TIP3    H222249   3.846   3.806   1.624
 7429TIP3   OH222250   6.892   0.768   2.546
 7429TIP3    H122251   6.905   0.750   2.452
 7429TIP3    H222252   6.826   0.838   2.548
 7430TIP3   OH222253   5.635   4.760   4.689
 7430TIP3    H122254   5.631   4.735   4.597
 7430TIP3    H222255   5.726   4.785   4.703
 7431TIP3   OH222256   3.625   5.688   3.253
 7431TIP3    H122257   3.678   5.701   3.175
 7431TIP3    H222258   3.561   5.621   3.228
 7432TIP3   OH222259   2.356   6.628   1.924
 7432TIP3    H122260   2.383   6.715   1.951
 7432TIP3    H222261   2.426   6.570   1.954
 7433TIP3   OH222262   4.699   1.998   0.668
 7433TIP3    H122263   4.604   1.996   0.653
 7433TIP3    H222264   4.733   1.925   0.617
 7434TIP3   OH222265   2.590   3.382   1.517
 7434TIP3    H122266   2.534   3.328   1.572
 7434TIP3    H222267   2.535   3.456   1.492
 7435TIP3   OH222268   6.373   5.980   1.149
 7435TIP3    H122269   6.337   5.908   1.098
 7435TIP3    H222270   6.432   5.938   1.212
 7436TIP3   OH222271   4.979   4.465   0.070
 7436TIP3    H122272   5.052   4.403   0.071
 7436TIP3    H222273   4.930   4.442  -0.009
 7437TIP3   OH222274   4.461   5.851   0.561
 7437TIP3    H122275   4.378   5.869   0.606
 7437TIP3    H222276   4.526   5.848   0.632
 7438TIP3   OH222277   2.293   2.266   4.127
 7438TIP3    H122278   2.258   2.249   4.040
 7438TIP3    H222279   2.368   2.208   4.135
 7439TIP3   OH222280   5.603   1.252   0.046
 7439TIP3    H122281   5.623   1.251   0.139
 7439TIP3    H222282   5.627   1.341   0.018
 7440TIP3   OH222283   6.629   6.602   0.192
 7440TIP3    H122284   6.620   6.685   0.145
 7440TIP3    H222285   6.605   6.623   0.282
 7441TIP3   OH222286   4.587   4.471   4.232
 7441TIP3    H122287   4.635   4.548   4.201
 7441TIP3    H222288   4.554   4.430   4.153
 7442TIP3   OH222289   0.136   0.694   2.470
 7442TIP3    H122290   0.171   0.671   2.384
 7442TIP3    H222291   0.209   0.735   2.516
 7443TIP3   OH222292   3.262   1.925   5.297
 7443TIP3    H122293   3.344   1.877   5.306
 7443TIP3    H222294   3.287   2.017   5.304
 7444TIP3   OH222295   1.016   6.492   1.612
 7444TIP3    H122296   0.988   6.440   1.536
 7444TIP3    H222297   1.085   6.549   1.578
 7445TIP3   OH222298   3.006   2.028   3.427
 7445TIP3    H122299   3.050   2.104   3.465
 7445TIP3    H222300   2.943   2.064   3.366
 7446TIP3   OH222301   5.579   1.725   2.062
 7446TIP3    H122302   5.507   1.733   2.000
 7446TIP3    H222303   5.540   1.744   2.148
 7447TIP3   OH222304   0.554   6.120   1.899
 7447TIP3    H122305   0.544   6.056   1.828
 7447TIP3    H222306   0.510   6.198   1.867
 7448TIP3   OH222307   0.581   0.359   5.190
 7448TIP3    H122308   0.644   0.360   5.118
 7448TIP3    H222309   0.528   0.438   5.178
 7449TIP3   OH222310   1.750   1.906   4.836
 7449TIP3    H122311   1.810   1.978   4.856
 7449TIP3    H222312   1.779   1.873   4.751
 7450TIP3   OH222313   6.621   4.687   1.614
 7450TIP3    H122314   6.637   4.732   1.531
 7450TIP3    H222315   6.635   4.754   1.680
 7451TIP3   OH222316   1.737   1.425   5.279
 7451TIP3    H122317   1.715   1.518   5.271
 7451TIP3    H222318   1.679   1.381   5.218
 7452TIP3   OH222319   5.076   2.453   5.784
 7452TIP3    H122320   5.047   2.496   5.704
 7452TIP3    H222321   5.172   2.452   5.777
 7453TIP3   OH222322   4.073   0.941   4.141
 7453TIP3    H122323   4.152   0.910   4.096
 7453TIP3    H222324   4.002   0.920   4.080
 7454TIP3   OH222325   3.390   0.465   2.032
 7454TIP3    H122326   3.435   0.532   1.981
 7454TIP3    H222327   3.298   0.491   2.028
 7455TIP3   OH222328   1.395   1.809   0.849
 7455TIP3    H122329   1.449   1.872   0.802
 7455TIP3    H222330   1.373   1.742   0.785
 7456TIP3   OH222331   1.609   5.072   4.333
 7456TIP3    H122332   1.673   5.112   4.392
 7456TIP3    H222333   1.551   5.144   4.309
 7457TIP3   OH222334   0.244   3.737   4.511
 7457TIP3    H122335   0.328   3.694   4.522
 7457TIP3    H222336   0.195   3.715   4.590
 7458TIP3   OH222337   5.114   2.352   3.279
 7458TIP3    H122338   5.088   2.415   3.212
 7458TIP3    H222339   5.031   2.318   3.313
 7459TIP3   OH222340   6.881   0.246   0.261
 7459TIP3    H122341   6.837   0.219   0.342
 7459TIP3    H222342   6.969   0.271   0.289
 7460TIP3   OH222343   2.580   2.619   4.151
 7460TIP3    H122344   2.556   2.660   4.234
 7460TIP3    H222345   2.500   2.623   4.098
 7461TIP3   OH222346   1.706   0.809   5.837
 7461TIP3    H122347   1.773   0.801   5.769
 7461TIP3    H222348   1.674   0.720   5.851
 7462TIP3   OH222349   1.924   2.818   5.096
 7462TIP3    H122350   1.965   2.861   5.171
 7462TIP3    H222351   1.896   2.733   5.129
 7463TIP3   OH222352   1.765   3.109   5.670
 7463TIP3    H122353   1.831   3.147   5.612
 7463TIP3    H222354   1.748   3.022   5.634
 7464TIP3   OH222355   6.828   2.634   1.356
 7464TIP3    H122356   6.808   2.594   1.441
 7464TIP3    H222357   6.776   2.584   1.293
 7465TIP3   OH222358   3.503   5.913   5.486
 7465TIP3    H122359   3.529   5.855   5.558
 7465TIP3    H222360   3.548   5.996   5.505
 7466TIP3   OH222361  -0.001   6.102   3.360
 7466TIP3    H122362   0.085   6.060   3.370
 7466TIP3    H222363  -0.062   6.029   3.347
 7467TIP3   OH222364   2.176   1.865   2.113
 7467TIP3    H122365   2.161   1.909   2.197
 7467TIP3    H222366   2.243   1.799   2.133
 7468TIP3   OH222367   1.157   2.341   2.572
 7468TIP3    H122368   1.241   2.314   2.534
 7468TIP3    H222369   1.118   2.259   2.604
 7469TIP3   OH222370   0.312   6.739   2.693
 7469TIP3    H122371   0.356   6.822   2.710
 7469TIP3    H222372   0.358   6.675   2.747
 7470TIP3   OH222373   3.094   6.448   4.184
 7470TIP3    H122374   3.129   6.534   4.204
 7470TIP3    H222375   3.007   6.464   4.147
 7471TIP3   OH222376   0.128   5.137   1.978
 7471TIP3    H122377   0.129   5.055   2.027
 7471TIP3    H222378   0.181   5.119   1.901
 7472TIP3   OH222379   4.646   0.466   0.345
 7472TIP3    H122380   4.590   0.444   0.270
 7472TIP3    H222381   4.735   0.466   0.309
 7473TIP3   OH222382   4.061   5.230   5.489
 7473TIP3    H122383   4.099   5.243   5.402
 7473TIP3    H222384   4.119   5.278   5.548
 7474TIP3   OH222385   0.763   3.165   2.595
 7474TIP3    H122386   0.848   3.138   2.562
 7474TIP3    H222387   0.719   3.203   2.519
 7475TIP3   OH222388   0.962   6.386   4.638
 7475TIP3    H122389   0.942   6.440   4.561
 7475TIP3    H222390   1.027   6.323   4.606
 7476TIP3   OH222391   1.134   1.931   0.051
 7476TIP3    H122392   1.185   1.916   0.130
 7476TIP3    H222393   1.070   1.860   0.050
 7477TIP3   OH222394   6.409   2.874   3.399
 7477TIP3    H122395   6.495   2.835   3.417
 7477TIP3    H222396   6.383   2.836   3.316
 7478TIP3   OH222397   2.642   1.380   1.680
 7478TIP3    H122398   2.587   1.453   1.651
 7478TIP3    H222399   2.622   1.309   1.618
 7479TIP3   OH222400   5.871   2.928   1.573
 7479TIP3    H122401   5.788   2.970   1.597
 7479TIP3    H222402   5.850   2.835   1.568
 7480TIP3   OH222403   3.244   3.962   5.079
 7480TIP3    H122404   3.195   4.015   5.015
 7480TIP3    H222405   3.322   4.014   5.098
 7481TIP3   OH222406   3.679   5.088   2.969
 7481TIP3    H122407   3.629   5.033   2.909
 7481TIP3    H222408   3.716   5.027   3.032
 7482TIP3   OH222409   0.799   1.283   1.361
 7482TIP3    H122410   0.893   1.285   1.381
 7482TIP3    H222411   0.795   1.265   1.267
 7483TIP3   OH222412   4.438   3.451   2.569
 7483TIP3    H122413   4.349   3.483   2.584
 7483TIP3    H222414   4.468   3.423   2.656
 7484TIP3   OH222415   7.095   0.066   3.428
 7484TIP3    H122416   7.069   0.123   3.356
 7484TIP3    H222417   7.183   0.094   3.451
 7485TIP3   OH222418  -0.013   6.393   3.794
 7485TIP3    H122419  -0.061   6.463   3.838
 7485TIP3    H222420   0.078   6.405   3.822
 7486TIP3   OH222421   6.865   6.255   0.533
 7486TIP3    H122422   6.784   6.294   0.566
 7486TIP3    H222423   6.889   6.308   0.458
 7487TIP3   OH222424   3.448   2.427   0.203
 7487TIP3    H122425   3.361   2.388   0.188
 7487TIP3    H222426   3.442   2.465   0.291
 7488TIP3   OH222427   1.061   5.158   2.134
 7488TIP3    H122428   1.144   5.191   2.099
 7488TIP3    H222429   1.083   5.131   2.224
 7489TIP3   OH222430   6.313   3.474   5.176
 7489TIP3    H122431   6.329   3.510   5.264
 7489TIP3    H222432   6.363   3.393   5.174
 7490TIP3   OH222433   0.352   6.653   3.760
 7490TIP3    H122434   0.400   6.730   3.728
 7490TIP3    H222435   0.264   6.663   3.725
 7491TIP3   OH222436   2.842   4.162   4.956
 7491TIP3    H122437   2.834   4.173   5.051
 7491TIP3    H222438   2.901   4.233   4.930
 7492TIP3   OH222439   7.149   0.634   1.353
 7492TIP3    H122440   7.128   0.592   1.437
 7492TIP3    H222441   7.158   0.562   1.291
 7493TIP3   OH222442   3.895   0.623   3.109
 7493TIP3    H122443   3.841   0.657   3.181
 7493TIP3    H222444   3.831   0.597   3.043
 7494TIP3   OH222445   7.158   4.989   3.400
 7494TIP3    H122446   7.133   5.025   3.315
 7494TIP3    H222447   7.247   5.020   3.415
 7495TIP3   OH222448   2.497   0.292   1.467
 7495TIP3    H122449   2.424   0.346   1.437
 7495TIP3    H222450   2.495   0.301   1.563
 7496TIP3   OH222451   2.880   4.834   1.061
 7496TIP3    H122452   2.834   4.772   1.004
 7496TIP3    H222453   2.822   4.909   1.067
 7497TIP3   OH222454   1.473   5.031   4.046
 7497TIP3    H122455   1.394   5.010   3.995
 7497TIP3    H222456   1.491   5.123   4.024
 7498TIP3   OH222457   3.420   2.539   5.660
 7498TIP3    H122458   3.442   2.496   5.577
 7498TIP3    H222459   3.395   2.627   5.634
 7499TIP3   OH222460   3.286   1.680   4.034
 7499TIP3    H122461   3.311   1.733   4.110
 7499TIP3    H222462   3.257   1.597   4.072
 7500TIP3   OH222463   5.294   1.370   5.730
 7500TIP3    H122464   5.212   1.349   5.775
 7500TIP3    H222465   5.308   1.463   5.748
 7501TIP3   OH222466   5.599   2.548   3.658
 7501TIP3    H122467   5.661   2.620   3.671
 7501TIP3    H222468   5.514   2.592   3.648
 7502TIP3   OH222469   6.366   2.784   0.242
 7502TIP3    H122470   6.344   2.876   0.227
 7502TIP3    H222471   6.428   2.762   0.173
 7503TIP3   OH222472   0.857   3.872   1.400
 7503TIP3    H122473   0.794   3.944   1.409
 7503TIP3    H222474   0.908   3.895   1.322
 7504TIP3   OH222475   2.947   5.102   0.727
 7504TIP3    H122476   2.889   5.157   0.780
 7504TIP3    H222477   2.983   5.161   0.661
 7505TIP3   OH222478   3.093   6.808   3.626
 7505TIP3    H122479   3.081   6.713   3.627
 7505TIP3    H222480   3.048   6.838   3.705
 7506TIP3   OH222481   4.686   2.923   1.820
 7506TIP3    H122482   4.772   2.949   1.851
 7506TIP3    H222483   4.674   2.971   1.738
 7507TIP3   OH222484   6.325   5.115   5.746
 7507TIP3    H122485   6.302   5.049   5.811
 7507TIP3    H222486   6.277   5.193   5.775
 7508TIP3   OH222487   5.956   0.422   2.632
 7508TIP3    H122488   5.892   0.407   2.563
 7508TIP3    H222489   6.016   0.487   2.595
 7509TIP3   OH222490   2.721   4.358   4.670
 7509TIP3    H122491   2.636   4.374   4.711
 7509TIP3    H222492   2.708   4.280   4.616
 7510TIP3   OH222493   0.732   6.515   5.494
 7510TIP3    H122494   0.646   6.550   5.473
 7510TIP3    H222495   0.787   6.592   5.508
 7511TIP3   OH222496   7.109   2.786   3.056
 7511TIP3    H122497   7.146   2.866   3.019
 7511TIP3    H222498   7.087   2.732   2.979
 7512TIP3   OH222499   1.571   2.513   0.686
 7512TIP3    H122500   1.603   2.592   0.729
 7512TIP3    H222501   1.559   2.450   0.757
 7513TIP3   OH222502   0.945   2.623   3.948
 7513TIP3    H122503   0.950   2.593   3.857
 7513TIP3    H222504   1.036   2.621   3.979
 7514TIP3   OH222505   1.257   0.231   3.875
 7514TIP3    H122506   1.173   0.191   3.898
 7514TIP3    H222507   1.240   0.325   3.875
 7515TIP3   OH222508   0.560   1.893   3.989
 7515TIP3    H122509   0.653   1.873   3.976
 7515TIP3    H222510   0.556   1.989   3.986
 7516TIP3   OH222511   6.465   4.355   5.004
 7516TIP3    H122512   6.440   4.308   4.925
 7516TIP3    H222513   6.507   4.435   4.971
 7517TIP3   OH222514   4.832   4.224   5.752
 7517TIP3    H122515   4.877   4.307   5.767
 7517TIP3    H222516   4.868   4.192   5.670
 7518TIP3   OH222517   6.763   1.763   1.566
 7518TIP3    H122518   6.739   1.836   1.623
 7518TIP3    H222519   6.854   1.745   1.587
 7519TIP3   OH222520   6.966   1.773   4.327
 7519TIP3    H122521   6.941   1.693   4.374
 7519TIP3    H222522   7.009   1.741   4.247
 7520TIP3   OH222523   2.565   4.325   1.877
 7520TIP3    H122524   2.497   4.345   1.813
 7520TIP3    H222525   2.647   4.340   1.830
 7521TIP3   OH222526   2.578   5.707   1.926
 7521TIP3    H122527   2.588   5.741   2.015
 7521TIP3    H222528   2.568   5.612   1.938
 7522TIP3   OH222529   4.016   6.166   0.664
 7522TIP3    H122530   4.002   6.090   0.719
 7522TIP3    H222531   4.068   6.133   0.590
 7523TIP3   OH222532   1.742   2.912   1.869
 7523TIP3    H122533   1.716   2.839   1.812
 7523TIP3    H222534   1.838   2.913   1.865
 7524TIP3   OH222535   7.143   4.277   5.818
 7524TIP3    H122536   7.126   4.359   5.770
 7524TIP3    H222537   7.162   4.306   5.907
 7525TIP3   OH222538   4.220   6.362   2.671
 7525TIP3    H122539   4.160   6.299   2.712
 7525TIP3    H222540   4.199   6.446   2.713
 7526TIP3   OH222541   5.966   0.777   5.228
 7526TIP3    H122542   6.018   0.828   5.289
 7526TIP3    H222543   5.999   0.801   5.142
 7527TIP3   OH222544   3.135   3.975   1.130
 7527TIP3    H122545   3.199   3.995   1.198
 7527TIP3    H222546   3.092   3.895   1.160
 7528TIP3   OH222547   2.297   2.493   0.913
 7528TIP3    H122548   2.208   2.515   0.885
 7528TIP3    H222549   2.341   2.464   0.833
 7529TIP3   OH222550   6.424   4.731   2.078
 7529TIP3    H122551   6.444   4.817   2.114
 7529TIP3    H222552   6.349   4.746   2.020
 7530TIP3   OH222553   2.884   1.074   0.296
 7530TIP3    H122554   2.926   0.989   0.310
 7530TIP3    H222555   2.878   1.082   0.201
 7531TIP3   OH222556   1.273   1.891   5.185
 7531TIP3    H122557   1.187   1.862   5.217
 7531TIP3    H222558   1.268   1.881   5.090
 7532TIP3   OH222559   3.508   5.299   2.901
 7532TIP3    H122560   3.542   5.217   2.936
 7532TIP3    H222561   3.579   5.333   2.846
 7533TIP3   OH222562   3.615   1.209   3.050
 7533TIP3    H122563   3.620   1.241   3.140
 7533TIP3    H222564   3.658   1.124   3.053
 7534TIP3   OH222565   3.743   2.284   5.165
 7534TIP3    H122566   3.722   2.367   5.207
 7534TIP3    H222567   3.682   2.278   5.092
 7535TIP3   OH222568   1.263   2.301   5.469
 7535TIP3    H122569   1.218   2.271   5.390
 7535TIP3    H222570   1.200   2.284   5.540
 7536TIP3   OH222571   0.867   4.471   0.028
 7536TIP3    H122572   0.892   4.538  -0.036
 7536TIP3    H222573   0.932   4.480   0.098
 7537TIP3   OH222574   4.125   3.426   0.081
 7537TIP3    H122575   4.220   3.410   0.087
 7537TIP3    H222576   4.117   3.497   0.017
 7538TIP3   OH222577   4.839   6.442   0.521
 7538TIP3    H122578   4.799   6.410   0.601
 7538TIP3    H222579   4.933   6.426   0.533
 7539TIP3   OH222580   6.394   4.031   1.083
 7539TIP3    H122581   6.355   3.944   1.096
 7539TIP3    H222582   6.332   4.077   1.027
 7540TIP3   OH222583   0.496   2.189   5.830
 7540TIP3    H122584   0.505   2.094   5.841
 7540TIP3    H222585   0.426   2.198   5.765
 7541TIP3   OH222586   4.687   6.621   1.683
 7541TIP3    H122587   4.744   6.583   1.750
 7541TIP3    H222588   4.673   6.550   1.621
 7542TIP3   OH222589   3.738   4.888   1.087
 7542TIP3    H122590   3.765   4.884   1.179
 7542TIP3    H222591   3.769   4.973   1.057
 7543TIP3   OH222592   1.956   3.984   1.422
 7543TIP3    H122593   1.992   4.064   1.461
 7543TIP3    H222594   1.883   3.961   1.480
 7544TIP3   OH222595   4.174   6.620   0.674
 7544TIP3    H122596   4.166   6.680   0.749
 7544TIP3    H222597   4.256   6.644   0.632
 7545TIP3   OH222598   3.145   4.588   4.459
 7545TIP3    H122599   3.120   4.567   4.369
 7545TIP3    H222600   3.081   4.542   4.513
 7546TIP3   OH222601   2.010   2.375   4.123
 7546TIP3    H122602   2.005   2.471   4.119
 7546TIP3    H222603   2.082   2.353   4.065
 7547TIP3   OH222604   6.481   3.889   4.895
 7547TIP3    H122605   6.459   3.877   4.802
 7547TIP3    H222606   6.571   3.919   4.894
 7548TIP3   OH222607   3.178   4.099   0.070
 7548TIP3    H122608   3.171   4.181   0.020
 7548TIP3    H222609   3.110   4.107   0.138
 7549TIP3   OH222610   6.178   3.590   2.348
 7549TIP3    H122611   6.155   3.665   2.404
 7549TIP3    H222612   6.105   3.529   2.359
 7550TIP3   OH222613   2.581   5.274   1.352
 7550TIP3    H122614   2.498   5.287   1.306
 7550TIP3    H222615   2.648   5.281   1.284
 7551TIP3   OH222616   0.632   2.887   3.350
 7551TIP3    H122617   0.596   2.868   3.436
 7551TIP3    H222618   0.587   2.826   3.291
 7552TIP3   OH222619   4.927   4.922   1.479
 7552TIP3    H122620   5.015   4.918   1.516
 7552TIP3    H222621   4.919   4.840   1.429
 7553TIP3   OH222622   4.918   4.001  -0.007
 7553TIP3    H122623   4.968   3.970   0.068
 7553TIP3    H222624   4.853   4.061   0.031
 7554TIP3   OH222625   1.962   6.256   4.591
 7554TIP3    H122626   2.004   6.285   4.510
 7554TIP3    H222627   2.007   6.304   4.661
 7555TIP3   OH222628   6.086   5.118   2.778
 7555TIP3    H122629   6.173   5.080   2.792
 7555TIP3    H222630   6.072   5.173   2.855
 7556TIP3   OH222631   3.013   4.445   4.675
 7556TIP3    H122632   3.025   4.473   4.766
 7556TIP3    H222633   2.918   4.431   4.667
 7557TIP3   OH222634   0.472   4.548   5.679
 7557TIP3    H122635   0.484   4.488   5.605
 7557TIP3    H222636   0.550   4.604   5.677
 7558TIP3   OH222637  -0.010   3.630   5.702
 7558TIP3    H122638   0.020   3.711   5.660
 7558TIP3    H222639   0.050   3.563   5.671
 7559TIP3   OH222640   3.200   5.028   4.867
 7559TIP3    H122641   3.263   5.096   4.844
 7559TIP3    H222642   3.132   5.036   4.800
 7560TIP3   OH222643   0.721   5.506   1.357
 7560TIP3    H122644   0.685   5.581   1.404
 7560TIP3    H222645   0.649   5.477   1.301
 7561TIP3   OH222646   3.661   6.107   0.731
 7561TIP3    H122647   3.702   6.190   0.752
 7561TIP3    H222648   3.703   6.080   0.649
 7562TIP3   OH222649   6.030   3.120   1.461
 7562TIP3    H122650   6.081   3.070   1.398
 7562TIP3    H222651   5.978   3.055   1.508
 7563TIP3   OH222652   1.723   4.641   5.436
 7563TIP3    H122653   1.681   4.660   5.352
 7563TIP3    H222654   1.766   4.723   5.460
 7564TIP3   OH222655   2.534   6.475   0.983
 7564TIP3    H122656   2.630   6.478   0.984
 7564TIP3    H222657   2.513   6.424   0.905
 7565TIP3   OH222658   3.372   2.841   0.359
 7565TIP3    H122659   3.452   2.794   0.336
 7565TIP3    H222660   3.401   2.930   0.380
 7566TIP3   OH222661   2.767   5.668   5.713
 7566TIP3    H122662   2.793   5.740   5.657
 7566TIP3    H222663   2.719   5.709   5.785
 7567TIP3   OH222664   5.841   5.425   0.727
 7567TIP3    H122665   5.824   5.517   0.705
 7567TIP3    H222666   5.762   5.396   0.773
 7568TIP3   OH222667   4.422   0.360   3.721
 7568TIP3    H122668   4.357   0.380   3.788
 7568TIP3    H222669   4.389   0.282   3.678
 7569TIP3   OH222670   2.866   2.497   4.135
 7569TIP3    H122671   2.805   2.507   4.208
 7569TIP3    H222672   2.826   2.545   4.063
 7570TIP3   OH222673   3.206   0.314   1.482
 7570TIP3    H122674   3.284   0.325   1.537
 7570TIP3    H222675   3.134   0.302   1.544
 7571TIP3   OH222676   5.828   5.985   4.237
 7571TIP3    H122677   5.886   5.957   4.309
 7571TIP3    H222678   5.821   5.908   4.181
 7572TIP3   OH222679   5.307   5.575   1.012
 7572TIP3    H122680   5.323   5.603   1.102
 7572TIP3    H222681   5.252   5.644   0.975
 7573TIP3   OH222682   5.235   4.733   1.158
 7573TIP3    H122683   5.207   4.642   1.143
 7573TIP3    H222684   5.165   4.786   1.122
 7574TIP3   OH222685   5.927   6.743   2.022
 7574TIP3    H122686   5.940   6.654   1.992
 7574TIP3    H222687   5.888   6.734   2.109
 7575TIP3   OH222688   5.074   0.779   1.108
 7575TIP3    H122689   5.051   0.765   1.016
 7575TIP3    H222690   5.147   0.719   1.123
 7576TIP3   OH222691   4.180   3.448   4.288
 7576TIP3    H122692   4.102   3.395   4.270
 7576TIP3    H222693   4.159   3.494   4.369
 7577TIP3   OH222694   0.977   1.074   0.136
 7577TIP3    H122695   1.021   1.103   0.057
 7577TIP3    H222696   1.035   1.008   0.174
 7578TIP3   OH222697   5.449   2.318   5.533
 7578TIP3    H122698   5.493   2.390   5.488
 7578TIP3    H222699   5.490   2.239   5.497
 7579TIP3   OH222700   3.013   0.415   0.968
 7579TIP3    H122701   3.069   0.356   1.019
 7579TIP3    H222702   3.013   0.378   0.880
 7580TIP3   OH222703   0.319   4.882   1.855
 7580TIP3    H122704   0.309   4.975   1.836
 7580TIP3    H222705   0.402   4.858   1.814
 7581TIP3   OH222706   0.109   4.962   5.609
 7581TIP3    H122707   0.168   4.931   5.540
 7581TIP3    H222708   0.145   4.926   5.690
 7582TIP3   OH222709   0.385   6.801   1.210
 7582TIP3    H122710   0.392   6.709   1.232
 7582TIP3    H222711   0.303   6.830   1.251
 7583TIP3   OH222712   4.709   4.499   2.737
 7583TIP3    H122713   4.788   4.552   2.749
 7583TIP3    H222714   4.723   4.454   2.654
 7584TIP3   OH222715   4.784   5.814   3.394
 7584TIP3    H122716   4.812   5.760   3.468
 7584TIP3    H222717   4.863   5.862   3.367
 7585TIP3   OH222718   4.115   3.258   2.920
 7585TIP3    H122719   4.211   3.261   2.917
 7585TIP3    H222720   4.089   3.348   2.941
 7586TIP3   OH222721   2.486   2.767   0.684
 7586TIP3    H122722   2.510   2.717   0.606
 7586TIP3    H222723   2.460   2.701   0.748
 7587TIP3   OH222724   3.514   4.359   0.685
 7587TIP3    H122725   3.457   4.364   0.762
 7587TIP3    H222726   3.485   4.281   0.638
 7588TIP3   OH222727   2.426   3.659   4.226
 7588TIP3    H122728   2.341   3.702   4.218
 7588TIP3    H222729   2.487   3.730   4.248
 7589TIP3   OH222730   4.115   0.946   0.332
 7589TIP3    H122731   4.174   0.888   0.380
 7589TIP3    H222732   4.046   0.887   0.298
 7590TIP3   OH222733   4.795   5.228   0.509
 7590TIP3    H122734   4.806   5.303   0.567
 7590TIP3    H222735   4.727   5.255   0.447
 7591TIP3   OH222736   3.531   4.493   2.060
 7591TIP3    H122737   3.484   4.410   2.050
 7591TIP3    H222738   3.580   4.483   2.142
 7592TIP3   OH222739   1.745   4.935   5.593
 7592TIP3    H122740   1.770   4.919   5.684
 7592TIP3    H222741   1.828   4.947   5.547
 7593TIP3   OH222742   4.307   3.476   4.522
 7593TIP3    H122743   4.358   3.487   4.602
 7593TIP3    H222744   4.371   3.482   4.451
 7594TIP3   OH222745   5.415   4.324   1.449
 7594TIP3    H122746   5.445   4.245   1.493
 7594TIP3    H222747   5.374   4.376   1.518
 7595TIP3   OH222748   6.349   4.608   2.802
 7595TIP3    H122749   6.262   4.567   2.804
 7595TIP3    H222750   6.378   4.606   2.893
 7596TIP3   OH222751   5.143   4.360   5.512
 7596TIP3    H122752   5.108   4.431   5.565
 7596TIP3    H222753   5.167   4.400   5.429
 7597TIP3   OH222754   4.885   3.370   3.855
 7597TIP3    H122755   4.869   3.277   3.840
 7597TIP3    H222756   4.906   3.406   3.768
 7598TIP3   OH222757   0.872   6.688   2.236
 7598TIP3    H122758   0.907   6.687   2.325
 7598TIP3    H222759   0.778   6.671   2.247
 7599TIP3   OH222760   6.966   2.798   3.534
 7599TIP3    H122761   6.999   2.709   3.539
 7599TIP3    H222762   6.913   2.801   3.454
 7600TIP3   OH222763   0.428   2.936   1.024
 7600TIP3    H122764   0.457   2.919   1.114
 7600TIP3    H222765   0.341   2.973   1.034
 7601TIP3   OH222766   5.310   6.044   4.430
 7601TIP3    H122767   5.217   6.067   4.430
 7601TIP3    H222768   5.355   6.128   4.435
 7602TIP3   OH222769   5.604   2.959   1.652
 7602TIP3    H122770   5.550   2.881   1.645
 7602TIP3    H222771   5.563   3.010   1.722
 7603TIP3   OH222772   0.113   1.062   2.950
 7603TIP3    H122773   0.145   0.986   2.901
 7603TIP3    H222774   0.097   1.029   3.038
 7604TIP3   OH222775   3.661   1.168   2.075
 7604TIP3    H122776   3.570   1.186   2.096
 7604TIP3    H222777   3.671   1.200   1.985
 7605TIP3   OH222778   0.777   2.560   5.371
 7605TIP3    H122779   0.821   2.479   5.345
 7605TIP3    H222780   0.754   2.545   5.463
 7606TIP3   OH222781   5.136   5.314   2.124
 7606TIP3    H122782   5.143   5.232   2.173
 7606TIP3    H222783   5.062   5.360   2.164
 7607TIP3   OH222784   3.910   5.525   3.642
 7607TIP3    H122785   3.971   5.563   3.706
 7607TIP3    H222786   3.931   5.432   3.642
 7608TIP3   OH222787   0.357   2.056   1.779
 7608TIP3    H122788   0.347   1.988   1.845
 7608TIP3    H222789   0.430   2.027   1.725
 7609TIP3   OH222790   2.104   5.963   1.576
 7609TIP3    H122791   2.144   5.934   1.658
 7609TIP3    H222792   2.108   5.886   1.519
 7610TIP3   OH222793   2.429   0.970   5.475
 7610TIP3    H122794   2.382   0.903   5.425
 7610TIP3    H222795   2.492   1.008   5.414
 7611TIP3   OH222796   5.459   0.645   2.513
 7611TIP3    H122797   5.389   0.580   2.515
 7611TIP3    H222798   5.540   0.595   2.518
 7612TIP3   OH222799   0.527   1.523   1.135
 7612TIP3    H122800   0.580   1.590   1.177
 7612TIP3    H222801   0.566   1.440   1.164
 7613TIP3   OH222802   6.181   3.952   1.492
 7613TIP3    H122803   6.091   3.930   1.517
 7613TIP3    H222804   6.183   4.048   1.493
 7614TIP3   OH222805   3.161   1.557   1.709
 7614TIP3    H122806   3.081   1.506   1.715
 7614TIP3    H222807   3.156   1.620   1.781
 7615TIP3   OH222808   2.147   5.992   3.214
 7615TIP3    H122809   2.197   6.071   3.192
 7615TIP3    H222810   2.073   6.025   3.266
 7616TIP3   OH222811   5.181   1.141   3.589
 7616TIP3    H122812   5.154   1.202   3.521
 7616TIP3    H222813   5.226   1.071   3.542
 7617TIP3   OH222814   1.580   5.777   5.336
 7617TIP3    H122815   1.640   5.755   5.264
 7617TIP3    H222816   1.552   5.866   5.316
 7618TIP3   OH222817   2.058   5.830   4.412
 7618TIP3    H122818   2.096   5.909   4.449
 7618TIP3    H222819   2.040   5.774   4.488
 7619TIP3   OH222820   7.184   2.866   5.477
 7619TIP3    H122821   7.227   2.933   5.531
 7619TIP3    H222822   7.152   2.914   5.401
 7620TIP3   OH222823   0.105   0.860   0.410
 7620TIP3    H122824   0.182   0.894   0.366
 7620TIP3    H222825   0.125   0.868   0.503
 7621TIP3   OH222826   3.169   5.104   2.764
 7621TIP3    H122827   3.162   5.041   2.693
 7621TIP3    H222828   3.209   5.181   2.724
 7622TIP3   OH222829   0.916   0.087   4.938
 7622TIP3    H122830   1.002   0.119   4.965
 7622TIP3    H222831   0.900   0.012   4.996
 7623TIP3   OH222832   0.721   2.447   0.310
 7623TIP3    H122833   0.670   2.371   0.282
 7623TIP3    H222834   0.664   2.494   0.371
 7624TIP3   OH222835   0.338   4.280   5.642
 7624TIP3    H122836   0.414   4.244   5.688
 7624TIP3    H222837   0.263   4.234   5.680
 7625TIP3   OH222838   4.126   4.536   4.963
 7625TIP3    H122839   4.139   4.445   4.936
 7625TIP3    H222840   4.207   4.580   4.938
 7626TIP3   OH222841   0.801   2.282   2.041
 7626TIP3    H122842   0.838   2.369   2.029
 7626TIP3    H222843   0.711   2.289   2.011
 7627TIP3   OH222844   6.074   1.252   3.278
 7627TIP3    H122845   6.131   1.323   3.308
 7627TIP3    H222846   6.068   1.266   3.184
 7628TIP3   OH222847   1.504   4.170   0.899
 7628TIP3    H122848   1.411   4.149   0.915
 7628TIP3    H222849   1.502   4.245   0.841
 7629TIP3   OH222850   6.740   6.342   1.047
 7629TIP3    H122851   6.700   6.266   1.004
 7629TIP3    H222852   6.814   6.365   0.990
 7630TIP3   OH222853   4.460   5.952   1.470
 7630TIP3    H122854   4.466   6.002   1.552
 7630TIP3    H222855   4.451   6.019   1.402
 7631TIP3   OH222856  -0.018   1.322   2.165
 7631TIP3    H122857  -0.049   1.268   2.237
 7631TIP3    H222858   0.072   1.295   2.152
 7632TIP3   OH222859   3.150   6.306   5.774
 7632TIP3    H122860   3.125   6.235   5.714
 7632TIP3    H222861   3.088   6.376   5.755
 7633TIP3   OH222862   5.446   2.651   4.594
 7633TIP3    H122863   5.524   2.657   4.538
 7633TIP3    H222864   5.376   2.691   4.542
 7634TIP3   OH222865   1.394   1.370   5.755
 7634TIP3    H122866   1.410   1.313   5.830
 7634TIP3    H222867   1.326   1.431   5.785
 7635TIP3   OH222868   0.923   4.169   2.778
 7635TIP3    H122869   0.988   4.233   2.809
 7635TIP3    H222870   0.879   4.140   2.857
 7636TIP3   OH222871   2.684   0.880   2.932
 7636TIP3    H122872   2.610   0.859   2.989
 7636TIP3    H222873   2.672   0.825   2.855
 7637TIP3   OH222874   5.147   5.141   3.562
 7637TIP3    H122875   5.225   5.198   3.561
 7637TIP3    H222876   5.140   5.109   3.473
 7638TIP3   OH222877   0.348  -0.007   2.041
 7638TIP3    H122878   0.375   0.068   2.094
 7638TIP3    H222879   0.376   0.014   1.952
 7639TIP3   OH222880   2.194   1.859   3.273
 7639TIP3    H122881   2.234   1.786   3.320
 7639TIP3    H222882   2.167   1.920   3.341
 7640TIP3   OH222883   3.865   0.171   5.167
 7640TIP3    H122884   3.919   0.209   5.236
 7640TIP3    H222885   3.923   0.169   5.090
 7641TIP3   OH222886   3.292   4.493   3.527
 7641TIP3    H122887   3.319   4.565   3.585
 7641TIP3    H222888   3.279   4.535   3.442
 7642TIP3   OH222889   1.112   3.861   1.796
 7642TIP3    H122890   1.068   3.937   1.834
 7642TIP3    H222891   1.056   3.834   1.724
 7643TIP3   OH222892   0.481   5.484   5.342
 7643TIP3    H122893   0.445   5.452   5.259
 7643TIP3    H222894   0.405   5.520   5.389
 7644TIP3   OH222895   6.717   0.111   5.638
 7644TIP3    H122896   6.687   0.046   5.701
 7644TIP3    H222897   6.812   0.101   5.637
 7645TIP3   OH222898   1.184   3.062   1.144
 7645TIP3    H122899   1.165   3.115   1.221
 7645TIP3    H222900   1.204   2.975   1.178
 7646TIP3   OH222901   5.859   4.252   5.234
 7646TIP3    H122902   5.862   4.205   5.151
 7646TIP3    H222903   5.930   4.214   5.286
 7647TIP3   OH222904   4.457   5.787   3.506
 7647TIP3    H122905   4.523   5.766   3.571
 7647TIP3    H222906   4.463   5.717   3.441
 7648TIP3   OH222907   2.441   0.005   1.867
 7648TIP3    H122908   2.460  -0.009   1.960
 7648TIP3    H222909   2.412   0.096   1.862
 7649TIP3   OH222910   2.041   3.425   0.501
 7649TIP3    H122911   2.134   3.401   0.494
 7649TIP3    H222912   2.008   3.373   0.574
 7650TIP3   OH222913   0.497   0.192   0.104
 7650TIP3    H122914   0.506   0.244   0.184
 7650TIP3    H222915   0.558   0.119   0.116
 7651TIP3   OH222916   4.055   4.555   5.663
 7651TIP3    H122917   4.057   4.621   5.593
 7651TIP3    H222918   3.989   4.492   5.635
 7652TIP3   OH222919   6.940   0.696   4.538
 7652TIP3    H122920   6.916   0.697   4.631
 7652TIP3    H222921   6.963   0.787   4.518
 7653TIP3   OH222922   1.325   0.685   0.100
 7653TIP3    H122923   1.345   0.593   0.082
 7653TIP3    H222924   1.335   0.729   0.015
 7654TIP3   OH222925   3.497   0.720   1.930
 7654TIP3    H122926   3.411   0.762   1.935
 7654TIP3    H222927   3.552   0.771   1.990
 7655TIP3   OH222928   7.139   3.178   1.612
 7655TIP3    H122929   7.223   3.199   1.653
 7655TIP3    H222930   7.158   3.172   1.518
 7656TIP3   OH222931   1.516   4.845   3.598
 7656TIP3    H122932   1.573   4.802   3.535
 7656TIP3    H222933   1.522   4.938   3.575
 7657TIP3   OH222934   5.133   4.099   4.161
 7657TIP3    H122935   5.201   4.129   4.222
 7657TIP3    H222936   5.162   4.011   4.134
 7658TIP3   OH222937   4.566   4.442   2.992
 7658TIP3    H122938   4.617   4.462   2.913
 7658TIP3    H222939   4.629   4.446   3.063
 7659TIP3   OH222940   6.199   0.057   1.109
 7659TIP3    H122941   6.119   0.109   1.101
 7659TIP3    H222942   6.250   0.080   1.032
 7660TIP3   OH222943   2.758   1.558   0.352
 7660TIP3    H122944   2.822   1.578   0.421
 7660TIP3    H222945   2.729   1.469   0.371
 7661TIP3   OH222946   6.687   6.204   2.366
 7661TIP3    H122947   6.682   6.127   2.424
 7661TIP3    H222948   6.603   6.248   2.376
 7662TIP3   OH222949   1.438   0.385   2.878
 7662TIP3    H122950   1.432   0.379   2.973
 7662TIP3    H222951   1.363   0.440   2.853
 7663TIP3   OH222952   6.573   0.784   1.662
 7663TIP3    H122953   6.603   0.865   1.703
 7663TIP3    H222954   6.643   0.761   1.601
 7664TIP3   OH222955   1.369   3.997   2.432
 7664TIP3    H122956   1.411   3.959   2.355
 7664TIP3    H222957   1.314   4.066   2.398
 7665TIP3   OH222958   4.109   2.126   4.261
 7665TIP3    H122959   4.092   2.216   4.287
 7665TIP3    H222960   4.122   2.079   4.343
 7666TIP3   OH222961   5.196   1.675   1.572
 7666TIP3    H122962   5.289   1.693   1.557
 7666TIP3    H222963   5.194   1.635   1.659
 7667TIP3   OH222964   4.490   3.045   2.801
 7667TIP3    H122965   4.578   3.008   2.808
 7667TIP3    H222966   4.439   2.998   2.867
 7668TIP3   OH222967   3.150   2.037   0.122
 7668TIP3    H122968   3.173   2.108   0.183
 7668TIP3    H222969   3.126   1.964   0.179
 7669TIP3   OH222970   6.507   1.868   4.403
 7669TIP3    H122971   6.418   1.893   4.378
 7669TIP3    H222972   6.523   1.914   4.485
 7670TIP3   OH222973   0.498   0.350   3.462
 7670TIP3    H122974   0.462   0.337   3.374
 7670TIP3    H222975   0.422   0.361   3.518
 7671TIP3   OH222976   0.246   0.451   0.757
 7671TIP3    H122977   0.299   0.382   0.718
 7671TIP3    H222978   0.305   0.494   0.819
 7672TIP3   OH222979   0.386   3.943   3.284
 7672TIP3    H122980   0.316   3.878   3.272
 7672TIP3    H222981   0.352   4.022   3.240
 7673TIP3   OH222982   1.402   2.228   4.698
 7673TIP3    H122983   1.408   2.133   4.686
 7673TIP3    H222984   1.379   2.262   4.612
 7674TIP3   OH222985   6.731   5.768   5.547
 7674TIP3    H122986   6.768   5.705   5.485
 7674TIP3    H222987   6.799   5.834   5.559
 7675TIP3   OH222988   5.721   5.605   4.560
 7675TIP3    H122989   5.668   5.665   4.507
 7675TIP3    H222990   5.811   5.624   4.534
 7676TIP3   OH222991   6.656   4.163   2.494
 7676TIP3    H122992   6.661   4.256   2.518
 7676TIP3    H222993   6.598   4.124   2.559
 7677TIP3   OH222994   0.299   1.314   4.419
 7677TIP3    H122995   0.269   1.404   4.410
 7677TIP3    H222996   0.266   1.269   4.341
 7678TIP3   OH222997   4.815   2.662   3.765
 7678TIP3    H122998   4.853   2.748   3.750
 7678TIP3    H222999   4.785   2.633   3.679
 7679TIP3   OH223000   2.214   5.149   2.264
 7679TIP3    H123001   2.245   5.069   2.222
 7679TIP3    H223002   2.131   5.125   2.305
 7680TIP3   OH223003   4.351   3.846   5.447
 7680TIP3    H123004   4.379   3.894   5.525
 7680TIP3    H223005   4.277   3.793   5.477
 7681TIP3   OH223006   0.451   5.215   0.083
 7681TIP3    H123007   0.471   5.167   0.003
 7681TIP3    H223008   0.523   5.195   0.142
 7682TIP3   OH223009   2.160   2.151   0.701
 7682TIP3    H123010   2.244   2.152   0.655
 7682TIP3    H223011   2.110   2.222   0.660
 7683TIP3   OH223012   1.668   4.299   1.542
 7683TIP3    H123013   1.717   4.360   1.597
 7683TIP3    H223014   1.736   4.250   1.495
 7684TIP3   OH223015   6.356   3.788   2.297
 7684TIP3    H123016   6.294   3.837   2.350
 7684TIP3    H223017   6.318   3.700   2.290
 7685TIP3   OH223018   4.095   4.618   4.524
 7685TIP3    H123019   4.140   4.536   4.505
 7685TIP3    H223020   4.034   4.597   4.594
 7686TIP3   OH223021   2.755   4.328   1.272
 7686TIP3    H123022   2.662   4.305   1.261
 7686TIP3    H223023   2.756   4.424   1.271
 7687TIP3   OH223024   3.676   5.364   2.692
 7687TIP3    H123025   3.734   5.419   2.640
 7687TIP3    H223026   3.621   5.318   2.628
 7688TIP3   OH223027   0.790   0.874   3.113
 7688TIP3    H123028   0.813   0.893   3.204
 7688TIP3    H223029   0.873   0.853   3.071
 7689TIP3   OH223030   6.210   4.647   2.378
 7689TIP3    H123031   6.159   4.579   2.333
 7689TIP3    H223032   6.275   4.597   2.429
 7690TIP3   OH223033   2.438   0.067   0.504
 7690TIP3    H123034   2.384   0.094   0.430
 7690TIP3    H223035   2.429  -0.028   0.508
 7691TIP3   OH223036   5.855   0.380   5.046
 7691TIP3    H123037   5.792   0.351   5.112
 7691TIP3    H223038   5.815   0.356   4.963
 7692TIP3   OH223039   6.075   3.761   4.816
 7692TIP3    H123040   6.143   3.698   4.841
 7692TIP3    H223041   6.030   3.781   4.898
 7693TIP3   OH223042   4.995   4.531   3.451
 7693TIP3    H123043   5.033   4.489   3.374
 7693TIP3    H223044   5.002   4.465   3.520
 7694TIP3   OH223045   3.398   6.155   1.130
 7694TIP3    H123046   3.485   6.194   1.136
 7694TIP3    H223047   3.370   6.173   1.040
 7695TIP3   OH223048   2.491   5.263   3.952
 7695TIP3    H123049   2.435   5.271   3.875
 7695TIP3    H223050   2.448   5.316   4.019
 7696TIP3   OH223051   2.299   5.082   3.805
 7696TIP3    H123052   2.262   5.028   3.735
 7696TIP3    H223053   2.250   5.056   3.883
 7697TIP3   OH223054   2.152   5.105   0.770
 7697TIP3    H123055   2.242   5.080   0.793
 7697TIP3    H223056   2.105   5.022   0.761
 7698TIP3   OH223057   3.521   3.836   0.853
 7698TIP3    H123058   3.529   3.744   0.828
 7698TIP3    H223059   3.435   3.841   0.895
 7699TIP3   OH223060   4.325   0.997   4.303
 7699TIP3    H123061   4.341   0.982   4.210
 7699TIP3    H223062   4.245   0.947   4.322
 7700TIP3   OH223063   4.709   1.309   1.314
 7700TIP3    H123064   4.618   1.334   1.329
 7700TIP3    H223065   4.760   1.360   1.377
 7701TIP3   OH223066   4.589   0.017   5.711
 7701TIP3    H123067   4.627   0.102   5.735
 7701TIP3    H223068   4.507   0.013   5.761
 7702TIP3   OH223069   6.844   2.212   0.149
 7702TIP3    H123070   6.836   2.220   0.054
 7702TIP3    H223071   6.784   2.279   0.183
 7703TIP3   OH223072   3.990   4.627   1.000
 7703TIP3    H123073   3.974   4.718   1.024
 7703TIP3    H223074   4.007   4.583   1.083
 7704TIP3   OH223075   3.859   5.576   0.798
 7704TIP3    H123076   3.896   5.488   0.802
 7704TIP3    H223077   3.905   5.624   0.867
 7705TIP3   OH223078   4.159   4.144   2.944
 7705TIP3    H123079   4.092   4.094   2.991
 7705TIP3    H223080   4.127   4.234   2.946
 7706TIP3   OH223081   2.076   2.204   0.328
 7706TIP3    H123082   2.010   2.141   0.299
 7706TIP3    H223083   2.157   2.153   0.333
 7707TIP3   OH223084   6.024   3.430   2.092
 7707TIP3    H123085   6.110   3.413   2.054
 7707TIP3    H223086   6.007   3.522   2.072
 7708TIP3   OH223087   0.318   2.998   4.633
 7708TIP3    H123088   0.399   2.973   4.590
 7708TIP3    H223089   0.341   3.072   4.689
 7709TIP3   OH223090   1.096   1.734   0.844
 7709TIP3    H123091   1.136   1.647   0.851
 7709TIP3    H223092   1.167   1.795   0.862
 7710TIP3   OH223093   1.592   0.038   1.587
 7710TIP3    H123094   1.669   0.049   1.642
 7710TIP3    H223095   1.551   0.124   1.585
 7711TIP3   OH223096   0.682   1.820   0.411
 7711TIP3    H123097   0.668   1.838   0.504
 7711TIP3    H223098   0.753   1.756   0.409
 7712TIP3   OH223099   3.458   0.804   0.086
 7712TIP3    H123100   3.412   0.831   0.007
 7712TIP3    H223101   3.475   0.710   0.073
 7713TIP3   OH223102   1.056   0.533   5.702
 7713TIP3    H123103   1.076   0.447   5.738
 7713TIP3    H223104   1.085   0.594   5.769
 7714TIP3   OH223105   0.654   4.837   1.869
 7714TIP3    H123106   0.664   4.890   1.948
 7714TIP3    H223107   0.743   4.813   1.844
 7715TIP3   OH223108   1.163   6.055   2.356
 7715TIP3    H123109   1.153   6.035   2.449
 7715TIP3    H223110   1.175   6.149   2.352
 7716TIP3   OH223111   0.497   3.580   4.850
 7716TIP3    H123112   0.527   3.568   4.940
 7716TIP3    H223113   0.470   3.493   4.822
 7717TIP3   OH223114   3.446   1.901   2.494
 7717TIP3    H123115   3.535   1.935   2.507
 7717TIP3    H223116   3.455   1.806   2.506
 7718TIP3   OH223117   3.728   2.191   4.279
 7718TIP3    H123118   3.752   2.213   4.369
 7718TIP3    H223119   3.749   2.098   4.271
 7719TIP3   OH223120   5.338   0.481   4.393
 7719TIP3    H123121   5.325   0.492   4.299
 7719TIP3    H223122   5.364   0.568   4.423
 7720TIP3   OH223123   4.803   5.272   3.073
 7720TIP3    H123124   4.894   5.256   3.049
 7720TIP3    H223125   4.783   5.359   3.039
 7721TIP3   OH223126   1.350   4.174   2.986
 7721TIP3    H123127   1.277   4.115   3.008
 7721TIP3    H223128   1.338   4.249   3.044
 7722TIP3   OH223129   3.370   3.617   4.324
 7722TIP3    H123130   3.367   3.703   4.283
 7722TIP3    H223131   3.395   3.557   4.254
 7723TIP3   OH223132   5.932   0.751   0.200
 7723TIP3    H123133   5.971   0.838   0.194
 7723TIP3    H223134   5.993   0.693   0.154
 7724TIP3   OH223135   6.319   6.275   0.318
 7724TIP3    H123136   6.231   6.254   0.285
 7724TIP3    H223137   6.378   6.230   0.259
 7725TIP3   OH223138   1.110   2.760   2.796
 7725TIP3    H123139   1.088   2.758   2.703
 7725TIP3    H223140   1.066   2.838   2.829
 7726TIP3   OH223141   1.970   2.781   1.516
 7726TIP3    H123142   2.046   2.792   1.460
 7726TIP3    H223143   1.895   2.788   1.457
 7727TIP3   OH223144   3.712   1.948   5.744
 7727TIP3    H123145   3.642   1.995   5.791
 7727TIP3    H223146   3.760   1.903   5.813
 7728TIP3   OH223147   0.195   4.024   4.109
 7728TIP3    H123148   0.286   4.000   4.098
 7728TIP3    H223149   0.147   3.965   4.051
 7729TIP3   OH223150   5.979   2.092   2.727
 7729TIP3    H123151   6.015   2.060   2.644
 7729TIP3    H223152   5.904   2.034   2.744
 7730TIP3   OH223153   4.610   0.960   0.956
 7730TIP3    H123154   4.547   0.888   0.960
 7730TIP3    H223155   4.694   0.918   0.937
 7731TIP3   OH223156   1.376   1.444   1.816
 7731TIP3    H123157   1.324   1.485   1.885
 7731TIP3    H223158   1.374   1.507   1.744
 7732TIP3   OH223159   4.086   0.961   5.742
 7732TIP3    H123160   4.141   0.938   5.817
 7732TIP3    H223161   3.999   0.928   5.766
 7733TIP3   OH223162   3.917   2.878   3.561
 7733TIP3    H123163   3.869   2.942   3.614
 7733TIP3    H223164   3.860   2.859   3.487
 7734TIP3   OH223165   6.562   6.620   1.931
 7734TIP3    H123166   6.622   6.687   1.964
 7734TIP3    H223167   6.557   6.636   1.837
 7735TIP3   OH223168   0.464   2.688   5.808
 7735TIP3    H123169   0.499   2.622   5.749
 7735TIP3    H223170   0.536   2.707   5.868
 7736TIP3   OH223171   3.173   2.761   0.009
 7736TIP3    H123172   3.080   2.782   0.001
 7736TIP3    H223173   3.199   2.796   0.094
 7737TIP3   OH223174   2.426   6.138   5.685
 7737TIP3    H123175   2.486   6.199   5.729
 7737TIP3    H223176   2.359   6.194   5.646
 7738TIP3   OH223177   0.781   2.119   4.931
 7738TIP3    H123178   0.690   2.141   4.951
 7738TIP3    H223179   0.780   2.096   4.838
 7739TIP3   OH223180   4.925   1.879   4.302
 7739TIP3    H123181   5.002   1.875   4.246
 7739TIP3    H223182   4.958   1.906   4.387
 7740TIP3   OH223183   0.494   5.609   0.377
 7740TIP3    H123184   0.417   5.667   0.384
 7740TIP3    H223185   0.493   5.579   0.286
 7741TIP3   OH223186   5.260   6.506   4.674
 7741TIP3    H123187   5.306   6.558   4.608
 7741TIP3    H223188   5.311   6.425   4.680
 7742TIP3   OH223189   2.145   4.646   2.662
 7742TIP3    H123190   2.194   4.666   2.582
 7742TIP3    H223191   2.085   4.577   2.637
 7743TIP3   OH223192   6.116   5.397   4.395
 7743TIP3    H123193   6.136   5.349   4.314
 7743TIP3    H223194   6.201   5.432   4.423
 7744TIP3   OH223195   2.322   6.809   2.855
 7744TIP3    H123196   2.263   6.737   2.834
 7744TIP3    H223197   2.300   6.833   2.945
 7745TIP3   OH223198   2.927   3.613   5.709
 7745TIP3    H123199   2.923   3.599   5.804
 7745TIP3    H223200   2.865   3.685   5.693
 7746TIP3   OH223201   4.054   3.711   3.635
 7746TIP3    H123202   3.970   3.751   3.615
 7746TIP3    H223203   4.095   3.771   3.697
 7747TIP3   OH223204   6.580   6.263   4.452
 7747TIP3    H123205   6.667   6.223   4.453
 7747TIP3    H223206   6.528   6.209   4.512
 7748TIP3   OH223207   0.211   2.248   4.447
 7748TIP3    H123208   0.263   2.294   4.381
 7748TIP3    H223209   0.189   2.165   4.405
 7749TIP3   OH223210   1.655   4.241   0.276
 7749TIP3    H123211   1.612   4.165   0.237
 7749TIP3    H223212   1.639   4.311   0.213
 7750TIP3   OH223213   0.913   2.020   2.141
 7750TIP3    H123214   0.974   1.964   2.094
 7750TIP3    H223215   0.860   2.062   2.073
 7751TIP3   OH223216   3.001   3.041   1.864
 7751TIP3    H123217   2.910   3.069   1.855
 7751TIP3    H223218   2.997   2.966   1.924
 7752TIP3   OH223219   2.396   2.486   0.664
 7752TIP3    H123220   2.328   2.522   0.606
 7752TIP3    H223221   2.476   2.491   0.612
 7753TIP3   OH223222   5.567   4.532   3.883
 7753TIP3    H123223   5.601   4.491   3.803
 7753TIP3    H223224   5.473   4.513   3.881
 7754TIP3   OH223225   3.135   4.745   3.618
 7754TIP3    H123226   3.095   4.827   3.590
 7754TIP3    H223227   3.227   4.767   3.632
 7755TIP3   OH223228   6.107   0.428   0.434
 7755TIP3    H123229   6.161   0.449   0.358
 7755TIP3    H223230   6.017   0.431   0.400
 7756TIP3   OH223231   5.886   1.627   0.580
 7756TIP3    H123232   5.830   1.550   0.571
 7756TIP3    H223233   5.968   1.593   0.614
 7757TIP3   OH223234   5.952   3.571   1.484
 7757TIP3    H123235   5.960   3.609   1.571
 7757TIP3    H223236   6.031   3.518   1.472
 7758TIP3   OH223237   6.567   1.624   0.449
 7758TIP3    H123238   6.630   1.555   0.428
 7758TIP3    H223239   6.482   1.581   0.441
 7759TIP3   OH223240   3.333   0.607   1.554
 7759TIP3    H123241   3.338   0.684   1.611
 7759TIP3    H223242   3.356   0.534   1.612
 7760TIP3   OH223243   4.799   1.933   2.346
 7760TIP3    H123244   4.740   1.959   2.275
 7760TIP3    H223245   4.742   1.915   2.420
 7761TIP3   OH223246   4.093   3.288   2.165
 7761TIP3    H123247   4.092   3.344   2.243
 7761TIP3    H223248   4.089   3.350   2.092
 7762TIP3   OH223249   2.144   0.014   5.013
 7762TIP3    H123250   2.225   0.062   4.999
 7762TIP3    H223251   2.099   0.062   5.082
 7763TIP3   OH223252   2.776   5.083   2.915
 7763TIP3    H123253   2.850   5.137   2.888
 7763TIP3    H223254   2.753   5.032   2.837
 7764TIP3   OH223255   3.659   4.357   2.519
 7764TIP3    H123256   3.693   4.433   2.566
 7764TIP3    H223257   3.575   4.338   2.561
 7765TIP3   OH223258   0.303   2.735   2.470
 7765TIP3    H123259   0.292   2.735   2.565
 7765TIP3    H223260   0.396   2.715   2.457
 7766TIP3   OH223261   5.314   5.945   5.267
 7766TIP3    H123262   5.371   5.869   5.282
 7766TIP3    H223263   5.235   5.926   5.318
 7767TIP3   OH223264   3.949   1.575   1.211
 7767TIP3    H123265   3.987   1.651   1.255
 7767TIP3    H223266   4.001   1.564   1.132
 7768TIP3   OH223267   6.857   2.844   5.416
 7768TIP3    H123268   6.904   2.764   5.440
 7768TIP3    H223269   6.886   2.909   5.479
 7769TIP3   OH223270   0.325   1.866   1.973
 7769TIP3    H123271   0.276   1.785   1.959
 7769TIP3    H223272   0.342   1.868   2.067
 7770TIP3   OH223273   1.413   4.376   1.912
 7770TIP3    H123274   1.375   4.418   1.835
 7770TIP3    H223275   1.440   4.289   1.882
 7771TIP3   OH223276   0.850   3.289   1.577
 7771TIP3    H123277   0.896   3.333   1.506
 7771TIP3    H223278   0.879   3.198   1.574
 7772TIP3   OH223279   1.451   5.389   1.251
 7772TIP3    H123280   1.412   5.464   1.296
 7772TIP3    H223281   1.499   5.342   1.321
 7773TIP3   OH223282   2.483   6.705   4.775
 7773TIP3    H123283   2.576   6.689   4.761
 7773TIP3    H223284   2.469   6.793   4.740
 7774TIP3   OH223285   6.000   6.291   4.419
 7774TIP3    H123286   6.046   6.366   4.456
 7774TIP3    H223287   6.064   6.220   4.423
 7775TIP3   OH223288   6.698   1.105   5.304
 7775TIP3    H123289   6.744   1.101   5.388
 7775TIP3    H223290   6.756   1.158   5.249
 7776TIP3   OH223291   4.960   3.627   5.811
 7776TIP3    H123292   4.960   3.582   5.896
 7776TIP3    H223293   4.982   3.718   5.832
 7777TIP3   OH223294   2.220   1.689   3.611
 7777TIP3    H123295   2.170   1.607   3.619
 7777TIP3    H223296   2.166   1.754   3.656
 7778TIP3   OH223297   3.059   6.231   2.167
 7778TIP3    H123298   3.118   6.303   2.147
 7778TIP3    H223299   3.106   6.180   2.234
 7779TIP3   OH223300   3.319   3.088   3.496
 7779TIP3    H123301   3.361   3.072   3.581
 7779TIP3    H223302   3.357   3.021   3.438
 7780TIP3   OH223303   1.339   5.111   2.810
 7780TIP3    H123304   1.408   5.053   2.843
 7780TIP3    H223305   1.362   5.125   2.718
 7781TIP3   OH223306   0.664   6.399   4.698
 7781TIP3    H123307   0.660   6.344   4.776
 7781TIP3    H223308   0.757   6.400   4.674
 7782TIP3   OH223309   1.625   5.365   4.535
 7782TIP3    H123310   1.570   5.360   4.457
 7782TIP3    H223311   1.714   5.361   4.501
 7783TIP3   OH223312   5.649   0.447   2.551
 7783TIP3    H123313   5.634   0.402   2.467
 7783TIP3    H223314   5.633   0.379   2.617
 7784TIP3   OH223315   5.694   0.822   0.140
 7784TIP3    H123316   5.736   0.875   0.072
 7784TIP3    H223317   5.767   0.792   0.195
 7785TIP3   OH223318   2.303   6.662   5.281
 7785TIP3    H123319   2.327   6.625   5.196
 7785TIP3    H223320   2.385   6.699   5.316
 7786TIP3   OH223321   2.319   4.130   3.332
 7786TIP3    H123322   2.302   4.214   3.376
 7786TIP3    H223323   2.261   4.131   3.256
 7787TIP3   OH223324   5.239   6.614   3.251
 7787TIP3    H123325   5.223   6.541   3.193
 7787TIP3    H223326   5.282   6.575   3.328
 7788TIP3   OH223327   3.149   4.949   2.544
 7788TIP3    H123328   3.159   5.020   2.480
 7788TIP3    H223329   3.117   4.875   2.492
 7789TIP3   OH223330   5.250   3.034   1.569
 7789TIP3    H123331   5.274   3.061   1.657
 7789TIP3    H223332   5.232   2.941   1.575
 7790TIP3   OH223333   3.330   5.089   1.107
 7790TIP3    H123334   3.378   5.017   1.148
 7790TIP3    H223335   3.396   5.137   1.058
 7791TIP3   OH223336   0.501   3.129   4.333
 7791TIP3    H123337   0.527   3.221   4.328
 7791TIP3    H223338   0.513   3.096   4.245
 7792TIP3   OH223339   2.825   5.445   3.528
 7792TIP3    H123340   2.756   5.400   3.479
 7792TIP3    H223341   2.779   5.485   3.603
 7793TIP3   OH223342   1.745   5.266   0.408
 7793TIP3    H123343   1.750   5.190   0.465
 7793TIP3    H223344   1.819   5.321   0.436
 7794TIP3   OH223345   0.295   6.109   4.755
 7794TIP3    H123346   0.384   6.089   4.785
 7794TIP3    H223347   0.300   6.098   4.660
 7795TIP3   OH223348   5.588   3.804   0.730
 7795TIP3    H123349   5.514   3.860   0.753
 7795TIP3    H223350   5.587   3.735   0.797
 7796TIP3   OH223351  -0.012   0.508   0.826
 7796TIP3    H123352   0.079   0.483   0.813
 7796TIP3    H223353  -0.062   0.428   0.811
 7797TIP3   OH223354   5.461   2.132   0.223
 7797TIP3    H123355   5.490   2.152   0.312
 7797TIP3    H223356   5.542   2.127   0.172
 7798TIP3   OH223357   4.888   1.262   0.697
 7798TIP3    H123358   4.816   1.205   0.670
 7798TIP3    H223359   4.949   1.203   0.743
 7799TIP3   OH223360   5.024   1.944   3.878
 7799TIP3    H123361   4.928   1.950   3.875
 7799TIP3    H223362   5.043   1.898   3.960
 7800TIP3   OH223363   5.331   3.041   4.206
 7800TIP3    H123364   5.239   3.065   4.215
 7800TIP3    H223365   5.368   3.109   4.149
 7801TIP3   OH223366   0.591   2.872   0.427
 7801TIP3    H123367   0.611   2.812   0.499
 7801TIP3    H223368   0.672   2.922   0.415
 7802TIP3   OH223369   6.325   6.407   5.138
 7802TIP3    H123370   6.249   6.420   5.196
 7802TIP3    H223371   6.292   6.353   5.067
 7803TIP3   OH223372   2.533   3.576   5.336
 7803TIP3    H123373   2.530   3.566   5.431
 7803TIP3    H223374   2.611   3.629   5.319
 7804TIP3   OH223375   1.847   6.389   1.188
 7804TIP3    H123376   1.875   6.451   1.254
 7804TIP3    H223377   1.803   6.319   1.237
 7805TIP3   OH223378   5.996   5.013   2.147
 7805TIP3    H123379   5.950   4.975   2.222
 7805TIP3    H223380   6.059   5.074   2.186
 7806TIP3   OH223381   1.614   4.922   1.986
 7806TIP3    H123382   1.554   4.974   2.040
 7806TIP3    H223383   1.621   4.970   1.904
 7807TIP3   OH223384   4.047   3.239   4.784
 7807TIP3    H123385   4.060   3.161   4.838
 7807TIP3    H223386   4.135   3.274   4.772
 7808TIP3   OH223387   1.540   0.643   0.379
 7808TIP3    H123388   1.603   0.575   0.402
 7808TIP3    H223389   1.481   0.647   0.454
 7809TIP3   OH223390   1.771   4.090   1.811
 7809TIP3    H123391   1.715   4.155   1.854
 7809TIP3    H223392   1.821   4.050   1.882
 7810TIP3   OH223393   2.234   0.945   0.772
 7810TIP3    H123394   2.259   0.855   0.796
 7810TIP3    H223395   2.243   0.947   0.677
 7811TIP3   OH223396   5.302   4.203   4.349
 7811TIP3    H123397   5.292   4.168   4.438
 7811TIP3    H223398   5.377   4.262   4.355
 7812TIP3   OH223399   3.930   0.165   1.564
 7812TIP3    H123400   3.997   0.203   1.507
 7812TIP3    H223401   3.931   0.072   1.542
 7813TIP3   OH223402   5.162   2.489   2.535
 7813TIP3    H123403   5.213   2.422   2.579
 7813TIP3    H223404   5.079   2.492   2.583
 7814TIP3   OH223405   5.548   3.401   2.565
 7814TIP3    H123406   5.578   3.389   2.475
 7814TIP3    H223407   5.534   3.495   2.573
 7815TIP3   OH223408   2.006   1.047   1.937
 7815TIP3    H123409   1.973   1.132   1.909
 7815TIP3    H223410   2.074   1.067   2.001
 7816TIP3   OH223411   1.569   4.520   1.245
 7816TIP3    H123412   1.661   4.506   1.268
 7816TIP3    H223413   1.555   4.614   1.252
 7817TIP3   OH223414   5.660   5.566   2.375
 7817TIP3    H123415   5.630   5.655   2.394
 7817TIP3    H223416   5.724   5.576   2.305
 7818TIP3   OH223417   1.867   1.837   5.870
 7818TIP3    H123418   1.803   1.904   5.848
 7818TIP3    H223419   1.878   1.786   5.790
 7819TIP3   OH223420   1.688   3.574   2.227
 7819TIP3    H123421   1.643   3.501   2.183
 7819TIP3    H223422   1.669   3.650   2.172
 7820TIP3   OH223423   7.168   6.365   3.465
 7820TIP3    H123424   7.220   6.345   3.543
 7820TIP3    H223425   7.169   6.284   3.414
 7821TIP3   OH223426   0.416   4.281   4.180
 7821TIP3    H123427   0.352   4.209   4.181
 7821TIP3    H223428   0.442   4.288   4.088
 7822TIP3   OH223429   7.220   2.451   2.305
 7822TIP3    H123430   7.155   2.422   2.370
 7822TIP3    H223431   7.168   2.489   2.234
 7823TIP3   OH223432   3.142   3.340   4.523
 7823TIP3    H123433   3.077   3.392   4.476
 7823TIP3    H223434   3.199   3.405   4.565
 7824TIP3   OH223435   1.949   0.920   4.036
 7824TIP3    H123436   1.939   0.875   4.119
 7824TIP3    H223437   2.019   0.984   4.051
 7825TIP3   OH223438   0.352   4.896   0.198
 7825TIP3    H123439   0.440   4.874   0.230
 7825TIP3    H223440   0.343   4.990   0.214
 7826TIP3   OH223441   1.958   4.541   5.782
 7826TIP3    H123442   1.863   4.542   5.779
 7826TIP3    H223443   1.984   4.624   5.742
 7827TIP3   OH223444   3.447   1.320   2.133
 7827TIP3    H123445   3.417   1.317   2.224
 7827TIP3    H223446   3.366   1.318   2.081
 7828TIP3   OH223447   2.320   5.508   0.893
 7828TIP3    H123448   2.289   5.588   0.851
 7828TIP3    H223449   2.269   5.502   0.974
 7829TIP3   OH223450   2.455   2.314   3.439
 7829TIP3    H123451   2.466   2.277   3.351
 7829TIP3    H223452   2.536   2.290   3.485
 7830TIP3   OH223453   2.673   5.043   5.521
 7830TIP3    H123454   2.647   5.056   5.612
 7830TIP3    H223455   2.603   4.989   5.483
 7831TIP3   OH223456   6.522   2.576   1.872
 7831TIP3    H123457   6.441   2.541   1.909
 7831TIP3    H223458   6.498   2.662   1.838
 7832TIP3   OH223459   4.980   1.759   3.672
 7832TIP3    H123460   4.884   1.760   3.674
 7832TIP3    H223461   5.006   1.810   3.749
 7833TIP3   OH223462   5.986   3.877   3.176
 7833TIP3    H123463   5.906   3.925   3.199
 7833TIP3    H223464   6.024   3.852   3.260
 7834TIP3   OH223465   5.255   1.836   0.518
 7834TIP3    H123466   5.343   1.828   0.555
 7834TIP3    H223467   5.202   1.868   0.591
 7835TIP3   OH223468   1.289   2.578   3.083
 7835TIP3    H123469   1.296   2.526   3.003
 7835TIP3    H223470   1.377   2.576   3.121
 7836TIP3   OH223471   2.011   0.167   3.090
 7836TIP3    H123472   2.102   0.155   3.064
 7836TIP3    H223473   1.962   0.170   3.008
 7837TIP3   OH223474   0.938   0.369   0.563
 7837TIP3    H123475   0.982   0.339   0.484
 7837TIP3    H223476   0.869   0.427   0.531
 7838TIP3   OH223477   6.334   0.467   4.734
 7838TIP3    H123478   6.310   0.470   4.642
 7838TIP3    H223479   6.264   0.416   4.776
 7839TIP3   OH223480   0.824   6.389   1.056
 7839TIP3    H123481   0.858   6.303   1.031
 7839TIP3    H223482   0.794   6.428   0.974
 7840TIP3   OH223483   1.738   0.531   4.675
 7840TIP3    H123484   1.801   0.556   4.742
 7840TIP3    H223485   1.782   0.463   4.624
 7841TIP3   OH223486   2.997   4.887   1.651
 7841TIP3    H123487   3.078   4.916   1.611
 7841TIP3    H223488   2.968   4.961   1.705
 7842TIP3   OH223489   0.333   2.369   1.799
 7842TIP3    H123490   0.307   2.277   1.798
 7842TIP3    H223491   0.266   2.412   1.853
 7843TIP3   OH223492   3.991   1.056   2.926
 7843TIP3    H123493   4.081   1.088   2.933
 7843TIP3    H223494   3.990   1.006   2.844
 7844TIP3   OH223495   1.348   1.801   1.857
 7844TIP3    H123496   1.312   1.890   1.858
 7844TIP3    H223497   1.272   1.744   1.843
 7845TIP3   OH223498   6.365   5.833   1.406
 7845TIP3    H123499   6.375   5.837   1.501
 7845TIP3    H223500   6.322   5.749   1.389
 7846TIP3   OH223501   2.007   4.861   0.103
 7846TIP3    H123502   1.974   4.815   0.026
 7846TIP3    H223503   2.050   4.939   0.068
 7847TIP3   OH223504   0.376   0.967   4.494
 7847TIP3    H123505   0.299   1.020   4.513
 7847TIP3    H223506   0.393   0.920   4.576
 7848TIP3   OH223507   2.955   5.267   0.498
 7848TIP3    H123508   2.865   5.284   0.526
 7848TIP3    H223509   2.948   5.242   0.406
 7849TIP3   OH223510   6.312   2.854   2.699
 7849TIP3    H123511   6.242   2.916   2.719
 7849TIP3    H223512   6.316   2.852   2.603
 7850TIP3   OH223513   2.453   5.679   5.024
 7850TIP3    H123514   2.433   5.586   5.013
 7850TIP3    H223515   2.370   5.724   5.009
 7851TIP3   OH223516   5.495   6.574   3.084
 7851TIP3    H123517   5.427   6.548   3.023
 7851TIP3    H223518   5.451   6.636   3.143
 7852TIP3   OH223519   0.166   0.149   3.451
 7852TIP3    H123520   0.209   0.209   3.390
 7852TIP3    H223521   0.236   0.095   3.486
 7853TIP3   OH223522   5.477   4.710   3.223
 7853TIP3    H123523   5.565   4.706   3.186
 7853TIP3    H223524   5.487   4.680   3.313
 7854TIP3   OH223525   2.169   2.739   0.697
 7854TIP3    H123526   2.252   2.747   0.650
 7854TIP3    H223527   2.102   2.753   0.630
 7855TIP3   OH223528   5.335   0.327   4.019
 7855TIP3    H123529   5.386   0.301   3.942
 7855TIP3    H223530   5.282   0.401   3.988
 7856TIP3   OH223531   1.065   4.588   3.754
 7856TIP3    H123532   1.014   4.598   3.674
 7856TIP3    H223533   1.141   4.645   3.741
 7857TIP3   OH223534   1.826   3.418   5.527
 7857TIP3    H123535   1.744   3.397   5.570
 7857TIP3    H223536   1.852   3.502   5.564
 7858TIP3   OH223537   3.499   3.889   4.488
 7858TIP3    H123538   3.533   3.978   4.477
 7858TIP3    H223539   3.443   3.875   4.411
 7859TIP3   OH223540   1.958   6.736   5.853
 7859TIP3    H123541   1.964   6.710   5.945
 7859TIP3    H223542   1.915   6.662   5.810
 7860TIP3   OH223543   2.919   3.263   1.076
 7860TIP3    H123544   2.899   3.218   1.158
 7860TIP3    H223545   2.983   3.206   1.032
 7861TIP3   OH223546   2.794   3.222   0.120
 7861TIP3    H123547   2.751   3.253   0.040
 7861TIP3    H223548   2.745   3.144   0.145
 7862TIP3   OH223549   5.077   5.834   0.138
 7862TIP3    H123550   4.981   5.826   0.141
 7862TIP3    H223551   5.109   5.750   0.171
 7863TIP3   OH223552   6.983   3.530   4.442
 7863TIP3    H123553   7.029   3.509   4.523
 7863TIP3    H223554   7.053   3.546   4.378
 7864TIP3   OH223555   2.862   5.147   1.376
 7864TIP3    H123556   2.922   5.209   1.336
 7864TIP3    H223557   2.891   5.141   1.467
 7865TIP3   OH223558   4.720   4.718   2.188
 7865TIP3    H123559   4.704   4.625   2.201
 7865TIP3    H223560   4.764   4.747   2.268
 7866TIP3   OH223561   1.670   4.217   0.596
 7866TIP3    H123562   1.597   4.186   0.543
 7866TIP3    H223563   1.717   4.138   0.622
 7867TIP3   OH223564   5.706   2.592   1.915
 7867TIP3    H123565   5.684   2.508   1.956
 7867TIP3    H223566   5.626   2.617   1.869
 7868TIP3   OH223567   6.495   6.142   5.234
 7868TIP3    H123568   6.461   6.054   5.253
 7868TIP3    H223569   6.428   6.201   5.268
 7869TIP3   OH223570   6.094   3.526   5.359
 7869TIP3    H123571   6.140   3.469   5.421
 7869TIP3    H223572   6.141   3.514   5.276
 7870TIP3   OH223573   0.219   1.181   0.821
 7870TIP3    H123574   0.221   1.099   0.771
 7870TIP3    H223575   0.193   1.248   0.757
 7871TIP3   OH223576   4.915   0.798   1.815
 7871TIP3    H123577   4.944   0.735   1.880
 7871TIP3    H223578   4.908   0.748   1.733
 7872TIP3   OH223579   5.958   4.182   2.828
 7872TIP3    H123580   5.914   4.263   2.803
 7872TIP3    H223581   5.916   4.157   2.910
 7873TIP3   OH223582   3.083   5.591   3.536
 7873TIP3    H123583   3.145   5.519   3.546
 7873TIP3    H223584   3.001   5.549   3.510
 7874TIP3   OH223585   3.349   0.474   5.137
 7874TIP3    H123586   3.367   0.530   5.212
 7874TIP3    H223587   3.297   0.529   5.078
 7875TIP3   OH223588   5.421   2.462   1.381
 7875TIP3    H123589   5.425   2.443   1.287
 7875TIP3    H223590   5.332   2.492   1.396
 7876TIP3   OH223591   0.685   1.615   2.715
 7876TIP3    H123592   0.605   1.576   2.678
 7876TIP3    H223593   0.749   1.543   2.714
 7877TIP3   OH223594   2.818   1.630   3.459
 7877TIP3    H123595   2.873   1.683   3.516
 7877TIP3    H223596   2.817   1.677   3.376
 7878TIP3   OH223597   4.323   4.782   0.886
 7878TIP3    H123598   4.273   4.704   0.861
 7878TIP3    H223599   4.360   4.814   0.804
 7879TIP3   OH223600   0.317   5.935   0.555
 7879TIP3    H123601   0.385   5.937   0.622
 7879TIP3    H223602   0.317   6.024   0.519
 7880TIP3   OH223603   1.574   1.646   4.902
 7880TIP3    H123604   1.669   1.647   4.906
 7880TIP3    H223605   1.554   1.644   4.808
 7881TIP3   OH223606   0.787   1.595   2.024
 7881TIP3    H123607   0.760   1.640   1.943
 7881TIP3    H223608   0.766   1.657   2.094
 7882TIP3   OH223609   6.490   2.563   4.918
 7882TIP3    H123610   6.480   2.656   4.934
 7882TIP3    H223611   6.404   2.533   4.888
 7883TIP3   OH223612   2.784   5.447   5.564
 7883TIP3    H123613   2.879   5.438   5.558
 7883TIP3    H223614   2.772   5.527   5.616
 7884TIP3   OH223615   3.835   2.271   3.923
 7884TIP3    H123616   3.761   2.293   3.980
 7884TIP3    H223617   3.912   2.281   3.979
 7885TIP3   OH223618   4.674   2.290   1.389
 7885TIP3    H123619   4.664   2.248   1.474
 7885TIP3    H223620   4.640   2.226   1.326
 7886TIP3   OH223621   5.749   6.311   1.914
 7886TIP3    H123622   5.688   6.368   1.867
 7886TIP3    H223623   5.699   6.231   1.929
 7887TIP3   OH223624   4.493   4.861   1.470
 7887TIP3    H123625   4.401   4.835   1.478
 7887TIP3    H223626   4.541   4.797   1.521
 7888TIP3   OH223627   3.281   5.665   5.290
 7888TIP3    H123628   3.245   5.713   5.365
 7888TIP3    H223629   3.350   5.723   5.257
 7889TIP3   OH223630   1.738   3.229   2.349
 7889TIP3    H123631   1.675   3.285   2.304
 7889TIP3    H223632   1.738   3.261   2.439
 7890TIP3   OH223633   2.947   3.988   4.426
 7890TIP3    H123634   2.995   4.004   4.508
 7890TIP3    H223635   2.917   3.898   4.434
 7891TIP3   OH223636   3.541   4.093   4.801
 7891TIP3    H123637   3.458   4.137   4.819
 7891TIP3    H223638   3.517   4.018   4.747
 7892TIP3   OH223639   6.094   1.495   2.198
 7892TIP3    H123640   5.999   1.490   2.190
 7892TIP3    H223641   6.112   1.474   2.289
 7893TIP3   OH223642   6.264   4.963   2.454
 7893TIP3    H123643   6.302   5.025   2.517
 7893TIP3    H223644   6.248   5.016   2.376
 7894TIP3   OH223645   4.213   5.215   2.145
 7894TIP3    H123646   4.265   5.162   2.205
 7894TIP3    H223647   4.200   5.158   2.069
 7895TIP3   OH223648   5.414   4.155   3.011
 7895TIP3    H123649   5.448   4.086   3.068
 7895TIP3    H223650   5.325   4.169   3.040
 7896TIP3   OH223651   0.760   2.442   5.643
 7896TIP3    H123652   0.815   2.520   5.644
 7896TIP3    H223653   0.793   2.389   5.715
 7897TIP3   OH223654   3.929   3.458   2.651
 7897TIP3    H123655   3.898   3.472   2.741
 7897TIP3    H223656   3.857   3.411   2.608
 7898TIP3   OH223657   4.848   5.228   3.558
 7898TIP3    H123658   4.929   5.178   3.543
 7898TIP3    H223659   4.847   5.293   3.487
 7899TIP3   OH223660   0.877   4.511   4.682
 7899TIP3    H123661   0.827   4.546   4.608
 7899TIP3    H223662   0.966   4.501   4.648
 7900TIP3   OH223663   5.183   2.690   0.047
 7900TIP3    H123664   5.277   2.702   0.032
 7900TIP3    H223665   5.147   2.779   0.041
 7901TIP3   OH223666   1.018   5.376   1.041
 7901TIP3    H123667   0.992   5.307   1.102
 7901TIP3    H223668   0.937   5.425   1.025
 7902TIP3   OH223669   3.728   1.668   4.985
 7902TIP3    H123670   3.684   1.720   4.918
 7902TIP3    H223671   3.691   1.700   5.067
 7903TIP3   OH223672   0.056   4.731   4.874
 7903TIP3    H123673   0.085   4.758   4.788
 7903TIP3    H223674   0.017   4.644   4.861
 7904TIP3   OH223675   3.152   1.558   1.415
 7904TIP3    H123676   3.187   1.473   1.389
 7904TIP3    H223677   3.167   1.562   1.509
 7905TIP3   OH223678   1.893   0.367   1.926
 7905TIP3    H123679   1.901   0.348   1.833
 7905TIP3    H223680   1.801   0.391   1.938
 7906TIP3   OH223681   6.083   3.140   4.919
 7906TIP3    H123682   6.015   3.199   4.953
 7906TIP3    H223683   6.132   3.194   4.857
 7907TIP3   OH223684   3.977   0.511   2.663
 7907TIP3    H123685   3.902   0.525   2.722
 7907TIP3    H223686   4.053   0.530   2.717
 7908TIP3   OH223687   0.037   4.753   0.772
 7908TIP3    H123688  -0.022   4.705   0.715
 7908TIP3    H223689   0.028   4.844   0.743
 7909TIP3   OH223690   4.217   3.370   5.366
 7909TIP3    H123691   4.125   3.345   5.374
 7909TIP3    H223692   4.264   3.288   5.355
 7910TIP3   OH223693   6.515   0.898   5.631
 7910TIP3    H123694   6.606   0.881   5.657
 7910TIP3    H223695   6.491   0.821   5.579
 7911TIP3   OH223696   4.455   4.513   1.077
 7911TIP3    H123697   4.461   4.433   1.128
 7911TIP3    H223698   4.400   4.489   1.002
 7912TIP3   OH223699   4.473   3.762   2.080
 7912TIP3    H123700   4.547   3.814   2.049
 7912TIP3    H223701   4.480   3.766   2.175
 7913TIP3   OH223702   2.935   1.281   3.795
 7913TIP3    H123703   2.930   1.352   3.860
 7913TIP3    H223704   3.004   1.224   3.829
 7914TIP3   OH223705   7.130   1.422   2.793
 7914TIP3    H123706   7.054   1.367   2.774
 7914TIP3    H223707   7.186   1.414   2.716
 7915TIP3   OH223708   3.323   0.668   5.593
 7915TIP3    H123709   3.292   0.758   5.599
 7915TIP3    H223710   3.353   0.659   5.502
 7916TIP3   OH223711   0.534   1.677   1.893
 7916TIP3    H123712   0.493   1.599   1.930
 7916TIP3    H223713   0.495   1.685   1.806
 7917TIP3   OH223714   0.121   0.294   2.646
 7917TIP3    H123715   0.180   0.311   2.573
 7917TIP3    H223716   0.038   0.333   2.620
 7918TIP3   OH223717   6.548   3.718   5.142
 7918TIP3    H123718   6.498   3.699   5.221
 7918TIP3    H223719   6.508   3.798   5.107
 7919TIP3   OH223720   2.744   0.196   0.946
 7919TIP3    H123721   2.700   0.113   0.928
 7919TIP3    H223722   2.697   0.231   1.022
 7920TIP3   OH223723   2.403   4.325   0.112
 7920TIP3    H123724   2.461   4.347   0.185
 7920TIP3    H223725   2.455   4.346   0.034
 7921TIP3   OH223726   6.431   2.542   0.355
 7921TIP3    H123727   6.430   2.631   0.320
 7921TIP3    H223728   6.345   2.532   0.396
 7922TIP3   OH223729   2.906   5.218   4.790
 7922TIP3    H123730   2.939   5.291   4.842
 7922TIP3    H223731   2.885   5.150   4.854
 7923TIP3   OH223732   7.000   0.805   1.658
 7923TIP3    H123733   7.036   0.893   1.658
 7923TIP3    H223734   6.910   0.816   1.627
 7924TIP3   OH223735   3.349   0.377   3.221
 7924TIP3    H123736   3.426   0.432   3.204
 7924TIP3    H223737   3.300   0.425   3.288
 7925TIP3   OH223738   5.987   1.845   3.766
 7925TIP3    H123739   6.017   1.858   3.856
 7925TIP3    H223740   5.905   1.893   3.761
 7926TIP3   OH223741   0.958   4.108   1.131
 7926TIP3    H123742   0.941   4.199   1.108
 7926TIP3    H223743   0.953   4.061   1.048
 7927TIP3   OH223744   5.699   4.646   5.057
 7927TIP3    H123745   5.644   4.671   4.982
 7927TIP3    H223746   5.643   4.658   5.133
 7928TIP3   OH223747   6.631   0.846   4.844
 7928TIP3    H123748   6.653   0.753   4.834
 7928TIP3    H223749   6.640   0.882   4.756
 7929TIP3   OH223750   0.622   6.354   0.392
 7929TIP3    H123751   0.558   6.382   0.325
 7929TIP3    H223752   0.620   6.424   0.457
 7930TIP3   OH223753   4.276   4.285   1.650
 7930TIP3    H123754   4.288   4.192   1.669
 7930TIP3    H223755   4.358   4.311   1.606
 7931TIP3   OH223756   5.900   3.564   3.620
 7931TIP3    H123757   5.952   3.625   3.568
 7931TIP3    H223758   5.944   3.562   3.705
 7932TIP3   OH223759   7.088   0.513   2.903
 7932TIP3    H123760   7.066   0.443   2.841
 7932TIP3    H223761   7.052   0.592   2.863
 7933TIP3   OH223762   6.241   0.383   0.871
 7933TIP3    H123763   6.242   0.384   0.967
 7933TIP3    H223764   6.270   0.294   0.848
 7934TIP3   OH223765   3.598   6.205   3.420
 7934TIP3    H123766   3.515   6.193   3.375
 7934TIP3    H223767   3.617   6.119   3.458
 7935TIP3   OH223768   5.971   6.276   5.353
 7935TIP3    H123769   5.934   6.239   5.433
 7935TIP3    H223770   5.928   6.361   5.343
 7936TIP3   OH223771   3.069   0.639   5.134
 7936TIP3    H123772   3.048   0.661   5.225
 7936TIP3    H223773   3.013   0.564   5.114
 7937TIP3   OH223774   4.239   2.502   1.163
 7937TIP3    H123775   4.246   2.409   1.143
 7937TIP3    H223776   4.306   2.517   1.230
 7938TIP3   OH223777   3.249   5.318   2.243
 7938TIP3    H123778   3.326   5.368   2.215
 7938TIP3    H223779   3.187   5.329   2.171
 7939TIP3   OH223780   0.026   2.345   0.973
 7939TIP3    H123781   0.022   2.389   0.888
 7939TIP3    H223782   0.046   2.254   0.953
 7940TIP3   OH223783   7.111   1.175   0.564
 7940TIP3    H123784   7.042   1.117   0.596
 7940TIP3    H223785   7.191   1.123   0.569
 7941TIP3   OH223786   3.952   3.519   0.671
 7941TIP3    H123787   3.901   3.446   0.706
 7941TIP3    H223788   3.926   3.595   0.723
 7942TIP3   OH223789   2.435   4.881   1.395
 7942TIP3    H123790   2.437   4.971   1.428
 7942TIP3    H223791   2.508   4.838   1.439
 7943TIP3   OH223792   1.522   1.409   5.523
 7943TIP3    H123793   1.475   1.385   5.603
 7943TIP3    H223794   1.541   1.502   5.535
 7944TIP3   OH223795   6.378   5.490   4.386
 7944TIP3    H123796   6.389   5.583   4.402
 7944TIP3    H223797   6.421   5.448   4.461
 7945TIP3   OH223798   3.785   4.084   0.163
 7945TIP3    H123799   3.771   4.138   0.241
 7945TIP3    H223800   3.863   4.032   0.183
 7946TIP3   OH223801   5.841   3.614   3.949
 7946TIP3    H123802   5.825   3.640   4.040
 7946TIP3    H223803   5.837   3.519   3.951
 7947TIP3   OH223804   7.096   1.062   3.442
 7947TIP3    H123805   7.062   1.017   3.519
 7947TIP3    H223806   7.052   1.147   3.442
 7948TIP3   OH223807   0.173   2.898   2.826
 7948TIP3    H123808   0.169   2.944   2.910
 7948TIP3    H223809   0.083   2.900   2.794
 7949TIP3   OH223810   7.061   1.529   4.671
 7949TIP3    H123811   7.003   1.461   4.704
 7949TIP3    H223812   7.054   1.599   4.735
 7950TIP3   OH223813   6.718   4.355   1.474
 7950TIP3    H123814   6.651   4.326   1.536
 7950TIP3    H223815   6.745   4.441   1.508
 7951TIP3   OH223816   0.101   6.747   3.649
 7951TIP3    H123817   0.081   6.835   3.682
 7951TIP3    H223818   0.022   6.696   3.668
 7952TIP3   OH223819   0.561   4.730   0.865
 7952TIP3    H123820   0.480   4.781   0.862
 7952TIP3    H223821   0.534   4.645   0.899
 7953TIP3   OH223822   5.679   5.295   3.654
 7953TIP3    H123823   5.744   5.363   3.640
 7953TIP3    H223824   5.721   5.214   3.624
 7954TIP3   OH223825   6.684   5.679   1.059
 7954TIP3    H123826   6.686   5.767   1.098
 7954TIP3    H223827   6.662   5.621   1.131
 7955TIP3   OH223828   6.362   0.651   1.063
 7955TIP3    H123829   6.317   0.683   1.141
 7955TIP3    H223830   6.410   0.573   1.092
 7956TIP3   OH223831   2.515   3.853   0.155
 7956TIP3    H123832   2.465   3.886   0.230
 7956TIP3    H223833   2.592   3.810   0.193
 7957TIP3   OH223834   2.843   5.729   1.785
 7957TIP3    H123835   2.900   5.662   1.823
 7957TIP3    H223836   2.754   5.697   1.802
 7958TIP3   OH223837   5.092   2.759   2.670
 7958TIP3    H123838   5.030   2.759   2.597
 7958TIP3    H223839   5.169   2.804   2.636
 7959TIP3   OH223840   2.858   3.962   1.820
 7959TIP3    H123841   2.816   4.021   1.756
 7959TIP3    H223842   2.883   4.019   1.892
 7960TIP3   OH223843   5.407   6.049   2.871
 7960TIP3    H123844   5.485   6.105   2.872
 7960TIP3    H223845   5.422   5.989   2.798
 7961TIP3   OH223846   4.560   0.568   4.656
 7961TIP3    H123847   4.474   0.609   4.649
 7961TIP3    H223848   4.550   0.502   4.724
 7962TIP3   OH223849   3.084   2.727   0.942
 7962TIP3    H123850   3.137   2.683   1.009
 7962TIP3    H223851   3.016   2.664   0.920
 7963TIP3   OH223852   3.699   2.609   0.863
 7963TIP3    H123853   3.722   2.537   0.922
 7963TIP3    H223854   3.745   2.685   0.899
 7964TIP3   OH223855   6.588   1.008   4.566
 7964TIP3    H123856   6.493   1.017   4.576
 7964TIP3    H223857   6.602   0.915   4.552
 7965TIP3   OH223858   6.856   1.447   1.798
 7965TIP3    H123859   6.763   1.464   1.782
 7965TIP3    H223860   6.881   1.513   1.863
 7966TIP3   OH223861   7.022   5.940   4.535
 7966TIP3    H123862   6.965   5.870   4.567
 7966TIP3    H223863   7.099   5.935   4.591
 7967TIP3   OH223864   0.458   3.987   4.050
 7967TIP3    H123865   0.466   3.976   3.955
 7967TIP3    H223866   0.545   4.014   4.079
 7968TIP3   OH223867   1.055   1.673   2.859
 7968TIP3    H123868   1.108   1.723   2.920
 7968TIP3    H223869   1.119   1.631   2.800
 7969TIP3   OH223870   3.118   3.268   3.495
 7969TIP3    H123871   3.185   3.203   3.475
 7969TIP3    H223872   3.129   3.285   3.589
 7970TIP3   OH223873   4.536   2.688   1.558
 7970TIP3    H123874   4.544   2.632   1.635
 7970TIP3    H223875   4.622   2.730   1.549
 7971TIP3   OH223876   3.298   0.204   5.175
 7971TIP3    H123877   3.341   0.278   5.132
 7971TIP3    H223878   3.321   0.213   5.267
 7972TIP3   OH223879   6.549   5.368   4.579
 7972TIP3    H123880   6.594   5.293   4.540
 7972TIP3    H223881   6.619   5.419   4.619
 7973TIP3   OH223882   2.179   3.127   4.773
 7973TIP3    H123883   2.138   3.161   4.694
 7973TIP3    H223884   2.158   3.034   4.774
 7974TIP3   OH223885   4.530   0.302   2.931
 7974TIP3    H123886   4.565   0.387   2.955
 7974TIP3    H223887   4.534   0.250   3.012
 7975TIP3   OH223888   3.806   4.203   3.258
 7975TIP3    H123889   3.751   4.146   3.311
 7975TIP3    H223890   3.853   4.257   3.321
 7976TIP3   OH223891   6.813   1.289   1.574
 7976TIP3    H123892   6.806   1.333   1.659
 7976TIP3    H223893   6.723   1.265   1.552
 7977TIP3   OH223894   5.660   2.503   5.097
 7977TIP3    H123895   5.734   2.475   5.044
 7977TIP3    H223896   5.623   2.577   5.049
 7978TIP3   OH223897   5.382   1.591   2.380
 7978TIP3    H123898   5.438   1.664   2.352
 7978TIP3    H223899   5.343   1.559   2.298
 7979TIP3   OH223900   2.550   6.067   3.698
 7979TIP3    H123901   2.563   6.157   3.729
 7979TIP3    H223902   2.532   6.077   3.604
 7980TIP3   OH223903   1.327   1.309   0.268
 7980TIP3    H123904   1.364   1.283   0.184
 7980TIP3    H223905   1.314   1.227   0.315
 7981TIP3   OH223906   4.753   2.730   0.317
 7981TIP3    H123907   4.665   2.768   0.317
 7981TIP3    H223908   4.752   2.666   0.246
 7982TIP3   OH223909   1.527   3.968   4.537
 7982TIP3    H123910   1.585   3.936   4.468
 7982TIP3    H223911   1.481   4.042   4.497
 7983TIP3   OH223912   5.774   1.536   2.167
 7983TIP3    H123913   5.726   1.508   2.245
 7983TIP3    H223914   5.715   1.598   2.124
 7984TIP3   OH223915   0.460   1.187   3.540
 7984TIP3    H123916   0.369   1.159   3.534
 7984TIP3    H223917   0.472   1.213   3.631
 7985TIP3   OH223918   4.382   6.675   0.527
 7985TIP3    H123919   4.406   6.585   0.549
 7985TIP3    H223920   4.452   6.706   0.470
 7986TIP3   OH223921   5.296  -0.002   1.277
 7986TIP3    H123922   5.229   0.045   1.227
 7986TIP3    H223923   5.379   0.028   1.242
 7987TIP3   OH223924   3.914   2.896   5.792
 7987TIP3    H123925   3.947   2.808   5.774
 7987TIP3    H223926   3.981   2.935   5.849
 7988TIP3   OH223927   5.334   2.424   3.460
 7988TIP3    H123928   5.319   2.446   3.552
 7988TIP3    H223929   5.325   2.508   3.414
 7989TIP3   OH223930   2.809   2.817   4.061
 7989TIP3    H123931   2.727   2.791   4.102
 7989TIP3    H223932   2.850   2.876   4.124
 7990TIP3   OH223933   4.264   4.696   1.199
 7990TIP3    H123934   4.330   4.652   1.146
 7990TIP3    H223935   4.258   4.784   1.163
 7991TIP3   OH223936   4.010   1.551   4.769
 7991TIP3    H123937   4.010   1.647   4.772
 7991TIP3    H223938   4.102   1.527   4.785
 7992TIP3   OH223939   4.985   5.232   2.373
 7992TIP3    H123940   4.930   5.295   2.328
 7992TIP3    H223941   4.964   5.148   2.332
 7993TIP3   OH223942   1.036   3.203   3.169
 7993TIP3    H123943   1.073   3.115   3.173
 7993TIP3    H223944   1.069   3.246   3.248
 7994TIP3   OH223945   3.395   0.182   2.593
 7994TIP3    H123946   3.478   0.183   2.547
 7994TIP3    H223947   3.415   0.145   2.679
 7995TIP3   OH223948   6.172   0.859   2.115
 7995TIP3    H123949   6.191   0.927   2.050
 7995TIP3    H223950   6.203   0.778   2.076
 7996TIP3   OH223951   4.082   4.712   3.804
 7996TIP3    H123952   4.172   4.693   3.776
 7996TIP3    H223953   4.092   4.783   3.868
 7997TIP3   OH223954   0.425   2.971   0.251
 7997TIP3    H123955   0.485   2.924   0.309
 7997TIP3    H223956   0.338   2.942   0.278
 7998TIP3   OH223957   5.479   6.236   3.419
 7998TIP3    H123958   5.547   6.178   3.453
 7998TIP3    H223959   5.467   6.208   3.328
 7999TIP3   OH223960   6.810   4.918   5.711
 7999TIP3    H123961   6.854   4.981   5.768
 7999TIP3    H223962   6.881   4.870   5.668
 8000TIP3   OH223963   3.624   3.830   3.858
 8000TIP3    H123964   3.595   3.875   3.937
 8000TIP3    H223965   3.656   3.745   3.889
 8001TIP3   OH223966   0.548   1.291   5.824
 8001TIP3    H123967   0.461   1.280   5.862
 8001TIP3    H223968   0.540   1.366   5.765
 8002TIP3   OH223969   0.419   5.253   4.624
 8002TIP3    H123970   0.426   5.268   4.530
 8002TIP3    H223971   0.495   5.298   4.661
 8003TIP3   OH223972   1.603   2.622   5.605
 8003TIP3    H123973   1.651   2.686   5.658
 8003TIP3    H223974   1.617   2.651   5.515
 8004TIP3   OH223975   4.166   0.298   1.583
 8004TIP3    H123976   4.201   0.376   1.542
 8004TIP3    H223977   4.232   0.230   1.568
 8005TIP3   OH223978   4.516   5.952   5.282
 8005TIP3    H123979   4.440   5.898   5.260
 8005TIP3    H223980   4.586   5.918   5.226
 8006TIP3   OH223981   1.413   2.385   3.333
 8006TIP3    H123982   1.493   2.437   3.335
 8006TIP3    H223983   1.388   2.374   3.425
 8007TIP3   OH223984   6.983   0.083   5.677
 8007TIP3    H123985   7.031   0.048   5.602
 8007TIP3    H223986   7.021   0.038   5.753
 8008TIP3   OH223987   5.853   3.306   3.996
 8008TIP3    H123988   5.934   3.277   4.038
 8008TIP3    H223989   5.794   3.325   4.068
 8009TIP3   OH223990   3.867   3.061   5.228
 8009TIP3    H123991   3.889   2.990   5.289
 8009TIP3    H223992   3.795   3.027   5.176
 8010TIP3   OH223993   5.315   3.597   5.836
 8010TIP3    H123994   5.260   3.673   5.816
 8010TIP3    H223995   5.371   3.626   5.908
 8011TIP3   OH223996   1.378   1.144   1.605
 8011TIP3    H123997   1.327   1.205   1.658
 8011TIP3    H223998   1.429   1.094   1.669
 8012TIP3   OH223999   4.979   1.910   0.953
 8012TIP3    H124000   4.982   1.815   0.962
 8012TIP3    H224001   4.937   1.941   1.033
 8013TIP3   OH224002   0.612   0.787   2.874
 8013TIP3    H124003   0.636   0.862   2.818
 8013TIP3    H224004   0.626   0.818   2.963
 8014TIP3   OH224005   0.333   1.098   1.641
 8014TIP3    H124006   0.380   1.138   1.568
 8014TIP3    H224007   0.401   1.081   1.706
 8015TIP3   OH224008   1.627   5.578   5.840
 8015TIP3    H124009   1.618   5.586   5.935
 8015TIP3    H224010   1.674   5.495   5.828
 8016TIP3   OH224011   3.335   0.226   0.537
 8016TIP3    H124012   3.353   0.307   0.488
 8016TIP3    H224013   3.411   0.170   0.519
 8017TIP3   OH224014   5.243   2.985   0.740
 8017TIP3    H124015   5.297   2.911   0.768
 8017TIP3    H224016   5.246   2.982   0.644
 8018TIP3   OH224017   1.149   5.512   0.407
 8018TIP3    H124018   1.244   5.524   0.411
 8018TIP3    H224019   1.115   5.599   0.389
 8019TIP3   OH224020   5.915   1.738   2.684
 8019TIP3    H124021   6.000   1.709   2.717
 8019TIP3    H224022   5.870   1.771   2.762
 8020TIP3   OH224023   5.514   5.276   2.511
 8020TIP3    H124024   5.489   5.368   2.497
 8020TIP3    H224025   5.575   5.279   2.585
 8021TIP3   OH224026   1.396   5.038   1.339
 8021TIP3    H124027   1.462   5.038   1.269
 8021TIP3    H224028   1.420   5.112   1.395
 8022TIP3   OH224029   0.405   3.171   0.057
 8022TIP3    H124030   0.432   3.114   0.130
 8022TIP3    H224031   0.429   3.122  -0.021
 8023TIP3   OH224032   5.391   1.845   1.893
 8023TIP3    H124033   5.310   1.895   1.883
 8023TIP3    H224034   5.435   1.855   1.808
 8024TIP3   OH224035   5.635   5.809   3.512
 8024TIP3    H124036   5.618   5.719   3.484
 8024TIP3    H224037   5.713   5.804   3.567
 8025TIP3   OH224038   5.964   6.477   1.942
 8025TIP3    H124039   5.877   6.437   1.937
 8025TIP3    H224040   6.025   6.403   1.941
 8026TIP3   OH224041   0.591   5.320   2.845
 8026TIP3    H124042   0.644   5.291   2.919
 8026TIP3    H224043   0.643   5.298   2.768
 8027TIP3   OH224044   1.658   4.675   2.769
 8027TIP3    H124045   1.630   4.592   2.731
 8027TIP3    H224046   1.739   4.654   2.816
 8028TIP3   OH224047   0.555   1.370   4.550
 8028TIP3    H124048   0.549   1.465   4.557
 8028TIP3    H224049   0.479   1.345   4.496
 8029TIP3   OH224050   5.418   2.665   3.966
 8029TIP3    H124051   5.328   2.690   3.943
 8029TIP3    H224052   5.410   2.624   4.052
 8030TIP3   OH224053   1.385   5.081   0.366
 8030TIP3    H124054   1.355   5.144   0.301
 8030TIP3    H224055   1.401   5.133   0.444
 8031TIP3   OH224056   6.457   2.485   5.601
 8031TIP3    H124057   6.372   2.477   5.557
 8031TIP3    H224058   6.480   2.395   5.623
 8032TIP3   OH224059   1.408   2.784   0.670
 8032TIP3    H124060   1.354   2.862   0.657
 8032TIP3    H224061   1.380   2.723   0.601
 8033TIP3   OH224062   6.990   2.946   4.467
 8033TIP3    H124063   6.935   2.905   4.534
 8033TIP3    H224064   7.036   2.872   4.426
 8034TIP3   OH224065   1.184   2.977   3.119
 8034TIP3    H124066   1.214   2.892   3.153
 8034TIP3    H224067   1.098   2.959   3.082
 8035TIP3   OH224068   1.185   2.683   5.820
 8035TIP3    H124069   1.202   2.592   5.842
 8035TIP3    H224070   1.272   2.721   5.805
 8036TIP3   OH224071   1.021   3.500   4.828
 8036TIP3    H124072   1.041   3.535   4.741
 8036TIP3    H224073   1.101   3.515   4.879
 8037TIP3   OH224074   3.493   3.964   3.638
 8037TIP3    H124075   3.437   3.889   3.616
 8037TIP3    H224076   3.535   3.940   3.721
 8038TIP3   OH224077   5.021   1.728   5.125
 8038TIP3    H124078   5.020   1.823   5.110
 8038TIP3    H224079   4.982   1.718   5.212
 8039TIP3   OH224080   4.582   3.536   3.816
 8039TIP3    H124081   4.586   3.459   3.873
 8039TIP3    H224082   4.629   3.604   3.865
 8040TIP3   OH224083   4.430   6.738   0.972
 8040TIP3    H124084   4.495   6.714   1.038
 8040TIP3    H224085   4.460   6.695   0.892
 8041TIP3   OH224086   1.383   4.220   1.170
 8041TIP3    H124087   1.452   4.280   1.141
 8041TIP3    H224088   1.301   4.264   1.146
 8042TIP3   OH224089   5.033   3.154   0.597
 8042TIP3    H124090   5.112   3.156   0.651
 8042TIP3    H224091   4.988   3.237   0.617
 8043TIP3   OH224092   0.071   5.255   3.760
 8043TIP3    H124093  -0.020   5.230   3.749
 8043TIP3    H224094   0.106   5.193   3.824
 8044TIP3   OH224095   4.709   2.468   5.767
 8044TIP3    H124096   4.740   2.420   5.691
 8044TIP3    H224097   4.662   2.403   5.819
 8045TIP3   OH224098   2.862   4.469   2.403
 8045TIP3    H124099   2.779   4.484   2.449
 8045TIP3    H224100   2.898   4.557   2.390
 8046TIP3   OH224101   6.739   2.879   4.607
 8046TIP3    H124102   6.681   2.883   4.531
 8046TIP3    H224103   6.735   2.967   4.645
 8047TIP3   OH224104   1.460   5.896   4.769
 8047TIP3    H124105   1.538   5.856   4.807
 8047TIP3    H224106   1.475   5.990   4.777
 8048TIP3   OH224107   4.052   2.364   4.066
 8048TIP3    H124108   4.102   2.442   4.040
 8048TIP3    H224109   4.109   2.319   4.128
 8049TIP3   OH224110   3.510   3.552   1.856
 8049TIP3    H124111   3.520   3.553   1.951
 8049TIP3    H224112   3.503   3.644   1.832
 8050TIP3   OH224113   3.914   0.809   2.744
 8050TIP3    H124114   3.856   0.820   2.668
 8050TIP3    H224115   3.864   0.755   2.805
 8051TIP3   OH224116   1.410   3.901   2.176
 8051TIP3    H124117   1.341   3.842   2.207
 8051TIP3    H224118   1.364   3.967   2.125
 8052TIP3   OH224119   4.563   0.117   2.393
 8052TIP3    H124120   4.616   0.059   2.337
 8052TIP3    H224121   4.615   0.127   2.473
 8053TIP3   OH224122   2.490   6.483   2.870
 8053TIP3    H124123   2.524   6.560   2.826
 8053TIP3    H224124   2.539   6.410   2.832
 8054TIP3   OH224125   3.757   4.600   3.326
 8054TIP3    H124126   3.797   4.513   3.326
 8054TIP3    H224127   3.802   4.648   3.395
 8055TIP3   OH224128   6.733   2.559   0.355
 8055TIP3    H124129   6.779   2.595   0.279
 8055TIP3    H224130   6.655   2.518   0.318
 8056TIP3   OH224131   0.367   1.785   0.550
 8056TIP3    H124132   0.310   1.847   0.595
 8056TIP3    H224133   0.444   1.778   0.606
 8057TIP3   OH224134   6.736   0.054   2.709
 8057TIP3    H124135   6.775   0.098   2.634
 8057TIP3    H224136   6.796   0.073   2.782
 8058TIP3   OH224137   1.120   2.489   4.630
 8058TIP3    H124138   1.073   2.466   4.710
 8058TIP3    H224139   1.113   2.411   4.575
 8059TIP3   OH224140   0.479   2.080   2.147
 8059TIP3    H124141   0.495   2.171   2.120
 8059TIP3    H224142   0.524   2.027   2.081
 8060TIP3   OH224143   5.479   5.616   3.365
 8060TIP3    H124144   5.487   5.697   3.315
 8060TIP3    H224145   5.458   5.549   3.300
 8061TIP3   OH224146   5.867   6.272   4.828
 8061TIP3    H124147   5.932   6.231   4.770
 8061TIP3    H224148   5.826   6.339   4.773
 8062TIP3   OH224149   0.140   6.731   4.540
 8062TIP3    H124150   0.061   6.736   4.593
 8062TIP3    H224151   0.117   6.778   4.459
 8063TIP3   OH224152   2.555   2.354   2.704
 8063TIP3    H124153   2.468   2.370   2.666
 8063TIP3    H224154   2.578   2.437   2.747
 8064TIP3   OH224155   2.703   2.440   1.121
 8064TIP3    H124156   2.634   2.505   1.126
 8064TIP3    H224157   2.784   2.491   1.117
 8065TIP3   OH224158   5.763   4.482   1.088
 8065TIP3    H124159   5.669   4.481   1.071
 8065TIP3    H224160   5.774   4.429   1.167
 8066TIP3   OH224161   2.831   5.043   1.793
 8066TIP3    H124162   2.754   5.012   1.841
 8066TIP3    H224163   2.834   5.137   1.811
 8067TIP3   OH224164   3.672   5.101   4.781
 8067TIP3    H124165   3.695   5.070   4.693
 8067TIP3    H224166   3.736   5.170   4.799
 8068TIP3   OH224167   0.138   0.745   3.790
 8068TIP3    H124168   0.150   0.771   3.881
 8068TIP3    H224169   0.066   0.682   3.792
 8069TIP3   OH224170   0.964   5.808   5.494
 8069TIP3    H124171   0.902   5.739   5.471
 8069TIP3    H224172   1.023   5.766   5.557
 8070TIP3   OH224173   3.417   6.552   5.409
 8070TIP3    H124174   3.405   6.577   5.318
 8070TIP3    H224175   3.464   6.626   5.449
 8071TIP3   OH224176   0.734   0.610   4.204
 8071TIP3    H124177   0.707   0.526   4.241
 8071TIP3    H224178   0.694   0.611   4.117
 8072TIP3   OH224179   3.783   6.210   4.852
 8072TIP3    H124180   3.835   6.289   4.863
 8072TIP3    H224181   3.791   6.163   4.935
 8073TIP3   OH224182   5.451   5.227   4.149
 8073TIP3    H124183   5.398   5.222   4.229
 8073TIP3    H224184   5.399   5.279   4.089
 8074TIP3   OH224185   3.236   0.583   2.986
 8074TIP3    H124186   3.191   0.667   2.978
 8074TIP3    H224187   3.312   0.601   3.041
 8075TIP3   OH224188   5.893   0.568   3.902
 8075TIP3    H124189   5.894   0.641   3.840
 8075TIP3    H224190   5.817   0.585   3.958
 8076TIP3   OH224191   1.041   5.419   0.642
 8076TIP3    H124192   1.125   5.387   0.676
 8076TIP3    H224193   1.056   5.430   0.548
 8077TIP3   OH224194   6.849   1.702   5.603
 8077TIP3    H124195   6.805   1.697   5.518
 8077TIP3    H224196   6.901   1.782   5.599
 8078TIP3   OH224197   2.292   5.741   0.078
 8078TIP3    H124198   2.352   5.813   0.097
 8078TIP3    H224199   2.349   5.669   0.049
 8079TIP3   OH224200   0.335   5.401   2.128
 8079TIP3    H124201   0.357   5.313   2.157
 8079TIP3    H224202   0.416   5.435   2.090
 8080TIP3   OH224203   0.323   6.024   5.047
 8080TIP3    H124204   0.285   6.111   5.041
 8080TIP3    H224205   0.249   5.964   5.033
 8081TIP3   OH224206   3.232   3.653   1.706
 8081TIP3    H124207   3.310   3.701   1.677
 8081TIP3    H224208   3.176   3.719   1.746
 8082TIP3   OH224209   3.602   3.549   4.687
 8082TIP3    H124210   3.638   3.619   4.742
 8082TIP3    H224211   3.611   3.470   4.740
 8083TIP3   OH224212   5.822   5.725   3.091
 8083TIP3    H124213   5.851   5.683   3.010
 8083TIP3    H224214   5.759   5.792   3.062
 8084TIP3   OH224215   4.411   3.955   3.243
 8084TIP3    H124216   4.498   3.977   3.278
 8084TIP3    H224217   4.363   3.921   3.318
 8085TIP3   OH224218   0.577   5.989   5.696
 8085TIP3    H124219   0.627   5.912   5.725
 8085TIP3    H224220   0.602   6.058   5.757
 8086TIP3   OH224221   6.226   2.368   5.512
 8086TIP3    H124222   6.271   2.283   5.522
 8086TIP3    H224223   6.215   2.377   5.417
 8087TIP3   OH224224   1.844   5.527   1.329
 8087TIP3    H124225   1.846   5.606   1.275
 8087TIP3    H224226   1.802   5.462   1.273
 8088TIP3   OH224227   2.528   1.519   2.266
 8088TIP3    H124228   2.616   1.557   2.263
 8088TIP3    H224229   2.543   1.425   2.277
 8089TIP3   OH224230   2.328   1.220   0.688
 8089TIP3    H124231   2.277   1.231   0.768
 8089TIP3    H224232   2.367   1.133   0.696
 8090TIP3   OH224233   1.235   4.250   2.336
 8090TIP3    H124234   1.198   4.294   2.412
 8090TIP3    H224235   1.306   4.308   2.308
 8091TIP3   OH224236   3.495   2.208   3.395
 8091TIP3    H124237   3.559   2.271   3.363
 8091TIP3    H224238   3.521   2.125   3.355
 8092TIP3   OH224239   0.998   6.523   4.866
 8092TIP3    H124240   0.975   6.477   4.785
 8092TIP3    H224241   1.093   6.519   4.869
 8093TIP3   OH224242   2.233   6.607   0.887
 8093TIP3    H124243   2.144   6.603   0.922
 8093TIP3    H224244   2.257   6.516   0.872
 8094TIP3   OH224245   2.563   3.765   1.767
 8094TIP3    H124246   2.516   3.682   1.775
 8094TIP3    H224247   2.501   3.831   1.799
 8095TIP3   OH224248   3.497   0.379   4.901
 8095TIP3    H124249   3.444   0.391   4.980
 8095TIP3    H224250   3.539   0.464   4.887
 8096TIP3   OH224251   6.922   0.194   2.895
 8096TIP3    H124252   6.986   0.132   2.861
 8096TIP3    H224253   6.926   0.268   2.835
 8097TIP3   OH224254   5.125   1.792   5.564
 8097TIP3    H124255   5.157   1.835   5.644
 8097TIP3    H224256   5.200   1.743   5.532
 8098TIP3   OH224257   1.645   6.243   5.261
 8098TIP3    H124258   1.613   6.317   5.313
 8098TIP3    H224259   1.585   6.171   5.282
 8099TIP3   OH224260   6.722   0.231   4.159
 8099TIP3    H124261   6.630   0.218   4.182
 8099TIP3    H224262   6.720   0.281   4.078
 8100TIP3   OH224263   4.754   1.621   0.934
 8100TIP3    H124264   4.817   1.551   0.911
 8100TIP3    H224265   4.729   1.658   0.849
 8101TIP3   OH224266   6.737   2.677   4.218
 8101TIP3    H124267   6.769   2.658   4.130
 8101TIP3    H224268   6.754   2.597   4.268
 8102TIP3   OH224269   1.217   1.666   3.679
 8102TIP3    H124270   1.186   1.721   3.607
 8102TIP3    H224271   1.310   1.690   3.689
 8103TIP3   OH224272   2.733   6.141   3.910
 8103TIP3    H124273   2.648   6.108   3.940
 8103TIP3    H224274   2.780   6.164   3.991
 8104TIP3   OH224275   1.411   4.573   5.580
 8104TIP3    H124276   1.386   4.510   5.512
 8104TIP3    H224277   1.393   4.659   5.542
 8105TIP3   OH224278   2.056   0.821   1.186
 8105TIP3    H124279   2.119   0.750   1.199
 8105TIP3    H224280   2.041   0.855   1.274
 8106TIP3   OH224281   1.999   4.777   1.553
 8106TIP3    H124282   2.047   4.813   1.628
 8106TIP3    H224283   2.046   4.697   1.530
 8107TIP3   OH224284   1.538   4.265   4.750
 8107TIP3    H124285   1.474   4.197   4.771
 8107TIP3    H224286   1.487   4.346   4.750
 8108TIP3   OH224287   7.135   6.296   4.931
 8108TIP3    H124288   7.166   6.320   4.844
 8108TIP3    H224289   7.213   6.301   4.986
 8109TIP3   OH224290   0.680   0.683   5.557
 8109TIP3    H124291   0.677   0.689   5.462
 8109TIP3    H224292   0.770   0.706   5.580
 8110TIP3   OH224293   6.691   2.032   0.802
 8110TIP3    H124294   6.616   2.085   0.831
 8110TIP3    H224295   6.651   1.956   0.759
 8111TIP3   OH224296   6.613   0.774   1.160
 8111TIP3    H124297   6.663   0.714   1.214
 8111TIP3    H224298   6.551   0.718   1.113
 8112TIP3   OH224299   2.221   6.054   2.893
 8112TIP3    H124300   2.227   5.966   2.855
 8112TIP3    H224301   2.230   6.113   2.818
 8113TIP3   OH224302   1.404   1.378   4.700
 8113TIP3    H124303   1.347   1.398   4.626
 8113TIP3    H224304   1.471   1.320   4.665
 8114TIP3   OH224305   1.823   0.064   0.112
 8114TIP3    H124306   1.765   0.086   0.185
 8114TIP3    H224307   1.774   0.090   0.034
 8115TIP3   OH224308   1.145   1.225   0.586
 8115TIP3    H124309   1.188   1.170   0.520
 8115TIP3    H224310   1.203   1.221   0.662
 8116TIP3   OH224311   7.103   0.050   4.473
 8116TIP3    H124312   7.047   0.061   4.396
 8116TIP3    H224313   7.087   0.129   4.525
 8117TIP3   OH224314   3.874   2.589   1.728
 8117TIP3    H124315   3.869   2.496   1.704
 8117TIP3    H224316   3.963   2.615   1.705
 8118TIP3   OH224317   5.250   0.599   3.669
 8118TIP3    H124318   5.188   0.527   3.658
 8118TIP3    H224319   5.320   0.563   3.723
 8119TIP3   OH224320   3.814   2.906   1.315
 8119TIP3    H124321   3.905   2.920   1.342
 8119TIP3    H224322   3.781   2.841   1.377
 8120TIP3   OH224323   2.643   1.403   0.810
 8120TIP3    H124324   2.723   1.454   0.827
 8120TIP3    H224325   2.577   1.470   0.790
 8121TIP3   OH224326   2.391   2.877   2.337
 8121TIP3    H124327   2.374   2.874   2.432
 8121TIP3    H224328   2.340   2.804   2.302
 8122TIP3   OH224329   2.029   5.151   0.318
 8122TIP3    H124330   2.041   5.057   0.301
 8122TIP3    H224331   1.977   5.182   0.245
 8123TIP3   OH224332   1.010   1.223   2.985
 8123TIP3    H124333   1.056   1.297   2.946
 8123TIP3    H224334   0.917   1.243   2.973
 8124TIP3   OH224335   4.721   6.539   4.751
 8124TIP3    H124336   4.703   6.589   4.831
 8124TIP3    H224337   4.816   6.529   4.750
 8125TIP3   OH224338   1.870   1.146   1.584
 8125TIP3    H124339   1.860   1.204   1.659
 8125TIP3    H224340   1.931   1.078   1.614
 8126TIP3   OH224341   3.480   0.699   0.495
 8126TIP3    H124342   3.526   0.677   0.576
 8126TIP3    H224343   3.550   0.711   0.431
 8127TIP3   OH224344   5.651   0.922   1.819
 8127TIP3    H124345   5.722   0.986   1.815
 8127TIP3    H224346   5.581   0.959   1.765
 8128TIP3   OH224347   4.444   1.902   0.615
 8128TIP3    H124348   4.451   1.807   0.613
 8128TIP3    H224349   4.368   1.922   0.561
 8129TIP3   OH224350   0.319   5.997   3.637
 8129TIP3    H124351   0.271   6.054   3.697
 8129TIP3    H224352   0.252   5.964   3.577
 8130TIP3   OH224353   6.583   1.237   3.569
 8130TIP3    H124354   6.636   1.244   3.649
 8130TIP3    H224355   6.517   1.172   3.590
 8131TIP3   OH224356   2.144   4.178   3.128
 8131TIP3    H124357   2.141   4.127   3.046
 8131TIP3    H224358   2.068   4.147   3.178
 8132TIP3   OH224359   3.192   2.253   1.396
 8132TIP3    H124360   3.155   2.237   1.483
 8132TIP3    H224361   3.240   2.335   1.406
 8133TIP3   OH224362   1.659   0.067   2.501
 8133TIP3    H124363   1.682   0.100   2.414
 8133TIP3    H224364   1.631   0.145   2.549
 8134TIP3   OH224365   3.108   0.837   3.755
 8134TIP3    H124366   3.178   0.850   3.692
 8134TIP3    H224367   3.037   0.796   3.705
 8135TIP3   OH224368   1.185   6.135   5.361
 8135TIP3    H124369   1.169   6.212   5.306
 8135TIP3    H224370   1.097   6.105   5.385
 8136TIP3   OH224371   5.138   2.544   4.752
 8136TIP3    H124372   5.045   2.552   4.776
 8136TIP3    H224373   5.184   2.535   4.835
 8137TIP3   OH224374   2.520   5.072   3.334
 8137TIP3    H124375   2.578   5.006   3.371
 8137TIP3    H224376   2.577   5.147   3.317
 8138TIP3   OH224377   2.307   1.778   5.435
 8138TIP3    H124378   2.319   1.770   5.341
 8138TIP3    H224379   2.343   1.697   5.471
 8139TIP3   OH224380   3.155   4.474   5.680
 8139TIP3    H124381   3.118   4.517   5.758
 8139TIP3    H224382   3.160   4.543   5.615
 8140TIP3   OH224383   4.042   4.762   0.076
 8140TIP3    H124384   3.969   4.704   0.097
 8140TIP3    H224385   4.003   4.849   0.069
 8141TIP3   OH224386   4.645   0.451   4.439
 8141TIP3    H124387   4.640   0.473   4.532
 8141TIP3    H224388   4.657   0.356   4.437
 8142TIP3   OH224389   2.123   3.310   1.703
 8142TIP3    H124390   2.157   3.249   1.768
 8142TIP3    H224391   2.034   3.331   1.733
 8143TIP3   OH224392   5.040   4.363   1.453
 8143TIP3    H124393   4.984   4.324   1.385
 8143TIP3    H224394   5.112   4.301   1.463
 8144TIP3   OH224395   4.241   6.619   4.487
 8144TIP3    H124396   4.275   6.539   4.446
 8144TIP3    H224397   4.215   6.674   4.413
 8145TIP3   OH224398   2.079   6.657   0.340
 8145TIP3    H124399   2.030   6.713   0.400
 8145TIP3    H224400   2.016   6.589   0.315
 8146TIP3   OH224401   0.322   4.524   1.575
 8146TIP3    H124402   0.242   4.524   1.626
 8146TIP3    H224403   0.310   4.454   1.511
 8147TIP3   OH224404   1.936   6.806   0.835
 8147TIP3    H124405   1.850   6.767   0.821
 8147TIP3    H224406   1.955   6.790   0.927
 8148TIP3   OH224407   0.010   2.074   5.514
 8148TIP3    H124408   0.045   2.160   5.537
 8148TIP3    H224409   0.079   2.032   5.463
 8149TIP3   OH224410   2.282   6.263   3.753
 8149TIP3    H124411   2.225   6.293   3.823
 8149TIP3    H224412   2.226   6.208   3.698
 8150TIP3   OH224413   3.383   3.096   2.862
 8150TIP3    H124414   3.450   3.164   2.856
 8150TIP3    H224415   3.424   3.018   2.823
 8151TIP3   OH224416   2.091   6.311   4.357
 8151TIP3    H124417   2.110   6.395   4.317
 8151TIP3    H224418   2.059   6.257   4.285
 8152TIP3   OH224419   4.312   2.580   4.634
 8152TIP3    H124420   4.218   2.594   4.635
 8152TIP3    H224421   4.323   2.488   4.609
 8153TIP3   OH224422   4.919   2.951   3.391
 8153TIP3    H124423   4.923   2.890   3.318
 8153TIP3    H224424   4.857   3.019   3.363
 8154TIP3   OH224425   5.998   4.778   5.678
 8154TIP3    H124426   5.957   4.697   5.649
 8154TIP3    H224427   6.068   4.794   5.615
 8155TIP3   OH224428   0.433   3.726   1.429
 8155TIP3    H124429   0.501   3.667   1.461
 8155TIP3    H224430   0.415   3.695   1.340
 8156TIP3   OH224431   2.502   4.579   4.478
 8156TIP3    H124432   2.426   4.580   4.420
 8156TIP3    H224433   2.526   4.487   4.485
 8157TIP3   OH224434   0.667   4.825   2.849
 8157TIP3    H124435   0.629   4.752   2.800
 8157TIP3    H224436   0.592   4.872   2.886
 8158TIP3   OH224437   6.063   1.563   3.912
 8158TIP3    H124438   6.083   1.590   4.002
 8158TIP3    H224439   5.969   1.545   3.913
 8159TIP3   OH224440   6.201   2.492   0.476
 8159TIP3    H124441   6.158   2.576   0.491
 8159TIP3    H224442   6.148   2.428   0.525
 8160TIP3   OH224443   3.329   6.497   3.520
 8160TIP3    H124444   3.259   6.499   3.586
 8160TIP3    H224445   3.288   6.533   3.441
 8161TIP3   OH224446   3.708   0.331   4.092
 8161TIP3    H124447   3.711   0.278   4.013
 8161TIP3    H224448   3.775   0.294   4.149
 8162TIP3   OH224449   2.881   0.560   4.026
 8162TIP3    H124450   2.900   0.503   4.101
 8162TIP3    H224451   2.851   0.641   4.066
 8163TIP3   OH224452   6.671   0.656   2.834
 8163TIP3    H124453   6.664   0.593   2.906
 8163TIP3    H224454   6.741   0.715   2.861
 8164TIP3   OH224455   3.450   3.799   1.236
 8164TIP3    H124456   3.423   3.856   1.308
 8164TIP3    H224457   3.369   3.758   1.207
 8165TIP3   OH224458   7.149   3.985   1.426
 8165TIP3    H124459   7.070   3.971   1.375
 8165TIP3    H224460   7.160   4.080   1.428
 8166TIP3   OH224461   2.161   5.772   1.364
 8166TIP3    H124462   2.204   5.852   1.331
 8166TIP3    H224463   2.077   5.770   1.319
 8167TIP3   OH224464   7.192   0.578   4.069
 8167TIP3    H124465   7.167   0.487   4.086
 8167TIP3    H224466   7.226   0.610   4.152
 8168TIP3   OH224467   5.764   0.731   2.950
 8168TIP3    H124468   5.776   0.643   2.917
 8168TIP3    H224469   5.785   0.788   2.876
 8169TIP3   OH224470   6.217   5.778   2.881
 8169TIP3    H124471   6.166   5.758   2.803
 8169TIP3    H224472   6.273   5.852   2.855
 8170TIP3   OH224473   5.531   3.005   3.104
 8170TIP3    H124474   5.469   2.990   3.176
 8170TIP3    H224475   5.528   3.099   3.088
 8171TIP3   OH224476   5.208   6.157   2.683
 8171TIP3    H124477   5.252   6.107   2.752
 8171TIP3    H224478   5.139   6.204   2.729
 8172TIP3   OH224479   4.274   2.317   2.079
 8172TIP3    H124480   4.304   2.285   2.164
 8172TIP3    H224481   4.183   2.341   2.094
 8173TIP3   OH224482   6.607   4.526   2.090
 8173TIP3    H124483   6.538   4.589   2.071
 8173TIP3    H224484   6.574   4.476   2.165
 8174TIP3   OH224485   2.479   3.261   2.879
 8174TIP3    H124486   2.495   3.230   2.969
 8174TIP3    H224487   2.385   3.279   2.876
 8175TIP3   OH224488   0.460   0.351   1.653
 8175TIP3    H124489   0.377   0.332   1.608
 8175TIP3    H224490   0.527   0.312   1.597
 8176TIP3   OH224491   5.757   4.069   3.624
 8176TIP3    H124492   5.840   4.081   3.669
 8176TIP3    H224493   5.774   4.098   3.534
 8177TIP3   OH224494   2.203   3.760   1.054
 8177TIP3    H124495   2.120   3.715   1.044
 8177TIP3    H224496   2.249   3.745   0.971
 8178TIP3   OH224497   2.988   4.630   1.906
 8178TIP3    H124498   2.954   4.677   1.982
 8178TIP3    H224499   2.915   4.631   1.844
 8179TIP3   OH224500   3.186   6.167   2.441
 8179TIP3    H124501   3.251   6.135   2.378
 8179TIP3    H224502   3.236   6.217   2.504
 8180TIP3   OH224503   5.329   2.418   0.650
 8180TIP3    H124504   5.341   2.398   0.742
 8180TIP3    H224505   5.287   2.504   0.649
 8181TIP3   OH224506   6.899   3.760   5.418
 8181TIP3    H124507   6.862   3.809   5.491
 8181TIP3    H224508   6.993   3.779   5.422
 8182TIP3   OH224509   0.244   4.357   1.379
 8182TIP3    H124510   0.259   4.273   1.334
 8182TIP3    H224511   0.158   4.347   1.419
 8183TIP3   OH224512   2.435   5.877   5.309
 8183TIP3    H124513   2.478   5.792   5.296
 8183TIP3    H224514   2.356   5.855   5.359
 8184TIP3   OH224515   3.466   4.746   1.907
 8184TIP3    H124516   3.463   4.668   1.963
 8184TIP3    H224517   3.380   4.787   1.920
 8185TIP3   OH224518   5.989   5.601   4.712
 8185TIP3    H124519   6.039   5.526   4.743
 8185TIP3    H224520   6.053   5.673   4.710
 8186TIP3   OH224521   1.064   1.198   2.345
 8186TIP3    H124522   1.041   1.289   2.363
 8186TIP3    H224523   1.009   1.147   2.405
 8187TIP3   OH224524   0.607   0.143   5.411
 8187TIP3    H124525   0.669   0.183   5.472
 8187TIP3    H224526   0.574   0.215   5.359
 8188TIP3   OH224527   3.900   4.489   4.711
 8188TIP3    H124528   3.832   4.428   4.740
 8188TIP3    H224529   3.869   4.575   4.741
 8189TIP3   OH224530   4.008   4.961   1.358
 8189TIP3    H124531   3.973   5.025   1.296
 8189TIP3    H224532   3.947   4.887   1.353
 8190TIP3   OH224533   5.012   3.346   1.434
 8190TIP3    H124534   5.022   3.287   1.359
 8190TIP3    H224535   5.058   3.426   1.408
 8191TIP3   OH224536   3.640   1.208   1.325
 8191TIP3    H124537   3.547   1.202   1.308
 8191TIP3    H224538   3.646   1.246   1.413
 8192TIP3   OH224539   3.094   1.959   0.798
 8192TIP3    H124540   3.061   1.931   0.713
 8192TIP3    H224541   3.166   2.018   0.779
 8193TIP3   OH224542   3.987   3.377   3.155
 8193TIP3    H124543   3.933   3.315   3.203
 8193TIP3    H224544   4.004   3.447   3.218
 8194TIP3   OH224545   3.144   1.607   4.915
 8194TIP3    H124546   3.217   1.608   4.977
 8194TIP3    H224547   3.073   1.563   4.962
 8195TIP3   OH224548   6.866   0.116   2.392
 8195TIP3    H124549   6.858   0.209   2.373
 8195TIP3    H224550   6.791   0.076   2.349
 8196TIP3   OH224551   1.004   5.592   1.685
 8196TIP3    H124552   1.032   5.532   1.617
 8196TIP3    H224553   1.075   5.657   1.692
 8197TIP3   OH224554   1.665   0.709   3.712
 8197TIP3    H124555   1.722   0.702   3.789
 8197TIP3    H224556   1.711   0.660   3.644
 8198TIP3   OH224557   1.948   2.106   1.147
 8198TIP3    H124558   1.903   2.105   1.232
 8198TIP3    H224559   1.903   2.038   1.096
 8199TIP3   OH224560   2.524   5.454   1.973
 8199TIP3    H124561   2.455   5.434   1.910
 8199TIP3    H224562   2.488   5.427   2.058
 8200TIP3   OH224563   4.073   1.952  -0.006
 8200TIP3    H124564   4.128   1.910   0.060
 8200TIP3    H224565   4.026   1.879  -0.048
 8201TIP3   OH224566   2.427   6.074   4.698
 8201TIP3    H124567   2.508   6.090   4.746
 8201TIP3    H224568   2.431   6.137   4.625
 8202TIP3   OH224569   1.231   1.671   4.732
 8202TIP3    H124570   1.191   1.710   4.655
 8202TIP3    H224571   1.315   1.637   4.702
 8203TIP3   OH224572   0.635   2.373   4.115
 8203TIP3    H124573   0.636   2.459   4.074
 8203TIP3    H224574   0.717   2.369   4.164
 8204TIP3   OH224575   2.468   3.062   3.386
 8204TIP3    H124576   2.438   2.977   3.418
 8204TIP3    H224577   2.483   3.114   3.465
 8205TIP3   OH224578   2.667   1.264   2.318
 8205TIP3    H124579   2.685   1.239   2.409
 8205TIP3    H224580   2.753   1.283   2.282
 8206TIP3   OH224581   0.591   4.568   3.375
 8206TIP3    H124582   0.577   4.653   3.418
 8206TIP3    H224583   0.504   4.530   3.366
 8207TIP3   OH224584   4.804   0.196   0.237
 8207TIP3    H124585   4.746   0.247   0.180
 8207TIP3    H224586   4.744   0.152   0.298
 8208TIP3   OH224587   1.842   1.476   0.302
 8208TIP3    H124588   1.904   1.445   0.236
 8208TIP3    H224589   1.756   1.452   0.266
 8209TIP3   OH224590   4.201   6.262   2.352
 8209TIP3    H124591   4.219   6.252   2.446
 8209TIP3    H224592   4.251   6.192   2.310
 8210TIP3   OH224593   4.188   5.819   1.646
 8210TIP3    H124594   4.224   5.899   1.606
 8210TIP3    H224595   4.206   5.751   1.582
 8211TIP3   OH224596   5.325   6.408   5.337
 8211TIP3    H124597   5.266   6.426   5.264
 8211TIP3    H224598   5.388   6.480   5.336
 8212TIP3   OH224599   1.806   5.688   2.512
 8212TIP3    H124600   1.779   5.720   2.426
 8212TIP3    H224601   1.893   5.651   2.497
 8213TIP3   OH224602   1.476   5.241   0.576
 8213TIP3    H124603   1.569   5.232   0.594
 8213TIP3    H224604   1.463   5.334   0.561
 8214TIP3   OH224605   4.991   6.456   4.673
 8214TIP3    H124606   5.086   6.461   4.683
 8214TIP3    H224607   4.966   6.374   4.716
 8215TIP3   OH224608   3.531   6.346   1.556
 8215TIP3    H124609   3.532   6.362   1.651
 8215TIP3    H224610   3.532   6.433   1.517
 8216TIP3   OH224611   5.285   6.675   4.272
 8216TIP3    H124612   5.359   6.640   4.223
 8216TIP3    H224613   5.310   6.666   4.364
 8217TIP3   OH224614   0.508   0.432   2.476
 8217TIP3    H124615   0.513   0.520   2.512
 8217TIP3    H224616   0.573   0.382   2.525
 8218TIP3   OH224617   2.288   2.656   5.538
 8218TIP3    H124618   2.336   2.719   5.484
 8218TIP3    H224619   2.240   2.602   5.475
 8219TIP3   OH224620   1.712   1.956   2.985
 8219TIP3    H124621   1.631   1.962   3.036
 8219TIP3    H224622   1.733   1.863   2.985
 8220TIP3   OH224623   6.174   5.472   5.655
 8220TIP3    H124624   6.127   5.414   5.595
 8220TIP3    H224625   6.110   5.496   5.721
 8221TIP3   OH224626   4.370   0.471   1.855
 8221TIP3    H124627   4.359   0.477   1.950
 8221TIP3    H224628   4.461   0.494   1.840
 8222TIP3   OH224629   0.343   2.372   4.259
 8222TIP3    H124630   0.425   2.399   4.219
 8222TIP3    H224631   0.295   2.454   4.273
 8223TIP3   OH224632   3.976   6.537   3.017
 8223TIP3    H124633   3.957   6.500   2.931
 8223TIP3    H224634   4.059   6.583   3.006
 8224TIP3   OH224635   5.133   5.523   4.697
 8224TIP3    H124636   5.149   5.568   4.780
 8224TIP3    H224637   5.205   5.551   4.640
 8225TIP3   OH224638   6.117   2.970   3.420
 8225TIP3    H124639   6.123   3.061   3.450
 8225TIP3    H224640   6.206   2.947   3.393
 8226TIP3   OH224641   4.751   1.675   5.711
 8226TIP3    H124642   4.837   1.698   5.746
 8226TIP3    H224643   4.750   1.579   5.713
 8227TIP3   OH224644   5.065   5.907   0.598
 8227TIP3    H124645   5.016   5.832   0.563
 8227TIP3    H224646   5.015   5.935   0.674
 8228TIP3   OH224647   2.422   4.606   3.974
 8228TIP3    H124648   2.328   4.591   3.983
 8228TIP3    H224649   2.438   4.689   4.019
 8229TIP3   OH224650   4.711   6.809   2.369
 8229TIP3    H124651   4.628   6.834   2.408
 8229TIP3    H224652   4.724   6.718   2.394
 8230TIP3   OH224653   3.885   2.606   2.443
 8230TIP3    H124654   3.948   2.674   2.422
 8230TIP3    H224655   3.836   2.591   2.362
 8231TIP3   OH224656   1.781   2.838   1.038
 8231TIP3    H124657   1.845   2.898   0.998
 8231TIP3    H224658   1.716   2.823   0.969
 8232TIP3   OH224659   6.179   2.573   4.012
 8232TIP3    H124660   6.112   2.547   3.949
 8232TIP3    H224661   6.158   2.524   4.092
 8233TIP3   OH224662   4.027   5.635   4.506
 8233TIP3    H124663   4.052   5.545   4.482
 8233TIP3    H224664   4.053   5.643   4.598
 8234TIP3   OH224665   4.161   4.711   5.875
 8234TIP3    H124666   4.104   4.657   5.820
 8234TIP3    H224667   4.247   4.669   5.868
 8235TIP3   OH224668   2.109   3.675   4.924
 8235TIP3    H124669   2.168   3.601   4.921
 8235TIP3    H224670   2.157   3.746   4.881
 8236TIP3   OH224671   6.309   6.222   3.356
 8236TIP3    H124672   6.376   6.163   3.391
 8236TIP3    H224673   6.226   6.180   3.378
 8237TIP3   OH224674   4.750   2.001   0.077
 8237TIP3    H124675   4.828   2.019   0.025
 8237TIP3    H224676   4.766   1.914   0.114
 8238TIP3   OH224677   4.429   2.072   3.270
 8238TIP3    H124678   4.336   2.057   3.256
 8238TIP3    H224679   4.459   2.115   3.189
 8239TIP3   OH224680   0.942   5.084   1.070
 8239TIP3    H124681   0.961   5.076   0.977
 8239TIP3    H224682   1.020   5.050   1.114
 8240TIP3   OH224683   4.580   2.488   1.745
 8240TIP3    H124684   4.581   2.401   1.704
 8240TIP3    H224685   4.508   2.483   1.808
 8241TIP3   OH224686   1.510   2.419   1.610
 8241TIP3    H124687   1.443   2.360   1.645
 8241TIP3    H224688   1.587   2.403   1.665
 8242TIP3   OH224689   1.290   3.057   4.559
 8242TIP3    H124690   1.330   2.982   4.602
 8242TIP3    H224691   1.344   3.071   4.481
 8243TIP3   OH224692   4.741   0.849   2.809
 8243TIP3    H124693   4.705   0.768   2.772
 8243TIP3    H224694   4.680   0.917   2.781
 8244TIP3   OH224695   3.870   4.622   0.376
 8244TIP3    H124696   3.802   4.608   0.442
 8244TIP3    H224697   3.930   4.685   0.417
 8245TIP3   OH224698   4.544   2.865   2.322
 8245TIP3    H124699   4.453   2.846   2.302
 8245TIP3    H224700   4.550   2.860   2.417
 8246TIP3   OH224701   6.111   3.551   3.791
 8246TIP3    H124702   6.157   3.512   3.865
 8246TIP3    H224703   6.180   3.566   3.726
 8247TIP3   OH224704   1.591   2.395   4.291
 8247TIP3    H124705   1.678   2.406   4.328
 8247TIP3    H224706   1.606   2.391   4.196
 8248TIP3   OH224707   4.881   5.961   4.966
 8248TIP3    H124708   4.874   5.904   4.890
 8248TIP3    H224709   4.971   5.949   4.997
 8249TIP3   OH224710   5.394   1.322   0.517
 8249TIP3    H124711   5.326   1.383   0.544
 8249TIP3    H224712   5.439   1.366   0.445
 8250TIP3   OH224713   4.208   1.373   0.552
 8250TIP3    H124714   4.124   1.395   0.512
 8250TIP3    H224715   4.271   1.376   0.481
 8251TIP3   OH224716   4.198   3.108   1.787
 8251TIP3    H124717   4.195   3.194   1.829
 8251TIP3    H224718   4.270   3.062   1.831
 8252TIP3   OH224719   2.869   0.044   0.705
 8252TIP3    H124720   2.948   0.082   0.743
 8252TIP3    H224721   2.834  -0.013   0.773
 8253TIP3   OH224722   2.776   6.324   5.509
 8253TIP3    H124723   2.745   6.239   5.539
 8253TIP3    H224724   2.696   6.376   5.498
 8254TIP3   OH224725   3.250   3.418   1.425
 8254TIP3    H124726   3.247   3.361   1.502
 8254TIP3    H224727   3.318   3.380   1.370
 8255TIP3   OH224728   7.100   5.627   4.046
 8255TIP3    H124729   7.115   5.535   4.069
 8255TIP3    H224730   7.079   5.669   4.129
 8256TIP3   OH224731   4.425   0.993   3.782
 8256TIP3    H124732   4.353   0.969   3.724
 8256TIP3    H224733   4.504   0.985   3.729
 8257TIP3   OH224734   6.914   3.063   1.441
 8257TIP3    H124735   6.927   2.969   1.436
 8257TIP3    H224736   6.962   3.090   1.519
 8258TIP3   OH224737   4.733   5.598   1.345
 8258TIP3    H124738   4.732   5.687   1.380
 8258TIP3    H224739   4.801   5.553   1.395
 8259TIP3   OH224740   5.216   0.218   3.497
 8259TIP3    H124741   5.201   0.123   3.499
 8259TIP3    H224742   5.176   0.249   3.578
 8260TIP3   OH224743   5.591   4.226   5.371
 8260TIP3    H124744   5.537   4.174   5.312
 8260TIP3    H224745   5.681   4.207   5.344
 8261TIP3   OH224746   3.726   0.465   0.678
 8261TIP3    H124747   3.659   0.533   0.677
 8261TIP3    H224748   3.806   0.509   0.651
 8262TIP3   OH224749   5.885   0.890   4.811
 8262TIP3    H124750   5.865   0.797   4.828
 8262TIP3    H224751   5.844   0.937   4.884
 8263TIP3   OH224752   3.380   3.289   5.594
 8263TIP3    H124753   3.343   3.321   5.512
 8263TIP3    H224754   3.316   3.227   5.627
 8264TIP3   OH224755   5.346   3.570   3.189
 8264TIP3    H124756   5.252   3.566   3.170
 8264TIP3    H224757   5.384   3.615   3.114
 8265TIP3   OH224758   1.512   4.288   5.792
 8265TIP3    H124759   1.428   4.319   5.824
 8265TIP3    H224760   1.496   4.199   5.761
 8266TIP3   OH224761   3.505   4.951   5.784
 8266TIP3    H124762   3.489   5.004   5.706
 8266TIP3    H224763   3.600   4.950   5.792
 8267TIP3   OH224764   2.276   3.433   0.799
 8267TIP3    H124765   2.213   3.371   0.835
 8267TIP3    H224766   2.348   3.379   0.768
 8268TIP3   OH224767   0.737   3.365   4.814
 8268TIP3    H124768   0.746   3.381   4.720
 8268TIP3    H224769   0.804   3.421   4.855
 8269TIP3   OH224770   5.243   4.677   0.096
 8269TIP3    H124771   5.182   4.727   0.150
 8269TIP3    H224772   5.195   4.659   0.015
 8270TIP3   OH224773   5.493   2.420  -0.018
 8270TIP3    H124774   5.420   2.406   0.042
 8270TIP3    H224775   5.557   2.471   0.032
 8271TIP3   OH224776   6.048   0.788   3.164
 8271TIP3    H124777   5.955   0.793   3.144
 8271TIP3    H224778   6.062   0.699   3.194
 8272TIP3   OH224779   6.455   3.990   1.959
 8272TIP3    H124780   6.445   4.021   2.049
 8272TIP3    H224781   6.488   4.067   1.912
 8273TIP3   OH224782   5.641   5.159   3.938
 8273TIP3    H124783   5.590   5.135   4.015
 8273TIP3    H224784   5.580   5.149   3.865
 8274TIP3   OH224785   0.313   4.896   0.850
 8274TIP3    H124786   0.229   4.913   0.807
 8274TIP3    H224787   0.289   4.872   0.940
 8275TIP3   OH224788   0.075   3.218   2.377
 8275TIP3    H124789   0.074   3.176   2.463
 8275TIP3    H224790  -0.018   3.235   2.358
 8276TIP3   OH224791   6.388   2.003   2.496
 8276TIP3    H124792   6.391   1.998   2.592
 8276TIP3    H224793   6.479   1.992   2.469
 8277TIP3   OH224794   6.509   2.221   0.880
 8277TIP3    H124795   6.480   2.279   0.810
 8277TIP3    H224796   6.432   2.169   0.901
 8278TIP3   OH224797   1.106   4.355   2.871
 8278TIP3    H124798   1.159   4.435   2.873
 8278TIP3    H224799   1.153   4.294   2.928
 8279TIP3   OH224800   3.189   6.486   3.057
 8279TIP3    H124801   3.275   6.477   3.016
 8279TIP3    H224802   3.134   6.524   2.989
 8280TIP3   OH224803   0.384   5.685   0.882
 8280TIP3    H124804   0.393   5.615   0.817
 8280TIP3    H224805   0.403   5.643   0.966
 8281TIP3   OH224806   5.058   3.241   0.155
 8281TIP3    H124807   5.134   3.289   0.120
 8281TIP3    H224808   5.096   3.181   0.219
 8282TIP3   OH224809   3.962   2.435   0.864
 8282TIP3    H124810   4.015   2.358   0.885
 8282TIP3    H224811   3.940   2.424   0.771
 8283TIP3   OH224812   1.619   2.421   1.149
 8283TIP3    H124813   1.662   2.341   1.177
 8283TIP3    H224814   1.600   2.407   1.056
 8284TIP3   OH224815   3.265   5.389   3.584
 8284TIP3    H124816   3.239   5.301   3.610
 8284TIP3    H224817   3.322   5.377   3.508
 8285TIP3   OH224818   5.724   6.135   2.554
 8285TIP3    H124819   5.748   6.146   2.646
 8285TIP3    H224820   5.762   6.050   2.530
 8286TIP3   OH224821   5.527   5.732   0.623
 8286TIP3    H124822   5.544   5.661   0.560
 8286TIP3    H224823   5.476   5.796   0.573
 8287TIP3   OH224824   5.788   6.354   3.567
 8287TIP3    H124825   5.793   6.340   3.661
 8287TIP3    H224826   5.737   6.280   3.534
 8288TIP3   OH224827   4.263   2.578   3.724
 8288TIP3    H124828   4.355   2.553   3.735
 8288TIP3    H224829   4.267   2.671   3.700
 8289TIP3   OH224830   5.264   0.818   3.217
 8289TIP3    H124831   5.257   0.736   3.266
 8289TIP3    H224832   5.173   0.848   3.208
 8290TIP3   OH224833   6.606   1.524   1.645
 8290TIP3    H124834   6.655   1.583   1.588
 8290TIP3    H224835   6.531   1.496   1.593
 8291TIP3   OH224836   0.972   1.927   2.434
 8291TIP3    H124837   1.049   1.872   2.447
 8291TIP3    H224838   0.963   1.933   2.339
 8292TIP3   OH224839   2.730   0.489   3.510
 8292TIP3    H124840   2.733   0.399   3.476
 8292TIP3    H224841   2.784   0.487   3.589
 8293TIP3   OH224842   5.066   5.326   5.695
 8293TIP3    H124843   5.045   5.412   5.658
 8293TIP3    H224844   5.131   5.345   5.762
 8294TIP3   OH224845   1.063   3.198   4.553
 8294TIP3    H124846   1.118   3.122   4.573
 8294TIP3    H224847   1.126   3.268   4.533
 8295TIP3   OH224848   0.664   0.095   5.140
 8295TIP3    H124849   0.657   0.085   5.235
 8295TIP3    H224850   0.669   0.189   5.126
 8296TIP3   OH224851   4.564   5.590   4.151
 8296TIP3    H124852   4.591   5.582   4.242
 8296TIP3    H224853   4.601   5.513   4.108
 8297TIP3   OH224854   2.802   6.435   1.917
 8297TIP3    H124855   2.859   6.391   1.854
 8297TIP3    H224856   2.738   6.481   1.864
 8298TIP3   OH224857   0.967   0.410   2.759
 8298TIP3    H124858   0.964   0.324   2.801
 8298TIP3    H224859   0.977   0.391   2.665
 8299TIP3   OH224860   3.370   4.709   4.609
 8299TIP3    H124861   3.304   4.776   4.587
 8299TIP3    H224862   3.344   4.633   4.557
 8300TIP3   OH224863   0.595   5.220   1.425
 8300TIP3    H124864   0.612   5.271   1.346
 8300TIP3    H224865   0.627   5.132   1.404
 8301TIP3   OH224866   7.143   4.477   0.393
 8301TIP3    H124867   7.204   4.423   0.443
 8301TIP3    H224868   7.186   4.563   0.389
 8302TIP3   OH224869   3.224   5.740   2.899
 8302TIP3    H124870   3.263   5.655   2.921
 8302TIP3    H224871   3.196   5.731   2.808
 8303TIP3   OH224872   1.175   5.018   0.107
 8303TIP3    H124873   1.128   4.942   0.140
 8303TIP3    H224874   1.170   5.083   0.178
 8304TIP3   OH224875   1.410   0.738   2.990
 8304TIP3    H124876   1.316   0.751   2.975
 8304TIP3    H224877   1.437   0.673   2.926
 8305TIP3   OH224878   1.895   4.371   1.018
 8305TIP3    H124879   1.925   4.340   0.933
 8305TIP3    H224880   1.846   4.451   0.998
 8306TIP3   OH224881   4.275   5.115   1.902
 8306TIP3    H124882   4.335   5.182   1.868
 8306TIP3    H224883   4.191   5.135   1.860
 8307TIP3   OH224884   5.430   1.460   1.062
 8307TIP3    H124885   5.354   1.500   1.018
 8307TIP3    H224886   5.396   1.434   1.148
 8308TIP3   OH224887   5.263   4.850   3.767
 8308TIP3    H124888   5.177   4.892   3.775
 8308TIP3    H224889   5.264   4.814   3.678
 8309TIP3   OH224890   0.045   4.244   4.036
 8309TIP3    H124891   0.094   4.170   4.073
 8309TIP3    H224892   0.091   4.322   4.067
 8310TIP3   OH224893   1.604   2.628   1.898
 8310TIP3    H124894   1.692   2.606   1.926
 8310TIP3    H224895   1.606   2.623   1.803
 8311TIP3   OH224896   3.313   6.311   4.138
 8311TIP3    H124897   3.271   6.225   4.124
 8311TIP3    H224898   3.241   6.368   4.165
 8312TIP3   OH224899   0.128   0.454   5.470
 8312TIP3    H124900   0.097   0.371   5.435
 8312TIP3    H224901   0.202   0.430   5.526
 8313TIP3   OH224902   0.425   0.798   4.728
 8313TIP3    H124903   0.457   0.780   4.816
 8313TIP3    H224904   0.373   0.721   4.705
 8314TIP3   OH224905   4.476   1.452   1.362
 8314TIP3    H124906   4.439   1.469   1.275
 8314TIP3    H224907   4.499   1.539   1.396
 8315TIP3   OH224908   1.187   2.986   2.202
 8315TIP3    H124909   1.269   3.033   2.185
 8315TIP3    H224910   1.119   3.040   2.161
 8316TIP3   OH224911   6.425   5.887   5.286
 8316TIP3    H124912   6.426   5.877   5.381
 8316TIP3    H224913   6.333   5.891   5.263
 8317TIP3   OH224914   4.764   2.092   4.247
 8317TIP3    H124915   4.854   2.120   4.264
 8317TIP3    H224916   4.768   1.997   4.245
 8318TIP3   OH224917   1.099   6.514   3.210
 8318TIP3    H124918   1.151   6.472   3.142
 8318TIP3    H224919   1.068   6.596   3.170
 8319TIP3   OH224920   4.628   3.766   2.659
 8319TIP3    H124921   4.689   3.713   2.710
 8319TIP3    H224922   4.546   3.717   2.662
 8320TIP3   OH224923   4.056   1.279   5.260
 8320TIP3    H124924   4.001   1.339   5.310
 8320TIP3    H224925   4.047   1.308   5.169
 8321TIP3   OH224926   1.968   4.269   4.189
 8321TIP3    H124927   1.975   4.203   4.258
 8321TIP3    H224928   1.989   4.222   4.108
 8322TIP3   OH224929   6.402   2.849   5.306
 8322TIP3    H124930   6.448   2.823   5.385
 8322TIP3    H224931   6.470   2.889   5.251
 8323TIP3   OH224932   4.258   1.198   0.751
 8323TIP3    H124933   4.253   1.264   0.682
 8323TIP3    H224934   4.325   1.232   0.810
 8324TIP3   OH224935   1.738   5.660   4.020
 8324TIP3    H124936   1.773   5.713   4.092
 8324TIP3    H224937   1.802   5.669   3.950
 8325TIP3   OH224938   0.867   1.605   0.341
 8325TIP3    H124939   0.815   1.527   0.360
 8325TIP3    H224940   0.915   1.622   0.422
 8326TIP3   OH224941   3.479   5.519   0.215
 8326TIP3    H124942   3.470   5.428   0.242
 8326TIP3    H224943   3.409   5.565   0.261
 8327TIP3   OH224944   5.561   0.591   0.425
 8327TIP3    H124945   5.654   0.611   0.410
 8327TIP3    H224946   5.522   0.675   0.449
 8328TIP3   OH224947   2.151   3.700   3.845
 8328TIP3    H124948   2.163   3.695   3.940
 8328TIP3    H224949   2.239   3.685   3.809
 8329TIP3   OH224950   1.558   3.407   1.594
 8329TIP3    H124951   1.650   3.391   1.618
 8329TIP3    H224952   1.560   3.417   1.499
 8330TIP3   OH224953   0.743   4.589   3.159
 8330TIP3    H124954   0.678   4.573   3.228
 8330TIP3    H224955   0.700   4.559   3.079
 8331TIP3   OH224956   3.876   6.351   5.531
 8331TIP3    H124957   3.837   6.309   5.454
 8331TIP3    H224958   3.924   6.281   5.575
 8332TIP3   OH224959   3.239   3.717   5.556
 8332TIP3    H124960   3.154   3.699   5.596
 8332TIP3    H224961   3.240   3.812   5.543
 8333TIP3   OH224962   0.175   2.827   2.197
 8333TIP3    H124963   0.237   2.862   2.260
 8333TIP3    H224964   0.172   2.891   2.127
 8334TIP3   OH224965   2.004   4.107   2.270
 8334TIP3    H124966   2.009   4.202   2.277
 8334TIP3    H224967   2.093   4.077   2.289
 8335TIP3   OH224968   6.149   0.724   5.765
 8335TIP3    H124969   6.208   0.651   5.744
 8335TIP3    H224970   6.164   0.787   5.695
 8336TIP3   OH224971   2.886   6.101   4.937
 8336TIP3    H124972   2.968   6.129   4.979
 8336TIP3    H224973   2.888   6.006   4.942
 8337TIP3   OH224974   6.366   5.596   5.030
 8337TIP3    H124975   6.362   5.540   4.952
 8337TIP3    H224976   6.298   5.662   5.016
 8338TIP3   OH224977   2.286   2.343   1.366
 8338TIP3    H124978   2.213   2.400   1.345
 8338TIP3    H224979   2.302   2.293   1.286
 8339TIP3   OH224980   2.937   1.383   1.725
 8339TIP3    H124981   2.846   1.358   1.711
 8339TIP3    H224982   2.960   1.346   1.810
 8340TIP3   OH224983   3.908   5.999   3.473
 8340TIP3    H124984   3.963   5.951   3.535
 8340TIP3    H224985   3.914   6.090   3.502
 8341TIP3   OH224986   4.606   0.680   1.362
 8341TIP3    H124987   4.677   0.720   1.311
 8341TIP3    H224988   4.527   0.697   1.311
 8342TIP3   OH224989   0.864   2.154   0.525
 8342TIP3    H124990   0.827   2.173   0.611
 8342TIP3    H224991   0.944   2.206   0.521
 8343TIP3   OH224992   3.759   6.584   1.117
 8343TIP3    H124993   3.745   6.679   1.114
 8343TIP3    H224994   3.715   6.556   1.197
 8344TIP3   OH224995   5.182   4.375   1.700
 8344TIP3    H124996   5.143   4.433   1.635
 8344TIP3    H224997   5.108   4.348   1.755
 8345TIP3   OH224998   5.817   4.356   1.340
 8345TIP3    H124999   5.887   4.297   1.313
 8345TIP3    H225000   5.739   4.301   1.346
 8346TIP3   OH225001   7.048   6.590   1.072
 8346TIP3    H125002   7.018   6.505   1.039
 8346TIP3    H225003   7.106   6.623   1.003
 8347TIP3   OH225004   3.836   5.141   1.154
 8347TIP3    H125005   3.876   5.109   1.073
 8347TIP3    H225006   3.894   5.211   1.184
 8348TIP3   OH225007   2.303   5.167   5.608
 8348TIP3    H125008   2.210   5.172   5.583
 8348TIP3    H225009   2.350   5.176   5.526
 8349TIP3   OH225010   6.478   2.432   2.865
 8349TIP3    H125011   6.388   2.398   2.863
 8349TIP3    H225012   6.481   2.494   2.792
 8350TIP3   OH225013   2.251   0.638   1.183
 8350TIP3    H125014   2.240   0.604   1.094
 8350TIP3    H225015   2.333   0.600   1.213
 8351TIP3   OH225016   1.902   1.165   0.347
 8351TIP3    H125017   1.938   1.244   0.308
 8351TIP3    H225018   1.896   1.103   0.274
 8352TIP3   OH225019   4.150   3.556   5.144
 8352TIP3    H125020   4.178   3.645   5.165
 8352TIP3    H225021   4.182   3.503   5.217
 8353TIP3   OH225022   0.663   3.637   5.509
 8353TIP3    H125023   0.722   3.571   5.474
 8353TIP3    H225024   0.714   3.718   5.506
 8354TIP3   OH225025   3.086   3.619   0.843
 8354TIP3    H125026   3.094   3.547   0.780
 8354TIP3    H225027   3.020   3.677   0.806
 8355TIP3   OH225028   0.203   3.718   3.215
 8355TIP3    H125029   0.154   3.643   3.179
 8355TIP3    H225030   0.205   3.781   3.143
 8356TIP3   OH225031   2.485   3.788   4.988
 8356TIP3    H125032   2.473   3.831   5.073
 8356TIP3    H225033   2.569   3.823   4.956
 8357TIP3   OH225034   3.924   4.209   1.849
 8357TIP3    H125035   3.873   4.267   1.906
 8357TIP3    H225036   3.917   4.123   1.891
 8358TIP3   OH225037   1.797   2.896   5.519
 8358TIP3    H125038   1.884   2.933   5.533
 8358TIP3    H225039   1.813   2.805   5.494
 8359TIP3   OH225040   7.172   1.356   0.961
 8359TIP3    H125041   7.090   1.307   0.968
 8359TIP3    H225042   7.148   1.446   0.980
 8360TIP3   OH225043   4.897   6.266   2.990
 8360TIP3    H125044   4.958   6.259   2.917
 8360TIP3    H225045   4.815   6.231   2.956
 8361TIP3   OH225046   4.389   5.734   5.154
 8361TIP3    H125047   4.365   5.777   5.072
 8361TIP3    H225048   4.457   5.671   5.129
 8362TIP3   OH225049   4.741   2.557   4.529
 8362TIP3    H125050   4.747   2.649   4.554
 8362TIP3    H225051   4.647   2.538   4.531
 8363TIP3   OH225052   1.508   3.822   3.871
 8363TIP3    H125053   1.571   3.771   3.921
 8363TIP3    H225054   1.534   3.913   3.886
 8364TIP3   OH225055   5.495   5.725   5.254
 8364TIP3    H125056   5.588   5.720   5.273
 8364TIP3    H225057   5.454   5.668   5.320
 8365TIP3   OH225058   2.941   5.967   3.294
 8365TIP3    H125059   2.971   5.904   3.230
 8365TIP3    H225060   3.000   6.041   3.286
 8366TIP3   OH225061   4.974   2.170   0.299
 8366TIP3    H125062   4.988   2.077   0.278
 8366TIP3    H225063   4.998   2.177   0.391
 8367TIP3   OH225064   2.553   0.112   2.995
 8367TIP3    H125065   2.614   0.056   3.042
 8367TIP3    H225066   2.586   0.116   2.905
 8368TIP3   OH225067   6.894   5.056   0.467
 8368TIP3    H125068   6.828   5.110   0.423
 8368TIP3    H225069   6.847   5.016   0.541
 8369TIP3   OH225070   6.838   2.183   4.294
 8369TIP3    H125071   6.850   2.275   4.274
 8369TIP3    H225072   6.836   2.140   4.208
 8370TIP3   OH225073   6.931   5.162   4.008
 8370TIP3    H125074   6.856   5.112   3.977
 8370TIP3    H225075   7.001   5.097   4.017
 8371TIP3   OH225076   2.043   5.003   5.137
 8371TIP3    H125077   1.974   4.969   5.081
 8371TIP3    H225078   2.014   5.091   5.162
 8372TIP3   OH225079   1.800   5.867   0.407
 8372TIP3    H125080   1.772   5.936   0.346
 8372TIP3    H225081   1.787   5.785   0.357
 8373TIP3   OH225082   6.926   4.430   3.529
 8373TIP3    H125083   6.924   4.525   3.519
 8373TIP3    H225084   6.925   4.396   3.439
 8374TIP3   OH225085   1.022   0.736   5.185
 8374TIP3    H125086   1.024   0.827   5.215
 8374TIP3    H225087   1.112   0.704   5.198
 8375TIP3   OH225088   4.363   1.842   0.087
 8375TIP3    H125089   4.345   1.854  -0.007
 8375TIP3    H225090   4.442   1.789   0.089
 8376TIP3   OH225091   6.055   0.042   1.861
 8376TIP3    H125092   5.960   0.047   1.860
 8376TIP3    H225093   6.078   0.058   1.953
 8377TIP3   OH225094   4.764   2.966   2.888
 8377TIP3    H125095   4.702   2.943   2.956
 8377TIP3    H225096   4.763   2.891   2.828
 8378TIP3   OH225097   3.182   5.412   0.566
 8378TIP3    H125098   3.106   5.358   0.545
 8378TIP3    H225099   3.150   5.502   0.554
 8379TIP3   OH225100   1.160   3.054   5.210
 8379TIP3    H125101   1.150   3.007   5.127
 8379TIP3    H225102   1.247   3.094   5.205
 8380TIP3   OH225103   5.704   0.256   5.232
 8380TIP3    H125104   5.642   0.302   5.289
 8380TIP3    H225105   5.667   0.168   5.223
 8381TIP3   OH225106   1.980   2.727   0.517
 8381TIP3    H125107   1.949   2.644   0.481
 8381TIP3    H225108   1.915   2.791   0.489
 8382TIP3   OH225109   5.084   3.596   3.025
 8382TIP3    H125110   5.045   3.660   3.085
 8382TIP3    H225111   5.103   3.645   2.945
 8383TIP3   OH225112   5.590   3.746   4.345
 8383TIP3    H125113   5.580   3.744   4.440
 8383TIP3    H225114   5.514   3.796   4.315
 8384TIP3   OH225115   1.484   4.686   0.151
 8384TIP3    H125116   1.546   4.624   0.113
 8384TIP3    H225117   1.400   4.662   0.112
 8385TIP3   OH225118   7.105   5.359   4.095
 8385TIP3    H125119   7.036   5.318   4.042
 8385TIP3    H225120   7.107   5.308   4.176
 8386TIP3   OH225121   3.696   4.727   2.484
 8386TIP3    H125122   3.768   4.722   2.421
 8386TIP3    H225123   3.624   4.680   2.442
 8387TIP3   OH225124   3.776   2.026   4.518
 8387TIP3    H125125   3.775   1.991   4.429
 8387TIP3    H225126   3.684   2.025   4.545
 8388TIP3   OH225127   4.068   6.173   4.069
 8388TIP3    H125128   4.083   6.250   4.124
 8388TIP3    H225129   4.113   6.101   4.114
 8389TIP3   OH225130   4.519   1.297   3.927
 8389TIP3    H125131   4.558   1.325   4.010
 8389TIP3    H225132   4.586   1.242   3.886
 8390TIP3   OH225133   5.002   0.250   3.886
 8390TIP3    H125134   4.974   0.247   3.977
 8390TIP3    H225135   5.082   0.197   3.884
 8391TIP3   OH225136   1.323   0.181   5.515
 8391TIP3    H125137   1.304   0.206   5.424
 8391TIP3    H225138   1.416   0.157   5.514
 8392TIP3   OH225139   5.949   0.069   0.479
 8392TIP3    H125140   5.918   0.159   0.486
 8392TIP3    H225141   5.991   0.064   0.393
 8393TIP3   OH225142   5.932   5.312   3.268
 8393TIP3    H125143   5.881   5.294   3.347
 8393TIP3    H225144   5.957   5.404   3.275
 8394TIP3   OH225145   3.383   3.847   4.739
 8394TIP3    H125146   3.408   3.846   4.647
 8394TIP3    H225147   3.462   3.822   4.786
 8395TIP3   OH225148   3.069   0.977   5.340
 8395TIP3    H125149   2.982   0.957   5.305
 8395TIP3    H225150   3.073   1.073   5.340
 8396TIP3   OH225151   5.777   4.762   2.656
 8396TIP3    H125152   5.739   4.721   2.578
 8396TIP3    H225153   5.871   4.753   2.645
 8397TIP3   OH225154   6.586   3.079   2.130
 8397TIP3    H125155   6.513   3.045   2.182
 8397TIP3    H225156   6.545   3.119   2.054
 8398TIP3   OH225157   4.109   2.875   3.766
 8398TIP3    H125158   4.068   2.951   3.808
 8398TIP3    H225159   4.044   2.845   3.702
 8399TIP3   OH225160   6.696  -0.010   4.990
 8399TIP3    H125161   6.770   0.006   5.048
 8399TIP3    H225162   6.722   0.027   4.906
 8400TIP3   OH225163   0.520   1.793   0.086
 8400TIP3    H125164   0.569   1.723   0.043
 8400TIP3    H225165   0.523   1.866   0.024
 8401TIP3   OH225166   5.933  -0.008   5.526
 8401TIP3    H125167   5.956   0.060   5.463
 8401TIP3    H225168   5.958   0.028   5.611
 8402TIP3   OH225169   6.571   6.717   2.693
 8402TIP3    H125170   6.557   6.627   2.663
 8402TIP3    H225171   6.516   6.771   2.637
 8403TIP3   OH225172   2.557   5.630   5.283
 8403TIP3    H125173   2.497   5.617   5.210
 8403TIP3    H225174   2.636   5.667   5.244
 8404TIP3   OH225175   7.208   1.381   1.579
 8404TIP3    H125176   7.232   1.297   1.541
 8404TIP3    H225177   7.119   1.398   1.548
 8405TIP3   OH225178   6.539   6.609   0.995
 8405TIP3    H125179   6.566   6.589   1.085
 8405TIP3    H225180   6.520   6.524   0.956
 8406TIP3   OH225181   1.768   2.917   4.247
 8406TIP3    H125182   1.704   2.881   4.186
 8406TIP3    H225183   1.826   2.970   4.193
 8407TIP3   OH225184   5.231   6.115   2.087
 8407TIP3    H125185   5.184   6.052   2.032
 8407TIP3    H225186   5.178   6.121   2.167
 8408TIP3   OH225187   1.465   6.669   3.088
 8408TIP3    H125188   1.452   6.711   3.174
 8408TIP3    H225189   1.488   6.741   3.030
 8409TIP3   OH225190   2.694   0.478   1.676
 8409TIP3    H125191   2.628   0.416   1.706
 8409TIP3    H225192   2.655   0.564   1.691
 8410TIP3   OH225193   4.293   2.942   3.224
 8410TIP3    H125194   4.239   2.908   3.295
 8410TIP3    H225195   4.382   2.939   3.259
 8411TIP3   OH225196   5.348   0.241   4.520
 8411TIP3    H125197   5.280   0.240   4.587
 8411TIP3    H225198   5.348   0.332   4.488
 8412TIP3   OH225199   5.658   6.780   1.957
 8412TIP3    H125200   5.745   6.745   1.938
 8412TIP3    H225201   5.612   6.708   2.000
 8413TIP3   OH225202   3.831   4.176   0.573
 8413TIP3    H125203   3.890   4.222   0.513
 8413TIP3    H225204   3.865   4.087   0.578
 8414TIP3   OH225205   1.993   1.342   4.502
 8414TIP3    H125206   2.041   1.324   4.421
 8414TIP3    H225207   1.908   1.300   4.490
 8415TIP3   OH225208   5.694   2.914   0.145
 8415TIP3    H125209   5.752   2.904   0.069
 8415TIP3    H225210   5.710   3.003   0.175
 8416TIP3   OH225211   6.311   4.547   4.342
 8416TIP3    H125212   6.406   4.554   4.332
 8416TIP3    H225213   6.295   4.574   4.433
 8417TIP3   OH225214   5.717   6.619   5.870
 8417TIP3    H125215   5.697   6.580   5.785
 8417TIP3    H225216   5.647   6.590   5.927
 8418TIP3   OH225217   3.495   1.769   5.322
 8418TIP3    H125218   3.497   1.725   5.407
 8418TIP3    H225219   3.588   1.780   5.299
 8419TIP3   OH225220   6.827   1.914   4.150
 8419TIP3    H125221   6.740   1.906   4.111
 8419TIP3    H225222   6.828   1.850   4.221
 8420TIP3   OH225223   5.780   1.824   5.078
 8420TIP3    H125224   5.690   1.853   5.070
 8420TIP3    H225225   5.829   1.902   5.105
 8421TIP3   OH225226   0.670   5.412   1.677
 8421TIP3    H125227   0.620   5.469   1.736
 8421TIP3    H225228   0.645   5.441   1.589
 8422TIP3   OH225229   1.891   0.705   3.882
 8422TIP3    H125230   1.954   0.633   3.885
 8422TIP3    H225231   1.930   0.774   3.935
 8423TIP3   OH225232   6.189   4.297   3.480
 8423TIP3    H125233   6.157   4.349   3.407
 8423TIP3    H225234   6.153   4.340   3.558
 8424TIP3   OH225235   2.408   6.400   4.129
 8424TIP3    H125236   2.316   6.388   4.104
 8424TIP3    H225237   2.453   6.323   4.095
 8425TIP3   OH225238   6.419   0.307   1.570
 8425TIP3    H125239   6.343   0.363   1.581
 8425TIP3    H225240   6.400   0.230   1.623
 8426TIP3   OH225241   5.651   2.568   4.064
 8426TIP3    H125242   5.584   2.608   4.009
 8426TIP3    H225243   5.717   2.637   4.077
 8427TIP3   OH225244   0.525   6.117   3.922
 8427TIP3    H125245   0.483   6.198   3.893
 8427TIP3    H225246   0.455   6.068   3.965
 8428TIP3   OH225247   6.705   2.868   3.624
 8428TIP3    H125248   6.800   2.856   3.620
 8428TIP3    H225249   6.670   2.787   3.588
 8429TIP3   OH225250   5.894   1.202   3.814
 8429TIP3    H125251   5.877   1.174   3.725
 8429TIP3    H225252   5.903   1.298   3.809
 8430TIP3   OH225253   0.987   3.162   5.612
 8430TIP3    H125254   1.049   3.096   5.642
 8430TIP3    H225255   0.938   3.120   5.542
 8431TIP3   OH225256   3.327   4.801   0.920
 8431TIP3    H125257   3.327   4.732   0.985
 8431TIP3    H225258   3.234   4.816   0.901
 8432TIP3   OH225259   4.733   1.194   2.524
 8432TIP3    H125260   4.806   1.139   2.497
 8432TIP3    H225261   4.689   1.217   2.442
 8433TIP3   OH225262   0.515   5.075   0.759
 8433TIP3    H125263   0.487   5.152   0.807
 8433TIP3    H225264   0.445   5.011   0.772
 8434TIP3   OH225265   0.891   6.302   2.973
 8434TIP3    H125266   0.820   6.355   3.010
 8434TIP3    H225267   0.921   6.247   3.045
 8435TIP3   OH225268   2.434   5.713   3.989
 8435TIP3    H125269   2.343   5.717   4.019
 8435TIP3    H225270   2.478   5.659   4.054
 8436TIP3   OH225271   6.168   3.140   4.478
 8436TIP3    H125272   6.122   3.070   4.524
 8436TIP3    H225273   6.112   3.217   4.490
 8437TIP3   OH225274   3.751   0.926   4.665
 8437TIP3    H125275   3.685   0.947   4.599
 8437TIP3    H225276   3.706   0.868   4.726
 8438TIP3   OH225277   0.688   2.392   1.672
 8438TIP3    H125278   0.746   2.351   1.737
 8438TIP3    H225279   0.690   2.485   1.693
 8439TIP3   OH225280   2.150   3.290   0.211
 8439TIP3    H125281   2.121   3.374   0.247
 8439TIP3    H225282   2.202   3.314   0.134
 8440TIP3   OH225283   3.798   2.222   0.508
 8440TIP3    H125284   3.849   2.189   0.434
 8440TIP3    H225285   3.839   2.306   0.530
 8441TIP3   OH225286   5.842   0.323   5.649
 8441TIP3    H125287   5.827   0.283   5.564
 8441TIP3    H225288   5.921   0.376   5.636
 8442TIP3   OH225289   0.044   5.947   4.692
 8442TIP3    H125290  -0.010   5.895   4.751
 8442TIP3    H225291   0.127   5.959   4.739
 8443TIP3   OH225292   1.895   5.664   3.803
 8443TIP3    H125293   1.960   5.676   3.734
 8443TIP3    H225294   1.831   5.604   3.766
 8444TIP3   OH225295   3.594   3.164   2.280
 8444TIP3    H125296   3.673   3.211   2.253
 8444TIP3    H225297   3.522   3.214   2.242
 8445TIP3   OH225298   1.787   3.658   3.316
 8445TIP3    H125299   1.755   3.737   3.272
 8445TIP3    H225300   1.799   3.685   3.407
 8446TIP3   OH225301   1.620   5.860   1.188
 8446TIP3    H125302   1.671   5.928   1.144
 8446TIP3    H225303   1.683   5.813   1.242
 8447TIP3   OH225304   1.070   1.379   3.993
 8447TIP3    H125305   1.073   1.467   4.028
 8447TIP3    H225306   0.981   1.368   3.960
 8448TIP3   OH225307   0.837   4.522   1.328
 8448TIP3    H125308   0.907   4.571   1.372
 8448TIP3    H225309   0.780   4.492   1.399
 8449TIP3   OH225310   2.809   2.124   0.454
 8449TIP3    H125311   2.787   2.191   0.389
 8449TIP3    H225312   2.732   2.067   0.459
 8450TIP3   OH225313   4.578   1.667   0.040
 8450TIP3    H125314   4.662   1.714   0.037
 8450TIP3    H225315   4.602   1.575   0.043
 8451TIP3   OH225316   7.030   4.904   0.063
 8451TIP3    H125317   7.072   4.823   0.033
 8451TIP3    H225318   6.937   4.886   0.057
 8452TIP3   OH225319   3.652   1.589   1.205
 8452TIP3    H125320   3.651   1.643   1.126
 8452TIP3    H225321   3.744   1.567   1.217
 8453TIP3   OH225322   6.182   1.949   0.758
 8453TIP3    H125323   6.087   1.948   0.741
 8453TIP3    H225324   6.213   1.867   0.720
 8454TIP3   OH225325   0.346   6.195   0.484
 8454TIP3    H125326   0.383   6.250   0.553
 8454TIP3    H225327   0.349   6.249   0.405
 8455TIP3   OH225328   0.934   3.557   4.264
 8455TIP3    H125329   1.029   3.570   4.253
 8455TIP3    H225330   0.918   3.468   4.234
 8456TIP3   OH225331   4.122   5.884   3.044
 8456TIP3    H125332   4.185   5.835   3.097
 8456TIP3    H225333   4.085   5.949   3.105
 8457TIP3   OH225334   5.900   1.826   4.803
 8457TIP3    H125335   5.864   1.837   4.892
 8457TIP3    H225336   5.896   1.732   4.787
 8458TIP3   OH225337   2.916   2.540   1.732
 8458TIP3    H125338   2.864   2.492   1.668
 8458TIP3    H225339   2.920   2.482   1.808
 8459TIP3   OH225340   5.287   6.325   1.911
 8459TIP3    H125341   5.239   6.407   1.919
 8459TIP3    H225342   5.249   6.269   1.979
 8460TIP3   OH225343   2.122   1.471   1.796
 8460TIP3    H125344   2.192   1.406   1.803
 8460TIP3    H225345   2.096   1.468   1.704
 8461TIP3   OH225346   0.501   6.677   5.428
 8461TIP3    H125347   0.512   6.711   5.339
 8461TIP3    H225348   0.406   6.667   5.439
 8462TIP3   OH225349   6.838   1.950   2.652
 8462TIP3    H125350   6.873   1.997   2.728
 8462TIP3    H225351   6.871   1.861   2.663
 8463TIP3   OH225352   5.437   6.156   5.398
 8463TIP3    H125353   5.423   6.234   5.346
 8463TIP3    H225354   5.391   6.086   5.352
 8464TIP3   OH225355   1.714   5.065   0.570
 8464TIP3    H125356   1.652   4.993   0.560
 8464TIP3    H225357   1.798   5.023   0.584
 8465TIP3   OH225358   3.785   6.124   4.606
 8465TIP3    H125359   3.870   6.081   4.611
 8465TIP3    H225360   3.780   6.177   4.686
 8466TIP3   OH225361   6.097   4.495   0.621
 8466TIP3    H125362   6.090   4.400   0.623
 8466TIP3    H225363   6.026   4.526   0.677
 8467TIP3   OH225364   4.832   0.562   3.518
 8467TIP3    H125365   4.747   0.588   3.482
 8467TIP3    H225366   4.872   0.643   3.548
 8468TIP3   OH225367   1.646   6.287   1.629
 8468TIP3    H125368   1.681   6.231   1.698
 8468TIP3    H225369   1.556   6.305   1.658
 8469TIP3   OH225370   2.532   5.555   3.770
 8469TIP3    H125371   2.518   5.614   3.844
 8469TIP3    H225372   2.627   5.555   3.757
 8470TIP3   OH225373   2.009   1.956   0.037
 8470TIP3    H125374   2.007   1.972  -0.057
 8470TIP3    H225375   2.102   1.946   0.059
 8471TIP3   OH225376   4.821   5.317   4.659
 8471TIP3    H125377   4.796   5.225   4.649
 8471TIP3    H225378   4.803   5.357   4.575
 8472TIP3   OH225379   1.273   5.085   3.856
 8472TIP3    H125380   1.324   5.063   3.778
 8472TIP3    H225381   1.237   5.171   3.837
 8473TIP3   OH225382   0.208   4.541   2.171
 8473TIP3    H125383   0.149   4.593   2.225
 8473TIP3    H225384   0.220   4.592   2.092
 8474TIP3   OH225385   5.615   3.505   3.031
 8474TIP3    H125386   5.587   3.432   2.976
 8474TIP3    H225387   5.637   3.574   2.969
 8475TIP3   OH225388   0.236   3.084   5.710
 8475TIP3    H125389   0.147   3.053   5.695
 8475TIP3    H225390   0.292   3.014   5.676
 8476TIP3   OH225391   2.652   4.865   3.471
 8476TIP3    H125392   2.653   4.921   3.548
 8476TIP3    H225393   2.578   4.805   3.486
 8477TIP3   OH225394   4.296   5.038   3.845
 8477TIP3    H125395   4.345   5.091   3.908
 8477TIP3    H225396   4.363   4.991   3.796
 8478TIP3   OH225397   2.941   2.920   4.296
 8478TIP3    H125398   3.033   2.914   4.270
 8478TIP3    H225399   2.942   2.906   4.390
 8479TIP3   OH225400   5.546   2.313   1.135
 8479TIP3    H125401   5.627   2.365   1.134
 8479TIP3    H225402   5.564   2.242   1.197
 8480TIP3   OH225403   6.733   3.510   5.390
 8480TIP3    H125404   6.729   3.419   5.359
 8480TIP3    H225405   6.827   3.526   5.403
 8481TIP3   OH225406   4.188   2.849   4.389
 8481TIP3    H125407   4.252   2.899   4.338
 8481TIP3    H225408   4.203   2.758   4.363
 8482TIP3   OH225409   4.994   1.626   4.847
 8482TIP3    H125410   4.988   1.631   4.942
 8482TIP3    H225411   5.009   1.716   4.819
 8483TIP3   OH225412   2.610   2.758   2.574
 8483TIP3    H125413   2.655   2.829   2.529
 8483TIP3    H225414   2.540   2.732   2.514
 8484TIP3   OH225415   3.952   1.842   4.073
 8484TIP3    H125416   3.992   1.928   4.064
 8484TIP3    H225417   4.021   1.787   4.109
 8485TIP3   OH225418   5.051   4.093   0.952
 8485TIP3    H125419   4.955   4.084   0.958
 8485TIP3    H225420   5.076   4.034   0.881
 8486TIP3   OH225421   1.342   6.756   4.389
 8486TIP3    H125422   1.360   6.715   4.304
 8486TIP3    H225423   1.365   6.848   4.376
 8487TIP3   OH225424   7.192   2.063   0.949
 8487TIP3    H125425   7.097   2.076   0.948
 8487TIP3    H225426   7.206   1.985   1.003
 8488TIP3   OH225427   2.730   4.744   4.426
 8488TIP3    H125428   2.708   4.827   4.467
 8488TIP3    H225429   2.652   4.690   4.437
 8489TIP3   OH225430   5.044   5.635   0.805
 8489TIP3    H125431   5.108   5.706   0.804
 8489TIP3    H225432   4.977   5.661   0.742
 8490TIP3   OH225433   3.034   0.406   2.999
 8490TIP3    H125434   3.000   0.407   3.088
 8490TIP3    H225435   3.106   0.469   2.999
 8491TIP3   OH225436   6.222   2.354   2.781
 8491TIP3    H125437   6.221   2.384   2.690
 8491TIP3    H225438   6.181   2.425   2.830
 8492TIP3   OH225439   5.476   3.310   3.178
 8492TIP3    H125440   5.458   3.294   3.085
 8492TIP3    H225441   5.453   3.402   3.191
 8493TIP3   OH225442   4.474   2.699   2.895
 8493TIP3    H125443   4.427   2.624   2.858
 8493TIP3    H225444   4.406   2.763   2.914
 8494TIP3   OH225445   5.052   0.832   4.150
 8494TIP3    H125446   5.009   0.795   4.072
 8494TIP3    H225447   5.014   0.784   4.223
 8495TIP3   OH225448   4.327   2.042   1.376
 8495TIP3    H125449   4.295   1.960   1.416
 8495TIP3    H225450   4.402   2.067   1.429
 8496TIP3   OH225451   0.138   4.186   3.749
 8496TIP3    H125452   0.125   4.193   3.844
 8496TIP3    H225453   0.100   4.266   3.713
 8497TIP3   OH225454   0.957   2.290   0.779
 8497TIP3    H125455   0.978   2.351   0.708
 8497TIP3    H225456   0.868   2.259   0.758
 8498TIP3   OH225457   3.784   3.364   2.266
 8498TIP3    H125458   3.851   3.371   2.334
 8498TIP3    H225459   3.833   3.371   2.183
 8499TIP3   OH225460   4.107   0.201   1.284
 8499TIP3    H125461   4.044   0.273   1.292
 8499TIP3    H225462   4.059   0.132   1.239
 8500TIP3   OH225463   1.816   2.181   4.644
 8500TIP3    H125464   1.821   2.120   4.570
 8500TIP3    H225465   1.793   2.125   4.719
 8501TIP3   OH225466   2.507   6.090   3.416
 8501TIP3    H125467   2.600   6.066   3.415
 8501TIP3    H225468   2.506   6.182   3.389
 8502TIP3   OH225469   0.236   1.332   4.033
 8502TIP3    H125470   0.155   1.367   4.070
 8502TIP3    H225471   0.210   1.298   3.947
 8503TIP3   OH225472   1.462   4.505   4.545
 8503TIP3    H125473   1.536   4.545   4.500
 8503TIP3    H225474   1.464   4.542   4.633
 8504TIP3   OH225475   0.378   0.240   0.667
 8504TIP3    H125476   0.361   0.157   0.623
 8504TIP3    H225477   0.449   0.222   0.727
 8505TIP3   OH225478   0.541   5.991   1.671
 8505TIP3    H125479   0.544   6.056   1.601
 8505TIP3    H225480   0.620   5.938   1.658
 8506TIP3   OH225481   3.129   1.401   5.553
 8506TIP3    H125482   3.102   1.468   5.616
 8506TIP3    H225483   3.222   1.419   5.537
 8507TIP3   OH225484   4.771   0.894   0.244
 8507TIP3    H125485   4.731   0.978   0.225
 8507TIP3    H225486   4.754   0.880   0.337
 8508TIP3   OH225487   0.070   4.639   3.871
 8508TIP3    H125488   0.041   4.564   3.819
 8508TIP3    H225489   0.003   4.706   3.857
 8509TIP3   OH225490   6.695   0.256   0.096
 8509TIP3    H125491   6.649   0.174   0.075
 8509TIP3    H225492   6.768   0.228   0.152
 8510TIP3   OH225493   1.240   4.904   3.407
 8510TIP3    H125494   1.316   4.896   3.350
 8510TIP3    H225495   1.199   4.817   3.404
 8511TIP3   OH225496   3.782   5.321   3.099
 8511TIP3    H125497   3.740   5.239   3.074
 8511TIP3    H225498   3.783   5.320   3.195
 8512TIP3   OH225499   4.487   5.253   1.739
 8512TIP3    H125500   4.455   5.342   1.724
 8512TIP3    H225501   4.491   5.214   1.651
 8513TIP3   OH225502   2.105   5.506   4.597
 8513TIP3    H125503   2.097   5.454   4.677
 8513TIP3    H225504   2.197   5.531   4.593
 8514TIP3   OH225505   4.907   6.122   4.200
 8514TIP3    H125506   4.962   6.057   4.243
 8514TIP3    H225507   4.967   6.194   4.179
 8515TIP3   OH225508   5.781   5.698   0.675
 8515TIP3    H125509   5.702   5.747   0.697
 8515TIP3    H225510   5.835   5.760   0.627
 8516TIP3   OH225511   3.175   2.806   0.707
 8516TIP3    H125512   3.127   2.747   0.650
 8516TIP3    H225513   3.140   2.789   0.794
 8517TIP3   OH225514   3.648   3.793   4.840
 8517TIP3    H125515   3.720   3.844   4.803
 8517TIP3    H225516   3.632   3.832   4.925
 8518TIP3   OH225517   2.798   5.028   2.459
 8518TIP3    H125518   2.752   5.110   2.439
 8518TIP3    H225519   2.890   5.046   2.436
 8519TIP3   OH225520   6.448   4.510   3.790
 8519TIP3    H125521   6.424   4.563   3.867
 8519TIP3    H225522   6.527   4.464   3.817
 8520TIP3   OH225523   1.548   1.288   1.961
 8520TIP3    H125524   1.490   1.355   1.924
 8520TIP3    H225525   1.533   1.211   1.907
 8521TIP3   OH225526   5.972   4.497   5.264
 8521TIP3    H125527   5.891   4.541   5.291
 8521TIP3    H225528   5.944   4.408   5.242
 8522TIP3   OH225529   0.071   3.177   4.579
 8522TIP3    H125530   0.159   3.139   4.579
 8522TIP3    H225531   0.022   3.122   4.640
 8523TIP3   OH225532   7.139   5.135   4.697
 8523TIP3    H125533   7.196   5.120   4.772
 8523TIP3    H225534   7.197   5.170   4.629
 8524TIP3   OH225535   2.493   4.148   3.112
 8524TIP3    H125536   2.577   4.185   3.140
 8524TIP3    H225537   2.446   4.129   3.193
 8525TIP3   OH225538   3.130   2.560   4.252
 8525TIP3    H125539   3.037   2.541   4.239
 8525TIP3    H225540   3.176   2.492   4.205
 8526TIP3   OH225541   4.967   5.865   4.658
 8526TIP3    H125542   4.945   5.954   4.631
 8526TIP3    H225543   5.056   5.851   4.627
 8527TIP3   OH225544   0.121   1.019   5.765
 8527TIP3    H125545   0.169   1.093   5.729
 8527TIP3    H225546   0.164   0.942   5.727
 8528TIP3   OH225547   3.076   1.645   1.170
 8528TIP3    H125548   3.001   1.702   1.157
 8528TIP3    H225549   3.083   1.635   1.265
 8529TIP3   OH225550   1.744   0.824   0.571
 8529TIP3    H125551   1.784   0.824   0.485
 8529TIP3    H225552   1.678   0.892   0.568
 8530TIP3   OH225553   4.604   5.078   3.025
 8530TIP3    H125554   4.663   5.149   3.051
 8530TIP3    H225555   4.656   5.024   2.966
 8531TIP3   OH225556   1.408   3.038   5.685
 8531TIP3    H125557   1.316   3.014   5.691
 8531TIP3    H225558   1.421   3.067   5.595
 8532TIP3   OH225559   4.111   4.926   3.995
 8532TIP3    H125560   4.153   4.894   4.074
 8532TIP3    H225561   4.178   4.976   3.950
 8533TIP3   OH225562   2.908   1.472   1.344
 8533TIP3    H125563   2.891   1.533   1.272
 8533TIP3    H225564   2.991   1.501   1.382
 8534TIP3   OH225565   1.294   3.961   2.686
 8534TIP3    H125566   1.373   3.972   2.739
 8534TIP3    H225567   1.322   3.979   2.596
 8535TIP3   OH225568   6.467   5.262   3.709
 8535TIP3    H125569   6.547   5.266   3.658
 8535TIP3    H225570   6.434   5.352   3.708
 8536TIP3   OH225571   3.445   4.321   2.686
 8536TIP3    H125572   3.435   4.379   2.762
 8536TIP3    H225573   3.383   4.355   2.622
 8537TIP3   OH225574   1.045   3.891   3.338
 8537TIP3    H125575   0.953   3.890   3.362
 8537TIP3    H225576   1.070   3.799   3.337
 8538TIP3   OH225577   3.500   0.497   3.970
 8538TIP3    H125578   3.546   0.435   4.027
 8538TIP3    H225579   3.450   0.441   3.911
 8539TIP3   OH225580   1.546   2.452   4.761
 8539TIP3    H125581   1.526   2.364   4.730
 8539TIP3    H225582   1.535   2.508   4.683
 8540TIP3   OH225583   4.225   4.159   0.688
 8540TIP3    H125584   4.248   4.067   0.669
 8540TIP3    H225585   4.225   4.201   0.602
 8541TIP3   OH225586   2.240   0.836   0.069
 8541TIP3    H125587   2.290   0.837  -0.012
 8541TIP3    H225588   2.296   0.789   0.131
 8542TIP3   OH225589   4.180   1.422   1.059
 8542TIP3    H125590   4.133   1.486   1.005
 8542TIP3    H225591   4.254   1.395   1.005
 8543TIP3   OH225592   1.332   1.190   0.821
 8543TIP3    H125593   1.337   1.097   0.843
 8543TIP3    H225594   1.412   1.208   0.772
 8544TIP3   OH225595   1.691   6.638   0.744
 8544TIP3    H125596   1.716   6.620   0.834
 8544TIP3    H225597   1.637   6.563   0.718
 8545TIP3   OH225598   3.738   1.335   5.518
 8545TIP3    H125599   3.750   1.333   5.424
 8545TIP3    H225600   3.808   1.279   5.553
 8546TIP3   OH225601   4.179   3.719   1.035
 8546TIP3    H125602   4.188   3.809   1.065
 8546TIP3    H225603   4.190   3.725   0.940
 8547TIP3   OH225604   4.363   2.754   1.115
 8547TIP3    H125605   4.318   2.802   1.045
 8547TIP3    H225606   4.318   2.669   1.117
 8548TIP3   OH225607   4.361   6.571   2.828
 8548TIP3    H125608   4.384   6.480   2.848
 8548TIP3    H225609   4.429   6.601   2.769
 8549TIP3   OH225610   6.757   2.030   3.236
 8549TIP3    H125611   6.702   1.953   3.220
 8549TIP3    H225612   6.845   2.000   3.214
 8550TIP3   OH225613   2.299   1.253   4.407
 8550TIP3    H125614   2.278   1.343   4.381
 8550TIP3    H225615   2.298   1.254   4.503
 8551TIP3   OH225616   1.923   4.827   3.161
 8551TIP3    H125617   1.956   4.895   3.220
 8551TIP3    H225618   1.878   4.875   3.092
 8552TIP3   OH225619   2.208   5.802   2.771
 8552TIP3    H125620   2.218   5.801   2.676
 8552TIP3    H225621   2.122   5.762   2.787
 8553TIP3   OH225622   3.525   3.494   4.122
 8553TIP3    H125623   3.596   3.531   4.070
 8553TIP3    H225624   3.450   3.492   4.063
 8554TIP3   OH225625   1.483   2.820   0.953
 8554TIP3    H125626   1.422   2.808   0.880
 8554TIP3    H225627   1.562   2.773   0.926
 8555TIP3   OH225628   0.680   5.043   4.539
 8555TIP3    H125629   0.693   4.988   4.617
 8555TIP3    H225630   0.707   5.130   4.567
 8556TIP3   OH225631   6.114   5.082   1.905
 8556TIP3    H125632   6.072   5.034   1.833
 8556TIP3    H225633   6.072   5.047   1.984
 8557TIP3   OH225634   3.502   5.034   5.324
 8557TIP3    H125635   3.521   4.952   5.369
 8557TIP3    H225636   3.503   5.100   5.393
 8558TIP3   OH225637   3.475   6.305   3.654
 8558TIP3    H125638   3.427   6.378   3.616
 8558TIP3    H225639   3.534   6.275   3.585
 8559TIP3   OH225640   1.740   6.112   1.800
 8559TIP3    H125641   1.806   6.046   1.778
 8559TIP3    H225642   1.772   6.150   1.883
 8560TIP3   OH225643   0.387   3.359   4.731
 8560TIP3    H125644   0.362   3.302   4.803
 8560TIP3    H225645   0.445   3.306   4.676
 8561TIP3   OH225646   1.028   5.485   1.359
 8561TIP3    H125647   0.977   5.407   1.340
 8561TIP3    H225648   0.964   5.552   1.382
 8562TIP3   OH225649   4.237   3.461   4.904
 8562TIP3    H125650   4.240   3.530   4.838
 8562TIP3    H225651   4.215   3.506   4.985
 8563TIP3   OH225652   0.823   2.255   5.836
 8563TIP3    H125653   0.865   2.248   5.922
 8563TIP3    H225654   0.732   2.229   5.852
 8564TIP3   OH225655   4.613   1.416   2.325
 8564TIP3    H125656   4.565   1.435   2.405
 8564TIP3    H225657   4.686   1.478   2.326
 8565TIP3   OH225658   7.101   4.760   5.670
 8565TIP3    H125659   7.133   4.760   5.760
 8565TIP3    H225660   7.162   4.818   5.623
 8566TIP3   OH225661   5.935   0.218   5.365
 8566TIP3    H125662   5.854   0.222   5.313
 8566TIP3    H225663   5.971   0.306   5.360
 8567TIP3   OH225664   4.940   2.834   4.222
 8567TIP3    H125665   4.925   2.900   4.154
 8567TIP3    H225666   4.991   2.881   4.289
 8568TIP3   OH225667   4.759   6.641   0.128
 8568TIP3    H125668   4.698   6.604   0.192
 8568TIP3    H225669   4.741   6.593   0.047
 8569TIP3   OH225670   3.006   4.415   0.632
 8569TIP3    H125671   2.966   4.432   0.718
 8569TIP3    H225672   2.937   4.437   0.569
 8570TIP3   OH225673   0.767   5.008   0.637
 8570TIP3    H125674   0.676   5.024   0.661
 8570TIP3    H225675   0.814   5.085   0.668
 8571TIP3   OH225676   6.015   2.672   0.542
 8571TIP3    H125677   5.935   2.705   0.583
 8571TIP3    H225678   6.062   2.751   0.515
 8572TIP3   OH225679   1.356   2.789   3.328
 8572TIP3    H125680   1.276   2.752   3.291
 8572TIP3    H225681   1.425   2.761   3.267
 8573TIP3   OH225682   0.166   4.143   2.689
 8573TIP3    H125683   0.212   4.226   2.674
 8573TIP3    H225684   0.236   4.078   2.691
 8574TIP3   OH225685   7.132   5.185   0.128
 8574TIP3    H125686   7.221   5.192   0.094
 8574TIP3    H225687   7.103   5.098   0.102
 8575TIP3   OH225688   6.364   0.416   3.259
 8575TIP3    H125689   6.314   0.482   3.210
 8575TIP3    H225690   6.299   0.372   3.313
 8576TIP3   OH225691   2.449   1.605   0.323
 8576TIP3    H125692   2.422   1.550   0.396
 8576TIP3    H225693   2.524   1.654   0.356
 8577TIP3   OH225694   3.353   5.655   1.164
 8577TIP3    H125695   3.386   5.745   1.169
 8577TIP3    H225696   3.273   5.662   1.112
 8578TIP3   OH225697   3.483   6.267   2.359
 8578TIP3    H125698   3.567   6.221   2.362
 8578TIP3    H225699   3.482   6.321   2.437
 8579TIP3   OH225700   5.928   5.457   3.965
 8579TIP3    H125701   5.913   5.466   4.059
 8579TIP3    H225702   5.859   5.509   3.925
 8580TIP3   OH225703   6.505   1.078   4.311
 8580TIP3    H125704   6.461   1.080   4.226
 8580TIP3    H225705   6.479   0.993   4.348
 8581TIP3   OH225706   0.992   6.472   1.989
 8581TIP3    H125707   1.064   6.426   1.947
 8581TIP3    H225708   0.987   6.556   1.943
 8582TIP3   OH225709   2.482   3.077   1.313
 8582TIP3    H125710   2.511   3.007   1.372
 8582TIP3    H225711   2.408   3.117   1.359
 8583TIP3   OH225712   3.402   0.675   4.864
 8583TIP3    H125713   3.398   0.742   4.933
 8583TIP3    H225714   3.310   0.658   4.842
 8584TIP3   OH225715   5.016   4.345   3.641
 8584TIP3    H125716   5.085   4.298   3.594
 8584TIP3    H225717   4.994   4.288   3.714
 8585TIP3   OH225718   6.599   2.219   3.671
 8585TIP3    H125719   6.606   2.310   3.701
 8585TIP3    H225720   6.624   2.222   3.579
 8586TIP3   OH225721   5.619   0.396   1.991
 8586TIP3    H125722   5.554   0.461   2.019
 8586TIP3    H225723   5.580   0.354   1.915
 8587TIP3   OH225724   4.742   4.852   3.582
 8587TIP3    H125725   4.726   4.786   3.649
 8587TIP3    H225726   4.811   4.814   3.528
 8588TIP3   OH225727   1.548   1.657   5.176
 8588TIP3    H125728   1.560   1.751   5.188
 8588TIP3    H225729   1.557   1.643   5.082
 8589TIP3   OH225730   7.137   4.095   2.822
 8589TIP3    H125731   7.192   4.094   2.901
 8589TIP3    H225732   7.200   4.082   2.750
 8590TIP3   OH225733   2.368   5.878   3.769
 8590TIP3    H125734   2.376   5.839   3.856
 8590TIP3    H225735   2.447   5.932   3.759
 8591TIP3   OH225736   7.016   4.045   5.773
 8591TIP3    H125737   7.064   4.127   5.768
 8591TIP3    H225738   7.023   4.020   5.865
 8592TIP3   OH225739   3.767   0.602   4.242
 8592TIP3    H125740   3.726   0.658   4.177
 8592TIP3    H225741   3.768   0.515   4.203
 8593TIP3   OH225742   2.600   1.965   0.527
 8593TIP3    H125743   2.631   1.927   0.609
 8593TIP3    H225744   2.505   1.970   0.537
 8594TIP3   OH225745   1.078   3.282   1.857
 8594TIP3    H125746   1.139   3.343   1.899
 8594TIP3    H225747   0.992   3.323   1.867
 8595TIP3   OH225748   4.751   4.052   2.804
 8595TIP3    H125749   4.713   4.011   2.881
 8595TIP3    H225750   4.688   4.120   2.779
 8596TIP3   OH225751   7.150   1.726   4.137
 8596TIP3    H125752   7.170   1.818   4.119
 8596TIP3    H225753   7.083   1.702   4.073
 8597TIP3   OH225754   6.977   6.528   3.327
 8597TIP3    H125755   7.029   6.475   3.388
 8597TIP3    H225756   6.951   6.605   3.377
 8598TIP3   OH225757   6.185   5.169   3.641
 8598TIP3    H125758   6.243   5.132   3.574
 8598TIP3    H225759   6.218   5.258   3.654
 8599TIP3   OH225760   3.233   2.826   2.822
 8599TIP3    H125761   3.214   2.786   2.737
 8599TIP3    H225762   3.326   2.850   2.816
 8600TIP3   OH225763   0.934   4.845   1.289
 8600TIP3    H125764   0.979   4.768   1.324
 8600TIP3    H225765   0.913   4.821   1.199
 8601TIP3   OH225766   3.889   3.101   2.104
 8601TIP3    H125767   3.949   3.171   2.130
 8601TIP3    H225768   3.917   3.025   2.155
 8602TIP3   OH225769   6.927   1.040   0.082
 8602TIP3    H125770   6.881   1.089   0.150
 8602TIP3    H225771   6.901   1.083   0.000
 8603TIP3   OH225772   4.170   0.813   2.574
 8603TIP3    H125773   4.262   0.791   2.566
 8603TIP3    H225774   4.140   0.769   2.654
 8604TIP3   OH225775   4.262   2.893   0.915
 8604TIP3    H125776   4.283   2.980   0.948
 8604TIP3    H225777   4.193   2.908   0.851
 8605TIP3   OH225778   2.204   0.305   4.238
 8605TIP3    H125779   2.282   0.276   4.191
 8605TIP3    H225780   2.211   0.401   4.239
 8606TIP3   OH225781   2.730   4.863   4.913
 8606TIP3    H125782   2.680   4.786   4.940
 8606TIP3    H225783   2.674   4.906   4.848
 8607TIP3   OH225784   2.116   4.900   0.376
 8607TIP3    H125785   2.209   4.917   0.363
 8607TIP3    H225786   2.088   4.859   0.294
 8608TIP3   OH225787   0.486   5.917   0.771
 8608TIP3    H125788   0.442   5.845   0.816
 8608TIP3    H225789   0.470   5.993   0.826
 8609TIP3   OH225790   1.704   2.743   0.787
 8609TIP3    H125791   1.653   2.783   0.718
 8609TIP3    H225792   1.794   2.744   0.755
 8610TIP3   OH225793   0.279   6.619   0.470
 8610TIP3    H125794   0.274   6.713   0.453
 8610TIP3    H225795   0.194   6.598   0.509
 8611TIP3   OH225796   5.510   2.558   2.442
 8611TIP3    H125797   5.597   2.522   2.425
 8611TIP3    H225798   5.471   2.568   2.355
 8612TIP3   OH225799   1.656   0.051   0.876
 8612TIP3    H125800   1.695  -0.022   0.924
 8612TIP3    H225801   1.562   0.035   0.879
 8613TIP3   OH225802   3.986   1.035   1.744
 8613TIP3    H125803   4.029   0.979   1.808
 8613TIP3    H225804   3.960   0.976   1.673
 8614TIP3   OH225805   5.452   0.307   3.769
 8614TIP3    H125806   5.533   0.337   3.729
 8614TIP3    H225807   5.390   0.298   3.696
 8615TIP3   OH225808   3.404   1.043   1.265
 8615TIP3    H125809   3.335   0.977   1.278
 8615TIP3    H225810   3.485   0.995   1.279
 8616TIP3   OH225811   4.572   1.735   1.369
 8616TIP3    H125812   4.647   1.750   1.312
 8616TIP3    H225813   4.500   1.782   1.327
 8617TIP3   OH225814   1.478   0.407   4.706
 8617TIP3    H125815   1.475   0.329   4.650
 8617TIP3    H225816   1.571   0.430   4.711
 8618TIP3   OH225817   0.580   0.690   2.526
 8618TIP3    H125818   0.656   0.676   2.583
 8618TIP3    H225819   0.618   0.715   2.441
 8619TIP3   OH225820   5.180   2.021   1.829
 8619TIP3    H125821   5.264   2.058   1.855
 8619TIP3    H225822   5.127   2.023   1.909
 8620TIP3   OH225823   0.192   4.992   4.262
 8620TIP3    H125824   0.152   4.908   4.284
 8620TIP3    H225825   0.272   4.995   4.314
 8621TIP3   OH225826   1.471   3.198   0.529
 8621TIP3    H125827   1.562   3.173   0.545
 8621TIP3    H225828   1.429   3.117   0.499
 8622TIP3   OH225829   3.475   5.622   1.710
 8622TIP3    H125830   3.546   5.682   1.730
 8622TIP3    H225831   3.517   5.551   1.660
 8623TIP3   OH225832   4.640   5.517   3.496
 8623TIP3    H125833   4.733   5.514   3.472
 8623TIP3    H225834   4.638   5.571   3.576
 8624TIP3   OH225835   6.481   1.447   1.232
 8624TIP3    H125836   6.432   1.454   1.315
 8624TIP3    H225837   6.436   1.508   1.174
 8625TIP3   OH225838   0.671   3.627   1.512
 8625TIP3    H125839   0.761   3.634   1.481
 8625TIP3    H225840   0.670   3.547   1.565
 8626TIP3   OH225841   5.215   1.552   5.151
 8626TIP3    H125842   5.214   1.498   5.072
 8626TIP3    H225843   5.134   1.602   5.148
 8627TIP3   OH225844   2.589   2.786   5.203
 8627TIP3    H125845   2.621   2.758   5.289
 8627TIP3    H225846   2.544   2.868   5.219
 8628TIP3   OH225847   0.987   0.100   3.963
 8628TIP3    H125848   1.022   0.015   3.939
 8628TIP3    H225849   0.900   0.082   3.998
 8629TIP3   OH225850   0.569   4.598   2.008
 8629TIP3    H125851   0.579   4.670   1.946
 8629TIP3    H225852   0.508   4.538   1.965
 8630TIP3   OH225853   0.096   5.780   3.939
 8630TIP3    H125854   0.124   5.699   3.897
 8630TIP3    H225855   0.014   5.758   3.982
 8631TIP3   OH225856   0.899   5.233   4.451
 8631TIP3    H125857   0.883   5.322   4.482
 8631TIP3    H225858   0.972   5.241   4.390
 8632TIP3   OH225859   0.840   3.893   0.974
 8632TIP3    H125860   0.824   3.803   1.001
 8632TIP3    H225861   0.847   3.889   0.879
 8633TIP3   OH225862   6.594   5.311   1.869
 8633TIP3    H125863   6.640   5.282   1.789
 8633TIP3    H225864   6.529   5.243   1.885
 8634TIP3   OH225865   1.868   4.780   0.784
 8634TIP3    H125866   1.954   4.756   0.819
 8634TIP3    H225867   1.887   4.816   0.698
 8635TIP3   OH225868   6.922   1.607   3.972
 8635TIP3    H125869   6.935   1.650   3.888
 8635TIP3    H225870   6.828   1.614   3.989
 8636TIP3   OH225871   6.492   4.810   4.513
 8636TIP3    H125872   6.542   4.826   4.593
 8636TIP3    H225873   6.409   4.855   4.527
 8637TIP3   OH225874   0.298   4.172   0.367
 8637TIP3    H125875   0.356   4.248   0.375
 8637TIP3    H225876   0.276   4.149   0.457
 8638TIP3   OH225877   6.693   0.876   3.075
 8638TIP3    H125878   6.634   0.949   3.092
 8638TIP3    H225879   6.709   0.838   3.161
 8639TIP3   OH225880   2.867   6.724   1.538
 8639TIP3    H125881   2.957   6.697   1.555
 8639TIP3    H225882   2.865   6.743   1.444
 8640TIP3   OH225883   3.468   3.804   1.765
 8640TIP3    H125884   3.408   3.793   1.838
 8640TIP3    H225885   3.506   3.891   1.779
 8641TIP3   OH225886   3.372   3.391   2.527
 8641TIP3    H125887   3.293   3.387   2.472
 8641TIP3    H225888   3.349   3.449   2.599
 8642TIP3   OH225889   0.969   4.646   4.032
 8642TIP3    H125890   1.062   4.627   4.017
 8642TIP3    H225891   0.964   4.742   4.028
 8643TIP3   OH225892   3.963   3.824   2.817
 8643TIP3    H125893   3.986   3.903   2.769
 8643TIP3    H225894   3.868   3.816   2.805
 8644TIP3   OH225895   6.956   2.751   0.620
 8644TIP3    H125896   7.028   2.759   0.682
 8644TIP3    H225897   6.991   2.696   0.549
 8645TIP3   OH225898   1.192   4.101   3.425
 8645TIP3    H125899   1.136   4.170   3.461
 8645TIP3    H225900   1.131   4.032   3.398
 8646TIP3   OH225901   6.185   1.343   4.667
 8646TIP3    H125902   6.147   1.318   4.751
 8646TIP3    H225903   6.279   1.348   4.684
 8647TIP3   OH225904   4.970   4.006   3.207
 8647TIP3    H125905   5.002   4.013   3.297
 8647TIP3    H225906   4.943   3.914   3.198
 8648TIP3   OH225907   2.312   4.186   2.709
 8648TIP3    H125908   2.277   4.122   2.770
 8648TIP3    H225909   2.236   4.219   2.662
 8649TIP3   OH225910   4.127   1.152   4.882
 8649TIP3    H125911   4.201   1.110   4.926
 8649TIP3    H225912   4.098   1.087   4.818
 8650TIP3   OH225913   3.868   4.711   1.309
 8650TIP3    H125914   3.789   4.662   1.334
 8650TIP3    H225915   3.931   4.643   1.285
 8651TIP3   OH225916   1.071   3.150   0.032
 8651TIP3    H125917   1.121   3.209  -0.025
 8651TIP3    H225918   0.987   3.193   0.043
 8652TIP3   OH225919   6.341   0.557   3.573
 8652TIP3    H125920   6.389   0.483   3.611
 8652TIP3    H225921   6.257   0.519   3.547
 8653TIP3   OH225922   4.182   0.439   3.461
 8653TIP3    H125923   4.172   0.474   3.550
 8653TIP3    H225924   4.246   0.368   3.470
 8654TIP3   OH225925   3.473   0.393   4.400
 8654TIP3    H125926   3.428   0.390   4.484
 8654TIP3    H225927   3.475   0.302   4.371
 8655TIP3   OH225928   4.917   5.449   2.211
 8655TIP3    H125929   4.864   5.487   2.141
 8655TIP3    H225930   4.961   5.523   2.252
 8656TIP3   OH225931   6.947   1.291   2.638
 8656TIP3    H125932   7.001   1.212   2.640
 8656TIP3    H225933   6.897   1.288   2.719
 8657TIP3   OH225934   3.944   3.524   4.822
 8657TIP3    H125935   3.985   3.465   4.886
 8657TIP3    H225936   3.909   3.466   4.755
 8658TIP3   OH225937   3.487   1.512   3.037
 8658TIP3    H125938   3.457   1.460   2.962
 8658TIP3    H225939   3.451   1.599   3.022
 8659TIP3   OH225940   2.140   4.668   1.809
 8659TIP3    H125941   2.175   4.617   1.736
 8659TIP3    H225942   2.194   4.748   1.811
 8660TIP3   OH225943   1.122   6.651   4.546
 8660TIP3    H125944   1.085   6.603   4.473
 8660TIP3    H225945   1.192   6.704   4.508
 8661TIP3   OH225946   3.701   2.334   5.694
 8661TIP3    H125947   3.711   2.427   5.674
 8661TIP3    H225948   3.609   2.324   5.717
 8662TIP3   OH225949   5.396   3.958   0.889
 8662TIP3    H125950   5.438   4.035   0.852
 8662TIP3    H225951   5.424   3.957   0.981
 8663TIP3   OH225952   4.493   4.995   0.180
 8663TIP3    H125953   4.581   5.018   0.149
 8663TIP3    H225954   4.439   4.994   0.101
 8664TIP3   OH225955   3.036   3.936   3.587
 8664TIP3    H125956   2.994   3.991   3.522
 8664TIP3    H225957   2.974   3.933   3.660
 8665TIP3   OH225958   0.397   1.851   4.836
 8665TIP3    H125959   0.360   1.785   4.777
 8665TIP3    H225960   0.403   1.807   4.921
 8666TIP3   OH225961   7.085   2.436   5.186
 8666TIP3    H125962   7.140   2.362   5.157
 8666TIP3    H225963   7.015   2.441   5.121
 8667TIP3   OH225964   7.166   0.435   2.211
 8667TIP3    H125965   7.254   0.445   2.173
 8667TIP3    H225966   7.126   0.521   2.201
 8668TIP3   OH225967   6.772   1.764   2.965
 8668TIP3    H125968   6.857   1.727   2.987
 8668TIP3    H225969   6.793   1.846   2.920
 8669TIP3   OH225970   6.073   6.419   1.310
 8669TIP3    H125971   6.107   6.493   1.258
 8669TIP3    H225972   6.123   6.344   1.279
 8670TIP3   OH225973   1.327   0.443   1.342
 8670TIP3    H125974   1.329   0.511   1.410
 8670TIP3    H225975   1.400   0.466   1.284
 8671TIP3   OH225976   5.400   1.743   5.461
 8671TIP3    H125977   5.392   1.759   5.367
 8671TIP3    H225978   5.484   1.783   5.485
 8672TIP3   OH225979   6.046   0.902   1.563
 8672TIP3    H125980   6.038   0.978   1.620
 8672TIP3    H225981   6.055   0.828   1.622
 8673TIP3   OH225982   2.480   1.922   4.467
 8673TIP3    H125983   2.493   1.845   4.523
 8673TIP3    H225984   2.556   1.923   4.409
 8674TIP3   OH225985   2.098   5.872   1.000
 8674TIP3    H125986   2.179   5.839   0.961
 8674TIP3    H225987   2.054   5.919   0.928
 8675TIP3   OH225988   1.965   6.789   4.119
 8675TIP3    H125989   1.898   6.786   4.187
 8675TIP3    H225990   1.916   6.798   4.037
 8676TIP3   OH225991   0.831   0.621   0.201
 8676TIP3    H125992   0.772   0.675   0.149
 8676TIP3    H225993   0.907   0.607   0.145
 8677TIP3   OH225994   1.395   0.837   4.808
 8677TIP3    H125995   1.386   0.784   4.729
 8677TIP3    H225996   1.433   0.920   4.778
 8678TIP3   OH225997   0.878   3.528   3.630
 8678TIP3    H125998   0.968   3.540   3.600
 8678TIP3    H225999   0.825   3.568   3.562
 8679TIP3   OH226000   4.209   3.237   3.942
 8679TIP3    H126001   4.298   3.231   3.907
 8679TIP3    H226002   4.214   3.304   4.010
 8680TIP3   OH226003   1.439   3.321   5.240
 8680TIP3    H126004   1.458   3.387   5.174
 8680TIP3    H226005   1.523   3.278   5.255
 8681TIP3   OH226006   6.403   0.194   4.176
 8681TIP3    H126007   6.402   0.278   4.222
 8681TIP3    H226008   6.318   0.188   4.135
 8682TIP3   OH226009   6.476   1.048   0.098
 8682TIP3    H126010   6.462   0.970   0.152
 8682TIP3    H226011   6.416   1.037   0.024
 8683TIP3   OH226012   2.319   3.491   4.815
 8683TIP3    H126013   2.367   3.574   4.815
 8683TIP3    H226014   2.279   3.487   4.728
 8684TIP3   OH226015   1.499   0.380   3.665
 8684TIP3    H126016   1.556   0.456   3.658
 8684TIP3    H226017   1.484   0.351   3.575
 8685TIP3   OH226018   2.967   6.363   3.497
 8685TIP3    H126019   2.908   6.296   3.530
 8685TIP3    H226020   3.053   6.321   3.495
 8686TIP3   OH226021   0.166   4.488   4.088
 8686TIP3    H126022   0.201   4.520   4.171
 8686TIP3    H226023   0.173   4.563   4.028
 8687TIP3   OH226024   4.583   1.226   0.465
 8687TIP3    H126025   4.590   1.173   0.544
 8687TIP3    H226026   4.557   1.312   0.496
 8688TIP3   OH226027   7.095   5.551   3.055
 8688TIP3    H126028   7.187   5.577   3.047
 8688TIP3    H226029   7.060   5.607   3.125
 8689TIP3   OH226030   5.592   4.677   3.536
 8689TIP3    H126031   5.619   4.721   3.617
 8689TIP3    H226032   5.508   4.636   3.559
 8690TIP3   OH226033   7.193   5.693   1.592
 8690TIP3    H126034   7.134   5.649   1.530
 8690TIP3    H226035   7.194   5.635   1.669
 8691TIP3   OH226036   2.929   6.470   5.704
 8691TIP3    H126037   2.926   6.545   5.645
 8691TIP3    H226038   2.864   6.409   5.668
 8692TIP3   OH226039   3.406   4.997   2.152
 8692TIP3    H126040   3.395   5.024   2.061
 8692TIP3    H226041   3.497   4.967   2.158
 8693TIP3   OH226042   6.063   6.565   5.341
 8693TIP3    H126043   6.094   6.531   5.425
 8693TIP3    H226044   6.116   6.643   5.325
 8694TIP3   OH226045   3.416   0.065   3.936
 8694TIP3    H126046   3.504   0.072   3.899
 8694TIP3    H226047   3.430   0.048   4.029
 8695TIP3   OH226048   5.369   0.003   4.010
 8695TIP3    H126049   5.409   0.056   4.079
 8695TIP3    H226050   5.442  -0.039   3.966
 8696TIP3   OH226051   2.158   5.728   1.732
 8696TIP3    H126052   2.120   5.726   1.820
 8696TIP3    H226053   2.092   5.687   1.676
 8697TIP3   OH226054   0.953   0.550   3.886
 8697TIP3    H126055   0.940   0.462   3.850
 8697TIP3    H226056   0.894   0.606   3.836
 8698TIP3   OH226057   5.842   2.525   4.488
 8698TIP3    H126058   5.917   2.537   4.548
 8698TIP3    H226059   5.865   2.448   4.437
 8699TIP3   OH226060   5.913   2.731   0.051
 8699TIP3    H126061   5.985   2.732   0.114
 8699TIP3    H226062   5.840   2.691   0.099
 8700TIP3   OH226063   4.105   6.688   0.376
 8700TIP3    H126064   4.059   6.638   0.444
 8700TIP3    H226065   4.195   6.655   0.379
 8701TIP3   OH226066   1.184   6.344   3.004
 8701TIP3    H126067   1.255   6.366   2.943
 8701TIP3    H226068   1.106   6.382   2.964
 8702TIP3   OH226069   3.742   4.761   5.647
 8702TIP3    H126070   3.792   4.820   5.704
 8702TIP3    H226071   3.796   4.682   5.641
 8703TIP3   OH226072   5.799   6.564   1.716
 8703TIP3    H126073   5.857   6.514   1.773
 8703TIP3    H226074   5.768   6.502   1.651
 8704TIP3   OH226075   0.898   6.706   2.513
 8704TIP3    H126076   0.861   6.666   2.591
 8704TIP3    H226077   0.988   6.728   2.538
 8705TIP3   OH226078   0.021   0.469   5.770
 8705TIP3    H126079   0.088   0.426   5.716
 8705TIP3    H226080   0.060   0.474   5.858
 8706TIP3   OH226081   1.959   2.340   3.294
 8706TIP3    H126082   2.042   2.351   3.249
 8706TIP3    H226083   1.981   2.295   3.375
 8707TIP3   OH226084   4.377   3.669   4.754
 8707TIP3    H126085   4.391   3.717   4.835
 8707TIP3    H226086   4.390   3.734   4.685
 8708TIP3   OH226087   1.127   5.263   3.591
 8708TIP3    H126088   1.037   5.229   3.592
 8708TIP3    H226089   1.179   5.193   3.552
 8709TIP3   OH226090   1.747   1.404   3.543
 8709TIP3    H126091   1.754   1.309   3.531
 8709TIP3    H226092   1.654   1.420   3.555
 8710TIP3   OH226093   1.285   6.045   2.931
 8710TIP3    H126094   1.273   6.055   2.836
 8710TIP3    H226095   1.339   6.120   2.956
 8711TIP3   OH226096   1.604   1.722   1.705
 8711TIP3    H126097   1.530   1.734   1.765
 8711TIP3    H226098   1.563   1.697   1.622
 8712TIP3   OH226099   6.514   6.297   4.133
 8712TIP3    H126100   6.571   6.278   4.058
 8712TIP3    H226101   6.567   6.355   4.189
 8713TIP3   OH226102   6.293   4.285   2.986
 8713TIP3    H126103   6.261   4.211   3.036
 8713TIP3    H226104   6.282   4.259   2.894
 8714TIP3   OH226105   2.758   2.111   2.024
 8714TIP3    H126106   2.719   2.024   2.017
 8714TIP3    H226107   2.797   2.113   2.112
 8715TIP3   OH226108   1.371   5.929   4.232
 8715TIP3    H126109   1.317   5.998   4.271
 8715TIP3    H226110   1.461   5.956   4.249
 8716TIP3   OH226111   5.248   2.366   4.463
 8716TIP3    H126112   5.227   2.458   4.478
 8716TIP3    H226113   5.201   2.319   4.532
 8717TIP3   OH226114   3.040   6.597   0.368
 8717TIP3    H126115   2.946   6.616   0.367
 8717TIP3    H226116   3.078   6.668   0.419
 8718TIP3   OH226117   6.140   4.323   4.969
 8718TIP3    H126118   6.063   4.378   4.958
 8718TIP3    H226119   6.208   4.382   5.001
 8719TIP3   OH226120   0.602   2.350   0.920
 8719TIP3    H126121   0.660   2.419   0.952
 8719TIP3    H226122   0.561   2.388   0.842
 8720TIP3   OH226123   0.534   4.689   0.362
 8720TIP3    H126124   0.578   4.664   0.282
 8720TIP3    H226125   0.604   4.701   0.426
 8721TIP3   OH226126   7.212   4.642   5.223
 8721TIP3    H126127   7.183   4.566   5.273
 8721TIP3    H226128   7.211   4.613   5.132
 8722TIP3   OH226129   4.001   3.977   5.191
 8722TIP3    H126130   3.971   4.048   5.134
 8722TIP3    H226131   4.023   4.020   5.273
 8723TIP3   OH226132   7.090   5.418   2.569
 8723TIP3    H126133   7.172   5.394   2.527
 8723TIP3    H226134   7.114   5.482   2.636
 8724TIP3   OH226135   2.481   4.994   4.955
 8724TIP3    H126136   2.558   4.981   5.011
 8724TIP3    H226137   2.497   5.078   4.912
 8725TIP3   OH226138   0.600   3.389   4.355
 8725TIP3    H126139   0.683   3.386   4.404
 8725TIP3    H226140   0.608   3.465   4.298
 8726TIP3   OH226141   4.521   6.554   5.587
 8726TIP3    H126142   4.463   6.578   5.515
 8726TIP3    H226143   4.465   6.558   5.665
 8727TIP3   OH226144   5.880   6.018   3.218
 8727TIP3    H126145   5.879   6.058   3.131
 8727TIP3    H226146   5.878   5.924   3.202
 8728TIP3   OH226147   0.113   2.847   3.337
 8728TIP3    H126148   0.076   2.927   3.374
 8728TIP3    H226149   0.193   2.875   3.293
 8729TIP3   OH226150   0.914   2.872   4.147
 8729TIP3    H126151   0.941   2.884   4.056
 8729TIP3    H226152   0.929   2.957   4.189
 8730TIP3   OH226153   6.672   6.555   5.002
 8730TIP3    H126154   6.669   6.461   5.019
 8730TIP3    H226155   6.583   6.586   5.019
 8731TIP3   OH226156   6.815   3.259   5.345
 8731TIP3    H126157   6.849   3.215   5.268
 8731TIP3    H226158   6.839   3.202   5.418
 8732TIP3   OH226159   3.146   0.574   3.908
 8732TIP3    H126160   3.067   0.569   3.961
 8732TIP3    H226161   3.143   0.662   3.868
 8733TIP3   OH226162   1.798   2.520   4.840
 8733TIP3    H126163   1.716   2.486   4.807
 8733TIP3    H226164   1.785   2.615   4.842
 8734TIP3   OH226165   6.595   1.859   3.967
 8734TIP3    H126166   6.611   1.774   3.926
 8734TIP3    H226167   6.508   1.885   3.935
 8735TIP3   OH226168   2.384   6.217   4.459
 8735TIP3    H126169   2.411   6.280   4.393
 8735TIP3    H226170   2.297   6.188   4.430
 8736TIP3   OH226171   3.933   3.610   1.710
 8736TIP3    H126172   3.867   3.635   1.775
 8736TIP3    H226173   3.951   3.517   1.728
 8737TIP3   OH226174   5.609   1.101   2.062
 8737TIP3    H126175   5.613   1.028   2.123
 8737TIP3    H226176   5.525   1.092   2.018
 8738TIP3   OH226177   5.797   2.118   4.841
 8738TIP3    H126178   5.763   2.202   4.812
 8738TIP3    H226179   5.832   2.135   4.928
 8739TIP3   OH226180   5.667   4.698   0.355
 8739TIP3    H126181   5.698   4.782   0.323
 8739TIP3    H226182   5.588   4.719   0.406
 8740TIP3   OH226183   3.052   1.452   3.451
 8740TIP3    H126184   3.107   1.469   3.375
 8740TIP3    H226185   2.976   1.509   3.439
 8741TIP3   OH226186   0.739   6.230   3.455
 8741TIP3    H126187   0.742   6.325   3.444
 8741TIP3    H226188   0.646   6.208   3.457
 8742TIP3   OH226189   6.368   4.191   4.101
 8742TIP3    H126190   6.427   4.124   4.066
 8742TIP3    H226191   6.389   4.196   4.194
 8743TIP3   OH226192   2.654   0.781   5.015
 8743TIP3    H126193   2.593   0.760   4.944
 8743TIP3    H226194   2.680   0.697   5.051
 8744TIP3   OH226195   7.009   1.532   0.210
 8744TIP3    H126196   6.980   1.596   0.275
 8744TIP3    H226197   7.047   1.461   0.261
 8745TIP3   OH226198   6.331   0.653   2.064
 8745TIP3    H126199   6.388   0.659   1.988
 8745TIP3    H226200   6.363   0.578   2.113
 8746TIP3   OH226201   0.859   3.327   0.425
 8746TIP3    H126202   0.908   3.377   0.359
 8746TIP3    H226203   0.801   3.271   0.373
 8747TIP3   OH226204   4.702   6.148   3.771
 8747TIP3    H126205   4.729   6.138   3.680
 8747TIP3    H226206   4.765   6.096   3.821
 8748TIP3   OH226207   2.726   2.456   5.358
 8748TIP3    H126208   2.782   2.404   5.300
 8748TIP3    H226209   2.640   2.456   5.315
 8749TIP3   OH226210   4.276   5.680   2.302
 8749TIP3    H126211   4.219   5.744   2.344
 8749TIP3    H226212   4.226   5.598   2.304
 8750TIP3   OH226213   5.035   2.986   2.235
 8750TIP3    H126214   5.015   3.074   2.268
 8750TIP3    H226215   4.976   2.974   2.160
 8751TIP3   OH226216   4.290   0.041   5.134
 8751TIP3    H126217   4.327   0.086   5.210
 8751TIP3    H226218   4.250  -0.038   5.170
 8752TIP3   OH226219   0.325   6.555   1.800
 8752TIP3    H126220   0.339   6.638   1.847
 8752TIP3    H226221   0.239   6.526   1.828
 8753TIP3   OH226222   0.079   0.884   2.672
 8753TIP3    H126223   0.174   0.887   2.682
 8753TIP3    H226224   0.066   0.826   2.596
 8754TIP3   OH226225   4.426   4.714   4.018
 8754TIP3    H126226   4.407   4.741   3.928
 8754TIP3    H226227   4.511   4.753   4.037
 8755TIP3   OH226228   1.873   6.343   3.814
 8755TIP3    H126229   1.934   6.334   3.887
 8755TIP3    H226230   1.926   6.327   3.736
 8756TIP3   OH226231   5.712   1.006   2.397
 8756TIP3    H126232   5.789   0.965   2.357
 8756TIP3    H226233   5.748   1.056   2.471
 8757TIP3   OH226234   5.857   3.051   0.419
 8757TIP3    H126235   5.897   3.126   0.463
 8757TIP3    H226236   5.921   2.980   0.430
 8758TIP3   OH226237   3.498   5.180   3.307
 8758TIP3    H126238   3.548   5.258   3.331
 8758TIP3    H226239   3.406   5.209   3.311
 8759TIP3   OH226240   5.602   6.382   2.583
 8759TIP3    H126241   5.517   6.371   2.540
 8759TIP3    H226242   5.636   6.293   2.590
 8760TIP3   OH226243   5.258   5.826   4.596
 8760TIP3    H126244   5.259   5.754   4.532
 8760TIP3    H226245   5.300   5.899   4.550
 8761TIP3   OH226246   6.994   3.163   2.377
 8761TIP3    H126247   7.009   3.069   2.365
 8761TIP3    H226248   6.904   3.176   2.348
 8762TIP3   OH226249   4.586   6.174   2.194
 8762TIP3    H126250   4.676   6.144   2.204
 8762TIP3    H226251   4.534   6.094   2.201
 8763TIP3   OH226252   4.848   1.667   4.136
 8763TIP3    H126253   4.848   1.740   4.197
 8763TIP3    H226254   4.760   1.668   4.097
 8764TIP3   OH226255   0.290   3.930   0.183
 8764TIP3    H126256   0.313   3.998   0.247
 8764TIP3    H226257   0.360   3.935   0.117
 8765TIP3   OH226258   1.080   4.442   1.697
 8765TIP3    H126259   1.165   4.484   1.680
 8765TIP3    H226260   1.040   4.498   1.764
 8766TIP3   OH226261   3.453   1.470   1.671
 8766TIP3    H126262   3.487   1.473   1.760
 8766TIP3    H226263   3.363   1.502   1.678
 8767TIP3   OH226264   0.349   0.801   2.619
 8767TIP3    H126265   0.427   0.789   2.564
 8767TIP3    H226266   0.383   0.808   2.708
 8768TIP3   OH226267   7.014   1.919   3.182
 8768TIP3    H126268   7.060   1.981   3.240
 8768TIP3    H226269   7.053   1.834   3.201
 8769TIP3   OH226270   6.078   2.302   0.658
 8769TIP3    H126271   5.998   2.259   0.628
 8769TIP3    H226272   6.074   2.297   0.753
 8770TIP3   OH226273   0.381   0.595   2.891
 8770TIP3    H126274   0.463   0.641   2.876
 8770TIP3    H226275   0.386   0.566   2.982
 8771TIP3   OH226276   4.505   5.955   5.866
 8771TIP3    H126277   4.457   5.877   5.838
 8771TIP3    H226278   4.456   5.987   5.942
 8772TIP3   OH226279   0.265   4.730   5.050
 8772TIP3    H126280   0.183   4.725   5.001
 8772TIP3    H226281   0.291   4.639   5.064
 8773TIP3   OH226282   4.474   0.608   0.698
 8773TIP3    H126283   4.439   0.541   0.638
 8773TIP3    H226284   4.531   0.662   0.643
 8774TIP3   OH226285   7.101   6.166   5.497
 8774TIP3    H126286   7.177   6.140   5.444
 8774TIP3    H226287   7.138   6.190   5.582
 8775TIP3   OH226288   2.138   1.097   3.370
 8775TIP3    H126289   2.054   1.101   3.415
 8775TIP3    H226290   2.180   1.181   3.390
 8776TIP3   OH226291   3.082   1.482   2.881
 8776TIP3    H126292   2.987   1.491   2.883
 8776TIP3    H226293   3.113   1.563   2.843
 8777TIP3   OH226294   3.428   4.674   0.687
 8777TIP3    H126295   3.392   4.738   0.747
 8777TIP3    H226296   3.419   4.590   0.732
 8778TIP3   OH226297   6.348   1.560   2.116
 8778TIP3    H126298   6.258   1.538   2.140
 8778TIP3    H226299   6.402   1.515   2.180
 8779TIP3   OH226300   1.614   0.374   0.918
 8779TIP3    H126301   1.563   0.360   0.839
 8779TIP3    H226302   1.609   0.292   0.967
 8780TIP3   OH226303   6.494   3.586   5.853
 8780TIP3    H126304   6.445   3.510   5.885
 8780TIP3    H226305   6.567   3.548   5.804
 8781TIP3   OH226306   1.042   3.563   2.394
 8781TIP3    H126307   0.994   3.503   2.337
 8781TIP3    H226308   0.980   3.585   2.464
 8782TIP3   OH226309   6.277   0.208   3.874
 8782TIP3    H126310   6.189   0.233   3.903
 8782TIP3    H226311   6.293   0.123   3.915
 8783TIP3   OH226312   3.689   0.392   1.447
 8783TIP3    H126313   3.635   0.424   1.375
 8783TIP3    H226314   3.664   0.300   1.457
 8784TIP3   OH226315   1.271   1.957   1.062
 8784TIP3    H126316   1.297   1.894   0.995
 8784TIP3    H226317   1.212   2.018   1.016
 8785TIP3   OH226318   2.157   4.748   5.080
 8785TIP3    H126319   2.151   4.740   4.985
 8785TIP3    H226320   2.133   4.839   5.098
 8786TIP3   OH226321   3.028   1.775   5.188
 8786TIP3    H126322   3.091   1.827   5.237
 8786TIP3    H226323   3.057   1.685   5.198
 8787TIP3   OH226324   0.927   3.097   0.738
 8787TIP3    H126325   0.877   3.178   0.745
 8787TIP3    H226326   0.875   3.032   0.785
 8788TIP3   OH226327   6.555   1.910   5.461
 8788TIP3    H126328   6.542   1.967   5.385
 8788TIP3    H226329   6.633   1.859   5.439
 8789TIP3   OH226330   4.799   2.177   3.556
 8789TIP3    H126331   4.874   2.212   3.604
 8789TIP3    H226332   4.787   2.089   3.591
 8790TIP3   OH226333   4.867   4.925   1.915
 8790TIP3    H126334   4.795   4.868   1.888
 8790TIP3    H226335   4.864   4.999   1.855
 8791TIP3   OH226336   1.672   2.511   3.890
 8791TIP3    H126337   1.691   2.604   3.904
 8791TIP3    H226338   1.577   2.506   3.882
 8792TIP3   OH226339   5.229   5.713   2.089
 8792TIP3    H126340   5.240   5.645   2.022
 8792TIP3    H226341   5.262   5.673   2.169
 8793TIP3   OH226342   6.514   4.629   3.548
 8793TIP3    H126343   6.523   4.585   3.633
 8793TIP3    H226344   6.453   4.702   3.566
 8794TIP3   OH226345   3.213   1.313   0.252
 8794TIP3    H126346   3.255   1.397   0.271
 8794TIP3    H226347   3.187   1.280   0.337
 8795TIP3   OH226348   2.246   2.558   1.976
 8795TIP3    H126349   2.239   2.467   2.006
 8795TIP3    H226350   2.175   2.568   1.913
 8796TIP3   OH226351   3.010   3.071   4.817
 8796TIP3    H126352   2.930   3.019   4.821
 8796TIP3    H226353   3.046   3.053   4.730
 8797TIP3   OH226354   1.862   3.723   0.012
 8797TIP3    H126355   1.919   3.724   0.089
 8797TIP3    H226356   1.923   3.723  -0.062
 8798TIP3   OH226357   1.966   2.636   2.847
 8798TIP3    H126358   1.942   2.699   2.778
 8798TIP3    H226359   1.886   2.585   2.861
 8799TIP3   OH226360   4.947   3.957   2.118
 8799TIP3    H126361   5.006   3.954   2.042
 8799TIP3    H226362   4.864   3.989   2.082
 8800TIP3   OH226363   2.057   3.221   4.538
 8800TIP3    H126364   2.043   3.131   4.509
 8800TIP3    H226365   1.975   3.266   4.518
 8801TIP3   OH226366   0.332   6.666   2.175
 8801TIP3    H126367   0.280   6.589   2.198
 8801TIP3    H226368   0.422   6.636   2.177
 8802TIP3   OH226369   5.988   4.662   1.738
 8802TIP3    H126370   5.986   4.633   1.647
 8802TIP3    H226371   6.008   4.583   1.788
 8803TIP3   OH226372   3.217   5.218   0.084
 8803TIP3    H126373   3.294   5.196   0.136
 8803TIP3    H226374   3.184   5.133   0.053
 8804TIP3   OH226375   0.166   0.910   0.685
 8804TIP3    H126376   0.113   0.908   0.764
 8804TIP3    H226377   0.249   0.868   0.710
 8805TIP3   OH226378   5.785   2.882   2.446
 8805TIP3    H126379   5.855   2.817   2.455
 8805TIP3    H226380   5.742   2.861   2.364
 8806TIP3   OH226381   3.574   3.178   0.033
 8806TIP3    H126382   3.598   3.114  -0.034
 8806TIP3    H226383   3.488   3.209   0.007
 8807TIP3   OH226384   4.234   6.802   0.030
 8807TIP3    H126385   4.174   6.733   0.059
 8807TIP3    H226386   4.304   6.756  -0.016
 8808TIP3   OH226387   2.021   0.398   3.279
 8808TIP3    H126388   2.027   0.326   3.217
 8808TIP3    H226389   1.927   0.414   3.289
 8809TIP3   OH226390   3.321   4.138   3.902
 8809TIP3    H126391   3.309   4.054   3.858
 8809TIP3    H226392   3.263   4.198   3.856
 8810TIP3   OH226393   1.292   1.295   2.224
 8810TIP3    H126394   1.359   1.228   2.212
 8810TIP3    H226395   1.235   1.260   2.291
 8811TIP3   OH226396   2.362   1.773   1.031
 8811TIP3    H126397   2.330   1.730   1.111
 8811TIP3    H226398   2.420   1.842   1.063
 8812TIP3   OH226399   0.165   3.409   5.623
 8812TIP3    H126400   0.231   3.395   5.691
 8812TIP3    H226401   0.205   3.375   5.544
 8813TIP3   OH226402   7.145   4.303   1.778
 8813TIP3    H126403   7.050   4.286   1.780
 8813TIP3    H226404   7.184   4.216   1.786
 8814TIP3   OH226405   6.349   0.935   2.611
 8814TIP3    H126406   6.436   0.971   2.591
 8814TIP3    H226407   6.368   0.856   2.662
 8815TIP3   OH226408   0.574   1.626   4.986
 8815TIP3    H126409   0.623   1.689   4.932
 8815TIP3    H226410   0.641   1.567   5.021
 8816TIP3   OH226411   6.131   3.974   2.801
 8816TIP3    H126412   6.183   3.990   2.880
 8816TIP3    H226413   6.074   4.050   2.794
 8817TIP3   OH226414   0.571   5.931   3.724
 8817TIP3    H126415   0.488   5.958   3.685
 8817TIP3    H226416   0.585   5.992   3.797
 8818TIP3   OH226417   2.751   6.563   4.807
 8818TIP3    H126418   2.770   6.569   4.901
 8818TIP3    H226419   2.836   6.544   4.767
 8819TIP3   OH226420   1.579   4.931   2.834
 8819TIP3    H126421   1.580   4.836   2.842
 8819TIP3    H226422   1.592   4.947   2.740
 8820TIP3   OH226423   4.194   6.271   3.839
 8820TIP3    H126424   4.278   6.263   3.794
 8820TIP3    H226425   4.208   6.227   3.923
 8821TIP3   OH226426   5.439   1.189   4.987
 8821TIP3    H126427   5.500   1.263   4.985
 8821TIP3    H226428   5.353   1.230   4.986
 8822TIP3   OH226429   3.419   1.039   0.224
 8822TIP3    H126430   3.332   1.056   0.261
 8822TIP3    H226431   3.404   0.971   0.159
 8823TIP3   OH226432   4.895   1.927   4.864
 8823TIP3    H126433   4.988   1.941   4.846
 8823TIP3    H226434   4.868   2.003   4.916
 8824TIP3   OH226435   1.960   5.420  -0.011
 8824TIP3    H126436   1.947   5.330   0.019
 8824TIP3    H226437   2.030   5.454   0.045
 8825TIP3   OH226438   6.995   4.243   5.116
 8825TIP3    H126439   6.936   4.318   5.120
 8825TIP3    H226440   7.006   4.216   5.207
 8826TIP3   OH226441   6.677   2.917   4.972
 8826TIP3    H126442   6.729   2.844   4.940
 8826TIP3    H226443   6.589   2.900   4.941
 8827TIP3   OH226444   4.262   2.440   2.363
 8827TIP3    H126445   4.331   2.493   2.403
 8827TIP3    H226446   4.231   2.383   2.434
 8828TIP3   OH226447   4.466   6.054   3.478
 8828TIP3    H126448   4.561   6.052   3.470
 8828TIP3    H226449   4.440   5.962   3.476
 8829TIP3   OH226450   0.389   2.909   5.616
 8829TIP3    H126451   0.404   2.861   5.697
 8829TIP3    H226452   0.403   2.844   5.547
 8830TIP3   OH226453   3.508   1.909   0.121
 8830TIP3    H126454   3.467   1.824   0.103
 8830TIP3    H226455   3.470   1.936   0.204
 8831TIP3   OH226456   6.234   5.825   3.547
 8831TIP3    H126457   6.299   5.764   3.582
 8831TIP3    H226458   6.211   5.881   3.621
 8832TIP3   OH226459   0.949   5.644   4.719
 8832TIP3    H126460   0.915   5.658   4.807
 8832TIP3    H226461   0.914   5.716   4.668
 8833TIP3   OH226462   0.563   4.578   2.292
 8833TIP3    H126463   0.654   4.558   2.312
 8833TIP3    H226464   0.556   4.569   2.197
 8834TIP3   OH226465   3.196   1.688   3.247
 8834TIP3    H126466   3.267   1.744   3.278
 8834TIP3    H226467   3.143   1.744   3.191
 8835TIP3   OH226468   0.157   0.321   5.225
 8835TIP3    H126469   0.139   0.230   5.247
 8835TIP3    H226470   0.234   0.318   5.168
 8836TIP3   OH226471   0.850   0.791   3.785
 8836TIP3    H126472   0.907   0.804   3.709
 8836TIP3    H226473   0.762   0.804   3.751
 8837TIP3   OH226474   0.668   3.994   0.106
 8837TIP3    H126475   0.609   4.069   0.106
 8837TIP3    H226476   0.685   3.977   0.014
 8838TIP3   OH226477   3.089   2.491   4.534
 8838TIP3    H126478   3.052   2.426   4.474
 8838TIP3    H226479   3.109   2.566   4.477
 8839TIP3   OH226480   1.274   6.516   3.930
 8839TIP3    H126481   1.199   6.476   3.886
 8839TIP3    H226482   1.350   6.473   3.891
 8840TIP3   OH226483   4.734   5.844   0.403
 8840TIP3    H126484   4.793   5.916   0.422
 8840TIP3    H226485   4.647   5.877   0.424
 8841TIP3   OH226486   1.875   4.576   4.538
 8841TIP3    H126487   1.840   4.558   4.626
 8841TIP3    H226488   1.827   4.516   4.481
 8842TIP3   OH226489   5.810   0.596   3.202
 8842TIP3    H126490   5.788   0.652   3.127
 8842TIP3    H226491   5.775   0.643   3.278
 8843TIP3   OH226492   2.599   5.616   0.969
 8843TIP3    H126493   2.505   5.599   0.964
 8843TIP3    H226494   2.634   5.579   0.887
 8844TIP3   OH226495   1.530   3.513   5.072
 8844TIP3    H126496   1.617   3.539   5.103
 8844TIP3    H226497   1.547   3.461   4.994
 8845TIP3   OH226498   0.552   0.938   1.414
 8845TIP3    H126499   0.542   0.888   1.495
 8845TIP3    H226500   0.647   0.945   1.402
 8846TIP3   OH226501   4.794   6.682   5.582
 8846TIP3    H126502   4.841   6.667   5.500
 8846TIP3    H226503   4.704   6.657   5.562
 8847TIP3   OH226504   5.738   3.395   1.559
 8847TIP3    H126505   5.796   3.467   1.534
 8847TIP3    H226506   5.763   3.373   1.649
 8848TIP3   OH226507   2.318   3.574   1.603
 8848TIP3    H126508   2.292   3.644   1.543
 8848TIP3    H226509   2.286   3.494   1.561
 8849TIP3   OH226510   3.968   5.274   3.562
 8849TIP3    H126511   3.928   5.190   3.586
 8849TIP3    H226512   3.984   5.266   3.468
 8850TIP3   OH226513   2.589   6.309   0.182
 8850TIP3    H126514   2.555   6.305   0.093
 8850TIP3    H226515   2.608   6.217   0.205
 8851TIP3   OH226516   2.274   1.281   3.774
 8851TIP3    H126517   2.203   1.340   3.800
 8851TIP3    H226518   2.276   1.285   3.679
 8852TIP3   OH226519   4.311   3.539   3.320
 8852TIP3    H126520   4.253   3.465   3.301
 8852TIP3    H226521   4.253   3.613   3.336
 8853TIP3   OH226522   0.010   5.073   1.281
 8853TIP3    H126523  -0.031   5.069   1.195
 8853TIP3    H226524   0.096   5.112   1.265
 8854TIP3   OH226525   5.612   4.261   2.871
 8854TIP3    H126526   5.667   4.253   2.950
 8854TIP3    H226527   5.523   4.245   2.902
 8855TIP3   OH226528   6.698   0.399   5.562
 8855TIP3    H126529   6.620   0.428   5.515
 8855TIP3    H226530   6.690   0.303   5.564
 8856TIP3   OH226531   2.488   0.075   4.317
 8856TIP3    H126532   2.565   0.114   4.275
 8856TIP3    H226533   2.453   0.015   4.252
 8857TIP3   OH226534   3.560   0.294   5.318
 8857TIP3    H126535   3.486   0.354   5.322
 8857TIP3    H226536   3.635   0.349   5.297
 8858TIP3   OH226537   6.266   0.647   0.772
 8858TIP3    H126538   6.217   0.710   0.825
 8858TIP3    H226539   6.276   0.570   0.828
 8859TIP3   OH226540   6.775   4.047   3.453
 8859TIP3    H126541   6.766   3.985   3.380
 8859TIP3    H226542   6.863   4.083   3.443
 8860TIP3   OH226543   1.638   1.904   0.003
 8860TIP3    H126544   1.563   1.867  -0.043
 8860TIP3    H226545   1.615   1.899   0.095
 8861TIP3   OH226546   2.074   4.065   1.823
 8861TIP3    H126547   2.049   4.114   1.745
 8861TIP3    H226548   2.091   3.976   1.792
 8862TIP3   OH226549   1.290   5.846   3.112
 8862TIP3    H126550   1.270   5.907   3.183
 8862TIP3    H226551   1.296   5.902   3.034
 8863TIP3   OH226552   5.193   2.403   2.974
 8863TIP3    H126553   5.226   2.473   2.917
 8863TIP3    H226554   5.247   2.408   3.052
 8864TIP3   OH226555   4.817   3.576   1.492
 8864TIP3    H126556   4.767   3.499   1.521
 8864TIP3    H226557   4.902   3.540   1.464
 8865TIP3   OH226558   5.978   3.959   1.198
 8865TIP3    H126559   5.905   3.988   1.143
 8865TIP3    H226560   6.020   4.040   1.227
 8866TIP3   OH226561   0.333   0.605   5.362
 8866TIP3    H126562   0.250   0.557   5.357
 8866TIP3    H226563   0.358   0.619   5.271
 8867TIP3   OH226564   3.650   4.486   0.478
 8867TIP3    H126565   3.591   4.462   0.550
 8867TIP3    H226566   3.609   4.563   0.439
 8868TIP3   OH226567   0.063   5.537   3.389
 8868TIP3    H126568  -0.024   5.539   3.429
 8868TIP3    H226569   0.118   5.589   3.448
 8869TIP3   OH226570   5.130   3.550   1.886
 8869TIP3    H126571   5.057   3.577   1.942
 8869TIP3    H226572   5.131   3.615   1.816
 8870TIP3   OH226573   0.136   6.445   1.934
 8870TIP3    H126574   0.132   6.350   1.926
 8870TIP3    H226575   0.165   6.459   2.024
 8871TIP3   OH226576   0.660   0.745   1.994
 8871TIP3    H126577   0.623   0.701   1.917
 8871TIP3    H226578   0.728   0.803   1.958
 8872TIP3   OH226579   5.961   1.886   1.560
 8872TIP3    H126580   5.954   1.937   1.641
 8872TIP3    H226581   5.879   1.838   1.554
 8873TIP3   OH226582   2.438   6.131   4.018
 8873TIP3    H126583   2.390   6.078   4.081
 8873TIP3    H226584   2.383   6.132   3.940
 8874TIP3   OH226585   2.761   5.653   2.888
 8874TIP3    H126586   2.696   5.703   2.937
 8874TIP3    H226587   2.832   5.715   2.870
 8875TIP3   OH226588   5.630   6.612   0.277
 8875TIP3    H126589   5.573   6.551   0.230
 8875TIP3    H226590   5.641   6.573   0.363
 8876TIP3   OH226591   3.532   1.838   3.130
 8876TIP3    H126592   3.595   1.837   3.202
 8876TIP3    H226593   3.511   1.930   3.117
 8877TIP3   OH226594   3.774   2.357   3.668
 8877TIP3    H126595   3.772   2.315   3.754
 8877TIP3    H226596   3.859   2.401   3.664
 8878TIP3   OH226597   3.620   2.829   0.205
 8878TIP3    H126598   3.603   2.923   0.203
 8878TIP3    H226599   3.567   2.793   0.134
 8879TIP3   OH226600   6.428   4.787   2.594
 8879TIP3    H126601   6.381   4.715   2.636
 8879TIP3    H226602   6.380   4.803   2.513
 8880TIP3   OH226603   3.001   6.521   2.088
 8880TIP3    H126604   2.992   6.514   2.183
 8880TIP3    H226605   2.932   6.465   2.053
 8881TIP3   OH226606   1.570   0.792   5.487
 8881TIP3    H126607   1.508   0.815   5.555
 8881TIP3    H226608   1.529   0.719   5.440
 8882TIP3   OH226609   2.216   6.153   1.267
 8882TIP3    H126610   2.269   6.231   1.250
 8882TIP3    H226611   2.279   6.082   1.269
 8883TIP3   OH226612   4.106   6.674   5.589
 8883TIP3    H126613   4.044   6.632   5.529
 8883TIP3    H226614   4.160   6.602   5.623
 8884TIP3   OH226615   2.635   2.000   5.718
 8884TIP3    H126616   2.560   2.035   5.765
 8884TIP3    H226617   2.711   2.045   5.756
 8885TIP3   OH226618   1.035   5.525   3.369
 8885TIP3    H126619   0.999   5.550   3.454
 8885TIP3    H226620   0.961   5.489   3.321
 8886TIP3   OH226621   1.947   2.945   0.848
 8886TIP3    H126622   1.955   3.033   0.810
 8886TIP3    H226623   2.038   2.914   0.853
 8887TIP3   OH226624   4.883   0.199   0.962
 8887TIP3    H126625   4.848   0.227   0.877
 8887TIP3    H226626   4.806   0.195   1.019
 8888TIP3   OH226627   4.132   6.796   1.544
 8888TIP3    H126628   4.221   6.761   1.541
 8888TIP3    H226629   4.100   6.788   1.454
 8889TIP3   OH226630   0.586   0.990   0.986
 8889TIP3    H126631   0.677   0.987   1.015
 8889TIP3    H226632   0.535   0.978   1.066
 8890TIP3   OH226633   3.349   0.096   3.200
 8890TIP3    H126634   3.255   0.086   3.180
 8890TIP3    H226635   3.360   0.190   3.211
 8891TIP3   OH226636   0.648   3.103   3.663
 8891TIP3    H126637   0.636   3.138   3.574
 8891TIP3    H226638   0.560   3.080   3.691
 8892TIP3   OH226639   4.471   4.438   3.982
 8892TIP3    H126640   4.462   4.426   3.887
 8892TIP3    H226641   4.437   4.525   3.999
 8893TIP3   OH226642   0.295   1.155   2.362
 8893TIP3    H126643   0.200   1.157   2.354
 8893TIP3    H226644   0.318   1.241   2.397
 8894TIP3   OH226645   7.140   4.871   2.078
 8894TIP3    H126646   7.058   4.845   2.037
 8894TIP3    H226647   7.118   4.945   2.133
 8895TIP3   OH226648   7.075   0.708   5.847
 8895TIP3    H126649   7.115   0.644   5.788
 8895TIP3    H226650   7.146   0.768   5.869
 8896TIP3   OH226651   0.828   1.941   3.905
 8896TIP3    H126652   0.893   1.959   3.837
 8896TIP3    H226653   0.849   2.004   3.974
 8897TIP3   OH226654   1.542   3.740   0.295
 8897TIP3    H126655   1.621   3.794   0.302
 8897TIP3    H226656   1.491   3.762   0.373
 8898TIP3   OH226657   2.130   3.757   3.464
 8898TIP3    H126658   2.126   3.662   3.473
 8898TIP3    H226659   2.178   3.772   3.382
 8899TIP3   OH226660   3.812   0.405   5.606
 8899TIP3    H126661   3.819   0.310   5.598
 8899TIP3    H226662   3.725   0.426   5.573
 8900TIP3   OH226663   5.442   5.573   4.683
 8900TIP3    H126664   5.524   5.559   4.635
 8900TIP3    H226665   5.462   5.644   4.744
 8901TIP3   OH226666   1.212   0.030   4.295
 8901TIP3    H126667   1.242  -0.005   4.211
 8901TIP3    H226668   1.197   0.123   4.279
 8902TIP3   OH226669   0.634   5.719   5.127
 8902TIP3    H126670   0.683   5.637   5.122
 8902TIP3    H226671   0.543   5.693   5.115
 8903TIP3   OH226672   0.699   0.486   5.773
 8903TIP3    H126673   0.666   0.540   5.702
 8903TIP3    H226674   0.738   0.548   5.834
 8904TIP3   OH226675   0.674   0.676   4.621
 8904TIP3    H126676   0.659   0.761   4.664
 8904TIP3    H226677   0.763   0.651   4.646
 8905TIP3   OH226678   5.839   0.224   1.628
 8905TIP3    H126679   5.869   0.286   1.694
 8905TIP3    H226680   5.786   0.160   1.677
 8906TIP3   OH226681   5.119   5.198   1.351
 8906TIP3    H126682   5.196   5.145   1.332
 8906TIP3    H226683   5.048   5.154   1.304
 8907TIP3   OH226684   4.468   6.421   0.885
 8907TIP3    H126685   4.412   6.451   0.957
 8907TIP3    H226686   4.455   6.326   0.883
 8908TIP3   OH226687   4.229   5.671   0.692
 8908TIP3    H126688   4.221   5.619   0.772
 8908TIP3    H226689   4.272   5.613   0.629
 8909TIP3   OH226690   1.017   2.115   2.647
 8909TIP3    H126691   0.983   2.055   2.713
 8909TIP3    H226692   1.030   2.060   2.569
 8910TIP3   OH226693   0.457   3.627   3.302
 8910TIP3    H126694   0.378   3.642   3.249
 8910TIP3    H226695   0.446   3.684   3.378
 8911TIP3   OH226696   5.606   2.471   3.342
 8911TIP3    H126697   5.575   2.554   3.305
 8911TIP3    H226698   5.572   2.470   3.431
 8912TIP3   OH226699   4.379   0.535   2.126
 8912TIP3    H126700   4.423   0.503   2.205
 8912TIP3    H226701   4.292   0.560   2.156
 8913TIP3   OH226702   4.824   1.949   3.059
 8913TIP3    H126703   4.893   1.912   3.004
 8913TIP3    H226704   4.764   1.991   2.998
 8914TIP3   OH226705   0.329   6.106   2.266
 8914TIP3    H126706   0.281   6.037   2.312
 8914TIP3    H226707   0.334   6.179   2.328
 8915TIP3   OH226708   1.250   2.436   2.821
 8915TIP3    H126709   1.159   2.467   2.811
 8915TIP3    H226710   1.278   2.413   2.733
 8916TIP3   OH226711   0.386   3.630   5.521
 8916TIP3    H126712   0.379   3.535   5.512
 8916TIP3    H226713   0.479   3.649   5.508
 8917TIP3   OH226714   3.899   6.010   1.401
 8917TIP3    H126715   3.879   6.050   1.317
 8917TIP3    H226716   3.983   5.965   1.388
 8918TIP3   OH226717   1.824   1.536   3.065
 8918TIP3    H126718   1.808   1.522   3.158
 8918TIP3    H226719   1.919   1.531   3.056
 8919TIP3   OH226720   2.600   4.068   1.621
 8919TIP3    H126721   2.540   4.044   1.691
 8919TIP3    H226722   2.598   3.994   1.560
 8920TIP3   OH226723   4.352   4.813   3.503
 8920TIP3    H126724   4.373   4.906   3.506
 8920TIP3    H226725   4.259   4.809   3.480
 8921TIP3   OH226726   0.980   3.381   5.162
 8921TIP3    H126727   1.045   3.354   5.097
 8921TIP3    H226728   1.023   3.366   5.246
 8922TIP3   OH226729   1.414   6.085   3.603
 8922TIP3    H126730   1.437   6.055   3.691
 8922TIP3    H226731   1.421   6.007   3.548
 8923TIP3   OH226732   6.360   3.859   1.732
 8923TIP3    H126733   6.305   3.905   1.670
 8923TIP3    H226734   6.382   3.924   1.798
 8924TIP3   OH226735   1.475   3.631   3.685
 8924TIP3    H126736   1.474   3.712   3.736
 8924TIP3    H226737   1.484   3.660   3.595
 8925TIP3   OH226738   2.943   1.472   4.002
 8925TIP3    H126739   2.857   1.451   4.038
 8925TIP3    H226740   2.992   1.512   4.074
 8926TIP3   OH226741   5.982   0.475   0.882
 8926TIP3    H126742   6.072   0.444   0.878
 8926TIP3    H226743   5.970   0.502   0.973
 8927TIP3   OH226744   5.797   2.736   3.703
 8927TIP3    H126745   5.757   2.821   3.685
 8927TIP3    H226746   5.877   2.735   3.651
 8928TIP3   OH226747   0.556   2.888   0.754
 8928TIP3    H126748   0.630   2.937   0.717
 8928TIP3    H226749   0.530   2.939   0.831
 8929TIP3   OH226750   5.398   3.877   1.719
 8929TIP3    H126751   5.453   3.946   1.757
 8929TIP3    H226752   5.345   3.923   1.654
 8930TIP3   OH226753   2.827   4.441   0.385
 8930TIP3    H126754   2.807   4.381   0.313
 8930TIP3    H226755   2.742   4.463   0.423
 8931TIP3   OH226756   1.211   6.688   2.283
 8931TIP3    H126757   1.267   6.656   2.354
 8931TIP3    H226758   1.142   6.622   2.276
 8932TIP3   OH226759   3.414   6.735   1.058
 8932TIP3    H126760   3.465   6.815   1.054
 8932TIP3    H226761   3.373   6.728   0.972
 8933TIP3   OH226762   0.134   0.945   4.845
 8933TIP3    H126763   0.158   1.028   4.886
 8933TIP3    H226764   0.041   0.956   4.822
 8934TIP3   OH226765   5.098   5.832   5.915
 8934TIP3    H126766   5.035   5.903   5.897
 8934TIP3    H226767   5.091   5.774   5.839
 8935TIP3   OH226768   3.492   2.531   4.442
 8935TIP3    H126769   3.585   2.553   4.453
 8935TIP3    H226770   3.451   2.613   4.417
 8936TIP3   OH226771   1.991   3.357   3.108
 8936TIP3    H126772   1.911   3.379   3.059
 8936TIP3    H226773   1.967   3.369   3.200
 8937TIP3   OH226774   7.089   4.530   4.385
 8937TIP3    H126775   7.028   4.458   4.399
 8937TIP3    H226776   7.175   4.492   4.402
 8938TIP3   OH226777   4.370   3.762   3.048
 8938TIP3    H126778   4.411   3.834   3.096
 8938TIP3    H226779   4.279   3.789   3.038
 8939TIP3   OH226780   5.961   5.482   0.042
 8939TIP3    H126781   5.950   5.564   0.090
 8939TIP3    H226782   5.871   5.450   0.031
 8940TIP3   OH226783   3.659   4.863   2.109
 8940TIP3    H126784   3.746   4.887   2.142
 8940TIP3    H226785   3.676   4.788   2.052
 8941TIP3   OH226786   2.258   0.583   5.585
 8941TIP3    H126787   2.263   0.667   5.630
 8941TIP3    H226788   2.349   0.555   5.576
 8942TIP3   OH226789   5.952   2.683   2.314
 8942TIP3    H126790   6.030   2.735   2.333
 8942TIP3    H226791   5.963   2.654   2.224
 8943TIP3   OH226792   1.084   4.584   0.495
 8943TIP3    H126793   1.157   4.644   0.485
 8943TIP3    H226794   1.112   4.523   0.563
 8944TIP3   OH226795   1.200   1.442   2.016
 8944TIP3    H126796   1.163   1.522   2.054
 8944TIP3    H226797   1.234   1.393   2.092
 8945TIP3   OH226798   0.114   2.486   2.721
 8945TIP3    H126799   0.146   2.452   2.637
 8945TIP3    H226800   0.190   2.528   2.761
 8946TIP3   OH226801   5.928   0.305   0.220
 8946TIP3    H126802   5.905   0.214   0.204
 8946TIP3    H226803   6.024   0.307   0.215
 8947TIP3   OH226804   1.738   6.071   2.980
 8947TIP3    H126805   1.822   6.089   2.937
 8947TIP3    H226806   1.736   5.976   2.989
 8948TIP3   OH226807   4.654   1.030   1.819
 8948TIP3    H126808   4.691   1.027   1.731
 8948TIP3    H226809   4.728   1.051   1.876
 8949TIP3   OH226810   0.752   4.471   5.568
 8949TIP3    H126811   0.844   4.468   5.595
 8949TIP3    H226812   0.752   4.428   5.482
 8950TIP3   OH226813   5.061   3.161   1.232
 8950TIP3    H126814   5.078   3.140   1.140
 8950TIP3    H226815   5.148   3.166   1.272
 8951TIP3   OH226816   6.503   2.097   5.819
 8951TIP3    H126817   6.521   2.190   5.834
 8951TIP3    H226818   6.588   2.054   5.824
 8952TIP3   OH226819   5.430   4.956   3.447
 8952TIP3    H126820   5.377   4.876   3.446
 8952TIP3    H226821   5.388   5.012   3.381
 8953TIP3   OH226822   2.967   4.660   2.910
 8953TIP3    H126823   2.963   4.696   2.999
 8953TIP3    H226824   2.880   4.676   2.874
 8954TIP3   OH226825   3.686   6.604   1.394
 8954TIP3    H126826   3.598   6.620   1.426
 8954TIP3    H226827   3.737   6.678   1.427
 8955TIP3   OH226828   1.893   2.547   5.155
 8955TIP3    H126829   1.848   2.559   5.072
 8955TIP3    H226830   1.884   2.454   5.175
 8956TIP3   OH226831   1.985   6.190   2.971
 8956TIP3    H126832   1.971   6.195   3.065
 8956TIP3    H226833   2.066   6.140   2.961
 8957TIP3   OH226834   4.514   3.449   0.897
 8957TIP3    H126835   4.479   3.382   0.838
 8957TIP3    H226836   4.532   3.403   0.978
 8958TIP3   OH226837   6.020   5.584   2.410
 8958TIP3    H126838   6.088   5.602   2.345
 8958TIP3    H226839   5.939   5.615   2.369
 8959TIP3   OH226840   2.850   1.803   2.033
 8959TIP3    H126841   2.944   1.813   2.051
 8959TIP3    H226842   2.846   1.777   1.941
 8960TIP3   OH226843   5.751   2.448   1.270
 8960TIP3    H126844   5.806   2.423   1.345
 8960TIP3    H226845   5.709   2.530   1.298
 8961TIP3   OH226846   0.592   0.339   2.922
 8961TIP3    H126847   0.505   0.375   2.938
 8961TIP3    H226848   0.644   0.365   2.998
 8962TIP3   OH226849   2.963   2.308   4.369
 8962TIP3    H126850   2.989   2.261   4.289
 8962TIP3    H226851   2.868   2.319   4.359
 8963TIP3   OH226852   2.203   4.576   0.932
 8963TIP3    H126853   2.155   4.649   0.891
 8963TIP3    H226854   2.165   4.570   1.020
 8964TIP3   OH226855   2.595   5.810   1.202
 8964TIP3    H126856   2.617   5.898   1.169
 8964TIP3    H226857   2.593   5.755   1.123
 8965TIP3   OH226858   0.760   4.370   0.344
 8965TIP3    H126859   0.753   4.344   0.436
 8965TIP3    H226860   0.807   4.297   0.303
 8966TIP3   OH226861   5.919   3.966   0.837
 8966TIP3    H126862   5.872   3.979   0.919
 8966TIP3    H226863   5.870   4.018   0.773
 8967TIP3   OH226864   2.582   3.521   5.071
 8967TIP3    H126865   2.554   3.513   5.162
 8967TIP3    H226866   2.545   3.604   5.042
 8968TIP3   OH226867   7.175   4.883   1.690
 8968TIP3    H126868   7.176   4.822   1.616
 8968TIP3    H226869   7.242   4.948   1.669
 8969TIP3   OH226870   1.850   0.253   2.210
 8969TIP3    H126871   1.905   0.186   2.251
 8969TIP3    H226872   1.877   0.255   2.119
 8970TIP3   OH226873   7.167   5.990   3.833
 8970TIP3    H126874   7.160   5.967   3.740
 8970TIP3    H226875   7.220   5.921   3.871
 8971TIP3   OH226876   4.837   0.721   3.020
 8971TIP3    H126877   4.910   0.662   3.000
 8971TIP3    H226878   4.820   0.766   2.937
 8972TIP3   OH226879   5.679   3.748   3.398
 8972TIP3    H126880   5.683   3.669   3.345
 8972TIP3    H226881   5.751   3.740   3.460
 8973TIP3   OH226882   3.056   6.185   4.222
 8973TIP3    H126883   3.080   6.275   4.244
 8973TIP3    H226884   3.042   6.187   4.128
 8974TIP3   OH226885   2.266   4.822   5.828
 8974TIP3    H126886   2.352   4.861   5.811
 8974TIP3    H226887   2.237   4.863   5.909
 8975TIP3   OH226888   1.383   4.073   1.966
 8975TIP3    H126889   1.396   4.008   1.897
 8975TIP3    H226890   1.292   4.100   1.957
 8976TIP3   OH226891   4.524   2.695   4.416
 8976TIP3    H126892   4.441   2.674   4.458
 8976TIP3    H226893   4.506   2.772   4.363
 8977TIP3   OH226894   2.896   2.062   2.557
 8977TIP3    H126895   2.983   2.025   2.547
 8977TIP3    H226896   2.908   2.156   2.550
 8978TIP3   OH226897   5.794   1.532   5.083
 8978TIP3    H126898   5.810   1.504   5.173
 8978TIP3    H226899   5.790   1.628   5.088
 8979TIP3   OH226900   6.792   6.454   5.868
 8979TIP3    H126901   6.777   6.532   5.815
 8979TIP3    H226902   6.879   6.467   5.905
 8980TIP3   OH226903   2.274   1.725   5.171
 8980TIP3    H126904   2.189   1.739   5.130
 8980TIP3    H226905   2.324   1.674   5.106
 8981TIP3   OH226906   3.186   5.620   0.305
 8981TIP3    H126907   3.227   5.706   0.318
 8981TIP3    H226908   3.122   5.613   0.376
 8982TIP3   OH226909   3.208   0.881   2.969
 8982TIP3    H126910   3.283   0.850   2.918
 8982TIP3    H226911   3.214   0.976   2.965
 8983TIP3   OH226912   0.590   6.164   4.449
 8983TIP3    H126913   0.519   6.205   4.498
 8983TIP3    H226914   0.659   6.151   4.515
 8984TIP3   OH226915   4.622   0.842   3.157
 8984TIP3    H126916   4.557   0.773   3.172
 8984TIP3    H226917   4.681   0.805   3.091
 8985TIP3   OH226918   0.606   5.705   1.485
 8985TIP3    H126919   0.631   5.707   1.577
 8985TIP3    H226920   0.545   5.778   1.474
 8986TIP3   OH226921   5.542   6.095   1.566
 8986TIP3    H126922   5.457   6.109   1.607
 8986TIP3    H226923   5.573   6.182   1.543
 8987TIP3   OH226924   1.433   0.804   4.032
 8987TIP3    H126925   1.345   0.774   4.013
 8987TIP3    H226926   1.427   0.900   4.032
 8988TIP3   OH226927   6.622   3.269   5.620
 8988TIP3    H126928   6.642   3.362   5.629
 8988TIP3    H226929   6.594   3.241   5.707
 8989TIP3   OH226930   1.473   3.344   1.874
 8989TIP3    H126931   1.499   3.358   1.783
 8989TIP3    H226932   1.477   3.249   1.886
 8990TIP3   OH226933   2.028   1.547   4.696
 8990TIP3    H126934   2.114   1.526   4.731
 8990TIP3    H226935   2.010   1.479   4.631
 8991TIP3   OH226936   6.296   6.523   0.426
 8991TIP3    H126937   6.324   6.437   0.394
 8991TIP3    H226938   6.275   6.573   0.347
 8992TIP3   OH226939   2.587   3.502   0.333
 8992TIP3    H126940   2.655   3.473   0.393
 8992TIP3    H226941   2.619   3.479   0.246
 8993TIP3   OH226942   4.131   1.751   3.583
 8993TIP3    H126943   4.207   1.810   3.581
 8993TIP3    H226944   4.057   1.809   3.604
 8994TIP3   OH226945   7.124   6.676   5.579
 8994TIP3    H126946   7.189   6.606   5.573
 8994TIP3    H226947   7.062   6.647   5.646
 8995TIP3   OH226948   3.626   2.445   4.047
 8995TIP3    H126949   3.576   2.399   4.114
 8995TIP3    H226950   3.568   2.515   4.017
 8996TIP3   OH226951   6.471   6.558   3.540
 8996TIP3    H126952   6.523   6.491   3.583
 8996TIP3    H226953   6.400   6.509   3.498
 8997TIP3   OH226954   1.988   1.294   5.459
 8997TIP3    H126955   2.025   1.205   5.462
 8997TIP3    H226956   2.063   1.350   5.439
 8998TIP3   OH226957   1.107   0.935   2.235
 8998TIP3    H126958   1.086   1.028   2.230
 8998TIP3    H226959   1.048   0.900   2.302
 8999TIP3   OH226960   0.043   1.898   4.564
 8999TIP3    H126961   0.123   1.854   4.595
 8999TIP3    H226962   0.020   1.852   4.483
 9000TIP3   OH226963   0.572   2.751   2.527
 9000TIP3    H126964   0.626   2.808   2.582
 9000TIP3    H226965   0.594   2.662   2.554
 9001TIP3   OH226966   1.734   4.293   2.808
 9001TIP3    H126967   1.757   4.277   2.900
 9001TIP3    H226968   1.766   4.382   2.791
 9002TIP3   OH226969   2.836   2.743   3.401
 9002TIP3    H126970   2.860   2.778   3.486
 9002TIP3    H226971   2.801   2.656   3.420
 9003TIP3   OH226972   5.857   0.990   1.118
 9003TIP3    H126973   5.878   0.906   1.158
 9003TIP3    H226974   5.828   0.968   1.029
 9004TIP3   OH226975   1.806   6.216   2.035
 9004TIP3    H126976   1.782   6.301   1.998
 9004TIP3    H226977   1.900   6.223   2.053
 9005TIP3   OH226978   7.219   1.467   4.140
 9005TIP3    H126979   7.212   1.562   4.149
 9005TIP3    H226980   7.150   1.432   4.196
 9006TIP3   OH226981   2.009   5.301   0.929
 9006TIP3    H126982   1.939   5.326   0.869
 9006TIP3    H226983   2.061   5.237   0.881
 9007TIP3   OH226984   0.132   5.002   3.161
 9007TIP3    H126985   0.205   4.994   3.099
 9007TIP3    H226986   0.152   5.081   3.211
 9008TIP3   OH226987   2.705   1.244   2.592
 9008TIP3    H126988   2.685   1.266   2.683
 9008TIP3    H226989   2.713   1.148   2.592
 9009TIP3   OH226990   2.810   2.957   0.244
 9009TIP3    H126991   2.892   2.911   0.228
 9009TIP3    H226992   2.827   3.010   0.322
 9010TIP3   OH226993   0.829   5.454   3.216
 9010TIP3    H126994   0.838   5.391   3.144
 9010TIP3    H226995   0.753   5.423   3.265
 9011TIP3   OH226996   1.831   3.403   3.362
 9011TIP3    H126997   1.793   3.481   3.322
 9011TIP3    H226998   1.762   3.337   3.356
 9012TIP3   OH226999   4.107   3.105   0.854
 9012TIP3    H127000   4.076   3.155   0.779
 9012TIP3    H227001   4.031   3.098   0.912
 9013TIP3   OH227002   3.150   5.008   1.443
 9013TIP3    H127003   3.135   4.979   1.353
 9013TIP3    H227004   3.213   5.080   1.435
 9014TIP3   OH227005   4.812   5.394   2.781
 9014TIP3    H127006   4.888   5.342   2.757
 9014TIP3    H227007   4.751   5.383   2.708
 9015TIP3   OH227008   5.610   2.136   1.984
 9015TIP3    H127009   5.623   2.216   2.035
 9015TIP3    H227010   5.682   2.078   2.012
 9016TIP3   OH227011   6.738   1.700   1.029
 9016TIP3    H127012   6.665   1.673   0.973
 9016TIP3    H227013   6.816   1.685   0.976
 9017TIP3   OH227014   4.910   3.329   4.380
 9017TIP3    H127015   4.924   3.423   4.366
 9017TIP3    H227016   4.840   3.306   4.318
 9018TIP3   OH227017   4.366   3.208   4.374
 9018TIP3    H127018   4.360   3.218   4.469
 9018TIP3    H227019   4.298   3.265   4.338
 9019TIP3   OH227020   5.276   0.430   1.699
 9019TIP3    H127021   5.225   0.349   1.690
 9019TIP3    H227022   5.221   0.498   1.661
 9020TIP3   OH227023   6.316   0.842   4.637
 9020TIP3    H127024   6.363   0.817   4.558
 9020TIP3    H227025   6.282   0.929   4.618
 9021TIP3   OH227026   5.092   3.591   1.341
 9021TIP3    H127027   5.075   3.540   1.262
 9021TIP3    H227028   5.187   3.587   1.352
 9022TIP3   OH227029   0.785   5.871   0.124
 9022TIP3    H127030   0.729   5.830   0.190
 9022TIP3    H227031   0.781   5.964   0.144
 9023TIP3   OH227032   0.640   5.496   0.861
 9023TIP3    H127033   0.572   5.428   0.863
 9023TIP3    H227034   0.700   5.467   0.792
 9024TIP3   OH227035   6.279   1.061   1.958
 9024TIP3    H127036   6.287   1.156   1.954
 9024TIP3    H227037   6.369   1.030   1.973
 9025TIP3   OH227038   0.802   2.876   5.551
 9025TIP3    H127039   0.853   2.883   5.470
 9025TIP3    H227040   0.825   2.791   5.587
 9026TIP3   OH227041   4.646   4.300   5.152
 9026TIP3    H127042   4.735   4.322   5.125
 9026TIP3    H227043   4.652   4.288   5.246
 9027TIP3   OH227044   4.355   3.502   3.694
 9027TIP3    H127045   4.281   3.481   3.752
 9027TIP3    H227046   4.429   3.516   3.753
 9028TIP3   OH227047   0.775   2.206   2.328
 9028TIP3    H127048   0.798   2.299   2.318
 9028TIP3    H227049   0.794   2.167   2.243
 9029TIP3   OH227050   3.797   6.629   5.552
 9029TIP3    H127051   3.821   6.624   5.460
 9029TIP3    H227052   3.789   6.537   5.579
 9030TIP3   OH227053   5.954   4.779   4.557
 9030TIP3    H127054   6.034   4.832   4.562
 9030TIP3    H227055   5.890   4.836   4.516
 9031TIP3   OH227056   5.558   0.411   0.786
 9031TIP3    H127057   5.600   0.497   0.780
 9031TIP3    H227058   5.482   0.426   0.842
 9032TIP3   OH227059   3.371   5.732   2.214
 9032TIP3    H127060   3.441   5.734   2.148
 9032TIP3    H227061   3.403   5.673   2.282
 9033TIP3   OH227062   2.222   5.042   4.543
 9033TIP3    H127063   2.291   5.022   4.606
 9033TIP3    H227064   2.267   5.089   4.472
 9034TIP3   OH227065   6.507   5.931   0.831
 9034TIP3    H127066   6.454   5.873   0.885
 9034TIP3    H227067   6.508   5.889   0.745
 9035TIP3   OH227068   0.994   2.423   3.096
 9035TIP3    H127069   0.996   2.491   3.164
 9035TIP3    H227070   1.078   2.378   3.104
 9036TIP3   OH227071   4.496   4.185   0.299
 9036TIP3    H127072   4.447   4.129   0.359
 9036TIP3    H227073   4.485   4.273   0.334
 9037TIP3   OH227074   1.370   5.660   0.987
 9037TIP3    H127075   1.388   5.581   0.935
 9037TIP3    H227076   1.297   5.636   1.043
 9038TIP3   OH227077   3.189   2.036   3.927
 9038TIP3    H127078   3.196   1.967   3.861
 9038TIP3    H227079   3.119   2.006   3.985
 9039TIP3   OH227080   5.492   3.168   0.230
 9039TIP3    H127081   5.467   3.213   0.311
 9039TIP3    H227082   5.416   3.176   0.173
 9040TIP3   OH227083   1.367   1.157   2.878
 9040TIP3    H127084   1.430   1.105   2.927
 9040TIP3    H227085   1.305   1.092   2.843
 9041TIP3   OH227086   1.121   3.061   1.709
 9041TIP3    H127087   1.089   3.144   1.744
 9041TIP3    H227088   1.202   3.084   1.663
 9042TIP3   OH227089   1.387   5.047   0.869
 9042TIP3    H127090   1.337   5.005   0.799
 9042TIP3    H227091   1.472   5.004   0.867
 9043TIP3   OH227092   5.489   4.659   1.186
 9043TIP3    H127093   5.551   4.701   1.127
 9043TIP3    H227094   5.405   4.703   1.168
 9044TIP3   OH227095   4.761   2.548   0.526
 9044TIP3    H127096   4.802   2.464   0.505
 9044TIP3    H227097   4.728   2.581   0.442
 9045TIP3   OH227098   5.216   4.760   3.503
 9045TIP3    H127099   5.241   4.678   3.460
 9045TIP3    H227100   5.121   4.764   3.495
 9046TIP3   OH227101   6.164   6.368   2.194
 9046TIP3    H127102   6.128   6.417   2.120
 9046TIP3    H227103   6.243   6.417   2.219
 9047TIP3   OH227104   1.906   2.333   5.374
 9047TIP3    H127105   1.842   2.326   5.444
 9047TIP3    H227106   1.915   2.244   5.340
 9048TIP3   OH227107   7.141   4.983   4.051
 9048TIP3    H127108   7.235   4.985   4.035
 9048TIP3    H227109   7.126   4.900   4.096
 9049TIP3   OH227110   6.055   5.535   0.335
 9049TIP3    H127111   5.976   5.484   0.353
 9049TIP3    H227112   6.023   5.611   0.286
 9050TIP3   OH227113   2.365   5.222   3.573
 9050TIP3    H127114   2.357   5.172   3.654
 9050TIP3    H227115   2.362   5.156   3.504
 9051TIP3   OH227116   2.646   6.373   1.635
 9051TIP3    H127117   2.628   6.284   1.664
 9051TIP3    H227118   2.560   6.415   1.630
 9052TIP3   OH227119   6.162   1.752   0.117
 9052TIP3    H127120   6.145   1.681   0.055
 9052TIP3    H227121   6.143   1.832   0.068
 9053TIP3   OH227122   4.541   5.565   1.562
 9053TIP3    H127123   4.559   5.591   1.652
 9053TIP3    H227124   4.627   5.565   1.520
 9054TIP3   OH227125   5.325   2.201   3.110
 9054TIP3    H127126   5.301   2.130   3.050
 9054TIP3    H227127   5.404   2.238   3.073
 9055TIP3   OH227128   5.053   4.193   3.865
 9055TIP3    H127129   5.052   4.159   3.955
 9055TIP3    H227130   5.053   4.115   3.810
 9056TIP3   OH227131   3.066   2.760   0.335
 9056TIP3    H127132   3.122   2.833   0.363
 9056TIP3    H227133   3.001   2.753   0.405
 9057TIP3   OH227134   4.459   4.873   0.667
 9057TIP3    H127135   4.467   4.855   0.574
 9057TIP3    H227136   4.549   4.870   0.700
 9058TIP3   OH227137   6.691   5.568   2.740
 9058TIP3    H127138   6.761   5.606   2.793
 9058TIP3    H227139   6.611   5.588   2.787
 9059TIP3   OH227140   4.588   3.553   4.120
 9059TIP3    H127141   4.662   3.598   4.080
 9059TIP3    H227142   4.624   3.473   4.157
 9060TIP3   OH227143   6.907   0.773   3.280
 9060TIP3    H127144   6.872   0.734   3.360
 9060TIP3    H227145   6.928   0.698   3.224
 9061TIP3   OH227146   4.451   5.692   4.374
 9061TIP3    H127147   4.437   5.657   4.286
 9061TIP3    H227148   4.397   5.771   4.377
 9062TIP3   OH227149   4.684   0.027   4.138
 9062TIP3    H127150   4.733   0.002   4.059
 9062TIP3    H227151   4.602  -0.023   4.132
 9063TIP3   OH227152   4.919   1.134   5.045
 9063TIP3    H127153   4.872   1.212   5.017
 9063TIP3    H227154   4.969   1.162   5.122
 9064TIP3   OH227155   5.090   4.837   0.541
 9064TIP3    H127156   5.146   4.904   0.580
 9064TIP3    H227157   5.034   4.808   0.613
 9065TIP3   OH227158   0.050   3.917   2.542
 9065TIP3    H127159   0.104   3.992   2.569
 9065TIP3    H227160   0.112   3.856   2.501
 9066TIP3   OH227161   3.719   3.389   5.834
 9066TIP3    H127162   3.689   3.478   5.857
 9066TIP3    H227163   3.641   3.346   5.799
 9067TIP3   OH227164   5.510   4.337   0.241
 9067TIP3    H127165   5.452   4.412   0.255
 9067TIP3    H227166   5.521   4.334   0.146
 9068TIP3   OH227167   0.688   5.123   0.220
 9068TIP3    H127168   0.749   5.196   0.208
 9068TIP3    H227169   0.720   5.079   0.299
 9069TIP3   OH227170   1.581   0.633   2.791
 9069TIP3    H127171   1.633   0.663   2.866
 9069TIP3    H227172   1.623   0.551   2.765
 9070TIP3   OH227173   4.174   4.684   3.185
 9070TIP3    H127174   4.094   4.649   3.147
 9070TIP3    H227175   4.239   4.615   3.171
 9071TIP3   OH227176   1.907   3.951   2.025
 9071TIP3    H127177   1.930   3.960   2.117
 9071TIP3    H227178   1.975   4.000   1.979
 9072TIP3   OH227179   4.929   1.012   2.464
 9072TIP3    H127180   4.883   0.944   2.416
 9072TIP3    H227181   5.019   0.980   2.473
 9073TIP3   OH227182   4.089   6.318   1.769
 9073TIP3    H127183   4.130   6.368   1.839
 9073TIP3    H227184   4.146   6.332   1.693
 9074TIP3   OH227185   1.827   3.734   4.784
 9074TIP3    H127186   1.732   3.735   4.796
 9074TIP3    H227187   1.856   3.820   4.813
 9075TIP3   OH227188   4.237   4.607   2.364
 9075TIP3    H127189   4.152   4.568   2.344
 9075TIP3    H227190   4.295   4.576   2.295
 9076TIP3   OH227191   6.155   4.514   5.684
 9076TIP3    H127192   6.122   4.552   5.766
 9076TIP3    H227193   6.250   4.515   5.694
 9077TIP3   OH227194   6.094   0.328   2.883
 9077TIP3    H127195   6.047   0.339   2.800
 9077TIP3    H227196   6.128   0.239   2.880
 9078TIP3   OH227197   4.866   1.379   3.708
 9078TIP3    H127198   4.914   1.345   3.782
 9078TIP3    H227199   4.814   1.451   3.744
 9079TIP3   OH227200   6.206   4.845   4.808
 9079TIP3    H127201   6.207   4.757   4.846
 9079TIP3    H227202   6.235   4.902   4.879
 9080TIP3   OH227203   2.643   6.687   3.187
 9080TIP3    H127204   2.653   6.758   3.250
 9080TIP3    H227205   2.665   6.726   3.103
 9081TIP3   OH227206   6.835   5.603   1.612
 9081TIP3    H127207   6.744   5.609   1.582
 9081TIP3    H227208   6.830   5.564   1.699
 9082TIP3   OH227209   5.413   2.753   3.607
 9082TIP3    H127210   5.325   2.791   3.614
 9082TIP3    H227211   5.464   2.797   3.675
 9083TIP3   OH227212   4.076   2.365   4.384
 9083TIP3    H127213   3.982   2.353   4.398
 9083TIP3    H227214   4.091   2.457   4.402
 9084TIP3   OH227215   3.323   1.002   2.240
 9084TIP3    H127216   3.364   1.088   2.253
 9084TIP3    H227217   3.293   0.977   2.328
 9085TIP3   OH227218   3.046   6.169   4.680
 9085TIP3    H127219   3.022   6.151   4.771
 9085TIP3    H227220   3.041   6.084   4.636
 9086TIP3   OH227221   6.617   4.381   2.888
 9086TIP3    H127222   6.606   4.466   2.932
 9086TIP3    H227223   6.528   4.349   2.875
 9087TIP3   OH227224   6.323   6.542   0.769
 9087TIP3    H127225   6.417   6.546   0.783
 9087TIP3    H227226   6.291   6.630   0.791
 9088TIP3   OH227227   0.495   2.837   2.165
 9088TIP3    H127228   0.425   2.771   2.162
 9088TIP3    H227229   0.557   2.802   2.229
 9089TIP3   OH227230   1.256   2.168   4.169
 9089TIP3    H127231   1.328   2.193   4.112
 9089TIP3    H227232   1.180   2.217   4.136
 9090TIP3   OH227233   5.681   3.005   5.768
 9090TIP3    H127234   5.696   2.949   5.692
 9090TIP3    H227235   5.715   2.954   5.842
 9091TIP3   OH227236   6.159   5.269   4.767
 9091TIP3    H127237   6.086   5.252   4.828
 9091TIP3    H227238   6.196   5.183   4.750
 9092TIP3   OH227239   2.976   5.872   0.732
 9092TIP3    H127240   3.055   5.925   0.727
 9092TIP3    H227241   2.906   5.935   0.749
 9093TIP3   OH227242   2.957   1.904   5.739
 9093TIP3    H127243   2.930   1.990   5.708
 9093TIP3    H227244   3.036   1.884   5.688
 9094TIP3   OH227245   4.343   5.461   1.296
 9094TIP3    H127246   4.425   5.422   1.267
 9094TIP3    H227247   4.339   5.443   1.390
 9095TIP3   OH227248   0.162   5.550   0.184
 9095TIP3    H127249   0.113   5.563   0.103
 9095TIP3    H227250   0.181   5.638   0.215
 9096TIP3   OH227251   2.197   6.368   4.771
 9096TIP3    H127252   2.226   6.383   4.862
 9096TIP3    H227253   2.270   6.400   4.718
 9097TIP3   OH227254   2.172   2.648   2.231
 9097TIP3    H127255   2.199   2.617   2.144
 9097TIP3    H227256   2.084   2.682   2.218
 9098TIP3   OH227257   3.307   2.785   5.557
 9098TIP3    H127258   3.339   2.805   5.469
 9098TIP3    H227259   3.216   2.816   5.557
 9099TIP3   OH227260   1.560   5.866   3.496
 9099TIP3    H127261   1.520   5.796   3.546
 9099TIP3    H227262   1.544   5.842   3.404
 9100TIP3   OH227263   3.075   5.570   1.848
 9100TIP3    H127264   3.124   5.489   1.864
 9100TIP3    H227265   3.130   5.619   1.787
 9101TIP3   OH227266   1.784   1.550   3.323
 9101TIP3    H127267   1.814   1.627   3.371
 9101TIP3    H227268   1.784   1.479   3.387
 9102TIP3   OH227269   1.747   5.028   3.991
 9102TIP3    H127270   1.773   4.985   3.909
 9102TIP3    H227271   1.655   5.004   4.002
 9103TIP3   OH227272   0.135   0.324   0.338
 9103TIP3    H127273   0.162   0.383   0.408
 9103TIP3    H227274   0.057   0.365   0.300
 9104TIP3   OH227275   5.565   4.870   1.023
 9104TIP3    H127276   5.658   4.864   1.005
 9104TIP3    H227277   5.555   4.953   1.070
 9105TIP3   OH227278   3.918   4.148   5.000
 9105TIP3    H127279   3.966   4.226   4.972
 9105TIP3    H227280   3.931   4.086   4.928
 9106TIP3   OH227281   0.236   1.193   3.259
 9106TIP3    H127282   0.173   1.121   3.257
 9106TIP3    H227283   0.240   1.219   3.351
 9107TIP3   OH227284   3.702   3.595   3.350
 9107TIP3    H127285   3.711   3.632   3.438
 9107TIP3    H227286   3.708   3.501   3.363
 9108TIP3   OH227287   7.046   1.360   3.881
 9108TIP3    H127288   7.001   1.438   3.848
 9108TIP3    H227289   7.016   1.351   3.972
 9109TIP3   OH227290   2.868   5.244   4.502
 9109TIP3    H127291   2.928   5.222   4.431
 9109TIP3    H227292   2.912   5.212   4.581
 9110TIP3   OH227293   2.027   0.102   4.259
 9110TIP3    H127294   2.096   0.168   4.256
 9110TIP3    H227295   1.965   0.129   4.192
 9111TIP3   OH227296   3.537   3.735   5.223
 9111TIP3    H127297   3.471   3.744   5.155
 9111TIP3    H227298   3.529   3.645   5.254
 9112TIP3   OH227299   5.992   4.192   4.178
 9112TIP3    H127300   6.053   4.257   4.215
 9112TIP3    H227301   5.986   4.216   4.085
 9113TIP3   OH227302   4.732   2.969   4.387
 9113TIP3    H127303   4.637   2.959   4.381
 9113TIP3    H227304   4.767   2.904   4.326
 9114TIP3   OH227305   1.274   2.080   1.880
 9114TIP3    H127306   1.312   2.057   1.965
 9114TIP3    H227307   1.214   2.152   1.899
 9115TIP3   OH227308   6.033   3.778   0.189
 9115TIP3    H127309   6.079   3.735   0.117
 9115TIP3    H227310   6.042   3.718   0.263
 9116TIP3   OH227311   2.368   5.857   3.327
 9116TIP3    H127312   2.407   5.943   3.334
 9116TIP3    H227313   2.278   5.874   3.299
 9117TIP3   OH227314   2.088   4.166   1.574
 9117TIP3    H127315   2.183   4.154   1.584
 9117TIP3    H227316   2.077   4.259   1.555
 9118TIP3   OH227317   1.253   3.430   3.616
 9118TIP3    H127318   1.221   3.520   3.618
 9118TIP3    H227319   1.348   3.437   3.607
 9119TIP3   OH227320   3.827   1.600   4.349
 9119TIP3    H127321   3.795   1.617   4.260
 9119TIP3    H227322   3.880   1.677   4.370
 9120TIP3   OH227323   2.503   4.664   5.254
 9120TIP3    H127324   2.546   4.592   5.300
 9120TIP3    H227325   2.528   4.653   5.162
 9121TIP3   OH227326   3.709   3.524   5.541
 9121TIP3    H127327   3.668   3.508   5.456
 9121TIP3    H227328   3.638   3.558   5.596
 9122TIP3   OH227329   6.700   5.130   4.761
 9122TIP3    H127330   6.780   5.081   4.782
 9122TIP3    H227331   6.706   5.147   4.667
 9123TIP3   OH227332   4.307   2.424   0.551
 9123TIP3    H127333   4.360   2.345   0.564
 9123TIP3    H227334   4.353   2.491   0.602
 9124TIP3   OH227335   2.762   4.371   3.679
 9124TIP3    H127336   2.777   4.301   3.742
 9124TIP3    H227337   2.845   4.418   3.675
 9125TIP3   OH227338   6.472   6.027   1.940
 9125TIP3    H127339   6.543   6.055   1.883
 9125TIP3    H227340   6.505   5.947   1.981
 9126TIP3   OH227341   6.394   3.394   1.126
 9126TIP3    H127342   6.368   3.306   1.100
 9126TIP3    H227343   6.478   3.408   1.082
 9127TIP3   OH227344   1.898   1.169   3.040
 9127TIP3    H127345   1.963   1.237   3.022
 9127TIP3    H227346   1.943   1.109   3.099
 9128TIP3   OH227347   1.513   2.166   1.706
 9128TIP3    H127348   1.578   2.151   1.774
 9128TIP3    H227349   1.430   2.176   1.754
 9129TIP3   OH227350   0.426   1.990   2.421
 9129TIP3    H127351   0.449   2.051   2.350
 9129TIP3    H227352   0.331   1.979   2.413
 9130TIP3   OH227353   0.213   5.058   3.902
 9130TIP3    H127354   0.276   5.092   3.965
 9130TIP3    H227355   0.244   4.970   3.882
 9131TIP3   OH227356   4.917   2.615   5.194
 9131TIP3    H127357   5.006   2.623   5.228
 9131TIP3    H227358   4.888   2.705   5.182
 9132TIP3   OH227359   2.837   0.464   3.753
 9132TIP3    H127360   2.884   0.389   3.791
 9132TIP3    H227361   2.824   0.523   3.827
 9133TIP3   OH227362   3.177   4.655   0.557
 9133TIP3    H127363   3.125   4.593   0.607
 9133TIP3    H227364   3.256   4.669   0.611
 9134TIP3   OH227365   4.308   3.100   5.342
 9134TIP3    H127366   4.299   3.077   5.250
 9134TIP3    H227367   4.242   3.047   5.387
 9135TIP3   OH227368   2.616   1.213   3.730
 9135TIP3    H127369   2.609   1.129   3.685
 9135TIP3    H227370   2.635   1.189   3.821
 9136TIP3   OH227371   5.025   0.489   4.277
 9136TIP3    H127372   4.963   0.425   4.243
 9136TIP3    H227373   5.070   0.443   4.349
 9137TIP3   OH227374   6.168   4.382   4.665
 9137TIP3    H127375   6.107   4.423   4.727
 9137TIP3    H227376   6.112   4.354   4.592
 9138TIP3   OH227377   6.413   3.015   2.337
 9138TIP3    H127378   6.332   2.973   2.366
 9138TIP3    H227379   6.448   3.057   2.416
 9139TIP3   OH227380   4.545   4.027   1.622
 9139TIP3    H127381   4.606   3.980   1.565
 9139TIP3    H227382   4.579   4.116   1.624
 9140TIP3   OH227383   4.789   5.743   3.950
 9140TIP3    H127384   4.841   5.823   3.941
 9140TIP3    H227385   4.718   5.768   4.010
 9141TIP3   OH227386   0.120   3.347   5.263
 9141TIP3    H127387   0.173   3.268   5.273
 9141TIP3    H227388   0.116   3.361   5.169
 9142TIP3   OH227389   1.924   1.954   2.005
 9142TIP3    H127390   1.913   1.879   2.064
 9142TIP3    H227391   1.974   1.920   1.931
 9143TIP3   OH227392   0.690   3.894   5.258
 9143TIP3    H127393   0.604   3.927   5.284
 9143TIP3    H227394   0.738   3.886   5.340
 9144TIP3   OH227395   4.655   2.797   3.060
 9144TIP3    H127396   4.567   2.778   3.027
 9144TIP3    H227397   4.652   2.771   3.152
 9145TIP3   OH227398   2.277   0.358   2.019
 9145TIP3    H127399   2.338   0.369   1.947
 9145TIP3    H227400   2.193   0.339   1.977
 9146TIP3   OH227401   1.905   3.072   2.609
 9146TIP3    H127402   1.948   3.152   2.580
 9146TIP3    H227403   1.818   3.076   2.570
 9147TIP3   OH227404   0.577   3.149   0.914
 9147TIP3    H127405   0.510   3.102   0.964
 9147TIP3    H227406   0.593   3.228   0.965
 9148TIP3   OH227407   0.112   4.840   2.318
 9148TIP3    H127408   0.171   4.848   2.243
 9148TIP3    H227409   0.048   4.910   2.305
 9149TIP3   OH227410   0.687   3.027   5.755
 9149TIP3    H127411   0.658   3.092   5.692
 9149TIP3    H227412   0.710   2.951   5.702
 9150TIP3   OH227413   0.217   5.229   1.218
 9150TIP3    H127414   0.213   5.285   1.140
 9150TIP3    H227415   0.306   5.194   1.217
 9151TIP3   OH227416   2.288   1.035   4.651
 9151TIP3    H127417   2.279   1.128   4.672
 9151TIP3    H227418   2.379   1.026   4.623
 9152TIP3   OH227419   3.887   6.440   1.439
 9152TIP3    H127420   3.808   6.485   1.409
 9152TIP3    H227421   3.858   6.388   1.515
 9153TIP3   OH227422   4.375   5.110   0.428
 9153TIP3    H127423   4.416   5.156   0.355
 9153TIP3    H227424   4.412   5.022   0.426
 9154TIP3   OH227425   1.143   4.845   4.681
 9154TIP3    H127426   1.177   4.838   4.770
 9154TIP3    H227427   1.221   4.844   4.625
 9155TIP3   OH227428   3.111   3.280   3.797
 9155TIP3    H127429   3.174   3.350   3.778
 9155TIP3    H227430   3.157   3.222   3.858
 9156TIP3   OH227431   7.049   3.142   0.982
 9156TIP3    H127432   7.014   3.055   1.003
 9156TIP3    H227433   7.144   3.133   0.990
 9157TIP3   OH227434   4.635   3.015   0.969
 9157TIP3    H127435   4.607   2.968   0.891
 9157TIP3    H227436   4.640   2.948   1.037
 9158TIP3   OH227437   5.566   6.781   2.321
 9158TIP3    H127438   5.530   6.693   2.307
 9158TIP3    H227439   5.544   6.803   2.411
 9159TIP3   OH227440   3.617   4.884   4.997
 9159TIP3    H127441   3.655   4.805   4.960
 9159TIP3    H227442   3.632   4.952   4.931
 9160TIP3   OH227443   5.717   2.328   3.750
 9160TIP3    H127444   5.669   2.407   3.724
 9160TIP3    H227445   5.658   2.256   3.729
 9161TIP3   OH227446   5.950   6.769   1.596
 9161TIP3    H127447   5.877   6.735   1.648
 9161TIP3    H227448   6.028   6.735   1.640
 9162TIP3   OH227449  -0.006   2.005   3.698
 9162TIP3    H127450   0.088   2.012   3.715
 9162TIP3    H227451  -0.042   2.088   3.731
 9163TIP3   OH227452   0.435   6.556   2.882
 9163TIP3    H127453   0.368   6.495   2.913
 9163TIP3    H227454   0.513   6.534   2.934
 9164TIP3   OH227455   0.474   3.256   2.163
 9164TIP3    H127456   0.403   3.193   2.152
 9164TIP3    H227457   0.463   3.319   2.093
 9165TIP3   OH227458   0.530   4.166   4.548
 9165TIP3    H127459   0.540   4.105   4.621
 9165TIP3    H227460   0.480   4.117   4.483
 9166TIP3   OH227461   1.684   6.796   3.602
 9166TIP3    H127462   1.744   6.851   3.551
 9166TIP3    H227463   1.721   6.708   3.596
 9167TIP3   OH227464   0.485   1.343   3.905
 9167TIP3    H127465   0.397   1.335   3.868
 9167TIP3    H227466   0.527   1.260   3.881
 9168TIP3   OH227467   4.000   4.278   4.358
 9168TIP3    H127468   4.048   4.224   4.295
 9168TIP3    H227469   4.055   4.278   4.436
 9169TIP3   OH227470   1.511   4.696   5.167
 9169TIP3    H127471   1.597   4.735   5.153
 9169TIP3    H227472   1.503   4.629   5.099
 9170TIP3   OH227473   6.750   0.208   0.903
 9170TIP3    H127474   6.726   0.287   0.854
 9170TIP3    H227475   6.846   0.209   0.904
 9171TIP3   OH227476   4.050   5.268   1.267
 9171TIP3    H127477   4.129   5.219   1.287
 9171TIP3    H227478   4.049   5.340   1.331
 9172TIP3   OH227479   6.753   2.397   5.505
 9172TIP3    H127480   6.719   2.464   5.565
 9172TIP3    H227481   6.676   2.351   5.473
 9173TIP3   OH227482   0.371   1.101   4.145
 9173TIP3    H127483   0.327   1.182   4.116
 9173TIP3    H227484   0.303   1.052   4.191
 9174TIP3   OH227485   0.896   6.053   4.258
 9174TIP3    H127486   0.836   6.106   4.206
 9174TIP3    H227487   0.982   6.092   4.241
 9175TIP3   OH227488   6.576   1.938   3.680
 9175TIP3    H127489   6.575   2.032   3.699
 9175TIP3    H227490   6.550   1.931   3.588
 9176TIP3   OH227491   3.255   0.898   1.993
 9176TIP3    H127492   3.288   0.934   2.076
 9176TIP3    H227493   3.223   0.811   2.016
 9177TIP3   OH227494   1.204   0.675   3.995
 9177TIP3    H127495   1.111   0.663   3.975
 9177TIP3    H227496   1.250   0.620   3.931
 9178TIP3   OH227497   5.848   5.646   2.201
 9178TIP3    H127498   5.851   5.724   2.147
 9178TIP3    H227499   5.908   5.584   2.158
 9179TIP3   OH227500   1.383   1.159   3.237
 9179TIP3    H127501   1.340   1.241   3.263
 9179TIP3    H227502   1.476   1.174   3.254
 9180TIP3   OH227503   2.072   2.517   1.300
 9180TIP3    H127504   2.018   2.515   1.221
 9180TIP3    H227505   2.009   2.524   1.372
 9181TIP3   OH227506   1.571   0.213   2.271
 9181TIP3    H127507   1.521   0.294   2.281
 9181TIP3    H227508   1.660   0.241   2.250
 9182TIP3   OH227509   6.015   3.149   0.105
 9182TIP3    H127510   6.042   3.230   0.062
 9182TIP3    H227511   5.929   3.169   0.142
 9183TIP3   OH227512   0.795   3.557   3.942
 9183TIP3    H127513   0.817   3.484   4.000
 9183TIP3    H227514   0.757   3.515   3.865
 9184TIP3   OH227515   3.062   6.039   1.944
 9184TIP3    H127516   3.099   5.954   1.968
 9184TIP3    H227517   3.050   6.084   2.028
 9185TIP3   OH227518   6.588   4.792   3.327
 9185TIP3    H127519   6.523   4.851   3.288
 9185TIP3    H227520   6.536   4.718   3.360
 9186TIP3   OH227521   5.443   5.414   3.174
 9186TIP3    H127522   5.405   5.330   3.149
 9186TIP3    H227523   5.537   5.404   3.158
 9187TIP3   OH227524   4.957   2.348   2.294
 9187TIP3    H127525   4.957   2.443   2.308
 9187TIP3    H227526   4.886   2.333   2.231
 9188TIP3   OH227527   4.561   5.531   5.030
 9188TIP3    H127528   4.552   5.480   4.950
 9188TIP3    H227529   4.638   5.586   5.015
 9189TIP3   OH227530   1.091   2.760   2.084
 9189TIP3    H127531   1.139   2.752   2.002
 9189TIP3    H227532   1.128   2.838   2.126
 9190TIP3   OH227533   7.136   6.693   5.316
 9190TIP3    H127534   7.086   6.773   5.299
 9190TIP3    H227535   7.150   6.694   5.411
 9191TIP3   OH227536   3.596   1.486   4.751
 9191TIP3    H127537   3.592   1.505   4.845
 9191TIP3    H227538   3.641   1.562   4.713
 9192TIP3   OH227539   3.018   5.633   5.223
 9192TIP3    H127540   3.099   5.679   5.245
 9192TIP3    H227541   3.015   5.558   5.283
 9193TIP3   OH227542   0.052   4.696   0.383
 9193TIP3    H127543   0.115   4.709   0.453
 9193TIP3    H227544  -0.007   4.770   0.388
 9194TIP3   OH227545   6.929   6.624   2.178
 9194TIP3    H127546   6.967   6.594   2.095
 9194TIP3    H227547   6.839   6.592   2.176
 9195TIP3   OH227548   0.853   1.733   5.618
 9195TIP3    H127549   0.929   1.780   5.586
 9195TIP3    H227550   0.882   1.642   5.624
 9196TIP3   OH227551   1.397   6.519   2.826
 9196TIP3    H127552   1.380   6.602   2.780
 9196TIP3    H227553   1.401   6.543   2.918
 9197TIP3   OH227554   4.708   3.059   2.240
 9197TIP3    H127555   4.653   2.983   2.258
 9197TIP3    H227556   4.689   3.120   2.310
 9198TIP3   OH227557   6.934   3.567   1.803
 9198TIP3    H127558   6.928   3.480   1.765
 9198TIP3    H227559   6.910   3.626   1.731
 9199TIP3   OH227560   6.346   1.371   3.459
 9199TIP3    H127561   6.327   1.441   3.522
 9199TIP3    H227562   6.393   1.305   3.510
 9200TIP3   OH227563   6.554   1.542   0.842
 9200TIP3    H127564   6.594   1.458   0.820
 9200TIP3    H227565   6.470   1.541   0.796
 9201TIP3   OH227566   3.512   0.110   5.519
 9201TIP3    H127567   3.418   0.126   5.513
 9201TIP3    H227568   3.549   0.160   5.446
 9202TIP3   OH227569   6.175   0.727   0.526
 9202TIP3    H127570   6.224   0.712   0.607
 9202TIP3    H227571   6.086   0.698   0.546
 9203TIP3   OH227572   6.551   4.391   1.068
 9203TIP3    H127573   6.595   4.469   1.033
 9203TIP3    H227574   6.599   4.370   1.148
 9204TIP3   OH227575   6.861   5.117   2.914
 9204TIP3    H127576   6.866   5.207   2.881
 9204TIP3    H227577   6.769   5.106   2.938
 9205TIP3   OH227578   2.986   0.719   3.135
 9205TIP3    H127579   2.994   0.779   3.209
 9205TIP3    H227580   3.022   0.767   3.061
 9206TIP3   OH227581   4.988   3.782   1.544
 9206TIP3    H127582   5.063   3.736   1.582
 9206TIP3    H227583   4.927   3.712   1.521
 9207TIP3   OH227584   2.468   0.683   3.047
 9207TIP3    H127585   2.398   0.684   3.112
 9207TIP3    H227586   2.546   0.657   3.096
 9208TIP3   OH227587   1.905   3.751   1.130
 9208TIP3    H127588   1.849   3.738   1.054
 9208TIP3    H227589   1.886   3.677   1.187
 9209TIP3   OH227590   1.890   3.990   4.917
 9209TIP3    H127591   1.802   3.977   4.952
 9209TIP3    H227592   1.918   4.075   4.952
 9210TIP3   OH227593   5.021   5.239   2.639
 9210TIP3    H127594   5.022   5.260   2.546
 9210TIP3    H227595   4.951   5.174   2.649
 9211TIP3   OH227596   3.363   1.558   0.249
 9211TIP3    H127597   3.325   1.616   0.183
 9211TIP3    H227598   3.424   1.613   0.297
 9212TIP3   OH227599   6.761   4.381   5.838
 9212TIP3    H127600   6.675   4.361   5.875
 9212TIP3    H227601   6.771   4.319   5.766
 9213TIP3   OH227602   6.063   0.142   3.266
 9213TIP3    H127603   6.108   0.180   3.341
 9213TIP3    H227604   6.026   0.217   3.219
 9214TIP3   OH227605   0.689   1.292   3.172
 9214TIP3    H127606   0.653   1.203   3.177
 9214TIP3    H227607   0.685   1.314   3.079
 9215TIP3   OH227608   0.490   2.127   3.594
 9215TIP3    H127609   0.574   2.165   3.619
 9215TIP3    H227610   0.509   2.034   3.580
 9216TIP3   OH227611   2.553   5.502   4.129
 9216TIP3    H127612   2.634   5.451   4.133
 9216TIP3    H227613   2.517   5.495   4.218
 9217TIP3   OH227614   6.159   2.097   0.333
 9217TIP3    H127615   6.073   2.139   0.331
 9217TIP3    H227616   6.219   2.162   0.297
 9218TIP3   OH227617   4.912   4.089   5.089
 9218TIP3    H127618   4.848   4.051   5.149
 9218TIP3    H227619   4.930   4.176   5.125
 9219TIP3   OH227620   4.978   6.533   2.285
 9219TIP3    H127621   5.037   6.484   2.342
 9219TIP3    H227622   4.975   6.620   2.325
 9220TIP3   OH227623   0.550   2.902   4.501
 9220TIP3    H127624   0.518   2.957   4.429
 9220TIP3    H227625   0.629   2.862   4.466
 9221TIP3   OH227626   6.944   0.623   0.232
 9221TIP3    H127627   6.866   0.599   0.282
 9221TIP3    H227628   6.915   0.693   0.173
 9222TIP3   OH227629   6.505   3.518   0.760
 9222TIP3    H127630   6.428   3.546   0.810
 9222TIP3    H227631   6.513   3.424   0.780
 9223TIP3   OH227632   6.069   0.700   1.828
 9223TIP3    H127633   5.981   0.670   1.808
 9223TIP3    H227634   6.058   0.762   1.901
 9224TIP3   OH227635   5.374   2.630   2.677
 9224TIP3    H127636   5.428   2.614   2.599
 9224TIP3    H227637   5.286   2.605   2.649
 9225TIP3   OH227638   5.161   4.738   5.914
 9225TIP3    H127639   5.233   4.752   5.852
 9225TIP3    H227640   5.100   4.809   5.896
 9226TIP3   OH227641   6.226   3.162   1.807
 9226TIP3    H127642   6.261   3.208   1.883
 9226TIP3    H227643   6.287   3.090   1.791
 9227TIP3   OH227644   1.912   3.926   2.710
 9227TIP3    H127645   1.924   4.002   2.652
 9227TIP3    H227646   1.838   3.879   2.673
 9228TIP3   OH227647   2.272   5.522   1.459
 9228TIP3    H127648   2.225   5.603   1.477
 9228TIP3    H227649   2.355   5.550   1.421
 9229TIP3   OH227650   2.647   6.469   4.547
 9229TIP3    H127651   2.716   6.414   4.510
 9229TIP3    H227652   2.684   6.500   4.630
 9230TIP3   OH227653   6.416   6.701   4.184
 9230TIP3    H127654   6.414   6.610   4.214
 9230TIP3    H227655   6.473   6.700   4.107
 9231TIP3   OH227656   3.366   3.379   0.569
 9231TIP3    H127657   3.334   3.337   0.489
 9231TIP3    H227658   3.401   3.307   0.622
 9232TIP3   OH227659   3.865   5.665   2.265
 9232TIP3    H127660   3.821   5.605   2.205
 9232TIP3    H227661   3.825   5.648   2.350
 9233TIP3   OH227662   3.093   2.503   2.338
 9233TIP3    H127663   3.142   2.492   2.419
 9233TIP3    H227664   3.001   2.504   2.365
 9234TIP3   OH227665   4.483   4.153   4.275
 9234TIP3    H127666   4.496   4.082   4.337
 9234TIP3    H227667   4.565   4.202   4.275
 9235TIP3   OH227668   3.596   1.716   0.936
 9235TIP3    H127669   3.581   1.801   0.894
 9235TIP3    H227670   3.593   1.653   0.864
 9236TIP3   OH227671   2.837   6.666   5.331
 9236TIP3    H127672   2.790   6.698   5.409
 9236TIP3    H227673   2.920   6.634   5.365
 9237TIP3   OH227674   6.248   1.235   2.991
 9237TIP3    H127675   6.225   1.295   2.921
 9237TIP3    H227676   6.306   1.285   3.048
 9238TIP3   OH227677   3.624   5.696   0.721
 9238TIP3    H127678   3.569   5.623   0.694
 9238TIP3    H227679   3.707   5.655   0.747
 9239TIP3   OH227680   3.427   3.525   0.230
 9239TIP3    H127681   3.387   3.612   0.233
 9239TIP3    H227682   3.489   3.524   0.303
 9240TIP3   OH227683   2.181   0.216   1.333
 9240TIP3    H127684   2.093   0.221   1.371
 9240TIP3    H227685   2.194   0.124   1.313
 9241TIP3   OH227686   2.014   2.004   4.127
 9241TIP3    H127687   2.012   2.099   4.120
 9241TIP3    H227688   2.107   1.982   4.122
 9242TIP3   OH227689   2.224   4.598   3.713
 9242TIP3    H127690   2.227   4.503   3.704
 9242TIP3    H227691   2.239   4.632   3.625
 9243TIP3   OH227692   4.015   5.759   4.135
 9243TIP3    H127693   4.072   5.687   4.164
 9243TIP3    H227694   4.027   5.827   4.202
 9244TIP3   OH227695   0.192   0.828   0.965
 9244TIP3    H127696   0.268   0.866   1.010
 9244TIP3    H227697   0.140   0.789   1.035
 9245TIP3   OH227698   5.061   1.261   5.243
 9245TIP3    H127699   5.138   1.275   5.298
 9245TIP3    H227700   5.000   1.331   5.268
 9246TIP3   OH227701   1.587   0.456   1.952
 9246TIP3    H127702   1.580   0.542   1.910
 9246TIP3    H227703   1.547   0.396   1.890
 9247TIP3   OH227704   4.984   0.874   3.185
 9247TIP3    H127705   4.941   0.817   3.122
 9247TIP3    H227706   4.913   0.902   3.244
 9248TIP3   OH227707   3.940   3.319   5.383
 9248TIP3    H127708   3.909   3.232   5.358
 9248TIP3    H227709   3.904   3.378   5.317
 9249TIP3   OH227710   2.883   4.010   3.081
 9249TIP3    H127711   2.830   3.931   3.094
 9249TIP3    H227712   2.942   3.989   3.009
 9250TIP3   OH227713   3.964   4.793   4.333
 9250TIP3    H127714   3.888   4.744   4.300
 9250TIP3    H227715   4.015   4.728   4.382
 9251TIP3   OH227716   0.623   6.015   2.732
 9251TIP3    H127717   0.583   5.999   2.817
 9251TIP3    H227718   0.688   5.945   2.722
 9252TIP3   OH227719   1.643   2.961   3.177
 9252TIP3    H127720   1.619   2.892   3.115
 9252TIP3    H227721   1.731   2.937   3.207
 9253TIP3   OH227722   0.809   4.511   3.533
 9253TIP3    H127723   0.868   4.449   3.491
 9253TIP3    H227724   0.733   4.515   3.474
 9254TIP3   OH227725   6.551   5.740   4.872
 9254TIP3    H127726   6.637   5.741   4.914
 9254TIP3    H227727   6.498   5.684   4.929
 9255TIP3   OH227728   6.838   0.630   3.495
 9255TIP3    H127729   6.840   0.629   3.590
 9255TIP3    H227730   6.871   0.544   3.469
 9256TIP3   OH227731   4.449   3.824   4.975
 9256TIP3    H127732   4.453   3.914   4.942
 9256TIP3    H227733   4.388   3.828   5.049
 9257TIP3   OH227734   7.039   3.826   2.387
 9257TIP3    H127735   7.132   3.844   2.394
 9257TIP3    H227736   7.004   3.894   2.331
 9258TIP3   OH227737   1.334   2.393   5.136
 9258TIP3    H127738   1.416   2.360   5.174
 9258TIP3    H227739   1.332   2.356   5.048
 9259TIP3   OH227740   0.693   5.801   0.361
 9259TIP3    H127741   0.632   5.728   0.369
 9259TIP3    H227742   0.700   5.837   0.449
 9260TIP3   OH227743   6.225   2.481   2.493
 9260TIP3    H127744   6.284   2.542   2.449
 9260TIP3    H227745   6.214   2.409   2.431
 9261TIP3   OH227746   5.708   5.108   5.915
 9261TIP3    H127747   5.621   5.132   5.882
 9261TIP3    H227748   5.737   5.038   5.857
 9262TIP3   OH227749   2.764   5.962   3.505
 9262TIP3    H127750   2.827   5.939   3.437
 9262TIP3    H227751   2.696   5.896   3.499
 9263TIP3   OH227752   3.368   1.389   0.555
 9263TIP3    H127753   3.280   1.390   0.516
 9263TIP3    H227754   3.412   1.315   0.514
 9264TIP3   OH227755   6.042   4.889   2.604
 9264TIP3    H127756   6.064   4.944   2.679
 9264TIP3    H227757   6.115   4.902   2.543
 9265TIP3   OH227758   4.669   0.239   1.111
 9265TIP3    H127759   4.604   0.216   1.044
 9265TIP3    H227760   4.629   0.211   1.193
 9266TIP3   OH227761   2.322   5.583   2.869
 9266TIP3    H127762   2.332   5.613   2.959
 9266TIP3    H227763   2.313   5.663   2.818
 9267TIP3   OH227764   6.830   5.953   3.653
 9267TIP3    H127765   6.741   5.921   3.665
 9267TIP3    H227766   6.825   6.006   3.573
 9268TIP3   OH227767   0.748   4.432   2.918
 9268TIP3    H127768   0.804   4.452   2.843
 9268TIP3    H227769   0.661   4.460   2.892
 9269TIP3   OH227770   0.416   1.051   1.974
 9269TIP3    H127771   0.474   1.060   1.898
 9269TIP3    H227772   0.463   1.094   2.045
 9270TIP3   OH227773   2.237   4.634   3.438
 9270TIP3    H127774   2.211   4.569   3.373
 9270TIP3    H227775   2.307   4.684   3.396
 9271TIP3   OH227776   4.623   1.108   0.718
 9271TIP3    H127777   4.659   1.028   0.682
 9271TIP3    H227778   4.606   1.087   0.810
 9272TIP3   OH227779   4.220   0.580   2.758
 9272TIP3    H127780   4.315   0.567   2.767
 9272TIP3    H227781   4.189   0.596   2.847
 9273TIP3   OH227782   6.240   4.561   5.378
 9273TIP3    H127783   6.260   4.492   5.442
 9273TIP3    H227784   6.149   4.544   5.353
 9274TIP3   OH227785   4.030   1.072   2.640
 9274TIP3    H127786   4.007   0.983   2.615
 9274TIP3    H227787   4.122   1.082   2.613
 9275TIP3   OH227788   2.273   0.207   2.286
 9275TIP3    H127789   2.295   0.130   2.234
 9275TIP3    H227790   2.245   0.272   2.221
 9276TIP3   OH227791   5.917   3.194   1.040
 9276TIP3    H127792   5.925   3.200   1.135
 9276TIP3    H227793   6.005   3.171   1.010
 9277TIP3   OH227794   2.484   0.986   1.832
 9277TIP3    H127795   2.393   0.967   1.810
 9277TIP3    H227796   2.484   0.997   1.927
 9278TIP3   OH227797   1.042   2.896   3.909
 9278TIP3    H127798   1.126   2.859   3.936
 9278TIP3    H227799   0.989   2.821   3.882
 9279TIP3   OH227800   5.559   4.325   4.244
 9279TIP3    H127801   5.614   4.383   4.190
 9279TIP3    H227802   5.618   4.255   4.272
 9280TIP3   OH227803   6.983   1.329   1.370
 9280TIP3    H127804   6.925   1.316   1.446
 9280TIP3    H227805   6.948   1.270   1.303
 9281TIP3   OH227806   4.259   1.810   2.272
 9281TIP3    H127807   4.215   1.774   2.348
 9281TIP3    H227808   4.191   1.820   2.206
 9282TIP3   OH227809   6.202   6.172   2.424
 9282TIP3    H127810   6.172   6.255   2.387
 9282TIP3    H227811   6.130   6.111   2.408
 9283TIP3   OH227812   5.118   6.663   1.249
 9283TIP3    H127813   5.088   6.580   1.285
 9283TIP3    H227814   5.177   6.638   1.178
 9284TIP3   OH227815   2.794   1.265   5.329
 9284TIP3    H127816   2.745   1.244   5.409
 9284TIP3    H227817   2.746   1.337   5.290
 9285TIP3   OH227818   6.753   0.063   5.366
 9285TIP3    H127819   6.720   0.083   5.453
 9285TIP3    H227820   6.777  -0.029   5.369
 9286TIP3   OH227821   1.336   0.359   1.801
 9286TIP3    H127822   1.289   0.386   1.881
 9286TIP3    H227823   1.269   0.314   1.749
 9287TIP3   OH227824   0.824   2.600   1.470
 9287TIP3    H127825   0.739   2.643   1.483
 9287TIP3    H227826   0.852   2.628   1.383
 9288TIP3   OH227827   1.404   5.464   5.693
 9288TIP3    H127828   1.434   5.551   5.665
 9288TIP3    H227829   1.391   5.416   5.611
 9289TIP3   OH227830   6.410   0.280   3.636
 9289TIP3    H127831   6.367   0.283   3.722
 9289TIP3    H227832   6.429   0.187   3.623
 9290TIP3   OH227833   1.604   4.676   1.638
 9290TIP3    H127834   1.655   4.596   1.631
 9290TIP3    H227835   1.593   4.690   1.732
 9291TIP3   OH227836   5.252   1.975   5.711
 9291TIP3    H127837   5.347   1.985   5.705
 9291TIP3    H227838   5.226   2.037   5.779
 9292TIP3   OH227839   1.506   0.305   1.561
 9292TIP3    H127840   1.485   0.292   1.469
 9292TIP3    H227841   1.420   0.304   1.605
 9293TIP3   OH227842   4.476   1.832   4.543
 9293TIP3    H127843   4.499   1.743   4.571
 9293TIP3    H227844   4.510   1.888   4.614
 9294TIP3   OH227845   1.891   2.474   1.509
 9294TIP3    H127846   1.820   2.515   1.459
 9294TIP3    H227847   1.847   2.426   1.579
 9295TIP3   OH227848   2.455   3.959   5.219
 9295TIP3    H127849   2.393   3.961   5.292
 9295TIP3    H227850   2.513   4.033   5.235
 9296TIP3   OH227851   1.437   1.473   3.770
 9296TIP3    H127852   1.452   1.479   3.676
 9296TIP3    H227853   1.377   1.399   3.781
 9297TIP3   OH227854   5.073   0.439   3.320
 9297TIP3    H127855   4.992   0.490   3.321
 9297TIP3    H227856   5.046   0.351   3.348
 9298TIP3   OH227857   6.984   3.536   5.125
 9298TIP3    H127858   6.926   3.610   5.143
 9298TIP3    H227859   6.924   3.463   5.108
 9299TIP3   OH227860   7.010   3.195   5.800
 9299TIP3    H127861   6.994   3.224   5.890
 9299TIP3    H227862   7.030   3.275   5.752
 9300TIP3   OH227863   2.609   4.851   3.144
 9300TIP3    H127864   2.549   4.919   3.175
 9300TIP3    H227865   2.571   4.769   3.176
 9301TIP3   OH227866   3.592   3.676   2.093
 9301TIP3    H127867   3.598   3.640   2.181
 9301TIP3    H227868   3.524   3.743   2.099
 9302TIP3   OH227869   6.853   2.200   2.359
 9302TIP3    H127870   6.817   2.284   2.332
 9302TIP3    H227871   6.874   2.155   2.277
 9303TIP3   OH227872   2.427   1.378   3.315
 9303TIP3    H127873   2.513   1.345   3.344
 9303TIP3    H227874   2.365   1.312   3.344
 9304TIP3   OH227875   7.133   5.985   3.040
 9304TIP3    H127876   7.218   5.968   3.080
 9304TIP3    H227877   7.100   6.063   3.085
 9305TIP3   OH227878   5.943   3.665   1.236
 9305TIP3    H127879   5.958   3.648   1.329
 9305TIP3    H227880   5.924   3.758   1.231
 9306TIP3   OH227881   5.983   2.813   4.537
 9306TIP3    H127882   5.898   2.856   4.542
 9306TIP3    H227883   6.034   2.853   4.607
 9307TIP3   OH227884   5.588   4.492   1.671
 9307TIP3    H127885   5.587   4.572   1.724
 9307TIP3    H227886   5.639   4.515   1.594
 9308TIP3   OH227887   6.017   5.308   2.372
 9308TIP3    H127888   6.011   5.257   2.453
 9308TIP3    H227889   6.015   5.399   2.402
 9309TIP3   OH227890   4.357   3.931   0.079
 9309TIP3    H127891   4.434   3.919   0.135
 9309TIP3    H227892   4.285   3.893   0.129
 9310TIP3   OH227893   6.671   1.188   3.297
 9310TIP3    H127894   6.655   1.161   3.387
 9310TIP3    H227895   6.609   1.137   3.244
 9311TIP3   OH227896   6.793   4.983   3.836
 9311TIP3    H127897   6.782   4.903   3.888
 9311TIP3    H227898   6.849   4.957   3.763
 9312TIP3   OH227899   2.408   3.005   4.906
 9312TIP3    H127900   2.497   2.992   4.876
 9312TIP3    H227901   2.405   3.095   4.937
 9313TIP3   OH227902   6.478   0.356   1.317
 9313TIP3    H127903   6.460   0.304   1.396
 9313TIP3    H227904   6.571   0.378   1.324
 9314TIP3   OH227905   4.288   0.796   1.653
 9314TIP3    H127906   4.244   0.723   1.697
 9314TIP3    H227907   4.221   0.864   1.647
 9315TIP3   OH227908   3.975   5.280   0.522
 9315TIP3    H127909   3.994   5.252   0.611
 9315TIP3    H227910   3.903   5.342   0.531
 9316TIP3   OH227911   0.671   0.374   1.051
 9316TIP3    H127912   0.649   0.442   1.115
 9316TIP3    H227913   0.764   0.357   1.066
 9317TIP3   OH227914   1.289   4.219   0.258
 9317TIP3    H127915   1.304   4.255   0.346
 9317TIP3    H227916   1.351   4.147   0.251
 9318TIP3   OH227917   0.431   2.342   3.252
 9318TIP3    H127918   0.393   2.418   3.207
 9318TIP3    H227919   0.488   2.301   3.186
 9319TIP3   OH227920   6.774   3.145   3.521
 9319TIP3    H127921   6.766   3.053   3.548
 9319TIP3    H227922   6.834   3.143   3.446
 9320TIP3   OH227923   2.874   3.271   5.834
 9320TIP3    H127924   2.857   3.328   5.909
 9320TIP3    H227925   2.956   3.303   5.797
 9321TIP3   OH227926   2.828   0.808   4.100
 9321TIP3    H127927   2.910   0.837   4.139
 9321TIP3    H227928   2.834   0.834   4.008
 9322TIP3   OH227929   4.382   1.384   1.683
 9322TIP3    H127930   4.374   1.479   1.695
 9322TIP3    H227931   4.468   1.372   1.643
 9323TIP3   OH227932   1.827   3.897   3.126
 9323TIP3    H127933   1.750   3.933   3.080
 9323TIP3    H227934   1.835   3.808   3.091
 9324TIP3   OH227935   1.543   2.613   3.178
 9324TIP3    H127936   1.587   2.576   3.254
 9324TIP3    H227937   1.605   2.602   3.106
 9325TIP3   OH227938   6.848   1.468   0.711
 9325TIP3    H127939   6.897   1.406   0.656
 9325TIP3    H227940   6.803   1.413   0.775
 9326TIP3   OH227941   6.948   0.781   1.239
 9326TIP3    H127942   6.899   0.724   1.299
 9326TIP3    H227943   7.040   0.760   1.255
 9327TIP3   OH227944   6.484   0.527   5.805
 9327TIP3    H127945   6.549   0.567   5.747
 9327TIP3    H227946   6.533   0.457   5.850
 9328TIP3   OH227947   1.886   5.041   3.376
 9328TIP3    H127948   1.838   5.123   3.384
 9328TIP3    H227949   1.938   5.051   3.297
 9329TIP3   OH227950   3.600   1.210   3.699
 9329TIP3    H127951   3.535   1.280   3.695
 9329TIP3    H227952   3.616   1.187   3.607
 9330TIP3   OH227953   2.799   5.399   4.203
 9330TIP3    H127954   2.846   5.480   4.224
 9330TIP3    H227955   2.868   5.336   4.181
 9331TIP3   OH227956   5.191   5.854   3.136
 9331TIP3    H127957   5.279   5.815   3.132
 9331TIP3    H227958   5.134   5.782   3.163
 9332TIP3   OH227959   6.347   0.232   2.646
 9332TIP3    H127960   6.377   0.319   2.672
 9332TIP3    H227961   6.418   0.198   2.591
 9333TIP3   OH227962   2.543   5.855   2.638
 9333TIP3    H127963   2.632   5.821   2.622
 9333TIP3    H227964   2.515   5.811   2.718
 9334TIP3   OH227965   0.740   5.038   5.320
 9334TIP3    H127966   0.754   4.994   5.404
 9334TIP3    H227967   0.692   4.974   5.267
 9335TIP3   OH227968   7.108   5.744   1.109
 9335TIP3    H127969   7.162   5.776   1.037
 9335TIP3    H227970   7.119   5.809   1.178
 9336TIP3   OH227971   3.385   0.654   4.280
 9336TIP3    H127972   3.410   0.563   4.267
 9336TIP3    H227973   3.445   0.687   4.347
 9337TIP3   OH227974   3.032   0.930   4.225
 9337TIP3    H127975   3.026   0.988   4.301
 9337TIP3    H227976   3.126   0.926   4.205
 9338TIP3   OH227977   0.929   1.352   2.057
 9338TIP3    H127978   1.019   1.381   2.044
 9338TIP3    H227979   0.876   1.431   2.044
 9339TIP3   OH227980   0.665   4.097   1.120
 9339TIP3    H127981   0.596   4.057   1.172
 9339TIP3    H227982   0.746   4.064   1.159
 9340TIP3   OH227983   0.429   6.688   0.929
 9340TIP3    H127984   0.444   6.596   0.954
 9340TIP3    H227985   0.459   6.738   1.005
 9341TIP3   OH227986   1.870   1.867   0.936
 9341TIP3    H127987   1.954   1.835   0.903
 9341TIP3    H227988   1.855   1.816   1.016
 9342TIP3   OH227989   3.553   1.849   4.841
 9342TIP3    H127990   3.603   1.818   4.765
 9342TIP3    H227991   3.468   1.873   4.806
 9343TIP3   OH227992   2.443   3.155   1.672
 9343TIP3    H127993   2.400   3.128   1.752
 9343TIP3    H227994   2.503   3.083   1.652
 9344TIP3   OH227995   1.656   5.612   2.798
 9344TIP3    H127996   1.595   5.653   2.737
 9344TIP3    H227997   1.605   5.598   2.878
 9345TIP3   OH227998   7.105   4.815   3.137
 9345TIP3    H127999   7.185   4.858   3.108
 9345TIP3    H228000   7.042   4.886   3.148
 9346TIP3   OH228001   4.382   0.220   2.727
 9346TIP3    H128002   4.430   0.255   2.803
 9346TIP3    H228003   4.441   0.155   2.690
 9347TIP3   OH228004   6.882   4.329   0.876
 9347TIP3    H128005   6.860   4.267   0.807
 9347TIP3    H228006   6.976   4.343   0.867
 9348TIP3   OH228007   6.168   1.501   4.439
 9348TIP3    H128008   6.212   1.583   4.464
 9348TIP3    H228009   6.170   1.448   4.519
 9349TIP3   OH228010   0.023   3.338   0.680
 9349TIP3    H128011   0.055   3.428   0.689
 9349TIP3    H228012  -0.072   3.347   0.672
 9350TIP3   OH228013   3.075   0.453   2.434
 9350TIP3    H128014   3.059   0.522   2.371
 9350TIP3    H228015   2.988   0.425   2.462
 9351TIP3   OH228016   2.487   6.282   5.358
 9351TIP3    H128017   2.400   6.250   5.380
 9351TIP3    H228018   2.508   6.346   5.427
 9352TIP3   OH228019   6.533   3.520   4.833
 9352TIP3    H128020   6.602   3.459   4.807
 9352TIP3    H228021   6.578   3.590   4.880
 9353TIP3   OH228022   7.126   2.640   2.800
 9353TIP3    H128023   7.198   2.582   2.775
 9353TIP3    H228024   7.141   2.720   2.748
 9354TIP3   OH228025   6.267   0.591   5.245
 9354TIP3    H128026   6.316   0.522   5.201
 9354TIP3    H228027   6.183   0.551   5.268
 9355TIP3   OH228028   7.078   5.395   4.972
 9355TIP3    H128029   7.139   5.322   4.983
 9355TIP3    H228030   7.133   5.473   4.976
 9356TIP3   OH228031   2.481   1.853   3.426
 9356TIP3    H128032   2.441   1.771   3.395
 9356TIP3    H228033   2.414   1.894   3.480
 9357TIP3   OH228034   4.813   1.564   1.436
 9357TIP3    H128035   4.901   1.528   1.441
 9357TIP3    H228036   4.809   1.606   1.350
 9358TIP3   OH228037   1.130   3.747   3.000
 9358TIP3    H128038   1.129   3.841   3.017
 9358TIP3    H228039   1.122   3.707   3.086
 9359TIP3   OH228040   6.457   0.699   4.135
 9359TIP3    H128041   6.548   0.671   4.135
 9359TIP3    H228042   6.430   0.693   4.043
 9360TIP3   OH228043   3.421   1.431   1.174
 9360TIP3    H128044   3.434   1.403   1.083
 9360TIP3    H228045   3.501   1.477   1.197
 9361TIP3   OH228046   2.244   3.183   0.607
 9361TIP3    H128047   2.218   3.113   0.546
 9361TIP3    H228048   2.167   3.196   0.662
 9362TIP3   OH228049   4.177   5.357   3.728
 9362TIP3    H128050   4.112   5.340   3.660
 9362TIP3    H228051   4.260   5.328   3.690
 9363TIP3   OH228052   2.619   3.216   2.061
 9363TIP3    H128053   2.689   3.270   2.098
 9363TIP3    H228054   2.584   3.168   2.136
 9364TIP3   OH228055   5.944   2.007   1.007
 9364TIP3    H128056   5.916   1.923   0.971
 9364TIP3    H228057   5.884   2.070   0.967
 9365TIP3   OH228058   0.634   2.582   2.902
 9365TIP3    H128059   0.591   2.602   2.985
 9365TIP3    H228060   0.722   2.620   2.911
 9366TIP3   OH228061   1.286   3.377   4.081
 9366TIP3    H128062   1.351   3.387   4.011
 9366TIP3    H228063   1.217   3.323   4.041
 9367TIP3   OH228064   2.022   4.419   5.220
 9367TIP3    H128065   2.116   4.422   5.204
 9367TIP3    H228066   2.013   4.427   5.315
 9368TIP3   OH228067   4.774   3.426   2.106
 9368TIP3    H128068   4.712   3.483   2.062
 9368TIP3    H228069   4.742   3.419   2.196
 9369TIP3   OH228070   1.827   4.308   3.088
 9369TIP3    H128071   1.844   4.397   3.119
 9369TIP3    H228072   1.767   4.271   3.153
 9370TIP3   OH228073   5.963   6.163   2.059
 9370TIP3    H128074   5.916   6.220   1.998
 9370TIP3    H228075   5.973   6.217   2.138
 9371TIP3   OH228076   6.653   5.947   3.961
 9371TIP3    H128077   6.729   5.904   4.000
 9371TIP3    H228078   6.659   5.926   3.868
 9372TIP3   OH228079   6.976   3.300   3.135
 9372TIP3    H128080   6.892   3.336   3.108
 9372TIP3    H228081   6.986   3.327   3.227
 9373TIP3   OH228082   7.150   0.327   1.468
 9373TIP3    H128083   7.167   0.236   1.491
 9373TIP3    H228084   7.233   0.372   1.484
 9374TIP3   OH228085   2.189   3.174   0.956
 9374TIP3    H128086   2.200   3.085   0.924
 9374TIP3    H228087   2.106   3.203   0.917
 9375TIP3   OH228088   4.392   4.908   2.818
 9375TIP3    H128089   4.418   4.816   2.822
 9375TIP3    H228090   4.342   4.923   2.899
 9376TIP3   OH228091   1.344   0.151   1.341
 9376TIP3    H128092   1.429   0.175   1.302
 9376TIP3    H228093   1.300   0.235   1.354
 9377TIP3   OH228094   6.673   5.038   0.883
 9377TIP3    H128095   6.673   5.096   0.959
 9377TIP3    H228096   6.622   4.962   0.910
 9378TIP3   OH228097   0.104   3.299   4.992
 9378TIP3    H128098   0.191   3.279   4.956
 9378TIP3    H228099   0.049   3.227   4.962
 9379TIP3   OH228100   6.045   1.585   5.596
 9379TIP3    H128101   6.033   1.656   5.659
 9379TIP3    H228102   6.130   1.547   5.618
 9380TIP3   OH228103   6.810   3.693   2.039
 9380TIP3    H128104   6.753   3.739   1.978
 9380TIP3    H228105   6.888   3.672   1.987
 9381TIP3   OH228106   6.058   5.296   3.024
 9381TIP3    H128107   6.024   5.271   3.110
 9381TIP3    H228108   6.079   5.389   3.033
 9382TIP3   OH228109   7.031   0.154   1.150
 9382TIP3    H128110   7.029   0.143   1.245
 9382TIP3    H228111   7.014   0.066   1.115
 9383TIP3   OH228112   1.457   4.021   0.457
 9383TIP3    H128113   1.452   3.930   0.486
 9383TIP3    H228114   1.378   4.061   0.491
 9384TIP3   OH228115   5.784   3.984   0.453
 9384TIP3    H128116   5.721   4.055   0.445
 9384TIP3    H228117   5.862   4.026   0.490
 9385TIP3   OH228118   6.186   5.407   1.119
 9385TIP3    H128119   6.166   5.373   1.032
 9385TIP3    H228120   6.100   5.421   1.159
 9386TIP3   OH228121   5.984   4.945   1.718
 9386TIP3    H128122   6.000   4.943   1.624
 9386TIP3    H228123   5.967   4.854   1.742
 9387TIP3   OH228124   1.356   2.244   2.141
 9387TIP3    H128125   1.268   2.256   2.175
 9387TIP3    H228126   1.391   2.168   2.188
 9388TIP3   OH228127   4.194   1.493   2.724
 9388TIP3    H128128   4.146   1.486   2.807
 9388TIP3    H228129   4.268   1.434   2.735
 9389TIP3   OH228130   5.052   6.453   5.436
 9389TIP3    H128131   5.008   6.389   5.381
 9389TIP3    H228132   5.145   6.435   5.424
 9390TIP3   OH228133   2.511   6.151   0.454
 9390TIP3    H128134   2.580   6.201   0.498
 9390TIP3    H228135   2.476   6.094   0.522
 9391TIP3   OH228136   6.955   0.856   4.141
 9391TIP3    H128137   6.964   0.761   4.138
 9391TIP3    H228138   7.041   0.889   4.116
 9392TIP3   OH228139   3.508  -0.012   0.804
 9392TIP3    H128140   3.533   0.031   0.886
 9392TIP3    H228141   3.527   0.053   0.737
 9393TIP3   OH228142   2.959   6.288   0.825
 9393TIP3    H128143   3.021   6.356   0.852
 9393TIP3    H228144   2.935   6.312   0.736
 9394TIP3   OH228145   4.728   5.861   1.425
 9394TIP3    H128146   4.635   5.872   1.406
 9394TIP3    H228147   4.769   5.942   1.395
 9395TIP3   OH228148   2.152   4.450   3.240
 9395TIP3    H128149   2.087   4.383   3.257
 9395TIP3    H228150   2.180   4.436   3.149
 9396TIP3   OH228151   0.887   2.593   4.245
 9396TIP3    H128152   0.884   2.667   4.184
 9396TIP3    H228153   0.981   2.581   4.262
 9397TIP3   OH228154   1.293   4.662   2.626
 9397TIP3    H128155   1.251   4.580   2.653
 9397TIP3    H228156   1.379   4.635   2.595
 9398TIP3   OH228157   6.901   1.133   1.813
 9398TIP3    H128158   6.908   1.228   1.820
 9398TIP3    H228159   6.977   1.107   1.761
 9399TIP3   OH228160   3.945   5.708   2.533
 9399TIP3    H128161   3.961   5.734   2.624
 9399TIP3    H228162   3.988   5.776   2.481
 9400TIP3   OH228163   4.619   6.580   4.033
 9400TIP3    H128164   4.702   6.626   4.047
 9400TIP3    H228165   4.632   6.529   3.954
 9401TIP3   OH228166   3.519   4.360   3.551
 9401TIP3    H128167   3.430   4.388   3.531
 9401TIP3    H228168   3.526   4.273   3.510
 9402TIP3   OH228169   0.985   1.377   1.619
 9402TIP3    H128170   1.011   1.328   1.697
 9402TIP3    H228171   1.029   1.333   1.546
 9403TIP3   OH228172   4.452   3.521   5.263
 9403TIP3    H128173   4.474   3.430   5.281
 9403TIP3    H228174   4.431   3.559   5.348
 9404TIP3   OH228175   6.414   6.470   3.172
 9404TIP3    H128176   6.394   6.456   3.079
 9404TIP3    H228177   6.344   6.425   3.218
 9405TIP3   OH228178   0.953   0.557   4.685
 9405TIP3    H128179   0.983   0.642   4.716
 9405TIP3    H228180   1.011   0.494   4.727
 9406TIP3   OH228181   0.193   0.834   4.050
 9406TIP3    H128182   0.209   0.767   4.117
 9406TIP3    H228183   0.279   0.875   4.037
 9407TIP3   OH228184   6.349   6.142   0.740
 9407TIP3    H128185   6.390   6.071   0.788
 9407TIP3    H228186   6.391   6.142   0.654
 9408TIP3   OH228187   4.019   5.344   4.473
 9408TIP3    H128188   4.025   5.279   4.402
 9408TIP3    H228189   3.926   5.348   4.494
 9409TIP3   OH228190   4.526   2.857   2.607
 9409TIP3    H128191   4.582   2.820   2.675
 9409TIP3    H228192   4.510   2.947   2.636
 9410TIP3   OH228193   3.067   0.212   2.191
 9410TIP3    H128194   2.999   0.187   2.253
 9410TIP3    H228195   3.136   0.250   2.245
 9411TIP3   OH228196   5.626   6.273   2.866
 9411TIP3    H128197   5.644   6.315   2.950
 9411TIP3    H228198   5.703   6.292   2.813
 9412TIP3   OH228199   4.901   0.201   3.139
 9412TIP3    H128200   4.922   0.203   3.046
 9412TIP3    H228201   4.847   0.279   3.153
 9413TIP3   OH228202   2.751   5.900   3.057
 9413TIP3    H128203   2.821   5.965   3.068
 9413TIP3    H228204   2.764   5.838   3.128
 9414TIP3   OH228205   3.010   3.234   1.660
 9414TIP3    H128206   3.006   3.162   1.723
 9414TIP3    H228207   3.040   3.309   1.711
 9415TIP3   OH228208   2.946   3.502   4.439
 9415TIP3    H128209   2.865   3.461   4.468
 9415TIP3    H228210   2.938   3.593   4.466
 9416TIP3   OH228211   5.921   4.961   4.871
 9416TIP3    H128212   5.920   4.895   4.940
 9416TIP3    H228213   5.961   4.917   4.796
 9417TIP3   OH228214   2.798   2.110   3.251
 9417TIP3    H128215   2.746   2.166   3.194
 9417TIP3    H228216   2.753   2.026   3.251
 9418TIP3   OH228217   0.472   6.488   3.553
 9418TIP3    H128218   0.497   6.532   3.472
 9418TIP3    H228219   0.398   6.539   3.586
 9419TIP3   OH228220   6.578   4.119   4.585
 9419TIP3    H128221   6.654   4.071   4.553
 9419TIP3    H228222   6.605   4.153   4.671
 9420TIP3   OH228223   1.069   3.086   0.303
 9420TIP3    H128224   1.087   3.112   0.213
 9420TIP3    H228225   1.114   3.151   0.357
 9421TIP3   OH228226   2.101   4.273   2.570
 9421TIP3    H128227   2.024   4.218   2.565
 9421TIP3    H228228   2.101   4.323   2.488
 9422TIP3   OH228229   3.994   6.730   2.297
 9422TIP3    H128230   4.029   6.652   2.254
 9422TIP3    H228231   4.050   6.801   2.266
 9423TIP3   OH228232   6.684   5.382   2.957
 9423TIP3    H128233   6.618   5.321   2.925
 9423TIP3    H228234   6.640   5.467   2.957
 9424TIP3   OH228235   5.031   1.174   3.998
 9424TIP3    H128236   4.988   1.256   3.974
 9424TIP3    H228237   5.088   1.197   4.071
 9425TIP3   OH228238   4.319   5.466   0.495
 9425TIP3    H128239   4.383   5.523   0.454
 9425TIP3    H228240   4.287   5.411   0.423
 9426TIP3   OH228241   6.596   2.868   4.352
 9426TIP3    H128242   6.653   2.803   4.310
 9426TIP3    H228243   6.637   2.952   4.329
 9427TIP3   OH228244   5.944   4.447   2.281
 9427TIP3    H128245   5.858   4.438   2.321
 9427TIP3    H228246   5.959   4.364   2.235
 9428TIP3   OH228247   5.998   0.391   3.147
 9428TIP3    H128248   5.918   0.443   3.155
 9428TIP3    H228249   6.012   0.382   3.053
 9429TIP3   OH228250   5.638   3.615   3.710
 9429TIP3    H128251   5.612   3.673   3.782
 9429TIP3    H228252   5.733   3.624   3.706
 9430TIP3   OH228253   4.033   0.711   3.430
 9430TIP3    H128254   4.080   0.630   3.447
 9430TIP3    H228255   4.087   0.757   3.366
 9431TIP3   OH228256   3.745   5.219   0.113
 9431TIP3    H128257   3.783   5.135   0.138
 9431TIP3    H228258   3.809   5.284   0.144
 9432TIP3   OH228259   5.946   3.240   0.748
 9432TIP3    H128260   5.957   3.260   0.841
 9432TIP3    H228261   5.973   3.148   0.740
 9433TIP3   OH228262   6.764   1.430   0.360
 9433TIP3    H128263   6.796   1.400   0.275
 9433TIP3    H228264   6.792   1.362   0.421
 9434TIP3   OH228265   0.334   6.528   5.069
 9434TIP3    H128266   0.291   6.608   5.100
 9434TIP3    H228267   0.419   6.557   5.037
 9435TIP3   OH228268   2.045   2.833   4.826
 9435TIP3    H128269   2.052   2.822   4.921
 9435TIP3    H228270   2.103   2.765   4.790
 9436TIP3   OH228271   1.307   2.755   2.471
 9436TIP3    H128272   1.225   2.708   2.455
 9436TIP3    H228273   1.314   2.817   2.398
 9437TIP3   OH228274   0.829   3.661   1.138
 9437TIP3    H128275   0.796   3.690   1.223
 9437TIP3    H228276   0.824   3.565   1.142
 9438TIP3   OH228277   1.944   5.492   5.499
 9438TIP3    H128278   1.855   5.526   5.509
 9438TIP3    H228279   1.975   5.481   5.589
 9439TIP3   OH228280   1.096   5.075   2.455
 9439TIP3    H128281   1.090   5.065   2.550
 9439TIP3    H228282   1.122   5.166   2.442
 9440TIP3   OH228283   1.724   4.116   2.219
 9440TIP3    H128284   1.718   4.036   2.271
 9440TIP3    H228285   1.816   4.142   2.225
 9441TIP3   OH228286   6.300   6.402   5.866
 9441TIP3    H128287   6.324   6.494   5.850
 9441TIP3    H228288   6.355   6.376   5.940
 9442TIP3   OH228289   4.479   1.442   4.845
 9442TIP3    H128290   4.566   1.459   4.809
 9442TIP3    H228291   4.437   1.528   4.848
 9443TIP3   OH228292   2.883   4.824   1.393
 9443TIP3    H128293   2.933   4.824   1.474
 9443TIP3    H228294   2.888   4.914   1.361
 9444TIP3   OH228295   7.112   2.312   0.228
 9444TIP3    H128296   7.018   2.303   0.210
 9444TIP3    H228297   7.131   2.243   0.292
 9445TIP3   OH228298   5.733   0.845   1.545
 9445TIP3    H128299   5.723   0.935   1.574
 9445TIP3    H228300   5.774   0.851   1.459
 9446TIP3   OH228301   3.038   6.783   2.555
 9446TIP3    H128302   2.970   6.815   2.495
 9446TIP3    H228303   3.043   6.689   2.538
 9447TIP3   OH228304   5.567   6.592   0.990
 9447TIP3    H128305   5.588   6.684   1.009
 9447TIP3    H228306   5.611   6.543   1.059
 9448TIP3   OH228307   5.242   2.826   2.294
 9448TIP3    H128308   5.160   2.867   2.268
 9448TIP3    H228309   5.302   2.843   2.221
 9449TIP3   OH228310   0.193   6.711   5.193
 9449TIP3    H128311   0.100   6.700   5.212
 9449TIP3    H228312   0.236   6.701   5.278
 9450TIP3   OH228313   5.970   6.441   5.687
 9450TIP3    H128314   5.908   6.507   5.655
 9450TIP3    H228315   5.919   6.360   5.690
 9451TIP3   OH228316   4.969   5.859   2.618
 9451TIP3    H128317   4.875   5.871   2.621
 9451TIP3    H228318   5.002   5.900   2.698
 9452TIP3   OH228319   0.918   2.415   1.060
 9452TIP3    H128320   0.958   2.472   0.995
 9452TIP3    H228321   0.961   2.330   1.048
 9453TIP3   OH228322   2.549   3.009   2.702
 9453TIP3    H128323   2.486   2.977   2.637
 9453TIP3    H228324   2.501   3.074   2.753
 9454TIP3   OH228325   5.642   6.403   5.232
 9454TIP3    H128326   5.609   6.321   5.196
 9454TIP3    H228327   5.666   6.382   5.322
 9455TIP3   OH228328   7.005   1.907   5.530
 9455TIP3    H128329   6.945   1.965   5.576
 9455TIP3    H228330   7.084   1.958   5.516
 9456TIP3   OH228331   5.165   4.756   0.834
 9456TIP3    H128332   5.070   4.758   0.821
 9456TIP3    H228333   5.180   4.813   0.910
 9457TIP3   OH228334   6.392   6.598   2.395
 9457TIP3    H128335   6.420   6.676   2.443
 9457TIP3    H228336   6.408   6.619   2.303
 9458TIP3   OH228337   6.471   6.195   5.756
 9458TIP3    H128338   6.393   6.153   5.791
 9458TIP3    H228339   6.471   6.171   5.663
 9459TIP3   OH228340   4.538   3.085   5.510
 9459TIP3    H128341   4.465   3.119   5.459
 9459TIP3    H228342   4.616   3.106   5.458
 9460TIP3   OH228343   3.909   4.479   3.879
 9460TIP3    H128344   3.974   4.548   3.876
 9460TIP3    H228345   3.878   4.479   3.970
 9461TIP3   OH228346   2.998   1.354   4.584
 9461TIP3    H128347   2.959   1.346   4.671
 9461TIP3    H228348   3.036   1.442   4.582
 9462TIP3   OH228349   7.137   3.151   5.418
 9462TIP3    H128350   7.106   3.175   5.330
 9462TIP3    H228351   7.177   3.231   5.452
 9463TIP3   OH228352   0.390   1.893   4.197
 9463TIP3    H128353   0.435   1.892   4.113
 9463TIP3    H228354   0.388   1.801   4.224
 9464TIP3   OH228355   1.989   1.179   2.479
 9464TIP3    H128356   1.920   1.203   2.541
 9464TIP3    H228357   1.943   1.133   2.409
 9465TIP3   OH228358   5.767   0.932   2.768
 9465TIP3    H128359   5.827   0.996   2.728
 9465TIP3    H228360   5.680   0.958   2.738
 9466TIP3   OH228361   0.212   3.395   2.232
 9466TIP3    H128362   0.146   3.464   2.233
 9466TIP3    H228363   0.169   3.319   2.271
 9467TIP3   OH228364   6.826   0.922   5.534
 9467TIP3    H128365   6.910   0.959   5.506
 9467TIP3    H228366   6.826   0.933   5.629
 9468TIP3   OH228367   5.537   0.199   2.739
 9468TIP3    H128368   5.516   0.125   2.681
 9468TIP3    H228369   5.619   0.174   2.780
 9469TIP3   OH228370   2.776   1.652   2.267
 9469TIP3    H128371   2.791   1.716   2.198
 9469TIP3    H228372   2.802   1.697   2.348
 9470TIP3   OH228373   4.033   5.408   2.063
 9470TIP3    H128374   4.097   5.372   2.125
 9470TIP3    H228375   4.005   5.491   2.103
 9471TIP3   OH228376   0.429   3.038   2.544
 9471TIP3    H128377   0.500   3.086   2.501
 9471TIP3    H228378   0.451   2.946   2.531
 9472TIP3   OH228379   2.145   3.240   2.336
 9472TIP3    H128380   2.204   3.281   2.272
 9472TIP3    H228381   2.139   3.303   2.407
 9473TIP3   OH228382   5.815   2.999   4.240
 9473TIP3    H128383   5.902   2.966   4.263
 9473TIP3    H228384   5.808   3.083   4.286
 9474TIP3   OH228385   0.923   4.853   1.778
 9474TIP3    H128386   0.999   4.814   1.820
 9474TIP3    H228387   0.953   4.940   1.750
 9475TIP3   OH228388   0.269   5.572   4.403
 9475TIP3    H128389   0.222   5.567   4.320
 9475TIP3    H228390   0.335   5.503   4.398
 9476TIP3   OH228391   4.697   4.891   1.231
 9476TIP3    H128392   4.641   4.838   1.288
 9476TIP3    H228393   4.766   4.830   1.204
 9477TIP3   OH228394   4.041   2.415   3.640
 9477TIP3    H128395   4.079   2.404   3.552
 9477TIP3    H228396   4.103   2.472   3.685
 9478TIP3   OH228397   1.173   2.991   3.441
 9478TIP3    H128398   1.092   2.963   3.400
 9478TIP3    H228399   1.241   2.937   3.401
 9479TIP3   OH228400   6.424   2.081   5.291
 9479TIP3    H128401   6.403   2.056   5.202
 9479TIP3    H228402   6.351   2.048   5.344
 9480TIP3   OH228403   0.164   6.599   3.258
 9480TIP3    H128404   0.079   6.620   3.219
 9480TIP3    H228405   0.154   6.509   3.289
 9481TIP3   OH228406   1.182   1.679   2.162
 9481TIP3    H128407   1.266   1.648   2.196
 9481TIP3    H228408   1.122   1.671   2.236
 9482TIP3   OH228409   3.131   6.787   5.304
 9482TIP3    H128410   3.110   6.696   5.324
 9482TIP3    H228411   3.170   6.783   5.217
 9483TIP3   OH228412   5.785   5.531   3.589
 9483TIP3    H128413   5.728   5.591   3.637
 9483TIP3    H228414   5.867   5.578   3.579
 9484TIP3   OH228415   3.048   1.831   1.518
 9484TIP3    H128416   3.109   1.758   1.514
 9484TIP3    H228417   3.099   1.907   1.491
 9485TIP3   OH228418   5.020   2.579   3.116
 9485TIP3    H128419   4.950   2.551   3.058
 9485TIP3    H228420   5.085   2.619   3.058
 9486TIP3   OH228421   2.647   4.731   1.875
 9486TIP3    H128422   2.639   4.682   1.957
 9486TIP3    H228423   2.609   4.673   1.809
 9487TIP3   OH228424   0.184   1.299   1.786
 9487TIP3    H128425   0.129   1.326   1.712
 9487TIP3    H228426   0.246   1.236   1.748
 9488TIP3   OH228427   5.847   0.301   2.361
 9488TIP3    H128428   5.860   0.264   2.273
 9488TIP3    H228429   5.788   0.240   2.404
 9489TIP3   OH228430   0.646   5.615   5.698
 9489TIP3    H128431   0.660   5.685   5.761
 9489TIP3    H228432   0.668   5.654   5.613
 9490TIP3   OH228433   6.725   5.231   1.648
 9490TIP3    H128434   6.760   5.274   1.570
 9490TIP3    H228435   6.794   5.172   1.676
 9491TIP3   OH228436   2.691   1.362   3.452
 9491TIP3    H128437   2.731   1.449   3.453
 9491TIP3    H228438   2.667   1.345   3.543
 9492TIP3   OH228439   5.349   3.824   2.076
 9492TIP3    H128440   5.267   3.811   2.125
 9492TIP3    H228441   5.357   3.745   2.023
 9493TIP3   OH228442   3.432   1.705   3.779
 9493TIP3    H128443   3.384   1.760   3.718
 9493TIP3    H228444   3.369   1.687   3.850
 9494TIP3   OH228445   6.531   3.930   5.822
 9494TIP3    H128446   6.600   3.881   5.868
 9494TIP3    H228447   6.450   3.903   5.865
 9495TIP3   OH228448   4.586   6.252   5.262
 9495TIP3    H128449   4.550   6.236   5.349
 9495TIP3    H228450   4.536   6.195   5.204
 9496TIP3   OH228451   4.779   0.575   2.660
 9496TIP3    H128452   4.865   0.616   2.650
 9496TIP3    H228453   4.788   0.491   2.615
 9497TIP3   OH228454   0.517   1.559   0.832
 9497TIP3    H128455   0.426   1.563   0.801
 9497TIP3    H228456   0.514   1.597   0.920
 9498TIP3   OH228457   1.504   2.000   5.240
 9498TIP3    H128458   1.427   1.956   5.203
 9498TIP3    H228459   1.536   2.056   5.169
 9499TIP3   OH228460   5.725   1.402   1.218
 9499TIP3    H128461   5.708   1.496   1.210
 9499TIP3    H228462   5.729   1.386   1.312
 9500TIP3   OH228463   5.377   0.048   4.911
 9500TIP3    H128464   5.310   0.068   4.845
 9500TIP3    H228465   5.349  -0.034   4.950
 9501TIP3   OH228466   1.224   0.360   2.316
 9501TIP3    H128467   1.313   0.394   2.332
 9501TIP3    H228468   1.167   0.436   2.327
 9502TIP3   OH228469   1.543   2.786   0.253
 9502TIP3    H128470   1.604   2.811   0.183
 9502TIP3    H228471   1.460   2.770   0.208
 9503TIP3   OH228472   0.634   2.627   0.907
 9503TIP3    H128473   0.592   2.708   0.877
 9503TIP3    H228474   0.728   2.647   0.903
 9504TIP3   OH228475   4.827   5.756   1.077
 9504TIP3    H128476   4.910   5.799   1.096
 9504TIP3    H228477   4.827   5.677   1.131
 9505TIP3   OH228478   2.993   2.234   0.932
 9505TIP3    H128479   2.968   2.226   1.024
 9505TIP3    H228480   3.084   2.205   0.929
 9506TIP3   OH228481   3.383   3.227   4.155
 9506TIP3    H128482   3.332   3.151   4.129
 9506TIP3    H228483   3.368   3.291   4.085
 9507TIP3   OH228484   3.231   4.265   4.289
 9507TIP3    H128485   3.170   4.307   4.229
 9507TIP3    H228486   3.243   4.177   4.253
 9508TIP3   OH228487   5.374   2.698   3.341
 9508TIP3    H128488   5.354   2.791   3.331
 9508TIP3    H228489   5.413   2.691   3.429
 9509TIP3   OH228490   1.791   3.043   0.341
 9509TIP3    H128491   1.745   3.012   0.419
 9509TIP3    H228492   1.722   3.067   0.280
 9510TIP3   OH228493   6.440   0.231   0.293
 9510TIP3    H128494   6.415   0.307   0.346
 9510TIP3    H228495   6.527   0.207   0.326
 9511TIP3   OH228496   3.032   5.275   4.113
 9511TIP3    H128497   3.074   5.246   4.031
 9511TIP3    H228498   3.081   5.354   4.137
 9512TIP3   OH228499   2.358   5.032   3.010
 9512TIP3    H128500   2.387   4.987   2.930
 9512TIP3    H228501   2.283   4.980   3.040
 9513TIP3   OH228502   5.027   2.607   0.400
 9513TIP3    H128503   5.070   2.627   0.483
 9513TIP3    H228504   4.964   2.678   0.389
 9514TIP3   OH228505   2.048   1.861   1.737
 9514TIP3    H128506   2.118   1.797   1.726
 9514TIP3    H228507   2.085   1.942   1.701
 9515TIP3   OH228508   2.787   1.922   1.336
 9515TIP3    H128509   2.740   1.844   1.365
 9515TIP3    H228510   2.875   1.911   1.371
 9516TIP3   OH228511   5.366   4.764   2.974
 9516TIP3    H128512   5.397   4.853   2.956
 9516TIP3    H228513   5.388   4.749   3.066
 9517TIP3   OH228514   6.130   6.488   4.565
 9517TIP3    H128515   6.211   6.517   4.524
 9517TIP3    H228516   6.069   6.561   4.550
 9518TIP3   OH228517   5.557   4.613   2.517
 9518TIP3    H128518   5.577   4.520   2.530
 9518TIP3    H228519   5.589   4.632   2.429
 9519TIP3   OH228520   7.136   4.004   5.039
 9519TIP3    H128521   7.091   4.079   5.077
 9519TIP3    H228522   7.069   3.962   4.984
 9520TIP3   OH228523   6.347   1.642   1.100
 9520TIP3    H128524   6.301   1.610   1.022
 9520TIP3    H228525   6.284   1.700   1.142
 9521TIP3   OH228526   6.942   5.988   0.868
 9521TIP3    H128527   7.016   6.027   0.821
 9521TIP3    H228528   6.956   6.012   0.960
 9522TIP3   OH228529   4.433   2.504   1.336
 9522TIP3    H128530   4.503   2.441   1.354
 9522TIP3    H228531   4.444   2.573   1.402
 9523TIP3   OH228532   3.821   0.638   3.803
 9523TIP3    H128533   3.914   0.635   3.824
 9523TIP3    H228534   3.806   0.558   3.752
 9524TIP3   OH228535   0.736   1.221   0.610
 9524TIP3    H128536   0.761   1.142   0.562
 9524TIP3    H228537   0.696   1.188   0.690
 9525TIP3   OH228538   3.672   5.416   3.359
 9525TIP3    H128539   3.660   5.404   3.454
 9525TIP3    H228540   3.690   5.510   3.349
 9526TIP3   OH228541   0.626   1.022   2.702
 9526TIP3    H128542   0.708   1.026   2.654
 9526TIP3    H228543   0.605   1.113   2.724
 9527TIP3   OH228544   0.082   6.513   4.122
 9527TIP3    H128545   0.142   6.481   4.054
 9527TIP3    H228546   0.082   6.444   4.188
 9528TIP3   OH228547   1.265   0.928   3.676
 9528TIP3    H128548   1.221   0.947   3.759
 9528TIP3    H228549   1.353   0.901   3.701
 9529TIP3   OH228550   6.790   0.104   1.978
 9529TIP3    H128551   6.846   0.159   2.032
 9529TIP3    H228552   6.769   0.158   1.902
 9530TIP3   OH228553   4.656   5.185   2.369
 9530TIP3    H128554   4.687   5.095   2.371
 9530TIP3    H228555   4.561   5.179   2.373
 9531TIP3   OH228556   6.222   4.230   3.878
 9531TIP3    H128557   6.292   4.273   3.829
 9531TIP3    H228558   6.261   4.210   3.963
 9532TIP3   OH228559   5.449   2.270   0.463
 9532TIP3    H128560   5.393   2.333   0.509
 9532TIP3    H228561   5.492   2.221   0.532
 9533TIP3   OH228562   2.864   4.743   5.547
 9533TIP3    H128563   2.846   4.836   5.534
 9533TIP3    H228564   2.952   4.730   5.512
 9534TIP3   OH228565   6.094   6.257   1.810
 9534TIP3    H128566   6.006   6.239   1.777
 9534TIP3    H228567   6.152   6.207   1.752
 9535TIP3   OH228568   3.800   6.048   1.670
 9535TIP3    H128569   3.825   6.061   1.578
 9535TIP3    H228570   3.766   6.132   1.698
 9536TIP3   OH228571   3.194   3.068   4.018
 9536TIP3    H128572   3.138   3.122   4.073
 9536TIP3    H228573   3.160   2.980   4.028
 9537TIP3   OH228574   1.636   0.930   0.051
 9537TIP3    H128575   1.729   0.945   0.032
 9537TIP3    H228576   1.602   0.890  -0.029
 9538TIP3   OH228577   6.403   5.585   0.309
 9538TIP3    H128578   6.344   5.513   0.285
 9538TIP3    H228579   6.490   5.554   0.282
 9539TIP3   OH228580   1.331   4.439   3.835
 9539TIP3    H128581   1.425   4.420   3.839
 9539TIP3    H228582   1.312   4.449   3.742
 9540TIP3   OH228583   4.342   2.131   4.755
 9540TIP3    H128584   4.284   2.189   4.707
 9540TIP3    H228585   4.425   2.178   4.760
 9541TIP3   OH228586   3.847   4.455   1.608
 9541TIP3    H128587   3.877   4.457   1.699
 9541TIP3    H228588   3.920   4.417   1.559
 9542TIP3   OH228589   2.050   2.737   5.838
 9542TIP3    H128590   2.068   2.661   5.894
 9542TIP3    H228591   1.969   2.774   5.872
 9543TIP3   OH228592   0.107   5.717   2.822
 9543TIP3    H128593   0.072   5.635   2.786
 9543TIP3    H228594   0.161   5.753   2.751
 9544TIP3   OH228595   4.685   4.688   1.916
 9544TIP3    H128596   4.700   4.601   1.878
 9544TIP3    H228597   4.684   4.673   2.011
 9545TIP3   OH228598   3.877   1.895   0.711
 9545TIP3    H128599   3.941   1.965   0.697
 9545TIP3    H228600   3.919   1.817   0.676
 9546TIP3   OH228601   0.335   2.202   5.614
 9546TIP3    H128602   0.271   2.266   5.644
 9546TIP3    H228603   0.344   2.220   5.520
 9547TIP3   OH228604   2.519   2.741   3.313
 9547TIP3    H128605   2.541   2.662   3.262
 9547TIP3    H228606   2.584   2.742   3.384
 9548TIP3   OH228607   5.164   2.830   3.596
 9548TIP3    H128608   5.150   2.925   3.595
 9548TIP3    H228609   5.084   2.794   3.557
 9549TIP3   OH228610   1.699   3.093   0.605
 9549TIP3    H128611   1.706   2.999   0.621
 9549TIP3    H228612   1.780   3.129   0.641
 9550TIP3   OH228613   3.925   5.846   5.751
 9550TIP3    H128614   3.881   5.766   5.779
 9550TIP3    H228615   3.994   5.860   5.816
 9551TIP3   OH228616   0.663   0.132   1.800
 9551TIP3    H128617   0.723   0.192   1.755
 9551TIP3    H228618   0.719   0.083   1.860
 9552TIP3   OH228619   4.510   0.744   4.401
 9552TIP3    H128620   4.531   0.659   4.440
 9552TIP3    H228621   4.418   0.759   4.423
 9553TIP3   OH228622   5.198   6.190   5.576
 9553TIP3    H128623   5.275   6.220   5.527
 9553TIP3    H228624   5.172   6.109   5.533
 9554TIP3   OH228625   5.621   5.711   0.243
 9554TIP3    H128626   5.648   5.659   0.319
 9554TIP3    H228627   5.681   5.786   0.243
 9555TIP3   OH228628   3.547   6.473   2.560
 9555TIP3    H128629   3.620   6.480   2.621
 9555TIP3    H228630   3.555   6.551   2.505
 9556TIP3   OH228631   2.981   4.989   5.464
 9556TIP3    H128632   3.054   5.014   5.409
 9556TIP3    H228633   2.951   5.070   5.504
 9557TIP3   OH228634   2.520   6.362   3.347
 9557TIP3    H128635   2.479   6.420   3.282
 9557TIP3    H228636   2.589   6.415   3.386
 9558TIP3   OH228637   1.716   6.490   2.223
 9558TIP3    H128638   1.672   6.461   2.143
 9558TIP3    H228639   1.673   6.441   2.293
 9559TIP3   OH228640   6.118   5.663   0.803
 9559TIP3    H128641   6.057   5.683   0.874
 9559TIP3    H228642   6.107   5.569   0.788
 9560TIP3   OH228643   6.234   6.122   1.617
 9560TIP3    H128644   6.275   6.039   1.643
 9560TIP3    H228645   6.298   6.189   1.642
 9561TIP3   OH228646   6.431   1.592   3.971
 9561TIP3    H128647   6.454   1.623   4.059
 9561TIP3    H228648   6.447   1.498   3.974
 9562TIP3   OH228649   1.572   2.051   1.140
 9562TIP3    H128650   1.477   2.040   1.134
 9562TIP3    H228651   1.587   2.084   1.229
 9563TIP3   OH228652   3.140   4.576   1.431
 9563TIP3    H128653   3.119   4.491   1.393
 9563TIP3    H228654   3.186   4.623   1.362
 9564TIP3   OH228655   4.797   1.005   4.838
 9564TIP3    H128656   4.857   0.963   4.775
 9564TIP3    H228657   4.855   1.043   4.904
 9565TIP3   OH228658   2.005   5.944   3.470
 9565TIP3    H128659   1.992   5.849   3.463
 9565TIP3    H228660   1.920   5.977   3.500
 9566TIP3   OH228661   7.026   3.437   5.672
 9566TIP3    H128662   7.024   3.423   5.577
 9566TIP3    H228663   7.090   3.507   5.685
 9567TIP3   OH228664   6.295   2.572   1.408
 9567TIP3    H128665   6.323   2.480   1.412
 9567TIP3    H228666   6.236   2.582   1.483
 9568TIP3   OH228667   5.256   1.345   1.791
 9568TIP3    H128668   5.352   1.344   1.800
 9568TIP3    H228669   5.230   1.433   1.816
 9569TIP3   OH228670   6.974   0.729   4.826
 9569TIP3    H128671   7.031   0.653   4.814
 9569TIP3    H228672   6.926   0.712   4.907
 9570TIP3   OH228673   1.039   3.093   4.281
 9570TIP3    H128674   1.052   3.111   4.375
 9570TIP3    H228675   1.105   3.027   4.260
 9571TIP3   OH228676   6.408   5.388   1.333
 9571TIP3    H128677   6.474   5.385   1.402
 9571TIP3    H228678   6.451   5.433   1.260
 9572TIP3   OH228679   5.755   2.913   0.898
 9572TIP3    H128680   5.826   2.972   0.925
 9572TIP3    H228681   5.761   2.839   0.958
 9573TIP3   OH228682   7.201   0.284   4.253
 9573TIP3    H128683   7.242   0.204   4.285
 9573TIP3    H228684   7.112   0.257   4.230
 9574TIP3   OH228685   6.582   5.655   2.514
 9574TIP3    H128686   6.594   5.750   2.514
 9574TIP3    H228687   6.619   5.626   2.597
 9575TIP3   OH228688   5.760   2.695   1.090
 9575TIP3    H128689   5.782   2.602   1.096
 9575TIP3    H228690   5.691   2.707   1.155
 9576TIP3   OH228691   6.195   5.154   0.049
 9576TIP3    H128692   6.143   5.109  -0.018
 9576TIP3    H228693   6.277   5.105   0.053
 9577TIP3   OH228694   2.206   1.496   4.293
 9577TIP3    H128695   2.165   1.556   4.355
 9577TIP3    H228696   2.287   1.541   4.267
 9578TIP3   OH228697   4.538   2.209   0.090
 9578TIP3    H128698   4.524   2.257   0.009
 9578TIP3    H228699   4.604   2.143   0.068
 9579TIP3   OH228700   4.931   6.082   0.361
 9579TIP3    H128701   4.921   6.079   0.456
 9579TIP3    H228702   5.026   6.084   0.347
 9580TIP3   OH228703   1.035   4.190   4.140
 9580TIP3    H128704   0.973   4.133   4.096
 9580TIP3    H228705   1.042   4.267   4.084
 9581TIP3   OH228706   1.427   6.595   2.463
 9581TIP3    H128707   1.466   6.515   2.428
 9581TIP3    H228708   1.502   6.650   2.488
 9582TIP3   OH228709   5.649   1.725   4.291
 9582TIP3    H128710   5.630   1.706   4.199
 9582TIP3    H228711   5.651   1.821   4.295
 9583TIP3   OH228712   5.965   5.116   0.228
 9583TIP3    H128713   5.888   5.099   0.173
 9583TIP3    H228714   6.023   5.169   0.173
 9584TIP3   OH228715   5.769   6.481   4.661
 9584TIP3    H128716   5.752   6.574   4.679
 9584TIP3    H228717   5.757   6.473   4.566
 9585TIP3   OH228718   0.267   0.327   2.420
 9585TIP3    H128719   0.291   0.316   2.328
 9585TIP3    H228720   0.345   0.364   2.461
 9586TIP3   OH228721   2.473   2.971   0.196
 9586TIP3    H128722   2.403   2.934   0.250
 9586TIP3    H228723   2.477   3.063   0.220
 9587TIP3   OH228724   1.111   2.717   1.558
 9587TIP3    H128725   1.136   2.760   1.639
 9587TIP3    H228726   1.025   2.678   1.577
 9588TIP3   OH228727   2.472   0.973   0.263
 9588TIP3    H128728   2.522   0.898   0.231
 9588TIP3    H228729   2.523   1.049   0.237
 9589TIP3   OH228730   3.284   6.061   5.606
 9589TIP3    H128731   3.268   6.052   5.700
 9589TIP3    H228732   3.341   5.987   5.584
 9590TIP3   OH228733   3.265   4.069   3.075
 9590TIP3    H128734   3.239   4.111   2.992
 9590TIP3    H228735   3.184   4.067   3.126
 9591TIP3   OH228736   1.239   1.316   4.219
 9591TIP3    H128737   1.196   1.315   4.133
 9591TIP3    H228738   1.279   1.230   4.227
 9592TIP3   OH228739   4.349   6.396   1.620
 9592TIP3    H128740   4.379   6.455   1.689
 9592TIP3    H228741   4.396   6.314   1.637
 9593TIP3   OH228742   3.470   1.353   5.790
 9593TIP3    H128743   3.516   1.427   5.750
 9593TIP3    H228744   3.512   1.341   5.875
 9594TIP3   OH228745   1.162   1.754   1.257
 9594TIP3    H128746   1.181   1.830   1.201
 9594TIP3    H228747   1.155   1.680   1.197
 9595TIP3   OH228748   6.456   2.198   5.563
 9595TIP3    H128749   6.494   2.135   5.625
 9595TIP3    H228750   6.469   2.158   5.477
 9596TIP3   OH228751   6.676   2.409   0.633
 9596TIP3    H128752   6.698   2.492   0.592
 9596TIP3    H228753   6.590   2.387   0.597
 9597TIP3   OH228754   1.406   2.389   1.895
 9597TIP3    H128755   1.391   2.317   1.956
 9597TIP3    H228756   1.425   2.465   1.950
 9598TIP3   OH228757   6.570   4.507   0.372
 9598TIP3    H128758   6.486   4.468   0.395
 9598TIP3    H228759   6.580   4.489   0.278
 9599TIP3   OH228760   0.897   3.031   1.549
 9599TIP3    H128761   0.985   2.995   1.558
 9599TIP3    H228762   0.856   2.979   1.480
 9600TIP3   OH228763   3.911   0.147   5.575
 9600TIP3    H128764   3.862   0.065   5.582
 9600TIP3    H228765   3.998   0.120   5.544
 9601TIP3   OH228766   7.026   3.512   2.109
 9601TIP3    H128767   6.958   3.485   2.046
 9601TIP3    H228768   6.996   3.476   2.193
 9602TIP3   OH228769   5.897   3.961   1.562
 9602TIP3    H128770   5.852   3.925   1.486
 9602TIP3    H228771   5.875   3.902   1.633
 9603TIP3   OH228772   3.037   5.180   3.702
 9603TIP3    H128773   2.956   5.224   3.727
 9603TIP3    H228774   3.008   5.101   3.656
 9604TIP3   OH228775   5.253   0.469   5.856
 9604TIP3    H128776   5.288   0.495   5.770
 9604TIP3    H228777   5.227   0.378   5.845
 9605TIP3   OH228778   4.139   2.214   3.831
 9605TIP3    H128779   4.203   2.279   3.859
 9605TIP3    H228780   4.072   2.264   3.786
 9606TIP3   OH228781   6.341   6.468   4.818
 9606TIP3    H128782   6.269   6.423   4.862
 9606TIP3    H228783   6.326   6.451   4.725
 9607TIP3   OH228784   4.874   0.975   0.522
 9607TIP3    H128785   4.957   0.957   0.566
 9607TIP3    H228786   4.898   1.020   0.441
 9608TIP3   OH228787   1.882   3.780   4.263
 9608TIP3    H128788   1.855   3.743   4.346
 9608TIP3    H228789   1.822   3.853   4.248
 9609TIP3   OH228790   3.573   3.757   5.791
 9609TIP3    H128791   3.584   3.699   5.867
 9609TIP3    H228792   3.538   3.700   5.722
 9610TIP3   OH228793   5.907   4.854   3.986
 9610TIP3    H128794   5.973   4.806   4.035
 9610TIP3    H228795   5.829   4.798   3.989
 9611TIP3   OH228796   5.922   1.027   3.335
 9611TIP3    H128797   6.000   1.074   3.308
 9611TIP3    H228798   5.873   1.011   3.254
 9612TIP3   OH228799   5.440   5.526   1.305
 9612TIP3    H128800   5.445   5.579   1.384
 9612TIP3    H228801   5.429   5.436   1.337
 9613TIP3   OH228802   4.966   5.402   1.223
 9613TIP3    H128803   4.941   5.402   1.316
 9613TIP3    H228804   5.048   5.354   1.220
 9614TIP3   OH228805   2.902   4.826   3.121
 9614TIP3    H128806   2.809   4.830   3.143
 9614TIP3    H228807   2.934   4.916   3.131
 9615TIP3   OH228808   2.202   1.657   0.209
 9615TIP3    H128809   2.294   1.657   0.233
 9615TIP3    H228810   2.192   1.730   0.149
 9616TIP3   OH228811   4.316   2.742   2.127
 9616TIP3    H128812   4.251   2.680   2.159
 9616TIP3    H228813   4.287   2.764   2.038
 9617TIP3   OH228814   3.559   0.360   0.272
 9617TIP3    H128815   3.631   0.423   0.274
 9617TIP3    H228816   3.579   0.299   0.343
 9618TIP3   OH228817   1.163   6.038   0.874
 9618TIP3    H128818   1.076   6.002   0.893
 9618TIP3    H228819   1.147   6.108   0.811
 9619TIP3   OH228820   5.816   0.985   3.089
 9619TIP3    H128821   5.779   0.913   3.037
 9619TIP3    H228822   5.757   1.059   3.073
 9620TIP3   OH228823   1.615   1.460   1.018
 9620TIP3    H128824   1.621   1.487   0.926
 9620TIP3    H228825   1.619   1.542   1.067
 9621TIP3   OH228826   4.662   5.672   3.707
 9621TIP3    H128827   4.631   5.594   3.754
 9621TIP3    H228828   4.690   5.731   3.777
 9622TIP3   OH228829   0.394   3.675   3.966
 9622TIP3    H128830   0.423   3.587   3.942
 9622TIP3    H228831   0.308   3.662   4.007
 9623TIP3   OH228832   6.821   0.105   3.275
 9623TIP3    H128833   6.738   0.056   3.282
 9623TIP3    H228834   6.885   0.039   3.249
 9624TIP3   OH228835   6.807   3.736   5.131
 9624TIP3    H128836   6.714   3.737   5.107
 9624TIP3    H228837   6.808   3.735   5.226
 9625TIP3   OH228838   5.033   5.664   1.893
 9625TIP3    H128839   4.949   5.688   1.934
 9625TIP3    H228840   5.033   5.568   1.894
 9626TIP3   OH228841   5.162   6.490   3.600
 9626TIP3    H128842   5.111   6.409   3.606
 9626TIP3    H228843   5.243   6.464   3.557
 9627TIP3   OH228844   4.996   1.551   2.979
 9627TIP3    H128845   4.924   1.550   3.042
 9627TIP3    H228846   4.955   1.525   2.896
 9628TIP3   OH228847   1.149   5.250   4.338
 9628TIP3    H128848   1.199   5.182   4.291
 9628TIP3    H228849   1.188   5.252   4.426
 9629TIP3   OH228850   2.552   0.023   5.623
 9629TIP3    H128851   2.461   0.018   5.650
 9629TIP3    H228852   2.599   0.052   5.701
 9630TIP3   OH228853   7.050   6.068   1.593
 9630TIP3    H128854   6.980   6.018   1.553
 9630TIP3    H228855   7.017   6.158   1.595
 9631TIP3   OH228856   4.751   2.814   0.677
 9631TIP3    H128857   4.675   2.842   0.729
 9631TIP3    H228858   4.719   2.737   0.630
 9632TIP3   OH228859   3.051   6.251   3.210
 9632TIP3    H128860   3.098   6.315   3.158
 9632TIP3    H228861   3.075   6.271   3.301
 9633TIP3   OH228862   6.850   5.280   4.263
 9633TIP3    H128863   6.841   5.261   4.170
 9633TIP3    H228864   6.912   5.214   4.295
 9634TIP3   OH228865   2.135   1.123   1.641
 9634TIP3    H128866   2.155   1.216   1.655
 9634TIP3    H228867   2.190   1.077   1.704
 9635TIP3   OH228868   4.491   2.364   4.561
 9635TIP3    H128869   4.529   2.337   4.645
 9635TIP3    H228870   4.504   2.289   4.503
 9636TIP3   OH228871   3.698   1.094   4.428
 9636TIP3    H128872   3.788   1.062   4.423
 9636TIP3    H228873   3.703   1.168   4.489
 9637TIP3   OH228874   1.452   6.594   4.598
 9637TIP3    H128875   1.453   6.501   4.576
 9637TIP3    H228876   1.420   6.638   4.520
 9638TIP3   OH228877   4.724   2.554   0.798
 9638TIP3    H128878   4.813   2.559   0.833
 9638TIP3    H228879   4.734   2.508   0.714
 9639TIP3   OH228880   3.605   3.022   4.134
 9639TIP3    H128881   3.541   3.004   4.065
 9639TIP3    H228882   3.588   3.113   4.160
 9640TIP3   OH228883   0.634   3.156   4.923
 9640TIP3    H128884   0.669   3.229   4.871
 9640TIP3    H228885   0.651   3.078   4.870
 9641TIP3   OH228886   2.426   2.257   4.423
 9641TIP3    H128887   2.363   2.214   4.480
 9641TIP3    H228888   2.379   2.332   4.387
 9642TIP3   OH228889   0.339   2.653   2.829
 9642TIP3    H128890   0.291   2.733   2.850
 9642TIP3    H228891   0.429   2.671   2.858
 9643TIP3   OH228892   3.658   5.681   2.626
 9643TIP3    H128893   3.736   5.651   2.580
 9643TIP3    H228894   3.661   5.777   2.618
 9644TIP3   OH228895   4.354   0.813   0.927
 9644TIP3    H128896   4.356   0.796   0.832
 9644TIP3    H228897   4.265   0.844   0.944
 9645TIP3   OH228898   5.155   1.163   1.991
 9645TIP3    H128899   5.164   1.229   2.059
 9645TIP3    H228900   5.182   1.208   1.911
 9646TIP3   OH228901   3.515   0.945   4.811
 9646TIP3    H128902   3.436   0.965   4.761
 9646TIP3    H228903   3.572   1.021   4.797
 9647TIP3   OH228904   1.930   0.038   4.686
 9647TIP3    H128905   1.988   0.074   4.619
 9647TIP3    H228906   1.989   0.008   4.755
 9648TIP3   OH228907   4.730   5.494   0.444
 9648TIP3    H128908   4.742   5.442   0.365
 9648TIP3    H228909   4.653   5.547   0.427
 9649TIP3   OH228910   5.810   2.339   5.267
 9649TIP3    H128911   5.837   2.314   5.355
 9649TIP3    H228912   5.786   2.431   5.274
 9650TIP3   OH228913   0.154   0.072   2.296
 9650TIP3    H128914   0.065   0.067   2.330
 9650TIP3    H228915   0.183   0.160   2.319
 9651TIP3   OH228916   4.815   6.034   0.636
 9651TIP3    H128917   4.838   5.996   0.720
 9651TIP3    H228918   4.762   6.111   0.658
 9652TIP3   OH228919   4.082   2.417   5.763
 9652TIP3    H128920   4.029   2.337   5.767
 9652TIP3    H228921   4.115   2.429   5.852
 9653TIP3   OH228922   1.406   5.681   2.452
 9653TIP3    H128923   1.425   5.764   2.497
 9653TIP3    H228924   1.388   5.619   2.522
 9654TIP3   OH228925   1.688   2.297   0.555
 9654TIP3    H128926   1.651   2.361   0.616
 9654TIP3    H228927   1.614   2.244   0.528
 9655TIP3   OH228928   6.171   1.834   5.092
 9655TIP3    H128929   6.250   1.783   5.112
 9655TIP3    H228930   6.121   1.834   5.173
 9656TIP3   OH228931   6.852   4.121   1.545
 9656TIP3    H128932   6.830   4.210   1.515
 9656TIP3    H228933   6.797   4.064   1.490
 9657TIP3   OH228934   0.081   2.348   5.586
 9657TIP3    H128935   0.114   2.365   5.498
 9657TIP3    H228936   0.006   2.407   5.596
 9658TIP3   OH228937   6.286   5.454   2.462
 9658TIP3    H128938   6.276   5.518   2.391
 9658TIP3    H228939   6.374   5.419   2.451
 9659TIP3   OH228940   3.478   1.790   2.833
 9659TIP3    H128941   3.516   1.801   2.920
 9659TIP3    H228942   3.518   1.860   2.781
 9660TIP3   OH228943   1.163   5.735   5.694
 9660TIP3    H128944   1.172   5.745   5.789
 9660TIP3    H228945   1.251   5.713   5.664
 9661TIP3   OH228946   4.929   2.373   4.057
 9661TIP3    H128947   4.957   2.451   4.105
 9661TIP3    H228948   4.941   2.301   4.119
 9662TIP3   OH228949   3.543   2.483   2.123
 9662TIP3    H128950   3.583   2.510   2.040
 9662TIP3    H228951   3.476   2.420   2.098
 9663TIP3   OH228952   5.130   5.660   2.856
 9663TIP3    H128953   5.122   5.636   2.764
 9663TIP3    H228954   5.217   5.628   2.882
 9664TIP3   OH228955   6.150   2.342   4.155
 9664TIP3    H128956   6.194   2.333   4.240
 9664TIP3    H228957   6.208   2.296   4.094
 9665TIP3   OH228958   4.295   5.930   2.809
 9665TIP3    H128959   4.324   5.845   2.776
 9665TIP3    H228960   4.242   5.909   2.886
 9666TIP3   OH228961   6.277   0.977   0.949
 9666TIP3    H128962   6.239   0.893   0.973
 9666TIP3    H228963   6.216   1.013   0.884
 9667TIP3   OH228964   3.823   4.496   0.835
 9667TIP3    H128965   3.771   4.565   0.876
 9667TIP3    H228966   3.910   4.505   0.873
 9668TIP3   OH228967   6.353   5.989   2.793
 9668TIP3    H128968   6.342   6.083   2.807
 9668TIP3    H228969   6.358   5.979   2.698
 9669TIP3   OH228970   0.775   5.237   3.062
 9669TIP3    H128971   0.711   5.209   3.127
 9669TIP3    H228972   0.816   5.157   3.032
 9670TIP3   OH228973   3.985   6.420   4.844
 9670TIP3    H128974   4.031   6.503   4.840
 9670TIP3    H228975   4.054   6.354   4.841
 9671TIP3   OH228976   4.311   0.535   4.511
 9671TIP3    H128977   4.336   0.446   4.488
 9671TIP3    H228978   4.242   0.524   4.577
 9672TIP3   OH228979   0.563   2.177   1.519
 9672TIP3    H128980   0.619   2.167   1.442
 9672TIP3    H228981   0.598   2.254   1.565
 9673TIP3   OH228982   4.606   0.574   4.196
 9673TIP3    H128983   4.617   0.524   4.277
 9673TIP3    H228984   4.602   0.665   4.224
 9674TIP3   OH228985   5.263   3.154   2.522
 9674TIP3    H128986   5.278   3.062   2.545
 9674TIP3    H228987   5.249   3.197   2.606
 9675TIP3   OH228988   1.085   4.563   5.612
 9675TIP3    H128989   1.156   4.627   5.616
 9675TIP3    H228990   1.082   4.536   5.521
 9676TIP3   OH228991   5.316   4.448   2.360
 9676TIP3    H128992   5.372   4.457   2.437
 9676TIP3    H228993   5.370   4.402   2.296
 9677TIP3   OH228994   1.555   4.514   3.182
 9677TIP3    H128995   1.649   4.527   3.190
 9677TIP3    H228996   1.538   4.431   3.225
 9678TIP3   OH228997   2.626   3.458   4.105
 9678TIP3    H128998   2.596   3.384   4.053
 9678TIP3    H228999   2.555   3.522   4.098
 9679TIP3   OH229000   2.624   3.994   0.838
 9679TIP3    H129001   2.669   4.077   0.853
 9679TIP3    H229002   2.582   3.973   0.921
 9680TIP3   OH229003   3.460   2.718   1.560
 9680TIP3    H129004   3.529   2.781   1.539
 9680TIP3    H229005   3.473   2.698   1.653
 9681TIP3   OH229006   5.751   3.989   1.061
 9681TIP3    H129007   5.717   3.900   1.073
 9681TIP3    H229008   5.674   4.041   1.038
 9682TIP3   OH229009   5.503   0.372   2.312
 9682TIP3    H129010   5.421   0.363   2.360
 9682TIP3    H229011   5.519   0.286   2.275
 9683TIP3   OH229012   5.644   3.189   5.181
 9683TIP3    H129013   5.721   3.244   5.199
 9683TIP3    H229014   5.656   3.162   5.090
 9684TIP3   OH229015   5.080   1.962   0.713
 9684TIP3    H129016   5.039   1.960   0.799
 9684TIP3    H229017   5.124   2.047   0.709
 9685TIP3   OH229018   6.745   3.097   4.351
 9685TIP3    H129019   6.740   3.173   4.408
 9685TIP3    H229020   6.837   3.073   4.350
 9686TIP3   OH229021   6.175   1.240   1.468
 9686TIP3    H129022   6.175   1.190   1.550
 9686TIP3    H229023   6.182   1.174   1.400
 9687TIP3   OH229024   4.484   4.428   1.493
 9687TIP3    H129025   4.420   4.498   1.499
 9687TIP3    H229026   4.569   4.472   1.505
 9688TIP3   OH229027   3.245   4.736   2.198
 9688TIP3    H129028   3.239   4.830   2.184
 9688TIP3    H229029   3.219   4.697   2.115
 9689TIP3   OH229030   1.073   1.686   5.223
 9689TIP3    H129031   1.131   1.642   5.285
 9689TIP3    H229032   1.102   1.656   5.137
 9690TIP3   OH229033   5.358   5.909   3.579
 9690TIP3    H129034   5.434   5.890   3.524
 9690TIP3    H229035   5.340   5.827   3.625
 9691TIP3   OH229036   1.013   0.947   5.710
 9691TIP3    H129037   1.021   0.897   5.629
 9691TIP3    H229038   1.052   1.032   5.690
 9692TIP3   OH229039   2.417   6.514   0.563
 9692TIP3    H129040   2.496   6.465   0.586
 9692TIP3    H229041   2.435   6.604   0.589
 9693TIP3   OH229042   0.298   1.752   3.080
 9693TIP3    H129043   0.208   1.764   3.109
 9693TIP3    H229044   0.343   1.718   3.157
 9694TIP3   OH229045   6.867   1.570   2.049
 9694TIP3    H129046   6.798   1.503   2.055
 9694TIP3    H229047   6.930   1.545   2.117
 9695TIP3   OH229048   4.298   0.518   1.470
 9695TIP3    H129049   4.383   0.527   1.513
 9695TIP3    H229050   4.318   0.503   1.378
 9696TIP3   OH229051   1.876   4.009   0.587
 9696TIP3    H129052   1.967   4.002   0.560
 9696TIP3    H229053   1.857   3.926   0.630
 9697TIP3   OH229054   0.528   2.519   3.442
 9697TIP3    H129055   0.501   2.431   3.417
 9697TIP3    H229056   0.503   2.574   3.367
 9698TIP3   OH229057   3.218   6.649   4.467
 9698TIP3    H129058   3.265   6.641   4.384
 9698TIP3    H229059   3.239   6.737   4.498
 9699TIP3   OH229060   6.862   1.346   4.866
 9699TIP3    H129061   6.799   1.277   4.886
 9699TIP3    H229062   6.947   1.308   4.890
 9700TIP3   OH229063   1.960   6.410   0.696
 9700TIP3    H129064   1.893   6.357   0.653
 9700TIP3    H229065   1.911   6.478   0.742
 9701TIP3   OH229066   2.004   5.982   1.245
 9701TIP3    H129067   2.024   5.969   1.153
 9701TIP3    H229068   2.066   6.049   1.274
 9702TIP3   OH229069   1.021   5.097   0.781
 9702TIP3    H129070   1.084   5.166   0.756
 9702TIP3    H229071   1.049   5.021   0.731
 9703TIP3   OH229072   4.338   4.942   5.496
 9703TIP3    H129073   4.354   5.000   5.421
 9703TIP3    H229074   4.325   4.855   5.456
 9704TIP3   OH229075   3.574   3.295   4.850
 9704TIP3    H129076   3.633   3.265   4.920
 9704TIP3    H229077   3.628   3.294   4.771
 9705TIP3   OH229078   0.980   6.219   3.613
 9705TIP3    H129079   0.901   6.190   3.567
 9705TIP3    H229080   0.966   6.191   3.703
 9706TIP3   OH229081   4.190   0.211   5.716
 9706TIP3    H129082   4.200   0.121   5.686
 9706TIP3    H229083   4.217   0.264   5.641
 9707TIP3   OH229084   1.065   3.243   0.980
 9707TIP3    H129085   1.084   3.165   1.033
 9707TIP3    H229086   1.150   3.267   0.941
 9708TIP3   OH229087   6.686   5.945   1.116
 9708TIP3    H129088   6.747   5.995   1.171
 9708TIP3    H229089   6.621   6.009   1.088
 9709TIP3   OH229090   4.474   6.186   4.935
 9709TIP3    H129091   4.501   6.095   4.947
 9709TIP3    H229092   4.509   6.211   4.850
 9710TIP3   OH229093   0.616   2.026   1.036
 9710TIP3    H129094   0.617   1.962   1.108
 9710TIP3    H229095   0.701   2.070   1.043
 9711TIP3   OH229096   5.985   2.973   2.687
 9711TIP3    H129097   5.947   3.057   2.662
 9711TIP3    H229098   6.034   2.945   2.609
 9712TIP3   OH229099   6.433   6.198   3.755
 9712TIP3    H129100   6.367   6.267   3.748
 9712TIP3    H229101   6.510   6.235   3.710
 9713TIP3   OH229102   3.757   0.983   3.061
 9713TIP3    H129103   3.793   0.954   3.145
 9713TIP3    H229104   3.833   1.015   3.012
 9714TIP3   OH229105   4.979   1.142   0.321
 9714TIP3    H129106   4.966   1.204   0.394
 9714TIP3    H229107   5.060   1.096   0.343
 9715TIP3   OH229108   1.036   4.219   3.636
 9715TIP3    H129109   0.951   4.238   3.676
 9715TIP3    H229110   1.088   4.297   3.652
 9716TIP3   OH229111   0.586   6.619   2.265
 9716TIP3    H129112   0.604   6.526   2.280
 9716TIP3    H229113   0.562   6.653   2.351
 9717TIP3   OH229114   1.526   3.690   1.601
 9717TIP3    H129115   1.590   3.700   1.671
 9717TIP3    H229116   1.493   3.601   1.610
 9718TIP3   OH229117   3.884   2.844   4.794
 9718TIP3    H129118   3.806   2.789   4.784
 9718TIP3    H229119   3.921   2.850   4.706
 9719TIP3   OH229120   4.946   2.346   1.967
 9719TIP3    H129121   4.997   2.274   2.004
 9719TIP3    H229122   4.995   2.425   1.993
 9720TIP3   OH229123   6.801   5.751   0.794
 9720TIP3    H129124   6.742   5.766   0.869
 9720TIP3    H229125   6.851   5.832   0.786
 9721TIP3   OH229126   6.978   5.053   3.142
 9721TIP3    H129127   6.940   5.063   3.055
 9721TIP3    H229128   7.014   5.140   3.163
 9722TIP3   OH229129   2.431   2.269   1.679
 9722TIP3    H129130   2.428   2.204   1.750
 9722TIP3    H229131   2.493   2.232   1.616
 9723TIP3   OH229132   0.558   5.741   4.170
 9723TIP3    H129133   0.510   5.678   4.116
 9723TIP3    H229134   0.650   5.727   4.149
 9724TIP3   OH229135   3.998   3.139   3.335
 9724TIP3    H129136   4.093   3.144   3.323
 9724TIP3    H229137   3.970   3.077   3.267
 9725TIP3   OH229138   5.698   1.870   0.423
 9725TIP3    H129139   5.789   1.864   0.394
 9725TIP3    H229140   5.647   1.830   0.352
 9726TIP3   OH229141   3.898   6.538   2.753
 9726TIP3    H129142   3.983   6.580   2.740
 9726TIP3    H229143   3.861   6.531   2.665
 9727TIP3   OH229144   0.035   6.193   5.741
 9727TIP3    H129145   0.034   6.223   5.831
 9727TIP3    H229146   0.067   6.103   5.746
 9728TIP3   OH229147   1.999   6.465   1.916
 9728TIP3    H129148   2.015   6.518   1.994
 9728TIP3    H229149   1.904   6.469   1.903
 9729TIP3   OH229150   2.916   3.414   2.876
 9729TIP3    H129151   2.997   3.393   2.829
 9729TIP3    H229152   2.870   3.330   2.883
 9730TIP3   OH229153   0.794   0.110   4.323
 9730TIP3    H129154   0.843   0.142   4.399
 9730TIP3    H229155   0.705   0.095   4.357
 9731TIP3   OH229156   2.543   0.317   2.310
 9731TIP3    H129157   2.453   0.286   2.314
 9731TIP3    H229158   2.572   0.318   2.401
 9732TIP3   OH229159   1.754   5.460   4.198
 9732TIP3    H129160   1.807   5.406   4.139
 9732TIP3    H229161   1.732   5.538   4.146
 9733TIP3   OH229162   7.016   4.215   1.237
 9733TIP3    H129163   6.939   4.186   1.187
 9733TIP3    H229164   7.052   4.287   1.186
 9734TIP3   OH229165   2.380   1.101   2.560
 9734TIP3    H129166   2.323   1.108   2.484
 9734TIP3    H229167   2.449   1.040   2.534
 9735TIP3   OH229168   6.453   6.294   2.871
 9735TIP3    H129169   6.379   6.349   2.844
 9735TIP3    H229170   6.424   6.254   2.953
 9736TIP3   OH229171   6.282   3.575   4.927
 9736TIP3    H129172   6.374   3.571   4.900
 9736TIP3    H229173   6.284   3.550   5.020
 9737TIP3   OH229174   6.552   2.988   0.920
 9737TIP3    H129175   6.466   2.960   0.952
 9737TIP3    H229176   6.612   2.921   0.950
 9738TIP3   OH229177   6.218   3.170   0.504
 9738TIP3    H129178   6.277   3.123   0.563
 9738TIP3    H229179   6.258   3.256   0.494
 9739TIP3   OH229180   0.013   2.360   3.251
 9739TIP3    H129181   0.047   2.376   3.164
 9739TIP3    H229182  -0.036   2.439   3.273
 9740TIP3   OH229183   7.083   4.723   3.463
 9740TIP3    H129184   7.021   4.696   3.395
 9740TIP3    H229185   7.087   4.818   3.454
 9741TIP3   OH229186   3.076   4.462   0.241
 9741TIP3    H129187   3.071   4.392   0.175
 9741TIP3    H229188   2.990   4.460   0.284
 9742TIP3   OH229189   3.540   4.514   5.821
 9742TIP3    H129190   3.549   4.441   5.761
 9742TIP3    H229191   3.500   4.584   5.769
 9743TIP3   OH229192   2.028   3.251   5.846
 9743TIP3    H129193   2.017   3.161   5.816
 9743TIP3    H229194   2.116   3.275   5.817
 9744TIP3   OH229195   3.018   3.374   0.281
 9744TIP3    H129196   2.935   3.335   0.255
 9744TIP3    H229197   3.001   3.412   0.367
 9745TIP3   OH229198   7.157   3.749   2.833
 9745TIP3    H129199   7.152   3.784   2.744
 9745TIP3    H229200   7.244   3.710   2.838
 9746TIP3   OH229201   1.366   3.651   4.404
 9746TIP3    H129202   1.305   3.644   4.331
 9746TIP3    H229203   1.435   3.710   4.374
 9747TIP3   OH229204   0.749   0.356   3.142
 9747TIP3    H129205   0.789   0.430   3.188
 9747TIP3    H229206   0.801   0.280   3.169
 9748TIP3   OH229207   5.128   5.292   4.967
 9748TIP3    H129208   5.074   5.370   4.980
 9748TIP3    H229209   5.083   5.242   4.899
 9749TIP3   OH229210   2.203   2.767   1.306
 9749TIP3    H129211   2.181   2.674   1.302
 9749TIP3    H229212   2.238   2.787   1.219
   7.21243   6.79995   5.88892   0.00000   0.00000  -2.40415   0.00000  -2.40415  -3.39997
