Title
29212
    1ASP      N    1   4.196   3.155   3.340 -0.4369 -0.0905  0.2383
    1ASP    HT1    2   4.290   3.189   3.370 -0.4661 -0.6035  0.9416
    1ASP    HT2    3   4.151   3.235   3.292  0.5712  1.1949  1.3524
    1ASP    HT3    4   4.217   3.083   3.268 -0.9124  0.2029 -0.1973
    1ASP     CA    5   4.134   3.100   3.455 -0.6593  0.4215  0.5037
    1ASP     HA    6   4.205   3.026   3.491 -2.5331 -0.9754  1.5361
    1ASP     CB    7   4.121   3.203   3.576 -0.8871  0.4246  0.7196
    1ASP    HB1    8   4.023   3.251   3.558 -1.4928 -1.0695 -0.1068
    1ASP    HB2    9   4.201   3.276   3.603 -2.3809  1.5112  2.4565
    1ASP     CG   10   4.116   3.145   3.713  0.8628 -0.8247 -0.2662
    1ASP    OD1   11   4.077   3.028   3.727 -0.1731 -0.7614 -0.0777
    1ASP    OD2   12   4.171   3.207   3.808 -0.4418  0.6466  0.2666
    1ASP      C   13   4.007   3.029   3.415  0.1497 -0.1230  0.1303
    1ASP      O   14   3.978   3.023   3.297 -0.8184 -0.5007 -0.1370
    2GLY      N   15   3.928   2.964   3.510  0.2956 -0.2918  0.5522
    2GLY     HN   16   3.965   2.956   3.602  0.3309 -2.9416  0.3844
    2GLY     CA   17   3.805   2.891   3.480  0.4011 -0.7826 -0.0481
    2GLY    HA1   18   3.800   2.800   3.538 -1.1814 -0.6433  0.0751
    2GLY    HA2   19   3.806   2.855   3.378  1.6224  0.1694 -0.4032
    2GLY      C   20   3.685   2.980   3.485  0.2679  0.4617  0.1103
    2GLY      O   21   3.701   3.100   3.503 -0.6480 -0.7041  0.4242
    3ASP      N   22   3.563   2.927   3.464 -0.1292 -0.0971 -0.1459
    3ASP     HN   23   3.565   2.830   3.442  1.0500  0.0135 -0.6090
    3ASP     CA   24   3.444   3.004   3.461 -0.6751 -0.1139  0.5934
    3ASP     HA   25   3.462   3.082   3.388  2.6962  2.9828  4.2581
    3ASP     CB   26   3.327   2.910   3.413  0.1946 -0.2545 -0.2443
    3ASP    HB1   27   3.240   2.980   3.412 -0.1312 -0.6553 -1.2686
    3ASP    HB2   28   3.311   2.826   3.483 -0.7355 -0.2572 -0.4431
    3ASP     CG   29   3.329   2.852   3.272 -0.2262  0.7940 -0.3053
    3ASP    OD1   30   3.423   2.871   3.190 -0.2474  0.3729 -0.1748
    3ASP    OD2   31   3.230   2.774   3.245 -0.1763  0.0674  0.0320
    3ASP      C   32   3.411   3.085   3.592 -0.9789  0.0955 -0.1985
    3ASP      O   33   3.442   3.038   3.701  0.2643  0.8011 -0.2073
    4GLY      N   34   3.357   3.211   3.583 -0.4408 -0.0589  0.5017
    4GLY     HN   35   3.329   3.237   3.490  0.2854  2.6032  0.9522
    4GLY     CA   36   3.322   3.308   3.685  0.2842 -0.6995 -0.8480
    4GLY    HA1   37   3.326   3.408   3.645  0.6503 -0.6490 -0.6981
    4GLY    HA2   38   3.391   3.305   3.769 -0.1403  0.8311 -0.4207
    4GLY      C   39   3.184   3.279   3.736  0.2348  0.0038  0.3990
    4GLY      O   40   3.121   3.180   3.703 -0.7713  0.1324  0.2858
    5PRO      N   41   3.128   3.362   3.817 -0.3583 -0.3546 -0.2810
    5PRO     CD   42   3.203   3.463   3.888  0.1901  0.1410 -0.2401
    5PRO    HD1   43   3.198   3.561   3.837 -1.9530  0.6106  0.7585
    5PRO    HD2   44   3.307   3.435   3.915  0.9869  3.4070  0.4335
    5PRO     CA   45   2.989   3.349   3.866 -0.6860 -0.2635 -0.0060
    5PRO     HA   46   2.988   3.254   3.918  0.2060 -0.3631 -0.1703
    5PRO     CB   47   2.979   3.463   3.962 -0.4081 -0.1519 -1.0547
    5PRO    HB1   48   2.909   3.441   4.046  0.6260 -0.3396 -0.2148
    5PRO    HB2   49   2.954   3.556   3.907 -0.2699 -0.2612 -1.2999
    5PRO     CG   50   3.120   3.480   4.012  0.3034  0.1932  0.0587
    5PRO    HG1   51   3.141   3.573   4.069 -1.5339  0.6092  0.1011
    5PRO    HG2   52   3.138   3.393   4.078 -0.3053 -0.6767 -0.8947
    5PRO      C   53   2.886   3.326   3.753 -0.2217 -0.2576 -0.7357
    5PRO      O   54   2.882   3.408   3.658  0.3520  0.2961 -0.2608
    6GLY      N   55   2.810   3.215   3.765 -0.0380  0.0501  0.0521
    6GLY     HN   56   2.827   3.175   3.855 -1.7478 -0.1247  0.3308
    6GLY     CA   57   2.690   3.180   3.676  1.0585  0.4931  0.2957
    6GLY    HA1   58   2.644   3.084   3.695 -3.9745  2.7466  1.0248
    6GLY    HA2   59   2.719   3.186   3.572  0.5678 -0.0126  0.1195
    6GLY      C   60   2.570   3.270   3.711 -0.3315  0.5183 -0.1384
    6GLY      O   61   2.571   3.335   3.818 -0.3818  0.4440 -0.3791
    7ASP      N   62   2.464   3.266   3.626  0.2799 -0.1134  0.1520
    7ASP     HN   63   2.471   3.196   3.556 -0.5304 -1.7438  1.6144
    7ASP     CA   64   2.337   3.344   3.637 -0.2320  0.1621 -0.6237
    7ASP     HA   65   2.354   3.430   3.700  0.7767  0.4012 -1.2110
    7ASP     CB   66   2.286   3.387   3.496 -0.1663  1.0068 -0.3751
    7ASP    HB1   67   2.184   3.428   3.508  0.1354  2.1221 -1.4205
    7ASP    HB2   68   2.289   3.288   3.446 -0.2378  0.2925  0.9899
    7ASP     CG   69   2.378   3.484   3.429 -0.6543  0.6588  0.6282
    7ASP    OD1   70   2.367   3.492   3.304 -0.5644 -0.4882 -0.0526
    7ASP    OD2   71   2.455   3.557   3.492 -0.2598 -0.4340  0.5339
    7ASP      C   72   2.243   3.254   3.719  0.0979  0.2121  0.6317
    7ASP      O   73   2.205   3.151   3.661 -0.8427 -0.1393 -0.7429
    8PRO      N   74   2.198   3.289   3.835  0.8813 -0.0049 -0.2293
    8PRO     CD   75   2.226   3.424   3.902  0.2890 -0.3092  0.9864
    8PRO    HD1   76   2.204   3.508   3.832 -0.1613 -0.2667  1.1769
    8PRO    HD2   77   2.330   3.425   3.941  0.5717  1.2988  0.2666
    8PRO     CA   78   2.120   3.204   3.924  0.1910 -0.4611  0.7026
    8PRO     HA   79   2.180   3.115   3.935  0.3826 -0.2688  1.2862
    8PRO     CB   80   2.097   3.284   4.059 -0.2466  0.1113  0.5256
    8PRO    HB1   81   2.174   3.262   4.136 -2.8156 -0.4534  3.1130
    8PRO    HB2   82   1.998   3.264   4.105 -1.5729  1.1800 -1.6831
    8PRO     CG   83   2.111   3.429   4.010  0.0042 -0.3768  0.0215
    8PRO    HG1   84   2.017   3.448   3.954 -1.3948 -2.3380  1.5467
    8PRO    HG2   85   2.120   3.504   4.092 -0.5224  1.8232 -1.8192
    8PRO      C   86   1.983   3.169   3.871 -0.7448 -0.1015  0.2820
    8PRO      O   87   1.926   3.249   3.797 -0.0226  0.4001  0.0670
    9GLY      N   88   1.928   3.055   3.908  0.3978  0.4658 -0.7665
    9GLY     HN   89   1.962   2.982   3.967 -2.5008 -0.6568 -0.3129
    9GLY     CA   90   1.792   3.004   3.868 -0.4208 -0.1973 -0.3026
    9GLY    HA1   91   1.776   2.916   3.928 -1.7279 -0.1072 -0.4882
    9GLY    HA2   92   1.787   2.986   3.762  2.0322  1.2089 -0.7305
    9GLY      C   93   1.686   3.099   3.911  0.5742  0.1080 -0.0593
    9GLY      O   94   1.696   3.173   4.008  0.1721 -0.7805  0.4215
   10ASP      N   95   1.583   3.108   3.827  0.1518 -0.1104  0.0072
   10ASP     HN   96   1.572   3.049   3.747  0.3148  0.9144 -0.7994
   10ASP     CA   97   1.473   3.191   3.833  0.3835  0.2545  0.1014
   10ASP     HA   98   1.497   3.293   3.860  0.5428 -0.3198  2.3093
   10ASP     CB   99   1.397   3.189   3.696 -0.6401  0.1141  0.5651
   10ASP    HB1  100   1.300   3.242   3.701 -0.1761  1.0103  0.4482
   10ASP    HB2  101   1.387   3.088   3.652  1.6873  0.6773 -1.5126
   10ASP     CG  102   1.478   3.267   3.598 -0.6630  0.2143  0.1026
   10ASP    OD1  103   1.568   3.342   3.641  0.1668 -0.2387  0.1343
   10ASP    OD2  104   1.442   3.257   3.478 -0.3361  0.6411  0.1315
   10ASP      C  105   1.371   3.151   3.946 -0.0781 -0.6898 -0.0435
   10ASP      O  106   1.343   3.036   3.973 -0.4029 -0.0650  0.5521
   11GLY      N  107   1.306   3.249   4.005  0.1882 -0.0245  0.4876
   11GLY     HN  108   1.335   3.342   3.982  1.9148 -0.8148 -0.8334
   11GLY     CA  109   1.213   3.233   4.121 -0.1639  0.5137  0.2113
   11GLY    HA1  110   1.268   3.231   4.214  0.5728  2.2300 -0.1633
   11GLY    HA2  111   1.159   3.141   4.099 -0.4034  0.4252  1.1235
   11GLY      C  112   1.107   3.343   4.123 -0.0466  0.0604 -0.3645
   11GLY    OT1  113   1.118   3.437   4.042  0.2472 -0.1405 -1.0334
   11GLY    OT2  114   1.019   3.340   4.218 -0.4578 -0.0987 -0.1097
   12SOD    SOD  115   5.837   4.926   1.651  0.1464  0.5358 -0.3798
   13SOD    SOD  116   6.320   0.161   2.115 -0.2425  0.2277  0.0250
   14SOD    SOD  117   7.164   1.930   2.266  0.2549  0.2712 -0.6520
   15SOD    SOD  118   0.810   1.454   2.410  0.2183  0.3005 -0.0554
   16SOD    SOD  119   5.864   4.197   1.985 -0.0823  0.1023  0.1561
   17SOD    SOD  120   4.644   5.741   5.416 -0.1782  0.1634  0.3136
   18SOD    SOD  121   1.212   2.936   4.886  0.1215 -0.5318  0.5837
   19SOD    SOD  122   5.772   2.712   3.938  0.0052 -0.3458  0.2799
   20SOD    SOD  123   2.223   3.782   3.003 -0.1421 -0.2417 -0.1712
   21SOD    SOD  124   5.010   6.611   3.250  0.3480  0.4602 -0.3129
   22SOD    SOD  125   4.591   2.253   2.179 -0.0315 -0.5768  0.6412
   23SOD    SOD  126   2.995   6.616   4.156 -0.1337 -0.0927 -0.3563
   24SOD    SOD  127   2.022   1.214   3.634  0.3205  0.1427 -0.0628
   25SOD    SOD  128   4.468   0.665   4.789 -0.2856 -0.3340  0.5261
   26SOD    SOD  129   1.273   3.907   4.075 -0.1175  0.3747 -0.2382
   27SOD    SOD  130   2.317   4.955   2.728 -0.4835 -0.2374 -0.2472
   28SOD    SOD  131   5.134   3.120   1.981  0.3982 -0.4671  0.7201
   29SOD    SOD  132   5.460   5.829   2.520  0.1366  0.5232  0.4588
   30SOD    SOD  133   2.093   3.430   1.320  0.3863 -0.2748  0.0323
   31SOD    SOD  134   0.748   3.555   1.037 -0.0255 -0.3226 -0.3046
   32SOD    SOD  135   1.548   4.330   2.089 -0.0475 -0.2869 -0.0156
   33SOD    SOD  136   3.036   2.619   1.006  0.1539  0.2380 -0.2350
   34SOD    SOD  137   5.917   2.340   3.956 -0.3793 -0.3807  0.6439
   35SOD    SOD  138   3.140   2.085   1.658 -1.0018  0.0503 -0.4357
   36SOD    SOD  139   5.444   2.702   3.010  0.3227 -0.3530  0.3035
   37SOD    SOD  140   4.075   2.933   2.835  0.0808  0.0814  0.4194
   38SOD    SOD  141   5.257   5.838   4.678  0.0825 -0.0136  0.5735
   39SOD    SOD  142   6.623   6.417   4.593 -0.3793  0.2034 -0.2313
   40SOD    SOD  143   6.376   2.830   0.966  0.1800  0.5453 -0.0067
   41SOD    SOD  144   4.695   4.300   3.976 -0.1771 -0.1425  0.0385
   42SOD    SOD  145   6.419   6.544   4.032 -0.3896  0.0728  0.2663
   43CLA    CLA  146   1.432   0.470   3.308 -0.0934 -0.0719 -0.0071
   44CLA    CLA  147   1.635   1.311   2.278 -0.3026 -0.5780 -0.2049
   45CLA    CLA  148   4.339   3.832   1.337  0.2266  0.2613  0.0380
   46CLA    CLA  149   6.268   0.830   2.093  0.0905 -0.2533 -0.2685
   47CLA    CLA  150   3.500   2.265   5.167 -0.0884 -0.1884  0.2933
   48CLA    CLA  151   5.576   5.288   4.132 -0.1502  0.1437 -0.2536
   49CLA    CLA  152   2.845   6.656   0.483 -0.5334  0.3458 -0.4292
   50CLA    CLA  153   6.031   1.241   2.494  0.2547  0.0212  0.2690
   51CLA    CLA  154   5.942   0.626   4.719  0.0937  0.1018 -0.5469
   52CLA    CLA  155   6.550   5.922   2.240  0.0677 -0.0570  0.4028
   53CLA    CLA  156   2.735   1.899   0.385  0.1814 -0.2736 -0.0831
   54CLA    CLA  157   2.636   5.688   1.930 -0.2688 -0.1853 -0.2843
   55CLA    CLA  158   3.767   2.292   1.645  0.0250 -0.6384 -0.2833
   56CLA    CLA  159   1.794   6.729   5.671 -0.2539  0.1948 -0.2438
   57CLA    CLA  160   2.293   1.765   0.159 -0.0145 -0.0341 -0.0035
   58CLA    CLA  161   5.000   2.919   2.069  0.3596  0.3032 -0.3200
   59CLA    CLA  162   6.773   5.593   4.243 -0.3556 -0.3963 -0.6757
   60CLA    CLA  163   1.730   4.241   2.738 -0.0800 -0.6930 -0.5031
   61CLA    CLA  164   1.636   1.500   3.177 -0.2872 -0.1396  0.1116
   62CLA    CLA  165   2.480   0.113   1.930  0.2028  0.1162  0.1833
   63CLA    CLA  166   6.942   0.413   1.158 -0.1159  0.3293  0.1569
   64CLA    CLA  167   5.188   4.167   1.541 -0.7569  0.1552  0.0924
   65CLA    CLA  168   5.933   5.602   2.707 -0.0522  0.0947 -0.0255
   66CLA    CLA  169   1.262   0.421   4.159 -0.0125  0.5262  0.1617
   67CLA    CLA  170   4.998   4.968   1.840 -0.4335 -0.0064  0.1489
   68CLA    CLA  171   4.884   4.981   5.013  0.3226  0.0065  0.4898
   69CLA    CLA  172   4.627   3.823   3.732  0.0071 -0.3003  0.1194
   70TIP3   OH2  173   2.329   5.787   4.957 -0.0623 -0.4989 -0.0329
   70TIP3    H1  174   2.304   5.843   5.031  0.2576 -1.3106  0.7091
   70TIP3    H2  175   2.300   5.835   4.880 -0.2483  0.4553  0.6085
   71TIP3   OH2  176   6.018   5.439   5.255  0.4631 -0.2928  0.0098
   71TIP3    H1  177   6.071   5.388   5.193 -0.6724  0.4043 -1.6154
   71TIP3    H2  178   5.992   5.516   5.205 -1.4584 -0.2659  0.9720
   72TIP3   OH2  179   5.399   4.288   0.357  0.1224 -0.5805 -0.0295
   72TIP3    H1  180   5.437   4.210   0.398  1.7192 -0.3182 -0.9335
   72TIP3    H2  181   5.337   4.254   0.292  0.4819 -1.0813 -0.1133
   73TIP3   OH2  182   6.540   3.972   3.184  0.2252 -0.2193 -0.2569
   73TIP3    H1  183   6.519   3.884   3.215 -0.1410 -0.0125  0.0892
   73TIP3    H2  184   6.618   3.960   3.130 -1.1512 -1.0863 -2.1202
   74TIP3   OH2  185   2.831   3.206   2.043 -0.1255 -0.5919 -0.1409
   74TIP3    H1  186   2.886   3.199   1.965  0.8527  0.7885  0.3983
   74TIP3    H2  187   2.744   3.177   2.013  0.2150 -0.0377 -1.7517
   75TIP3   OH2  188   0.993   4.259   4.125  0.2380  0.3177 -0.5238
   75TIP3    H1  189   1.063   4.311   4.085 -0.8326  0.1508 -2.8166
   75TIP3    H2  190   0.914   4.312   4.113 -0.1359  0.3489  1.7021
   76TIP3   OH2  191   4.880   3.737   0.364  0.6410 -0.3362  0.0447
   76TIP3    H1  192   4.953   3.693   0.321  0.1980 -0.5584 -0.4895
   76TIP3    H2  193   4.863   3.814   0.310 -0.4090 -1.0150 -0.6384
   77TIP3   OH2  194   5.518   3.880   2.160  0.1128 -1.0107  0.0613
   77TIP3    H1  195   5.513   3.785   2.166 -0.6436 -0.9178  1.2421
   77TIP3    H2  196   5.457   3.902   2.089  0.1201 -1.3859 -0.0671
   78TIP3   OH2  197   4.563   2.409   1.589 -0.2811 -0.1557 -0.2348
   78TIP3    H1  198   4.639   2.351   1.592  0.8324  1.2417 -0.2809
   78TIP3    H2  199   4.569   2.460   1.670 -0.5229  0.7506 -0.7817
   79TIP3   OH2  200   5.266   4.231   3.179  0.1472  0.3718  0.4448
   79TIP3    H1  201   5.309   4.210   3.096  1.1390  0.4620  0.9231
   79TIP3    H2  202   5.225   4.149   3.206  0.3371  0.1849  0.1709
   80TIP3   OH2  203   4.379   1.281   0.325  0.6372 -0.4545  0.5802
   80TIP3    H1  204   4.431   1.273   0.246  0.1440 -0.9549  0.2954
   80TIP3    H2  205   4.350   1.372   0.326  1.6718 -0.1224  0.8497
   81TIP3   OH2  206   2.378   0.668   5.031 -0.4598 -0.1299 -0.3250
   81TIP3    H1  207   2.333   0.618   4.964  0.0743  1.0814 -1.6523
   81TIP3    H2  208   2.470   0.669   5.002 -0.7787  3.5679 -1.7747
   82TIP3   OH2  209   4.471   2.647   1.434 -0.4221  0.2810 -0.3500
   82TIP3    H1  210   4.386   2.657   1.477 -0.8290  0.0503 -1.0694
   82TIP3    H2  211   4.495   2.556   1.450  0.2428  0.6401  0.8104
   83TIP3   OH2  212   3.123   0.906   4.148 -0.1069 -0.2288  0.3854
   83TIP3    H1  213   3.054   0.970   4.162 -0.1761  0.3922 -2.3582
   83TIP3    H2  214   3.078   0.829   4.113  0.5795  0.3274 -1.8268
   84TIP3   OH2  215   5.865   2.365   5.387  0.6951  0.6358 -0.0356
   84TIP3    H1  216   5.890   2.457   5.373  0.9726  0.5413 -0.1729
   84TIP3    H2  217   5.770   2.368   5.400  0.9116  1.1604  1.7444
   85TIP3   OH2  218   0.924   3.163   5.078  0.5259 -0.2069  0.0191
   85TIP3    H1  219   0.874   3.229   5.125  1.4250 -1.2719  2.6999
   85TIP3    H2  220   0.860   3.095   5.056  0.0366  0.4301 -0.5297
   86TIP3   OH2  221   6.669   1.999   5.191 -0.5434  0.0654 -0.0908
   86TIP3    H1  222   6.737   2.020   5.256 -1.2236 -1.2019  1.0755
   86TIP3    H2  223   6.715   2.002   5.107  0.6621  0.5022  0.5624
   87TIP3   OH2  224   4.685   0.002   4.061  0.2373 -0.6450  0.2136
   87TIP3    H1  225   4.591   0.012   4.048  0.1495 -1.1889  0.3844
   87TIP3    H2  226   4.703   0.047   4.144  0.2844  0.2186 -0.2527
   88TIP3   OH2  227   5.808   6.203   1.704  0.0221  0.5407  0.2369
   88TIP3    H1  228   5.862   6.130   1.676 -0.4751  0.4846 -0.6109
   88TIP3    H2  229   5.870   6.274   1.720  0.2531  1.0351 -2.4524
   89TIP3   OH2  230   5.242   1.749   3.467 -0.2695  0.1109 -0.4083
   89TIP3    H1  231   5.190   1.738   3.388  1.3235 -2.1217 -1.2563
   89TIP3    H2  232   5.306   1.817   3.444 -2.3184  2.5362  0.4917
   90TIP3   OH2  233   0.214   5.154   4.794 -0.3280 -0.1431  0.3536
   90TIP3    H1  234   0.125   5.180   4.819 -0.2023  0.5367  0.1249
   90TIP3    H2  235   0.220   5.062   4.819 -1.7102 -0.7171 -1.2510
   91TIP3   OH2  236   0.386   4.819   1.256 -0.3766 -0.3903  0.2609
   91TIP3    H1  237   0.375   4.749   1.192 -0.2405 -0.0334 -0.1601
   91TIP3    H2  238   0.456   4.873   1.220 -0.7435  0.1743  0.3842
   92TIP3   OH2  239   0.923   1.904   3.719 -0.3452 -0.2875  0.3300
   92TIP3    H1  240   0.887   1.879   3.634 -0.6807 -0.5619  0.5451
   92TIP3    H2  241   0.859   1.870   3.782  0.3303 -0.8297  0.7252
   93TIP3   OH2  242   5.070   3.707   4.963 -0.2132  0.0406  0.3715
   93TIP3    H1  243   5.000   3.647   4.937  0.2737 -0.2691 -0.2511
   93TIP3    H2  244   5.035   3.753   5.039 -0.5066 -1.2143  1.0309
   94TIP3   OH2  245   2.797   0.062   1.439 -0.4731 -0.2687 -0.1802
   94TIP3    H1  246   2.719   0.057   1.384  0.0052 -0.0683 -0.8826
   94TIP3    H2  247   2.764   0.047   1.528 -1.0991 -1.6607 -0.6197
   95TIP3   OH2  248   0.777   3.319   5.240 -0.0707  0.0151  0.2686
   95TIP3    H1  249   0.776   3.393   5.179 -0.5261  0.9825  1.4256
   95TIP3    H2  250   0.722   3.347   5.313  0.7322 -0.9981  1.2880
   96TIP3   OH2  251   1.390   0.660   2.635 -0.0082 -0.0319 -0.3087
   96TIP3    H1  252   1.324   0.595   2.610  1.2692 -0.4392 -3.0035
   96TIP3    H2  253   1.436   0.680   2.554  2.0597  1.5276  1.1286
   97TIP3   OH2  254   2.636   6.594   3.024 -0.0566 -0.4126  0.3657
   97TIP3    H1  255   2.605   6.630   2.941 -1.5129  0.0015  1.0590
   97TIP3    H2  256   2.724   6.630   3.033  1.5336 -3.0399 -2.5064
   98TIP3   OH2  257   2.605   6.616   4.333  0.6654 -0.1012 -0.0976
   98TIP3    H1  258   2.590   6.521   4.335 -1.2984  0.1360 -0.6772
   98TIP3    H2  259   2.525   6.653   4.370  2.0443  1.3240  1.5948
   99TIP3   OH2  260   3.787   6.095   0.654 -0.0173  0.2346  0.2838
   99TIP3    H1  261   3.807   6.173   0.602  0.2083  0.0403  0.0775
   99TIP3    H2  262   3.798   6.022   0.593 -2.0432  0.1529 -0.0630
  100TIP3   OH2  263   2.217   0.522   2.560  0.0579  0.1356 -0.4892
  100TIP3    H1  264   2.166   0.586   2.609  1.4195 -0.0707  1.3082
  100TIP3    H2  265   2.152   0.461   2.525 -1.2657  2.3794 -2.2086
  101TIP3   OH2  266   7.180   2.794   1.792  0.3743 -0.4413 -0.3014
  101TIP3    H1  267   7.089   2.802   1.764  0.2952 -0.5989 -0.0957
  101TIP3    H2  268   7.210   2.884   1.803 -0.1369 -0.3886  0.8279
  102TIP3   OH2  269   3.813   0.510   4.847  0.1611 -0.4469  0.2170
  102TIP3    H1  270   3.866   0.434   4.824 -1.4754 -1.2827 -1.0009
  102TIP3    H2  271   3.779   0.491   4.934  1.2275 -0.2565  0.6774
  103TIP3   OH2  272   6.404   4.149   0.538  0.7114  0.9246 -0.2548
  103TIP3    H1  273   6.453   4.067   0.548 -1.3560 -0.5159 -1.3338
  103TIP3    H2  274   6.446   4.209   0.600  2.4541 -0.8353  0.3915
  104TIP3   OH2  275   4.558   0.405   2.773  0.4503  0.1065 -0.1373
  104TIP3    H1  276   4.599   0.383   2.690  0.1616 -0.5371 -0.1190
  104TIP3    H2  277   4.600   0.346   2.836 -0.2120 -0.2808 -0.0506
  105TIP3   OH2  278   2.301   2.907   0.993  0.1555  0.4283  0.2606
  105TIP3    H1  279   2.350   2.825   0.996 -1.2502 -0.4380  0.3877
  105TIP3    H2  280   2.250   2.906   1.074 -0.1420  1.2696  0.0869
  106TIP3   OH2  281   5.927   5.078   2.931  0.1934  0.2801 -0.5664
  106TIP3    H1  282   5.864   5.096   3.002  0.5733 -2.4209  0.5633
  106TIP3    H2  283   5.996   5.143   2.945 -0.9994  1.5252 -0.1497
  107TIP3   OH2  284   0.024   4.384   4.192  0.1042  0.0419  0.2819
  107TIP3    H1  285   0.055   4.473   4.207  2.3162 -0.9228  2.0126
  107TIP3    H2  286   0.069   4.356   4.112  2.3797 -0.6882  1.7301
  108TIP3   OH2  287   0.622   5.151   0.090 -0.3006 -0.5876  0.2082
  108TIP3    H1  288   0.585   5.063   0.098  0.7227 -1.1235 -0.6252
  108TIP3    H2  289   0.712   5.142   0.122  0.4785 -0.3643 -1.7525
  109TIP3   OH2  290   3.965   2.011   0.356  0.7816  0.3745  0.4455
  109TIP3    H1  291   3.949   1.925   0.393  0.6634 -0.5927 -1.6888
  109TIP3    H2  292   3.934   2.073   0.423 -3.3948 -1.2394  0.3195
  110TIP3   OH2  293   0.514   3.842   1.604 -0.5258 -0.0764  0.4044
  110TIP3    H1  294   0.584   3.879   1.656  2.8176 -0.1826 -3.5084
  110TIP3    H2  295   0.446   3.910   1.603  1.5875  2.1698  0.5753
  111TIP3   OH2  296   2.935   3.487   5.072  0.0695  0.4037 -0.2839
  111TIP3    H1  297   2.962   3.565   5.120 -1.2917  0.7865 -0.0906
  111TIP3    H2  298   2.948   3.415   5.134  1.1831  0.4757 -0.4105
  112TIP3   OH2  299   4.011   3.029   5.904 -0.4034 -0.0601 -0.1841
  112TIP3    H1  300   3.957   2.969   5.853 -0.6937  0.0029  0.0498
  112TIP3    H2  301   4.026   3.103   5.845  1.9901 -1.3827 -1.4083
  113TIP3   OH2  302   0.939   3.669   5.633 -0.0843  0.2474 -0.2772
  113TIP3    H1  303   0.902   3.584   5.610 -0.1275  0.5917 -1.5541
  113TIP3    H2  304   0.955   3.712   5.549  0.0223  1.4692  0.3433
  114TIP3   OH2  305   0.849   1.527   3.643 -0.2774  0.1852 -0.3705
  114TIP3    H1  306   0.799   1.604   3.670  1.0810  0.9158  0.1592
  114TIP3    H2  307   0.800   1.453   3.679 -1.7767  0.7599 -1.1499
  115TIP3   OH2  308   4.947   3.481   4.557  0.8230 -0.0636  0.3963
  115TIP3    H1  309   5.018   3.417   4.551 -0.3330 -1.2741 -1.9706
  115TIP3    H2  310   4.960   3.538   4.481 -0.0765  0.4141  0.5818
  116TIP3   OH2  311   6.632   5.088   5.777 -0.3977 -0.1969  0.5465
  116TIP3    H1  312   6.651   5.155   5.844 -0.2053 -0.0714  0.3668
  116TIP3    H2  313   6.564   5.128   5.723 -1.3815 -0.7497  1.3494
  117TIP3   OH2  314   0.704   1.190   4.292  0.4457  0.4203  0.4077
  117TIP3    H1  315   0.682   1.097   4.291  0.1397  0.4890 -0.3683
  117TIP3    H2  316   0.689   1.218   4.382 -0.3137 -0.0870  0.4441
  118TIP3   OH2  317   4.110   2.979   4.740 -0.8316  0.0324 -0.0825
  118TIP3    H1  318   4.055   3.009   4.668 -0.9432 -1.9788 -0.8944
  118TIP3    H2  319   4.184   3.040   4.741 -1.6319  1.0611 -0.8136
  119TIP3   OH2  320   3.546   2.995   1.387 -0.6562 -0.1775 -0.5503
  119TIP3    H1  321   3.564   2.917   1.439 -1.3116 -0.1950 -0.3478
  119TIP3    H2  322   3.574   2.971   1.298 -2.0125 -1.0947 -0.7507
  120TIP3   OH2  323   7.126   1.241   3.379 -0.1994 -0.0058  0.1410
  120TIP3    H1  324   7.193   1.295   3.420  0.7135 -0.9413 -0.0788
  120TIP3    H2  325   7.174   1.180   3.324 -1.2144 -0.9514  0.2637
  121TIP3   OH2  326   2.031   6.016   4.272  0.1274  0.6014  0.4435
  121TIP3    H1  327   2.036   5.925   4.245 -3.0536  0.5533 -0.3029
  121TIP3    H2  328   1.944   6.046   4.245  1.1875  4.0147  0.2415
  122TIP3   OH2  329   0.634   3.705   5.360  0.0059  0.3345  0.1298
  122TIP3    H1  330   0.629   3.615   5.392 -0.5786  0.7540  1.2841
  122TIP3    H2  331   0.630   3.759   5.439  0.8523  1.3715 -0.5036
  123TIP3   OH2  332   6.839   0.290   1.423  0.0326  0.0539 -0.1972
  123TIP3    H1  333   6.786   0.370   1.424 -0.1921 -0.0651  1.6017
  123TIP3    H2  334   6.900   0.301   1.350  1.7288  3.0344  1.4913
  124TIP3   OH2  335   3.271   2.988   2.416  0.2869 -0.0302  0.0230
  124TIP3    H1  336   3.297   3.079   2.402 -2.1601  0.9993  1.5350
  124TIP3    H2  337   3.283   2.973   2.510 -0.0141 -1.0738 -0.0853
  125TIP3   OH2  338   1.502   6.080   5.112  0.0739  0.2441 -0.5655
  125TIP3    H1  339   1.541   6.116   5.032  1.4426 -0.3971 -0.2094
  125TIP3    H2  340   1.576   6.044   5.161 -0.8531 -0.1265  0.6056
  126TIP3   OH2  341   2.113   0.193   1.345  0.4032  0.1379 -0.1428
  126TIP3    H1  342   2.022   0.169   1.359  1.0223 -1.8329  0.8526
  126TIP3    H2  343   2.113   0.289   1.342 -1.6795  0.1704 -0.2186
  127TIP3   OH2  344   1.210   3.955   4.299  0.1077 -0.3341  0.0048
  127TIP3    H1  345   1.232   4.018   4.368 -1.6808 -0.0114  0.3381
  127TIP3    H2  346   1.145   3.897   4.339 -1.7371  0.4632 -1.6675
  128TIP3   OH2  347   4.792   5.873   0.067  1.0998 -0.1391  0.5634
  128TIP3    H1  348   4.829   5.849  -0.018  1.1229  1.5182  0.0763
  128TIP3    H2  349   4.817   5.965   0.079 -2.8291  1.1589  0.1663
  129TIP3   OH2  350   3.902   3.524   3.496  0.2094 -0.1104  0.0650
  129TIP3    H1  351   3.845   3.532   3.420  0.4453  0.7879 -0.0256
  129TIP3    H2  352   3.851   3.473   3.559 -0.2394 -0.2990 -0.4454
  130TIP3   OH2  353   6.972   3.776   2.383 -0.5578  0.7906  0.4441
  130TIP3    H1  354   6.934   3.704   2.333  1.7003 -0.7173  0.7589
  130TIP3    H2  355   6.965   3.748   2.474  0.8529  0.6583  0.5319
  131TIP3   OH2  356   3.860   0.931   3.337 -0.6736  0.4351  0.1340
  131TIP3    H1  357   3.777   0.970   3.365 -0.8016  0.2886 -0.0417
  131TIP3    H2  358   3.889   0.881   3.413 -0.2685  1.2540  0.5347
  132TIP3   OH2  359   0.262   1.669   1.875  0.3270  0.1919 -0.6634
  132TIP3    H1  360   0.354   1.648   1.892  0.0290 -1.9314 -1.3783
  132TIP3    H2  361   0.214   1.624   1.945 -0.2869 -0.8439 -1.7034
  133TIP3   OH2  362   1.389   3.237   1.389 -0.2646  0.5351  0.0072
  133TIP3    H1  363   1.387   3.319   1.438  2.7889  0.2047  0.8702
  133TIP3    H2  364   1.368   3.170   1.455  0.5964  0.3592  0.1076
  134TIP3   OH2  365   2.522   6.388   2.644 -0.3750  0.3475  0.3577
  134TIP3    H1  366   2.469   6.454   2.600 -2.8102 -0.3645  1.9516
  134TIP3    H2  367   2.558   6.334   2.574 -0.7270  1.6362 -0.8482
  135TIP3   OH2  368   6.887   0.845   4.460 -0.2808  0.2748  0.2501
  135TIP3    H1  369   6.906   0.936   4.485 -0.2768  0.0526  1.0870
  135TIP3    H2  370   6.934   0.792   4.525 -0.2677 -0.3286 -0.2433
  136TIP3   OH2  371   2.498   5.344   4.548 -0.1062  0.7653  0.0331
  136TIP3    H1  372   2.434   5.399   4.505 -0.0991 -0.3529 -1.4882
  136TIP3    H2  373   2.505   5.266   4.492  0.1794 -0.6098  1.8690
  137TIP3   OH2  374   3.018   2.758   1.519  0.2749  0.3000  0.1108
  137TIP3    H1  375   3.106   2.734   1.490  0.4121  0.1382  0.6598
  137TIP3    H2  376   2.973   2.784   1.438  0.8722  0.5314 -0.1548
  138TIP3   OH2  377   3.156   0.246   0.816  0.6829  0.3207 -0.6845
  138TIP3    H1  378   3.180   0.159   0.785 -0.1422  0.3014 -1.3056
  138TIP3    H2  379   3.110   0.230   0.899  0.8029  0.1939 -0.6417
  139TIP3   OH2  380   2.926   3.271   1.781 -0.2385  0.0902 -0.6028
  139TIP3    H1  381   2.931   3.182   1.746 -1.9492  0.1786 -1.1361
  139TIP3    H2  382   2.851   3.310   1.737 -2.4199  0.2932  2.9104
  140TIP3   OH2  383   5.016   6.346   2.777  0.0540  0.9239 -0.2988
  140TIP3    H1  384   5.030   6.264   2.730  2.8866  0.4327  1.1759
  140TIP3    H2  385   4.927   6.340   2.809 -0.0748 -1.2457 -0.8859
  141TIP3   OH2  386   5.646   1.008   3.846 -0.2133 -0.1677 -0.1919
  141TIP3    H1  387   5.637   1.100   3.821  0.0635  0.3434  1.4726
  141TIP3    H2  388   5.730   1.003   3.891  0.1329 -1.4065 -0.9282
  142TIP3   OH2  389   6.296   6.567   1.642 -0.0656 -0.0862  0.6339
  142TIP3    H1  390   6.383   6.595   1.613 -0.8642 -0.1501 -2.2193
  142TIP3    H2  391   6.308   6.479   1.675  1.2453  0.6722  2.3079
  143TIP3   OH2  392   3.853   6.012   5.809 -0.4431  0.3182  0.6233
  143TIP3    H1  393   3.790   6.082   5.787 -0.6837  1.1170  3.4814
  143TIP3    H2  394   3.938   6.048   5.784 -0.8471  0.0814 -1.3009
  144TIP3   OH2  395   4.577   3.008   2.423  0.4072 -0.8375 -0.1759
  144TIP3    H1  396   4.660   3.037   2.463  0.8281 -0.4283 -1.2957
  144TIP3    H2  397   4.601   2.931   2.371  0.1541 -0.5325 -0.7552
  145TIP3   OH2  398   4.394   1.302   2.095  0.1587  0.2319  0.1066
  145TIP3    H1  399   4.428   1.213   2.105  2.4162  1.0053 -0.2769
  145TIP3    H2  400   4.366   1.307   2.004  1.7608  0.4370 -0.4078
  146TIP3   OH2  401   2.540   2.070   2.076 -0.0053 -0.0626 -0.8936
  146TIP3    H1  402   2.548   2.021   2.158  0.6495 -0.1677 -1.0189
  146TIP3    H2  403   2.451   2.053   2.047 -0.1617 -0.2292 -0.3309
  147TIP3   OH2  404   6.346   3.437   2.971 -0.1361  0.3346  0.4371
  147TIP3    H1  405   6.431   3.414   3.010  0.0698 -0.1986 -0.3077
  147TIP3    H2  406   6.357   3.529   2.945  0.9074 -0.2367 -1.3635
  148TIP3   OH2  407   6.273   5.924   4.475 -0.0219  0.3499  0.1091
  148TIP3    H1  408   6.361   5.897   4.499  0.0553  1.1680  0.7935
  148TIP3    H2  409   6.215   5.874   4.532  0.0561  0.5915  0.4038
  149TIP3   OH2  410   0.037   5.501   0.148 -0.2367  0.5541  0.1074
  149TIP3    H1  411   0.101   5.567   0.173 -0.0550 -0.0286  1.2395
  149TIP3    H2  412   0.004   5.466   0.231  0.3738 -1.4482 -0.4427
  150TIP3   OH2  413   1.371   6.438   4.250 -0.8403 -0.2626  0.1172
  150TIP3    H1  414   1.341   6.424   4.160 -2.6057 -0.9559  0.7451
  150TIP3    H2  415   1.369   6.350   4.289  0.2398 -0.0198  0.7368
  151TIP3   OH2  416   3.942   2.101   2.073 -0.3148 -0.3688  0.2858
  151TIP3    H1  417   3.885   2.029   2.099 -0.8299 -0.2731 -0.5749
  151TIP3    H2  418   3.883   2.172   2.049  0.1854  0.4212  1.2666
  152TIP3   OH2  419   2.725   2.153   2.600  0.3156  0.5841  0.9237
  152TIP3    H1  420   2.754   2.151   2.691 -0.9370  0.3818  1.3257
  152TIP3    H2  421   2.638   2.191   2.602 -1.6571 -3.4039  0.3954
  153TIP3   OH2  422   1.720   0.374   3.765  0.1865  0.3179  0.3240
  153TIP3    H1  423   1.762   0.331   3.691 -0.2580 -2.0240  1.3552
  153TIP3    H2  424   1.752   0.327   3.842  0.0340  2.1815  1.5858
  154TIP3   OH2  425   3.112   5.366   5.820  0.1888  0.0734  0.1435
  154TIP3    H1  426   3.207   5.374   5.835  0.0733 -0.6428  1.3814
  154TIP3    H2  427   3.082   5.457   5.813  0.8364  0.3380  0.6220
  155TIP3   OH2  428   4.294   0.878   5.435  0.6376 -1.0078 -0.1783
  155TIP3    H1  429   4.276   0.794   5.477 -0.9024  0.1586  1.6843
  155TIP3    H2  430   4.222   0.890   5.373  0.0713 -0.4840  0.5586
  156TIP3   OH2  431   1.288   4.673   2.205 -0.0661 -0.2347  0.0691
  156TIP3    H1  432   1.201   4.698   2.173 -0.4677 -0.6396  0.8185
  156TIP3    H2  433   1.347   4.695   2.133 -0.5946  1.4004  0.0770
  157TIP3   OH2  434   0.691   5.936   5.314  0.0854 -0.3507 -0.1437
  157TIP3    H1  435   0.650   6.014   5.350  1.5700 -0.0512  0.9889
  157TIP3    H2  436   0.634   5.864   5.341  0.9752 -0.1057  2.6490
  158TIP3   OH2  437   4.380   4.009   0.374  0.6458 -0.0961  0.3643
  158TIP3    H1  438   4.335   4.049   0.447  2.2727  1.2791  0.6804
  158TIP3    H2  439   4.329   4.033   0.297 -1.5317 -2.2214  1.0309
  159TIP3   OH2  440   3.456   3.260   3.072  0.1563  0.2468  0.7791
  159TIP3    H1  441   3.417   3.300   3.151  1.4750  0.4255  1.3589
  159TIP3    H2  442   3.533   3.214   3.104  0.2003 -0.4610 -0.3003
  160TIP3   OH2  443   0.256   5.085   0.633  0.3004 -0.2144 -0.0132
  160TIP3    H1  444   0.201   5.137   0.690  0.5408 -1.0044  0.9795
  160TIP3    H2  445   0.210   5.083   0.549 -0.8109 -0.2624  0.5821
  161TIP3   OH2  446   2.206   1.020   3.402 -0.4534  0.1944 -0.3298
  161TIP3    H1  447   2.238   0.932   3.382 -0.8441 -0.6225  2.3026
  161TIP3    H2  448   2.113   1.018   3.381 -0.4306  0.0167 -0.4117
  162TIP3   OH2  449   5.236   2.261   5.824 -0.3238 -0.2349  0.2918
  162TIP3    H1  450   5.192   2.254   5.740  1.1069 -2.0594 -0.3552
  162TIP3    H2  451   5.166   2.248   5.889 -1.1793 -0.2935 -0.6267
  163TIP3   OH2  452   4.970   5.367   4.957 -0.3579  0.0834  0.3111
  163TIP3    H1  453   5.062   5.371   4.929 -0.3022  1.6604  0.6615
  163TIP3    H2  454   4.972   5.310   5.034  0.0640 -1.1274 -0.5492
  164TIP3   OH2  455   4.920   1.744   4.727  0.4757  0.2926  0.1016
  164TIP3    H1  456   4.944   1.698   4.807  2.4640  0.5272 -0.3134
  164TIP3    H2  457   4.911   1.836   4.753 -1.5742  0.0216  0.5411
  165TIP3   OH2  458   3.886   5.976   4.044 -0.1070 -0.2731  0.3118
  165TIP3    H1  459   3.805   6.014   4.010  0.4674  0.4116 -0.3467
  165TIP3    H2  460   3.862   5.941   4.130 -1.8097 -2.7866 -1.0506
  166TIP3   OH2  461   7.114   2.171   3.922  0.1755 -0.3854 -0.6104
  166TIP3    H1  462   7.082   2.243   3.868 -1.1978 -0.4986  0.0093
  166TIP3    H2  463   7.048   2.162   3.991  1.4796 -0.7488  0.6391
  167TIP3   OH2  464   2.050   0.519   1.314  0.1828  0.0199 -0.2292
  167TIP3    H1  465   2.027   0.607   1.343 -2.3041 -0.8781  0.8617
  167TIP3    H2  466   2.061   0.526   1.219  1.6982  1.7755  0.0416
  168TIP3   OH2  467   1.075   6.248   1.260  0.0859 -0.0226 -0.1528
  168TIP3    H1  468   1.107   6.162   1.287  0.5809  0.1570 -0.1557
  168TIP3    H2  469   1.088   6.250   1.165  0.6736  0.2963 -0.0702
  169TIP3   OH2  470   4.236   3.218   1.072  0.7862  0.0071  0.5040
  169TIP3    H1  471   4.290   3.288   1.109 -0.0387  0.6954  0.4590
  169TIP3    H2  472   4.165   3.207   1.136  0.2594  0.0477 -0.0693
  170TIP3   OH2  473   0.542   6.037   1.443 -0.3945  0.4173  0.1767
  170TIP3    H1  474   0.502   6.095   1.508  0.2081  2.1648 -0.9388
  170TIP3    H2  475   0.616   6.087   1.408  0.7989 -1.4466 -0.1323
  171TIP3   OH2  476   5.330   2.310   4.489  0.5157 -0.0079  0.0781
  171TIP3    H1  477   5.243   2.280   4.463  0.9771 -1.5499  0.1804
  171TIP3    H2  478   5.323   2.405   4.492 -2.0954 -0.1382  3.2900
  172TIP3   OH2  479   1.242   4.427   2.900  0.1207 -0.1576  0.6258
  172TIP3    H1  480   1.153   4.445   2.869  0.2894 -0.0306  0.2119
  172TIP3    H2  481   1.296   4.430   2.821  0.5205 -0.0517  0.9001
  173TIP3   OH2  482   3.566   5.161   3.469 -0.4047  0.2333  0.8497
  173TIP3    H1  483   3.646   5.140   3.516 -1.4333  0.8357  2.9644
  173TIP3    H2  484   3.509   5.202   3.534 -2.0046  0.8816 -0.8658
  174TIP3   OH2  485   6.053   3.390   2.945  0.6947  0.5562 -0.2276
  174TIP3    H1  486   5.999   3.429   3.013  0.3154  0.3306 -0.3988
  174TIP3    H2  487   6.142   3.420   2.965  0.7839 -0.5289  1.1032
  175TIP3   OH2  488   3.044   3.622   0.574 -0.0674 -0.0275 -0.2855
  175TIP3    H1  489   3.005   3.653   0.655  0.7300  0.3066 -0.0248
  175TIP3    H2  490   3.066   3.531   0.591 -0.1978 -0.0514 -0.2410
  176TIP3   OH2  491   5.164   5.330   1.485  0.2122  0.0667  0.4383
  176TIP3    H1  492   5.134   5.310   1.397 -0.8206  0.5116  0.6734
  176TIP3    H2  493   5.100   5.393   1.519  0.6863  0.0350  1.4373
  177TIP3   OH2  494   5.317   4.025   3.646  0.0172 -0.4642 -0.5753
  177TIP3    H1  495   5.329   3.954   3.583 -0.6533 -1.0537 -0.0590
  177TIP3    H2  496   5.401   4.071   3.646  0.5195 -1.3441 -0.8103
  178TIP3   OH2  497   2.203   1.106   4.906  0.6972  0.0930 -0.0418
  178TIP3    H1  498   2.241   1.193   4.909  0.1556  0.3169  2.0445
  178TIP3    H2  499   2.136   1.107   4.974 -1.1027 -1.1751 -1.6677
  179TIP3   OH2  500   1.959   0.506   3.696 -0.2032  0.7777 -0.3175
  179TIP3    H1  501   1.873   0.492   3.736  0.0221  1.3180  0.3802
  179TIP3    H2  502   2.005   0.422   3.708 -0.7842  0.3302 -1.1158
  180TIP3   OH2  503   7.040   6.274   4.429  0.0178 -0.5705 -0.8587
  180TIP3    H1  504   7.113   6.222   4.462  0.7208  0.9329  0.0393
  180TIP3    H2  505   7.081   6.350   4.387 -0.9443  1.5503  1.7272
  181TIP3   OH2  506   5.225   2.842   4.459 -0.1765 -0.0904  0.0601
  181TIP3    H1  507   5.160   2.825   4.391  0.2665 -0.5521 -0.2505
  181TIP3    H2  508   5.244   2.936   4.450 -0.9214  0.0932  0.2731
  182TIP3   OH2  509   3.970   4.628   5.030  0.0158 -0.4522 -0.2959
  182TIP3    H1  510   3.911   4.559   5.060  0.4161 -0.6156  0.1268
  182TIP3    H2  511   4.048   4.619   5.085  1.0281 -1.1482 -1.7599
  183TIP3   OH2  512   7.174   3.188   5.390  0.0543  0.1103  0.5566
  183TIP3    H1  513   7.197   3.132   5.316  1.9461 -0.9019  1.8063
  183TIP3    H2  514   7.080   3.174   5.402 -0.8936  2.1504 -3.0164
  184TIP3   OH2  515   3.244   2.676   4.355 -0.1851  0.1572  0.8229
  184TIP3    H1  516   3.295   2.740   4.404 -0.5984 -0.7928  2.6056
  184TIP3    H2  517   3.175   2.649   4.416 -1.6318 -0.0404 -0.8267
  185TIP3   OH2  518   4.504   5.495   2.342 -0.4246  0.2718  0.4868
  185TIP3    H1  519   4.582   5.443   2.358  1.1621  1.6428 -2.1083
  185TIP3    H2  520   4.448   5.438   2.289 -0.1564  0.1030  0.3844
  186TIP3   OH2  521   4.167   2.779   3.692 -0.5699 -0.7070  0.2013
  186TIP3    H1  522   4.127   2.864   3.710  0.1864 -0.1883 -0.5034
  186TIP3    H2  523   4.252   2.800   3.654 -0.5338 -1.7802 -0.3413
  187TIP3   OH2  524   5.906   5.352   1.722 -0.2441  0.1683  0.2855
  187TIP3    H1  525   5.878   5.343   1.813 -0.8972  1.4055  0.2216
  187TIP3    H2  526   6.001   5.358   1.727 -0.3687  2.1339  1.0846
  188TIP3   OH2  527   3.042   2.291   4.418  0.6024 -0.2100 -0.3878
  188TIP3    H1  528   3.103   2.354   4.455 -2.8721  2.8097  0.8246
  188TIP3    H2  529   3.050   2.214   4.474  2.7666  0.2813  0.0668
  189TIP3   OH2  530   0.794   4.502   2.349  0.3287  0.6145  0.9384
  189TIP3    H1  531   0.871   4.534   2.396 -0.1888  1.8693  0.9623
  189TIP3    H2  532   0.755   4.437   2.408  1.3934 -0.0903  0.8937
  190TIP3   OH2  533   5.049   5.098   0.994  0.0716 -0.5110 -0.3415
  190TIP3    H1  534   5.036   5.151   1.072 -1.6067  2.1800 -2.2639
  190TIP3    H2  535   5.061   5.161   0.923 -0.5515 -2.7116 -2.5970
  191TIP3   OH2  536   3.864   0.356   2.881 -0.1349  0.6708 -0.0102
  191TIP3    H1  537   3.784   0.355   2.933 -1.7055 -2.7363 -2.1080
  191TIP3    H2  538   3.935   0.346   2.944 -1.8493 -2.2875  1.6258
  192TIP3   OH2  539   1.545   5.486   4.925 -0.7630  0.1332 -0.0957
  192TIP3    H1  540   1.582   5.565   4.966 -0.6297 -0.1337  0.3007
  192TIP3    H2  541   1.467   5.518   4.879  0.1652  0.7776 -1.2775
  193TIP3   OH2  542   1.769   5.162   5.204 -0.3338 -0.2987  0.8140
  193TIP3    H1  543   1.757   5.197   5.115  2.4058 -2.1062 -0.4185
  193TIP3    H2  544   1.822   5.228   5.249  1.2659 -0.8864 -0.1240
  194TIP3   OH2  545   5.992   2.826   0.107 -0.3553  0.4164  0.0960
  194TIP3    H1  546   6.019   2.871   0.027  0.1863 -1.2797 -0.7288
  194TIP3    H2  547   5.971   2.737   0.079  2.3069 -1.0346  2.1467
  195TIP3   OH2  548   4.106   6.309   2.417  0.5128 -0.1932 -0.6587
  195TIP3    H1  549   4.107   6.404   2.407  0.9656 -0.2829 -1.6976
  195TIP3    H2  550   4.124   6.294   2.509  1.8062  0.7195 -0.7310
  196TIP3   OH2  551   4.823   3.215  -0.006  0.0136 -0.3905  0.2238
  196TIP3    H1  552   4.745   3.197   0.047 -0.8276 -1.6650 -1.3398
  196TIP3    H2  553   4.874   3.134  -0.001  0.2239 -0.3017 -0.4111
  197TIP3   OH2  554   3.399   1.405   4.458  0.1738 -0.8105 -0.2592
  197TIP3    H1  555   3.424   1.496   4.471  0.3717 -0.5932 -1.9500
  197TIP3    H2  556   3.352   1.405   4.374 -1.8067 -1.8973  0.7788
  198TIP3   OH2  557   6.296   4.205   1.401 -0.2772  0.1996 -0.6898
  198TIP3    H1  558   6.307   4.240   1.312 -0.1738  0.5000 -0.5604
  198TIP3    H2  559   6.381   4.164   1.420 -0.6854 -0.9117 -1.1786
  199TIP3   OH2  560   1.671   4.185   2.266  0.4658  0.2126 -0.1866
  199TIP3    H1  561   1.714   4.247   2.325  2.3438 -2.3523  1.3122
  199TIP3    H2  562   1.739   4.124   2.240 -1.7741 -2.8687  0.6102
  200TIP3   OH2  563   6.095   5.872   3.733  0.0653 -0.8743 -0.0683
  200TIP3    H1  564   6.160   5.808   3.762  1.0381  0.1719  0.1583
  200TIP3    H2  565   6.147   5.947   3.703 -0.9538 -1.1546 -2.7729
  201TIP3   OH2  566   5.228   3.024   3.773  0.0727 -0.0667 -0.3412
  201TIP3    H1  567   5.276   3.107   3.783 -0.4948  0.1976  0.2414
  201TIP3    H2  568   5.155   3.046   3.715  0.3504 -0.3509 -0.8121
  202TIP3   OH2  569   1.396   1.556   4.393 -0.4237  0.1010  0.1600
  202TIP3    H1  570   1.433   1.578   4.478  2.3314 -1.7525 -0.3973
  202TIP3    H2  571   1.326   1.494   4.412  1.2245 -1.5855  1.1406
  203TIP3   OH2  572   0.935   0.521   0.488  0.8160  0.2267  0.5004
  203TIP3    H1  573   0.840   0.520   0.504  0.8196  0.2208  0.5220
  203TIP3    H2  574   0.944   0.521   0.393  0.7828  1.0285  0.4895
  204TIP3   OH2  575   1.070   1.030   3.776  0.0719 -0.4582 -0.4251
  204TIP3    H1  576   1.084   0.955   3.718 -0.0463 -0.6385 -0.2204
  204TIP3    H2  577   1.159   1.062   3.795  0.1443 -0.8304 -0.1400
  205TIP3   OH2  578   6.707   6.638   4.674 -0.6206 -0.3712 -0.2135
  205TIP3    H1  579   6.765   6.713   4.671  0.0937 -0.8983  0.0657
  205TIP3    H2  580   6.625   6.672   4.709 -0.5981  0.4548 -0.9539
  206TIP3   OH2  581   2.184   5.356   1.652 -0.9330 -0.4270  0.7909
  206TIP3    H1  582   2.209   5.418   1.720 -2.2192  0.8229  0.1718
  206TIP3    H2  583   2.108   5.396   1.610  0.5902 -0.4561 -2.2856
  207TIP3   OH2  584   2.688   1.513   2.473  0.0027  0.4177 -0.1918
  207TIP3    H1  585   2.627   1.446   2.443  0.2574  1.1141 -2.5138
  207TIP3    H2  586   2.636   1.572   2.527 -0.5716 -0.8006  0.6104
  208TIP3   OH2  587   0.627   0.920   4.280 -0.2010  0.7685 -0.0781
  208TIP3    H1  588   0.568   0.886   4.347  0.6086  0.5251  0.5362
  208TIP3    H2  589   0.591   0.890   4.197  0.3001 -1.3445  0.4068
  209TIP3   OH2  590   3.098   6.239   4.687 -0.0091 -0.5128  0.1536
  209TIP3    H1  591   3.165   6.223   4.753  0.1701 -0.2821  0.0303
  209TIP3    H2  592   3.036   6.299   4.728 -1.6324 -2.7866  1.2473
  210TIP3   OH2  593   3.085   4.064   2.611 -0.4275 -0.3432  0.2103
  210TIP3    H1  594   3.109   4.088   2.700 -0.0902  0.5041 -0.0948
  210TIP3    H2  595   3.152   4.104   2.556 -1.1982  0.0171 -0.4981
  211TIP3   OH2  596   3.437   3.157   0.555 -0.0111 -0.6375  0.0115
  211TIP3    H1  597   3.494   3.123   0.623  0.4240  0.2777  0.1204
  211TIP3    H2  598   3.351   3.165   0.596  0.1434 -0.5327  0.3094
  212TIP3   OH2  599   5.722   6.366   2.771  0.1771  0.3306 -0.4300
  212TIP3    H1  600   5.634   6.339   2.795 -0.0747  1.5424  0.0613
  212TIP3    H2  601   5.772   6.284   2.768 -0.7101 -0.2570  0.3442
  213TIP3   OH2  602   5.628   1.836   5.752 -0.3481  0.8321  0.1503
  213TIP3    H1  603   5.605   1.767   5.815 -1.3773  0.2953 -0.7717
  213TIP3    H2  604   5.553   1.895   5.754 -0.6107  0.5428 -0.9226
  214TIP3   OH2  605   4.587  -0.020   1.351  0.1787 -0.5597  0.1946
  214TIP3    H1  606   4.638   0.059   1.337 -0.1824 -0.6249 -1.6802
  214TIP3    H2  607   4.496   0.009   1.348  0.0558 -0.9264  0.3025
  215TIP3   OH2  608   4.471   6.526   1.514  0.0355  0.1665  0.1506
  215TIP3    H1  609   4.518   6.550   1.594  0.0363 -0.1405  0.2453
  215TIP3    H2  610   4.478   6.603   1.458  0.8484  0.0557  0.0782
  216TIP3   OH2  611   0.983   2.744   0.412 -0.4795  0.4275 -0.0728
  216TIP3    H1  612   1.047   2.740   0.341 -0.3534 -1.5700  0.0955
  216TIP3    H2  613   0.905   2.701   0.377 -0.1654 -1.2824  1.1998
  217TIP3   OH2  614   2.330   2.736   5.699  0.4776  0.4644  0.1741
  217TIP3    H1  615   2.375   2.757   5.781 -0.9594  0.3309  1.0316
  217TIP3    H2  616   2.358   2.647   5.679  2.4596  1.2108 -0.6419
  218TIP3   OH2  617   3.334   1.125   4.215  0.1416 -0.2270  0.4546
  218TIP3    H1  618   3.293   1.101   4.298 -1.8966 -2.9979 -1.1640
  218TIP3    H2  619   3.262   1.158   4.161  0.4908 -2.3569 -1.4828
  219TIP3   OH2  620   3.227   5.026   4.410  0.1222 -0.8332  0.0789
  219TIP3    H1  621   3.222   5.100   4.470  0.1771 -0.2746 -0.5976
  219TIP3    H2  622   3.315   4.991   4.422  0.8319  0.4549 -1.0222
  220TIP3   OH2  623   0.175   4.345   0.542  0.3483  0.0765 -0.4740
  220TIP3    H1  624   0.235   4.367   0.613  1.4210 -0.1349 -1.3068
  220TIP3    H2  625   0.103   4.300   0.585  0.8957  0.1190  0.5036
  221TIP3   OH2  626   2.969   3.695   4.713  0.6913  0.0198  0.5685
  221TIP3    H1  627   2.933   3.768   4.663 -1.3230 -1.4571 -0.2829
  221TIP3    H2  628   3.058   3.684   4.680 -0.1575 -0.1101 -1.8732
  222TIP3   OH2  629   6.280   5.622   5.406 -0.1003 -0.1663 -0.1345
  222TIP3    H1  630   6.322   5.555   5.460 -0.5720  0.5493  1.1651
  222TIP3    H2  631   6.191   5.626   5.438 -0.1951  0.7855 -0.5004
  223TIP3   OH2  632   3.638   2.502   0.398 -0.0081  0.3456  1.0584
  223TIP3    H1  633   3.715   2.458   0.361 -0.7521  0.6965 -1.0397
  223TIP3    H2  634   3.623   2.457   0.481  1.5848 -0.7136  0.8257
  224TIP3   OH2  635   3.583   4.062   0.751 -0.2927  0.2795  0.2038
  224TIP3    H1  636   3.488   4.074   0.751 -0.5866 -1.6291  0.1782
  224TIP3    H2  637   3.618   4.141   0.710 -1.7852  1.4327  1.0466
  225TIP3   OH2  638   2.094   1.883   5.616  0.6655  0.3924  0.3242
  225TIP3    H1  639   2.051   1.919   5.538  1.4096  0.1067 -0.2254
  225TIP3    H2  640   2.030   1.895   5.686 -0.5077 -0.4472 -0.5666
  226TIP3   OH2  641   2.242   3.349   0.204  0.2606 -0.5144  0.1968
  226TIP3    H1  642   2.181   3.329   0.133 -0.0833 -0.7847  0.5620
  226TIP3    H2  643   2.307   3.279   0.200  0.4282 -0.3462 -0.0570
  227TIP3   OH2  644   0.879   2.691   3.901  0.4501 -0.2123  0.4277
  227TIP3    H1  645   0.892   2.786   3.901 -1.6171  0.1481 -0.3572
  227TIP3    H2  646   0.903   2.664   3.812  0.4454 -0.3110  0.4567
  228TIP3   OH2  647   0.922   2.680   5.833  0.9096  0.2354 -0.2357
  228TIP3    H1  648   0.870   2.738   5.889  1.2078  0.9610 -0.6993
  228TIP3    H2  649   0.985   2.639   5.892  2.2073  2.1119 -0.2517
  229TIP3   OH2  650   1.781   6.043   1.580 -0.0247  0.0544 -0.2252
  229TIP3    H1  651   1.691   6.011   1.569  0.3903 -1.4479  0.5955
  229TIP3    H2  652   1.806   6.073   1.492 -1.1946  0.1754 -0.5341
  230TIP3   OH2  653   4.146   5.982   3.971  0.1577  0.1885  0.2555
  230TIP3    H1  654   4.052   5.981   3.992  0.1531  0.1529  0.2334
  230TIP3    H2  655   4.154   5.926   3.894  0.1548  0.4309  0.0777
  231TIP3   OH2  656   5.005   3.273   4.843 -0.0871  0.4389  0.3738
  231TIP3    H1  657   5.082   3.301   4.891  0.5208 -1.3064  0.4573
  231TIP3    H2  658   5.038   3.243   4.758 -0.9188  1.5715 -0.3846
  232TIP3   OH2  659   2.634   3.173   5.141  0.2155  0.1086 -0.1325
  232TIP3    H1  660   2.639   3.253   5.088  0.7343  0.8263  0.9622
  232TIP3    H2  661   2.681   3.108   5.089 -0.7196  0.3359 -1.3152
  233TIP3   OH2  662   1.793   2.611   4.804 -0.0099 -0.0598  0.1633
  233TIP3    H1  663   1.870   2.604   4.860 -0.3872  1.6745  0.9658
  233TIP3    H2  664   1.828   2.620   4.715  0.6837 -0.0242  0.4358
  234TIP3   OH2  665   0.203   2.842   2.388  0.3738  0.1518  0.4910
  234TIP3    H1  666   0.179   2.927   2.349 -0.0497  0.1430  0.7223
  234TIP3    H2  667   0.288   2.858   2.429  0.7709  0.1920 -0.3289
  235TIP3   OH2  668   1.537   2.171   0.230  0.1378 -0.4010 -0.1189
  235TIP3    H1  669   1.627   2.160   0.198 -0.5855 -0.9674 -2.0722
  235TIP3    H2  670   1.497   2.232   0.168 -0.3076  1.4453  1.8549
  236TIP3   OH2  671   2.903   0.110   0.279 -0.2413  0.5119  0.3171
  236TIP3    H1  672   2.970   0.075   0.220 -0.7050 -0.5422  0.3905
  236TIP3    H2  673   2.944   0.108   0.366 -1.6333 -4.1785  1.1408
  237TIP3   OH2  674   6.855   3.837   3.513 -0.2866  0.5820 -0.5581
  237TIP3    H1  675   6.906   3.793   3.445 -1.6558 -0.3247 -1.0468
  237TIP3    H2  676   6.871   3.930   3.499  0.3448  0.3588 -1.3952
  238TIP3   OH2  677   2.954   2.842   5.748 -0.1699 -0.5639  0.8507
  238TIP3    H1  678   2.915   2.790   5.819  0.4601 -0.0115  1.6300
  238TIP3    H2  679   3.002   2.779   5.696 -0.3432 -0.9302  1.1251
  239TIP3   OH2  680   4.502   5.302   0.690  0.6307 -0.0127 -0.3496
  239TIP3    H1  681   4.435   5.286   0.757  2.6509 -1.6920  1.3990
  239TIP3    H2  682   4.463   5.269   0.609 -1.1601  0.3200  0.3186
  240TIP3   OH2  683   2.507   2.996   2.128 -0.0656 -0.0007 -0.6746
  240TIP3    H1  684   2.532   3.018   2.218 -1.4214  2.4090 -0.8101
  240TIP3    H2  685   2.545   3.065   2.074 -1.8315  0.3286 -1.5632
  241TIP3   OH2  686   4.028   4.914   3.236 -0.0743 -0.8206  0.2152
  241TIP3    H1  687   4.000   4.935   3.146  0.3406  2.6746  0.7628
  241TIP3    H2  688   3.946   4.910   3.286 -0.1486  0.7263  0.2587
  242TIP3   OH2  689   2.871   6.781   3.446  0.2565  0.0299  0.0424
  242TIP3    H1  690   2.817   6.730   3.506  0.7026 -1.7500 -0.9755
  242TIP3    H2  691   2.835   6.762   3.359  0.8537  0.9556 -0.4342
  243TIP3   OH2  692   3.479   1.822   5.070  0.2110 -0.2341 -0.6475
  243TIP3    H1  693   3.524   1.906   5.073 -0.9807  0.4059  0.3613
  243TIP3    H2  694   3.388   1.844   5.055 -0.0405 -1.3871 -0.9124
  244TIP3   OH2  695   6.543   2.784   4.663 -0.2613  0.4217  0.1983
  244TIP3    H1  696   6.531   2.878   4.678 -2.9806 -0.0081  1.2890
  244TIP3    H2  697   6.454   2.748   4.668  0.5492 -2.0316 -1.6192
  245TIP3   OH2  698   4.324   4.008   3.918  0.4235  0.4492  0.5366
  245TIP3    H1  699   4.262   3.972   3.980  2.6283 -0.6453  2.2568
  245TIP3    H2  700   4.377   3.933   3.890  0.9163  1.2998 -0.9636
  246TIP3   OH2  701   2.406   5.592   5.109  0.4231 -0.1284  0.0104
  246TIP3    H1  702   2.427   5.650   5.182  1.1400  0.4787 -0.6664
  246TIP3    H2  703   2.362   5.648   5.045 -0.2012 -0.6561 -0.0343
  247TIP3   OH2  704   0.257   3.495   0.378  0.0860  0.1602 -0.2056
  247TIP3    H1  705   0.273   3.480   0.284  0.0960 -0.9779 -0.0359
  247TIP3    H2  706   0.172   3.540   0.381  0.8378  1.6745 -0.8367
  248TIP3   OH2  707   2.741   5.964   1.093 -0.4454 -0.2803 -0.0191
  248TIP3    H1  708   2.665   5.906   1.104 -2.0002  1.7785  0.8346
  248TIP3    H2  709   2.706   6.039   1.046  1.5117  0.0170 -1.0975
  249TIP3   OH2  710   2.347   6.487   3.556  0.0969 -0.3094  0.4791
  249TIP3    H1  711   2.417   6.450   3.609  0.6347  0.0141  0.0221
  249TIP3    H2  712   2.372   6.579   3.546 -0.2202 -0.2676  0.0397
  250TIP3   OH2  713   3.287   4.328   3.121 -0.0031  0.4778  0.9297
  250TIP3    H1  714   3.337   4.285   3.190  0.8861  0.3449  0.2207
  250TIP3    H2  715   3.337   4.408   3.102 -0.5370  0.7893  0.8169
  251TIP3   OH2  716   3.796   6.292   2.555  0.3383  0.5554 -0.2878
  251TIP3    H1  717   3.818   6.373   2.509  1.6251 -0.4581 -1.5340
  251TIP3    H2  718   3.718   6.260   2.511  0.2977  0.7090 -0.3276
  252TIP3   OH2  719   4.745   1.467   3.896 -0.1997 -0.8493  0.6403
  252TIP3    H1  720   4.655   1.500   3.899  0.1071  0.0301  4.2105
  252TIP3    H2  721   4.738   1.375   3.922  0.0359 -0.2234  3.1403
  253TIP3   OH2  722   2.195   2.549   2.688 -0.0553 -0.0838 -0.0093
  253TIP3    H1  723   2.286   2.539   2.716 -0.1296  0.8456  0.6151
  253TIP3    H2  724   2.193   2.636   2.647 -0.8269  0.2490  0.7105
  254TIP3   OH2  725   2.446   4.711   0.827 -0.0081 -0.6310  0.7098
  254TIP3    H1  726   2.432   4.626   0.868 -0.7525 -0.0928  1.6386
  254TIP3    H2  727   2.452   4.772   0.900 -0.8237  0.2922  0.0399
  255TIP3   OH2  728   1.539   3.872   2.056  0.3419 -0.0550  0.1444
  255TIP3    H1  729   1.589   3.792   2.074  2.0625  0.8739 -0.2690
  255TIP3    H2  730   1.493   3.891   2.138  0.9228 -0.7746  0.6500
  256TIP3   OH2  731   5.349   1.414   4.914  0.0299  0.8601  0.8195
  256TIP3    H1  732   5.349   1.338   4.855  5.1982  0.0979  1.3173
  256TIP3    H2  733   5.319   1.486   4.860 -0.4736 -0.7349 -1.1553
  257TIP3   OH2  734   0.373   4.460   0.708 -0.5591 -0.5594  0.3311
  257TIP3    H1  735   0.410   4.541   0.673 -1.8876  1.2499  2.8368
  257TIP3    H2  736   0.446   4.417   0.752 -0.1294 -0.1104  0.0717
  258TIP3   OH2  737   2.450   3.519   5.549 -0.0298 -1.0394 -0.3367
  258TIP3    H1  738   2.390   3.568   5.605  0.0461 -0.0455 -1.1065
  258TIP3    H2  739   2.537   3.537   5.586  0.0299 -0.3011 -0.8268
  259TIP3   OH2  740   1.590   0.920   2.996  0.0332  0.2319  0.1937
  259TIP3    H1  741   1.531   0.873   2.937 -0.8391  0.8594  0.5417
  259TIP3    H2  742   1.543   1.001   3.017  1.5905  1.3741 -0.5584
  260TIP3   OH2  743   2.440   0.398   3.185 -0.0243 -0.4284 -0.0267
  260TIP3    H1  744   2.498   0.411   3.110 -0.3563  0.4398 -0.1443
  260TIP3    H2  745   2.387   0.322   3.160  0.0550 -0.3174 -0.5532
  261TIP3   OH2  746   3.681   5.120   4.728 -0.7052 -0.6208  0.4102
  261TIP3    H1  747   3.703   5.036   4.689 -0.0932 -0.5845  0.6597
  261TIP3    H2  748   3.751   5.136   4.791 -1.7884 -0.8003  1.7229
  262TIP3   OH2  749   0.396   6.708   4.861  0.5066 -0.0226  0.0088
  262TIP3    H1  750   0.435   6.777   4.808  0.7996  0.5067  0.8938
  262TIP3    H2  751   0.303   6.708   4.837  0.2439  1.5554  0.9125
  263TIP3   OH2  752   0.511   0.961   5.448  0.1947  0.4527 -0.1532
  263TIP3    H1  753   0.559   0.943   5.368  1.6199  0.4223  0.6812
  263TIP3    H2  754   0.460   0.882   5.464  0.0477  0.3862 -0.8996
  264TIP3   OH2  755   1.181   2.683   3.976 -0.1612 -0.3790 -0.0668
  264TIP3    H1  756   1.110   2.620   3.968 -0.9758  0.6560 -1.3313
  264TIP3    H2  757   1.223   2.661   4.059 -3.5838  0.6070  2.0981
  265TIP3   OH2  758   5.629   1.274   3.771 -0.1147  0.4343 -0.0517
  265TIP3    H1  759   5.672   1.294   3.688 -0.1737  0.6772 -0.0239
  265TIP3    H2  760   5.537   1.295   3.757 -1.1408 -3.9658 -1.4916
  266TIP3   OH2  761   6.273   4.380   2.750  0.6284 -0.1778  0.1256
  266TIP3    H1  762   6.195   4.400   2.698  0.8010  1.2826  0.3684
  266TIP3    H2  763   6.242   4.320   2.818 -0.7606  1.8389  1.3780
  267TIP3   OH2  764   6.439   0.518   3.310 -0.4777  0.4422  0.3782
  267TIP3    H1  765   6.376   0.543   3.378 -1.0907  2.5258 -0.8799
  267TIP3    H2  766   6.396   0.539   3.228  0.5106 -1.4149 -0.6767
  268TIP3   OH2  767   4.292   5.565   0.557  0.3140 -0.4244 -0.3705
  268TIP3    H1  768   4.350   5.618   0.611 -0.7750 -0.2251  0.6461
  268TIP3    H2  769   4.266   5.493   0.614  0.2642 -0.9986 -1.1108
  269TIP3   OH2  770   6.394   4.476   3.016 -0.3258  0.5191 -0.1020
  269TIP3    H1  771   6.405   4.524   2.935 -0.7223  1.6834  0.5125
  269TIP3    H2  772   6.315   4.423   3.003  0.4985 -0.5280 -1.0309
  270TIP3   OH2  773   6.793   4.943   0.448 -0.3521  0.1298  0.6955
  270TIP3    H1  774   6.719   4.987   0.490  0.1075  0.9523  0.6620
  270TIP3    H2  775   6.859   4.935   0.517 -0.2219 -0.0137  0.5561
  271TIP3   OH2  776   5.583   5.104   2.295 -0.1618 -0.6894  0.3005
  271TIP3    H1  777   5.534   5.179   2.330  1.6604  0.5665  0.2829
  271TIP3    H2  778   5.551   5.094   2.205  0.8387  1.2744 -0.3279
  272TIP3   OH2  779   0.110   0.846   0.394 -0.0574 -0.2500 -0.0732
  272TIP3    H1  780   0.083   0.783   0.460 -2.2420  0.1555 -0.5130
  272TIP3    H2  781   0.165   0.908   0.442 -0.1314 -0.9526  0.9556
  273TIP3   OH2  782   5.854   5.529   3.726 -0.5383 -0.2161  0.2779
  273TIP3    H1  783   5.885   5.466   3.791  0.2425 -1.0356 -0.8609
  273TIP3    H2  784   5.760   5.512   3.720 -0.3244 -1.3474 -0.0838
  274TIP3   OH2  785   5.163   2.479   0.091  0.4098  0.1031  0.0396
  274TIP3    H1  786   5.172   2.388   0.063  0.7785  0.3339 -0.6069
  274TIP3    H2  787   5.127   2.473   0.180 -2.0542 -0.6223 -0.9270
  275TIP3   OH2  788   6.481   0.306   2.194  0.2519 -0.1417  0.4009
  275TIP3    H1  789   6.496   0.382   2.249  2.8235 -1.7591  2.1916
  275TIP3    H2  790   6.568   0.283   2.161 -0.7673 -1.0702 -1.8815
  276TIP3   OH2  791   3.777   6.340   2.190  0.2207 -0.0245  0.4217
  276TIP3    H1  792   3.730   6.256   2.187 -2.1339  0.9568  3.3519
  276TIP3    H2  793   3.707   6.405   2.188  1.8734  1.7999  0.0192
  277TIP3   OH2  794   3.230   1.153   5.320 -0.3947 -0.0978 -0.0921
  277TIP3    H1  795   3.272   1.112   5.395  0.6892  0.6317 -0.2850
  277TIP3    H2  796   3.227   1.246   5.342 -2.4783 -0.1805  0.1784
  278TIP3   OH2  797   7.036   5.827   5.339 -0.0413 -0.8253 -0.0194
  278TIP3    H1  798   7.069   5.893   5.400 -1.6638 -0.8162  0.8925
  278TIP3    H2  799   7.068   5.744   5.374 -2.2006 -0.9725  1.7781
  279TIP3   OH2  800   0.344   6.339   3.206  0.7700  0.1978  0.3146
  279TIP3    H1  801   0.378   6.305   3.289  1.0429  1.0174  0.5480
  279TIP3    H2  802   0.358   6.433   3.211 -0.0963  0.3747 -0.2577
  280TIP3   OH2  803   6.483   6.715   1.907 -0.0650  0.3430 -0.0010
  280TIP3    H1  804   6.443   6.660   1.840  0.6632 -0.9482  0.5939
  280TIP3    H2  805   6.518   6.653   1.971  2.1016  1.4353 -0.0604
  281TIP3   OH2  806   5.277   3.510   3.541 -0.0481  0.2559 -0.2153
  281TIP3    H1  807   5.358   3.511   3.592  0.0401  0.1297 -0.3510
  281TIP3    H2  808   5.215   3.561   3.593  0.0422  0.1336  0.0138
  282TIP3   OH2  809   4.741   1.976   3.073  0.1902  0.0825  0.2312
  282TIP3    H1  810   4.831   1.959   3.045 -0.0638  1.7730 -1.8534
  282TIP3    H2  811   4.687   1.943   3.001 -0.8369 -0.1841  1.0957
  283TIP3   OH2  812   6.685   1.336   0.541  0.4196  0.4576  0.0562
  283TIP3    H1  813   6.595   1.364   0.560 -0.6661 -1.2397 -2.0695
  283TIP3    H2  814   6.678   1.241   0.529  3.0913 -0.2134  2.6329
  284TIP3   OH2  815   0.557   3.152   3.364  0.8051  0.1489  0.1176
  284TIP3    H1  816   0.649   3.162   3.343  0.3962 -0.1923 -2.0594
  284TIP3    H2  817   0.513   3.220   3.314 -0.2712 -0.7533 -0.2017
  285TIP3   OH2  818   4.065   6.701   3.788 -0.0731 -0.1564  0.4313
  285TIP3    H1  819   4.089   6.724   3.698  0.2456  2.0665  1.0235
  285TIP3    H2  820   4.146   6.715   3.838 -0.9484  1.4708  1.4831
  286TIP3   OH2  821   5.594   6.036   2.446  0.1393  0.1322 -0.3144
  286TIP3    H1  822   5.671   6.059   2.497  0.1479  1.3139 -0.8225
  286TIP3    H2  823   5.629   6.000   2.364  0.1276 -1.3207  0.3035
  287TIP3   OH2  824   5.175   1.218   4.737  0.2865  0.0681 -0.3739
  287TIP3    H1  825   5.226   1.201   4.657 -1.1068 -1.3824 -1.0143
  287TIP3    H2  826   5.088   1.241   4.706  0.4077  2.2283  0.7128
  288TIP3   OH2  827   1.298   5.010   5.386 -0.5141 -0.4604  0.1136
  288TIP3    H1  828   1.372   5.069   5.403  0.0919 -0.9052 -0.9184
  288TIP3    H2  829   1.332   4.923   5.404 -0.0105 -0.9144 -2.5968
  289TIP3   OH2  830   2.534   3.145   1.695  0.5015 -0.0742 -0.4401
  289TIP3    H1  831   2.448   3.106   1.684  0.6855 -0.6328  0.0170
  289TIP3    H2  832   2.537   3.216   1.632  0.1765 -0.8310 -1.3210
  290TIP3   OH2  833   6.352   6.439   0.968  0.4949  0.4555 -0.1459
  290TIP3    H1  834   6.304   6.520   0.985  0.7376  0.4796  0.4317
  290TIP3    H2  835   6.387   6.451   0.879 -2.3023 -0.4170 -1.5009
  291TIP3   OH2  836   1.657   5.638   0.189  0.1232 -0.4546  0.1048
  291TIP3    H1  837   1.672   5.582   0.265 -0.8078  0.3516  0.9188
  291TIP3    H2  838   1.570   5.675   0.204  0.1707  0.1750 -1.0717
  292TIP3   OH2  839   5.070   4.844   1.145  0.4406  0.0006  0.1232
  292TIP3    H1  840   5.137   4.789   1.104 -0.4958 -0.3500 -0.9814
  292TIP3    H2  841   5.067   4.922   1.091 -0.9236 -0.5362 -0.6213
  293TIP3   OH2  842   3.416   6.183   1.714 -0.1450 -0.2769 -0.0828
  293TIP3    H1  843   3.472   6.188   1.637  0.8854 -1.1880  0.5854
  293TIP3    H2  844   3.332   6.220   1.685  1.5464  3.9551 -0.3582
  294TIP3   OH2  845   6.629   3.073   4.938 -0.5987  0.0096 -0.4417
  294TIP3    H1  846   6.716   3.053   4.973  0.4258  2.2132 -1.5419
  294TIP3    H2  847   6.569   3.051   5.010  0.9223 -0.7553  0.6592
  295TIP3   OH2  848   1.153   6.354   2.644 -0.1035  0.5446 -0.1275
  295TIP3    H1  849   1.123   6.377   2.732  1.6715  1.8469  0.1829
  295TIP3    H2  850   1.233   6.302   2.659 -1.2776 -1.6340 -0.9519
  296TIP3   OH2  851   6.767   3.395   2.979 -0.0268 -0.3020 -0.6808
  296TIP3    H1  852   6.745   3.459   2.912  0.2838  0.1621 -0.3462
  296TIP3    H2  853   6.733   3.312   2.945 -1.1226  0.1621 -0.7675
  297TIP3   OH2  854   5.634   6.307   4.165 -0.3400 -0.2786 -0.1944
  297TIP3    H1  855   5.542   6.285   4.176 -0.5883  0.2576 -1.1580
  297TIP3    H2  856   5.670   6.233   4.115 -0.3357 -0.3027 -0.1557
  298TIP3   OH2  857   4.039   0.867   0.849  0.6201 -0.3522  0.2136
  298TIP3    H1  858   4.100   0.819   0.793 -0.1903 -0.1080 -0.9095
  298TIP3    H2  859   4.051   0.829   0.936  0.8600 -1.7543 -0.4122
  299TIP3   OH2  860   1.461   5.080   4.929 -0.2156  0.1633  0.5850
  299TIP3    H1  861   1.493   4.997   4.893 -0.7528 -0.2363  0.9986
  299TIP3    H2  862   1.418   5.055   5.011  1.2460  1.0714  1.6882
  300TIP3   OH2  863   5.321   5.001   0.640  0.6332 -0.0614 -0.5809
  300TIP3    H1  864   5.311   5.069   0.706 -1.0400 -0.8247  0.0192
  300TIP3    H2  865   5.291   5.041   0.559 -1.3426 -0.3292 -0.0339
  301TIP3   OH2  866   5.414   5.625   2.613  0.3506 -0.5570 -0.0668
  301TIP3    H1  867   5.487   5.571   2.642 -0.1972 -2.1351 -1.4125
  301TIP3    H2  868   5.338   5.567   2.620 -0.6662  0.7817  0.5334
  302TIP3   OH2  869   4.146   2.369   5.125  0.1641 -0.0582  0.5038
  302TIP3    H1  870   4.226   2.355   5.175  0.7977  2.4156  0.3164
  302TIP3    H2  871   4.159   2.453   5.082 -0.9672 -1.3810 -2.6950
  303TIP3   OH2  872   2.274   0.857   0.365 -0.4697 -0.1093  1.1144
  303TIP3    H1  873   2.349   0.848   0.424 -0.4648 -0.0940  1.1105
  303TIP3    H2  874   2.239   0.944   0.384 -0.7239 -0.2695  1.3961
  304TIP3   OH2  875   6.233   5.623   3.676  0.3662 -0.1242  0.6957
  304TIP3    H1  876   6.308   5.585   3.632  0.2953 -0.1997  0.6390
  304TIP3    H2  877   6.175   5.549   3.694  0.5344 -0.1399  1.1950
  305TIP3   OH2  878   3.156   4.012   3.054 -0.5706 -0.1629 -0.4821
  305TIP3    H1  879   3.114   4.080   3.108  0.0179 -0.5090  0.4438
  305TIP3    H2  880   3.102   3.935   3.066  0.5292 -0.7498  1.1105
  306TIP3   OH2  881   3.265   6.048   3.624  0.1863 -0.0028  0.5084
  306TIP3    H1  882   3.348   6.041   3.671  0.1322  0.8021  0.7439
  306TIP3    H2  883   3.290   6.050   3.532  0.3881 -0.3420  0.5546
  307TIP3   OH2  884   0.064   5.094   1.051  0.8325  0.5240 -0.6066
  307TIP3    H1  885   0.031   5.170   1.098  1.6642  0.8463 -0.5243
  307TIP3    H2  886   0.096   5.035   1.119  2.6809  1.2899 -0.7353
  308TIP3   OH2  887   4.275   3.705   2.224 -0.0344 -0.0589 -0.0482
  308TIP3    H1  888   4.351   3.730   2.171  0.6566 -0.5659  0.6742
  308TIP3    H2  889   4.228   3.642   2.169  0.2895 -0.0543 -0.3384
  309TIP3   OH2  890   2.826   1.915   5.343  0.0802 -0.3404 -0.3030
  309TIP3    H1  891   2.869   1.830   5.341  0.9508  0.0726  0.0430
  309TIP3    H2  892   2.757   1.906   5.409  2.2653  0.1323  2.2101
  310TIP3   OH2  893   2.606   4.385   0.204  0.2744 -0.4268  0.0893
  310TIP3    H1  894   2.581   4.425   0.287 -1.1343 -0.6995 -0.1749
  310TIP3    H2  895   2.683   4.434   0.176  2.2752 -1.8265  2.6647
  311TIP3   OH2  896   5.454   3.263   0.557 -0.2542 -0.2377 -0.0211
  311TIP3    H1  897   5.436   3.200   0.488  1.0786 -2.2797  1.3981
  311TIP3    H2  898   5.505   3.332   0.514 -1.3618 -0.3121 -1.5150
  312TIP3   OH2  899   4.069   5.917   5.074 -0.3280  0.1933  0.3584
  312TIP3    H1  900   3.982   5.885   5.096 -0.7502  0.4633 -0.8472
  312TIP3    H2  901   4.054   5.995   5.021  0.6483  0.3382  0.2706
  313TIP3   OH2  902   0.009   6.724   0.207  0.0082  0.0106  0.2132
  313TIP3    H1  903  -0.027   6.671   0.136 -1.0660 -1.9201  2.0956
  313TIP3    H2  904   0.098   6.690   0.219  0.0697  0.1033  0.0241
  314TIP3   OH2  905   5.958   4.882   2.064  0.2551  0.0647  0.0198
  314TIP3    H1  906   5.923   4.891   2.153 -0.5589 -0.3879 -0.2519
  314TIP3    H2  907   6.048   4.854   2.077 -0.4836 -2.1791  0.6932
  315TIP3   OH2  908   5.782   2.043   1.107 -0.1967 -0.4688 -0.2564
  315TIP3    H1  909   5.795   2.133   1.079 -1.8000 -1.1852 -3.8874
  315TIP3    H2  910   5.841   1.992   1.051 -1.9977 -1.8937 -0.9469
  316TIP3   OH2  911   3.596   5.831   3.603  0.9151 -0.4453 -0.3878
  316TIP3    H1  912   3.540   5.881   3.544  2.8925  2.1095 -0.2430
  316TIP3    H2  913   3.621   5.753   3.552  0.1367  0.1485 -1.7376
  317TIP3   OH2  914   0.493   5.199   4.902  0.0158 -0.0379  1.2471
  317TIP3    H1  915   0.573   5.251   4.890  0.2040 -0.5810  0.0568
  317TIP3    H2  916   0.426   5.245   4.851 -0.1158 -0.2831  1.1940
  318TIP3   OH2  917   1.021   4.335   3.085  0.2516 -0.5270 -0.4480
  318TIP3    H1  918   1.043   4.371   2.999  3.8513  1.9868  1.3000
  318TIP3    H2  919   0.972   4.255   3.065  1.3825 -0.3860 -4.8049
  319TIP3   OH2  920   1.865   6.415   2.851 -0.1956  0.0207 -0.4457
  319TIP3    H1  921   1.892   6.497   2.892  1.2446 -0.7164  0.1407
  319TIP3    H2  922   1.802   6.377   2.912 -0.4820  0.4331 -0.4785
  320TIP3   OH2  923   4.369   3.041   5.494  0.0985 -0.5752  0.3930
  320TIP3    H1  924   4.277   3.066   5.485  0.7418  1.4105 -1.7543
  320TIP3    H2  925   4.404   3.100   5.560  0.3067  0.2799 -0.4586
  321TIP3   OH2  926   0.029   1.984   4.449  0.8095 -0.3103  0.1346
  321TIP3    H1  927  -0.011   1.916   4.505  1.6997 -0.2415  0.8847
  321TIP3    H2  928   0.121   1.959   4.444  0.6764 -0.5412 -1.6830
  322TIP3   OH2  929   5.374   5.302   1.675 -0.0527  0.4735 -0.1301
  322TIP3    H1  930   5.296   5.323   1.623  0.8271  0.4471 -1.5091
  322TIP3    H2  931   5.374   5.367   1.745 -0.3409  1.6294 -1.1636
  323TIP3   OH2  932   6.700   4.961   1.583 -0.0454  0.0323  0.6901
  323TIP3    H1  933   6.790   4.993   1.577  0.6515 -1.9336 -0.0864
  323TIP3    H2  934   6.654   5.007   1.513  1.2007 -1.4021 -1.1703
  324TIP3   OH2  935   0.711   0.282   3.033  0.1220 -0.3621  0.0737
  324TIP3    H1  936   0.783   0.250   2.979 -0.5098  1.2127 -1.8233
  324TIP3    H2  937   0.637   0.227   3.008 -0.5572  1.3503 -1.9531
  325TIP3   OH2  938   0.985   4.435   0.879 -0.0385  0.2642  0.6568
  325TIP3    H1  939   0.978   4.339   0.876  1.0913  0.1372  1.4915
  325TIP3    H2  940   1.023   4.459   0.795  0.6693 -0.1324  0.8540
  326TIP3   OH2  941   2.210   3.355   2.075 -0.2726 -0.0421 -0.0564
  326TIP3    H1  942   2.291   3.381   2.032 -0.0386 -1.5152 -0.5641
  326TIP3    H2  943   2.153   3.432   2.067  0.1817  0.1523 -1.9630
  327TIP3   OH2  944   5.364   2.565   3.943 -0.4022  0.4215  0.0431
  327TIP3    H1  945   5.416   2.501   3.894 -1.2300  0.4936 -0.9590
  327TIP3    H2  946   5.354   2.526   4.030  1.0962  0.2968  0.1896
  328TIP3   OH2  947   6.881   5.276   4.183  0.2061 -0.0448 -0.2105
  328TIP3    H1  948   6.793   5.294   4.150  0.0571  0.4137  0.4204
  328TIP3    H2  949   6.921   5.363   4.191  0.8119 -0.2681 -0.7455
  329TIP3   OH2  950   5.179   0.248   0.887  0.3387 -0.5252  0.2015
  329TIP3    H1  951   5.101   0.224   0.937 -0.4068  0.6924 -0.3357
  329TIP3    H2  952   5.241   0.278   0.954 -0.2847  0.1397  0.4977
  330TIP3   OH2  953   2.653   0.603   4.976  0.3074 -0.2580 -0.0205
  330TIP3    H1  954   2.619   0.554   4.901  1.2363 -1.1865  0.1420
  330TIP3    H2  955   2.732   0.556   5.001 -0.5632 -0.6357  2.2489
  331TIP3   OH2  956   3.770   5.622   1.534 -0.3724  0.1267  0.1582
  331TIP3    H1  957   3.818   5.560   1.479  1.9649  2.7955 -1.0335
  331TIP3    H2  958   3.696   5.649   1.481  1.6618  2.3992 -1.7352
  332TIP3   OH2  959   0.958   5.176   0.413 -0.1424  0.0142  0.0553
  332TIP3    H1  960   0.879   5.177   0.468  0.4046 -0.2355  0.8745
  332TIP3    H2  961   0.991   5.087   0.420 -0.3669 -0.1724 -1.1567
  333TIP3   OH2  962   5.932   3.718   2.820  0.5265 -0.1439  0.1051
  333TIP3    H1  963   5.964   3.725   2.910  1.1924 -1.4922 -0.0152
  333TIP3    H2  964   5.982   3.785   2.772  1.0022 -0.2079  0.5039
  334TIP3   OH2  965   6.422   3.160   3.522  0.1637 -0.0555 -0.5166
  334TIP3    H1  966   6.488   3.189   3.459  0.6586 -1.1814 -0.5412
  334TIP3    H2  967   6.470   3.140   3.602 -0.2649 -0.0458 -0.2500
  335TIP3   OH2  968   5.773   2.273   5.094 -0.3592 -0.2737 -0.7766
  335TIP3    H1  969   5.817   2.301   5.175 -1.0535  1.0867 -0.8443
  335TIP3    H2  970   5.844   2.258   5.032  0.1040  0.2702 -0.3870
  336TIP3   OH2  971   6.886   5.291   3.313 -0.2411 -0.3526 -0.0248
  336TIP3    H1  972   6.813   5.238   3.342  0.1583  0.4171  2.6567
  336TIP3    H2  973   6.861   5.381   3.334  0.6545  0.1340 -0.9289
  337TIP3   OH2  974   4.111   6.769   4.583 -0.3760 -0.0984 -0.2447
  337TIP3    H1  975   4.154   6.688   4.556 -1.0322 -0.2613 -0.8324
  337TIP3    H2  976   4.023   6.763   4.544 -0.9135  0.2470  0.8857
  338TIP3   OH2  977   0.914   4.321   4.604 -0.5775  0.1412  0.2326
  338TIP3    H1  978   0.838   4.299   4.550 -1.1266  0.4822  0.8508
  338TIP3    H2  979   0.968   4.242   4.603 -1.4666 -0.4878  0.6671
  339TIP3   OH2  980   2.550   2.890   4.638 -0.6271 -0.3508 -0.6782
  339TIP3    H1  981   2.567   2.894   4.543 -0.2288  0.6047 -0.5854
  339TIP3    H2  982   2.466   2.935   4.649 -0.5348 -0.2088 -0.5517
  340TIP3   OH2  983   6.713   2.860   5.779  0.2567 -0.0835 -0.0521
  340TIP3    H1  984   6.658   2.829   5.851  0.7891  1.0636  0.8835
  340TIP3    H2  985   6.798   2.876   5.819  0.5191  0.7221 -0.9003
  341TIP3   OH2  986   0.913   6.080   4.129  0.0143 -0.3064 -0.1842
  341TIP3    H1  987   1.009   6.079   4.128  0.0144 -0.0520 -0.3646
  341TIP3    H2  988   0.889   6.159   4.081 -0.3187 -1.6353 -2.3610
  342TIP3   OH2  989   2.750   0.208   4.434 -0.1372  0.9802 -0.0869
  342TIP3    H1  990   2.774   0.293   4.470 -1.5174  0.3712  2.4532
  342TIP3    H2  991   2.659   0.218   4.408  0.9586  1.6433 -4.5472
  343TIP3   OH2  992   6.592   5.033   2.017 -0.7097 -0.6265 -0.0046
  343TIP3    H1  993   6.590   5.122   2.052  4.0313  0.3125 -1.5085
  343TIP3    H2  994   6.599   4.977   2.095 -2.6013  0.2782  0.8956
  344TIP3   OH2  995   3.738   0.513   3.520  0.6508  0.0777  0.1954
  344TIP3    H1  996   3.742   0.593   3.573  1.0306  0.7182 -0.7703
  344TIP3    H2  997   3.818   0.515   3.468 -0.6133  0.4965 -1.8451
  345TIP3   OH2  998   3.948   0.504   2.522  0.2462  0.2539  0.2577
  345TIP3    H1  999   4.035   0.500   2.483 -0.0896  0.4377 -0.5305
  345TIP3    H2 1000   3.962   0.540   2.610  0.7030  2.7503 -0.7621
  346TIP3   OH2 1001   4.479   1.984   5.746  0.1044 -0.0784  0.3018
  346TIP3    H1 1002   4.431   1.909   5.711 -0.2003 -0.7543  2.0774
  346TIP3    H2 1003   4.413   2.035   5.792  0.5225  0.7177  0.0328
  347TIP3   OH2 1004   3.688   0.265   5.439 -0.6498  0.5379  0.0651
  347TIP3    H1 1005   3.773   0.280   5.482 -0.6776  0.8376  0.0218
  347TIP3    H2 1006   3.630   0.238   5.510 -0.5166  0.3261  0.0943
  348TIP3   OH2 1007   4.228   5.667   5.237 -0.3454 -0.0011  0.3827
  348TIP3    H1 1008   4.264   5.600   5.179 -0.9882 -0.6822  0.7579
  348TIP3    H2 1009   4.213   5.742   5.180  0.2450 -0.2193 -0.0693
  349TIP3   OH2 1010   6.794   4.390   2.234 -0.1661  0.2346  0.7267
  349TIP3    H1 1011   6.746   4.341   2.167 -2.3574  1.0862  1.5750
  349TIP3    H2 1012   6.791   4.335   2.311 -0.1974  0.4978  0.9144
  350TIP3   OH2 1013   3.821   1.602   3.649 -0.3534 -0.3155 -0.0853
  350TIP3    H1 1014   3.757   1.653   3.599  0.6472 -0.1495 -1.2715
  350TIP3    H2 1015   3.778   1.582   3.732 -1.3331  1.1416 -0.2172
  351TIP3   OH2 1016   0.557   0.514   5.468 -0.0048 -0.5355 -0.4079
  351TIP3    H1 1017   0.650   0.529   5.479 -0.0781 -0.1934 -0.2332
  351TIP3    H2 1018   0.515   0.579   5.525 -0.3803  0.8313 -2.1409
  352TIP3   OH2 1019   5.990   4.805   0.365  0.2713  0.1163  0.0284
  352TIP3    H1 1020   6.037   4.811   0.282  1.5786 -4.9633  0.0981
  352TIP3    H2 1021   5.902   4.777   0.341  0.2016  0.1164  0.2759
  353TIP3   OH2 1022   5.617   6.797   1.132 -0.5502  0.2497 -0.4531
  353TIP3    H1 1023   5.692   6.773   1.078 -0.9696  0.8360 -1.3197
  353TIP3    H2 1024   5.573   6.714   1.151 -0.0432 -0.0252 -0.4792
  354TIP3   OH2 1025   3.413   3.857   3.086 -0.2918 -0.1215 -0.0745
  354TIP3    H1 1026   3.458   3.903   3.157  0.8476  0.4897 -1.1479
  354TIP3    H2 1027   3.377   3.927   3.032  0.2528 -0.5115 -0.9641
  355TIP3   OH2 1028   3.414   6.651   2.518 -0.2842 -0.6160 -0.4922
  355TIP3    H1 1029   3.402   6.659   2.612 -0.4758 -1.4241 -0.4385
  355TIP3    H2 1030   3.410   6.557   2.501  2.3862 -0.7351 -0.9464
  356TIP3   OH2 1031   6.813   5.106   4.566  0.4935 -0.5734  0.4395
  356TIP3    H1 1032   6.737   5.049   4.577  0.5878 -0.8485 -0.2992
  356TIP3    H2 1033   6.776   5.191   4.544  0.2366  0.2821  3.7166
  357TIP3   OH2 1034   6.246   6.651   4.126 -0.2171  0.1701 -0.2626
  357TIP3    H1 1035   6.194   6.643   4.206  0.2533  1.3629  0.1825
  357TIP3    H2 1036   6.211   6.728   4.081 -0.4366 -0.4455 -1.1970
  358TIP3   OH2 1037   2.403   0.857   4.012  0.0451  0.2920 -0.4766
  358TIP3    H1 1038   2.397   0.866   3.917 -0.8362 -0.4642 -0.5088
  358TIP3    H2 1039   2.387   0.764   4.029  0.3793  0.3803  0.3988
  359TIP3   OH2 1040   7.144   6.710   0.918 -0.0103 -0.1854  0.5709
  359TIP3    H1 1041   7.101   6.634   0.958 -0.5462 -0.3960 -0.3741
  359TIP3    H2 1042   7.147   6.775   0.988 -2.5307  0.1051  0.5103
  360TIP3   OH2 1043   6.399   5.774   1.029 -0.5005 -0.4166 -0.7996
  360TIP3    H1 1044   6.313   5.817   1.027 -0.3252  0.0287  0.4847
  360TIP3    H2 1045   6.380   5.685   1.058 -0.5076 -0.2609 -0.3263
  361TIP3   OH2 1046   0.613   3.168   2.772 -0.1956 -0.2090 -0.1532
  361TIP3    H1 1047   0.607   3.110   2.847 -0.2074  0.4749  0.3786
  361TIP3    H2 1048   0.663   3.118   2.707  2.0617  0.1285  1.2293
  362TIP3   OH2 1049   3.442   6.335   1.013  0.2119  0.3757 -0.0914
  362TIP3    H1 1050   3.533   6.330   0.985  0.0834  2.4945 -1.0844
  362TIP3    H2 1051   3.411   6.244   1.011  2.2006 -0.3483  0.0008
  363TIP3   OH2 1052   6.587   3.189   0.675 -0.3712  0.2154 -0.0853
  363TIP3    H1 1053   6.635   3.271   0.684  0.8692 -0.4872 -0.0437
  363TIP3    H2 1054   6.513   3.198   0.735 -1.6539  2.2311 -1.8270
  364TIP3   OH2 1055   0.034   3.175   1.150  0.3232 -0.2730 -0.0748
  364TIP3    H1 1056  -0.056   3.206   1.162 -0.4789 -2.5224  0.3965
  364TIP3    H2 1057   0.055   3.196   1.059 -0.8288 -0.0172 -0.2973
  365TIP3   OH2 1058   4.400   4.293   2.362  0.1575  0.0741 -0.4931
  365TIP3    H1 1059   4.462   4.343   2.415 -1.2504 -0.2542  1.5417
  365TIP3    H2 1060   4.454   4.253   2.294  2.1310  0.1135  0.9734
  366TIP3   OH2 1061   3.834   2.070   2.449  0.0682 -0.3679 -0.0821
  366TIP3    H1 1062   3.852   2.126   2.373  0.7935 -0.6283 -0.0981
  366TIP3    H2 1063   3.787   1.995   2.413  0.1707 -0.3599 -0.2323
  367TIP3   OH2 1064   1.796   5.541   4.205  0.1409 -0.4253  0.1263
  367TIP3    H1 1065   1.726   5.598   4.175  0.5681 -0.3535 -0.7756
  367TIP3    H2 1066   1.768   5.453   4.180  0.2396 -0.4254  0.0121
  368TIP3   OH2 1067   2.903   3.459   5.866  0.2134 -0.0529  0.6233
  368TIP3    H1 1068   2.812   3.436   5.847  0.5763 -1.3210  0.2794
  368TIP3    H2 1069   2.899   3.547   5.902 -1.2634 -0.4781  1.5932
  369TIP3   OH2 1070   0.958   4.410   2.138  0.3681  0.0393  0.2677
  369TIP3    H1 1071   0.904   4.448   2.208  0.1657 -0.5560  0.4371
  369TIP3    H2 1072   1.025   4.359   2.184 -0.4208 -1.2489  0.0145
  370TIP3   OH2 1073   2.159   3.927   0.594 -0.2212 -0.3514  0.2690
  370TIP3    H1 1074   2.130   4.006   0.548  0.8861  0.3894  0.7945
  370TIP3    H2 1075   2.195   3.871   0.526  1.5543  0.8029  0.1807
  371TIP3   OH2 1076   2.137   1.109   1.850 -0.4581  0.2850  0.4781
  371TIP3    H1 1077   2.148   1.042   1.782  0.6794  0.1228  0.8093
  371TIP3    H2 1078   2.224   1.119   1.888 -0.6410  1.8416  0.5419
  372TIP3   OH2 1079   5.085   3.608   3.711 -0.1007  0.0575  0.6154
  372TIP3    H1 1080   5.015   3.668   3.735 -0.2755  0.5124 -0.9011
  372TIP3    H2 1081   5.045   3.521   3.714 -0.4915  0.2376  0.5834
  373TIP3   OH2 1082   2.789   3.987   3.050  0.4214  0.4968 -0.1866
  373TIP3    H1 1083   2.734   3.937   2.989  1.5746  0.4307 -1.2119
  373TIP3    H2 1084   2.860   3.927   3.073  0.0418  0.5549  1.1815
  374TIP3   OH2 1085   3.184   2.998   0.004  0.4984 -0.2634 -0.0961
  374TIP3    H1 1086   3.230   2.983   0.086  0.3268 -2.4301 -0.3195
  374TIP3    H2 1087   3.244   2.967  -0.064  0.2931  0.6620 -0.7166
  375TIP3   OH2 1088   5.943   2.414   3.485 -0.0197 -0.0030 -0.0468
  375TIP3    H1 1089   6.013   2.362   3.446 -0.8876 -2.2626  1.2293
  375TIP3    H2 1090   5.873   2.413   3.419  0.2442  0.1834 -0.3300
  376TIP3   OH2 1091   0.577   4.273   3.433 -0.0746  0.0831 -0.0004
  376TIP3    H1 1092   0.528   4.319   3.501  0.5148  1.9874 -0.8024
  376TIP3    H2 1093   0.662   4.317   3.430 -0.1666  0.2363 -2.1123
  377TIP3   OH2 1094   4.339   1.317   4.247  0.1528  0.3037  0.3102
  377TIP3    H1 1095   4.248   1.344   4.242  0.0408  0.0395  0.9330
  377TIP3    H2 1096   4.360   1.285   4.159 -0.0984  1.1705 -0.0707
  378TIP3   OH2 1097   1.134   0.887   4.053  0.4424 -0.3525 -0.9385
  378TIP3    H1 1098   1.135   0.949   3.979  1.3640  0.2463 -0.4490
  378TIP3    H2 1099   1.189   0.928   4.119 -0.2334 -0.9683  0.0309
  379TIP3   OH2 1100   0.211   5.747   4.517  0.6976 -0.3068  0.3407
  379TIP3    H1 1101   0.135   5.769   4.571  0.4418  0.0405 -0.1572
  379TIP3    H2 1102   0.216   5.651   4.521 -0.0201 -0.3627  0.0346
  380TIP3   OH2 1103   3.557   4.698   4.857  0.4558  0.3334  0.8624
  380TIP3    H1 1104   3.529   4.661   4.941 -1.2250 -0.2792  0.0699
  380TIP3    H2 1105   3.504   4.653   4.792 -0.2565  2.7288 -0.3368
  381TIP3   OH2 1106   6.943   1.423   0.648  0.1890 -0.4122 -0.0324
  381TIP3    H1 1107   6.855   1.390   0.628 -0.4795 -0.8215  3.1378
  381TIP3    H2 1108   6.945   1.510   0.607 -0.7627 -1.3341 -2.1914
  382TIP3   OH2 1109   1.842   0.254   3.547 -0.0389  0.2652  0.1001
  382TIP3    H1 1110   1.847   0.257   3.452 -0.4095 -0.3294  0.0565
  382TIP3    H2 1111   1.933   0.250   3.576  0.0562 -1.9232 -0.3293
  383TIP3   OH2 1112   2.931   4.701   4.545  0.5135  0.3141 -0.2729
  383TIP3    H1 1113   2.942   4.714   4.450 -0.9547 -1.3782 -0.7214
  383TIP3    H2 1114   3.016   4.726   4.582  0.6686  2.4720 -1.8323
  384TIP3   OH2 1115   7.167   0.405   4.043  0.1680  0.3779  0.4377
  384TIP3    H1 1116   7.086   0.404   4.094 -0.0418  1.9570  0.2146
  384TIP3    H2 1117   7.144   0.454   3.963  0.9063 -0.6440 -0.4313
  385TIP3   OH2 1118   0.132   0.095   4.997  0.1937 -0.1235 -0.3307
  385TIP3    H1 1119   0.134   0.184   5.031 -1.2655  0.3861 -1.4580
  385TIP3    H2 1120   0.215   0.057   5.024 -0.1800  0.7497  2.3103
  386TIP3   OH2 1121   3.790   4.434   1.396  0.5248  0.6936 -0.1684
  386TIP3    H1 1122   3.731   4.425   1.471  0.9511  0.3344  0.1309
  386TIP3    H2 1123   3.751   4.380   1.328  1.0424 -0.3814  0.3649
  387TIP3   OH2 1124   4.945   3.065   4.320  0.4510  0.0413  0.4594
  387TIP3    H1 1125   4.855   3.045   4.343  0.7368 -0.0982  1.4802
  387TIP3    H2 1126   4.998   3.002   4.369  1.1895  1.2199  1.2246
  388TIP3   OH2 1127   5.991   4.343   3.637  0.0249  0.2356 -0.4121
  388TIP3    H1 1128   5.905   4.380   3.659 -0.0004 -0.3712  0.5697
  388TIP3    H2 1129   5.987   4.329   3.542 -1.0013  0.1259 -0.3651
  389TIP3   OH2 1130   4.074   4.879   3.852  0.1548  0.1595 -0.0833
  389TIP3    H1 1131   4.156   4.889   3.899  1.3235 -2.3686 -1.4122
  389TIP3    H2 1132   4.081   4.938   3.777  1.5824 -1.2646 -1.1348
  390TIP3   OH2 1133   5.689   0.825   2.692 -0.1163 -0.2069 -0.3260
  390TIP3    H1 1134   5.672   0.810   2.599  2.6844  0.9296 -1.0961
  390TIP3    H2 1135   5.769   0.877   2.695 -1.5909  2.2852  2.6373
  391TIP3   OH2 1136   1.740   1.938   2.254  0.1186 -0.5077 -0.2702
  391TIP3    H1 1137   1.698   1.863   2.212  1.0748  0.4054 -3.1261
  391TIP3    H2 1138   1.680   1.962   2.325 -1.5515 -2.3373 -0.9540
  392TIP3   OH2 1139   0.872   4.698   3.623  0.0731  0.5826 -0.0731
  392TIP3    H1 1140   0.788   4.744   3.635  1.0024  2.0167  1.3601
  392TIP3    H2 1141   0.848   4.615   3.582 -1.9960  1.1761 -0.1785
  393TIP3   OH2 1142   2.621   0.184   3.600 -0.3776 -0.2314 -0.5930
  393TIP3    H1 1143   2.708   0.205   3.633 -0.1849  1.1779 -1.8373
  393TIP3    H2 1144   2.633   0.104   3.549 -0.2738 -1.2419  0.9550
  394TIP3   OH2 1145   2.444   4.732   5.425  0.0771  0.7965  0.7747
  394TIP3    H1 1146   2.508   4.769   5.365  0.8711  0.0155  1.1137
  394TIP3    H2 1147   2.471   4.764   5.511  1.4008 -1.3028  1.2158
  395TIP3   OH2 1148   2.872   1.444   4.206 -0.1500 -0.5060  0.4875
  395TIP3    H1 1149   2.956   1.413   4.173 -0.0464  0.4123 -0.1515
  395TIP3    H2 1150   2.895   1.508   4.273 -0.2627  1.4202 -1.2193
  396TIP3   OH2 1151   2.803   1.219   0.748 -0.0872  0.1135 -0.1979
  396TIP3    H1 1152   2.811   1.236   0.842 -0.9014  1.1508 -0.2913
  396TIP3    H2 1153   2.723   1.167   0.740  1.4151 -2.3682 -0.0990
  397TIP3   OH2 1154   5.058   3.361   1.105  0.2102  0.0485  0.6122
  397TIP3    H1 1155   5.033   3.432   1.164 -0.9714 -1.0584  1.5008
  397TIP3    H2 1156   5.125   3.311   1.154 -0.2853 -0.4836  0.7601
  398TIP3   OH2 1157   5.961   1.806   0.265 -0.4614  0.1697 -0.6473
  398TIP3    H1 1158   5.877   1.795   0.308 -1.6173 -0.3552 -2.9094
  398TIP3    H2 1159   5.946   1.873   0.199  1.3936  1.3289  0.0070
  399TIP3   OH2 1160   7.169   1.407   4.227 -0.0174  0.3847 -0.2512
  399TIP3    H1 1161   7.193   1.365   4.144 -0.5705  1.7497 -1.1446
  399TIP3    H2 1162   7.209   1.493   4.223  1.3312 -0.0874  1.6743
  400TIP3   OH2 1163   4.419   4.904   4.354  0.5286  0.4799  0.2065
  400TIP3    H1 1164   4.380   4.925   4.268 -0.2172  0.7800  0.6053
  400TIP3    H2 1165   4.511   4.926   4.344  0.5306  0.1252 -0.6490
  401TIP3   OH2 1166   2.730   4.330   2.456  0.5130 -0.3694 -0.3463
  401TIP3    H1 1167   2.695   4.317   2.368 -0.6087  1.6230 -0.2552
  401TIP3    H2 1168   2.808   4.385   2.443 -0.2318  0.7891 -0.0575
  402TIP3   OH2 1169   2.194   1.785   2.169 -0.2595  0.1414  0.1908
  402TIP3    H1 1170   2.232   1.755   2.251  0.8779  1.3355  0.1305
  402TIP3    H2 1171   2.109   1.741   2.164  0.3530 -1.2026  1.2018
  403TIP3   OH2 1172   4.988   6.407   3.395  0.1588  0.3238  0.2060
  403TIP3    H1 1173   4.904   6.363   3.381 -0.2864  1.5283 -1.0328
  403TIP3    H2 1174   5.052   6.336   3.389 -0.6956 -0.5107  0.4984
  404TIP3   OH2 1175   3.730   0.052   4.360  0.6574  0.1117  0.2698
  404TIP3    H1 1176   3.731  -0.019   4.424  0.4159 -1.4765 -1.4155
  404TIP3    H2 1177   3.638   0.062   4.335  0.9204 -0.4147 -0.9939
  405TIP3   OH2 1178   5.766   6.210   3.054  0.4462 -0.2742 -0.4566
  405TIP3    H1 1179   5.705   6.166   2.994 -0.4846  0.1029  0.1937
  405TIP3    H2 1180   5.852   6.197   3.013 -0.1396 -0.1140 -1.8206
  406TIP3   OH2 1181   3.369   4.019   2.117  0.5460  0.2474  0.4391
  406TIP3    H1 1182   3.373   3.937   2.067  1.6081  1.7997 -2.2427
  406TIP3    H2 1183   3.456   4.029   2.154  0.0967 -0.3160  1.7166
  407TIP3   OH2 1184   5.084   2.844   1.333  0.6464 -0.6109 -0.1078
  407TIP3    H1 1185   5.074   2.816   1.242 -0.0543  0.7197 -0.4644
  407TIP3    H2 1186   5.133   2.926   1.327  1.5087 -1.0355  0.8060
  408TIP3   OH2 1187   5.629   1.192   3.040  0.0135  0.2117  0.3622
  408TIP3    H1 1188   5.589   1.105   3.034 -0.9214  0.5358  1.5923
  408TIP3    H2 1189   5.720   1.175   3.064 -0.1570 -0.4278  0.5668
  409TIP3   OH2 1190   6.600   6.261   5.257  0.3555  0.1556  0.6431
  409TIP3    H1 1191   6.628   6.191   5.316  1.8353 -0.5478 -0.8348
  409TIP3    H2 1192   6.641   6.340   5.293  0.8273 -0.1777  0.8386
  410TIP3   OH2 1193   5.510   1.425   2.893 -0.5170  0.4179  0.4604
  410TIP3    H1 1194   5.416   1.413   2.908 -0.9941 -0.2762 -2.4646
  410TIP3    H2 1195   5.551   1.349   2.933 -1.1874  0.6788  1.6927
  411TIP3   OH2 1196   2.582   3.568   2.707  0.1172  0.2002 -0.3858
  411TIP3    H1 1197   2.606   3.529   2.792  0.2668  2.4121  0.6405
  411TIP3    H2 1198   2.645   3.531   2.646  1.0363 -0.2132  0.7584
  412TIP3   OH2 1199   5.930   0.596   0.759  0.1246  0.0287 -0.3970
  412TIP3    H1 1200   5.907   0.607   0.851  0.1478  0.0456 -0.3932
  412TIP3    H2 1201   6.003   0.656   0.745  1.1512 -1.1188 -0.0439
  413TIP3   OH2 1202   2.028   0.109   3.234 -0.1632  0.4929 -0.3054
  413TIP3    H1 1203   2.112   0.090   3.193  0.9805 -0.8014  2.4008
  413TIP3    H2 1204   2.013   0.036   3.295 -2.1522  1.7986  0.9091
  414TIP3   OH2 1205   4.798   3.640   3.493 -0.2993 -0.3141  0.2545
  414TIP3    H1 1206   4.725   3.644   3.555  0.9369 -1.4877  1.8721
  414TIP3    H2 1207   4.860   3.705   3.525  0.4891 -1.1469  0.4317
  415TIP3   OH2 1208   5.149   2.781   0.243  0.0460 -0.4690  0.4291
  415TIP3    H1 1209   5.201   2.755   0.319 -0.5116 -0.8504  0.6917
  415TIP3    H2 1210   5.115   2.867   0.266  2.4598  0.8694 -0.7295
  416TIP3   OH2 1211   1.475   5.978   5.432 -0.0690  0.5110 -0.5887
  416TIP3    H1 1212   1.383   5.955   5.428 -0.0724  0.4403 -0.1775
  416TIP3    H2 1213   1.476   6.066   5.470  0.0794  0.1041  0.3928
  417TIP3   OH2 1214   7.242   3.716   3.735  0.0388 -0.1544 -0.2555
  417TIP3    H1 1215   7.223   3.684   3.647  1.0051  0.8670 -0.8753
  417TIP3    H2 1216   7.187   3.664   3.793 -1.9785  0.3495 -1.6185
  418TIP3   OH2 1217   6.283   3.715   0.194  0.0892  0.1468 -0.3630
  418TIP3    H1 1218   6.281   3.790   0.253 -0.1450 -0.8284  0.9204
  418TIP3    H2 1219   6.201   3.720   0.145 -1.2917 -0.7428  1.6887
  419TIP3   OH2 1220   4.071   4.595   3.882  0.1658 -0.4383  0.3774
  419TIP3    H1 1221   4.099   4.683   3.858  0.2457 -0.3849  0.6669
  419TIP3    H2 1222   3.999   4.608   3.944  1.2179 -0.5576  1.6781
  420TIP3   OH2 1223   2.427   0.542   3.412 -0.2139 -0.4354  0.2027
  420TIP3    H1 1224   2.432   0.495   3.328  0.0473  0.1429 -0.1074
  420TIP3    H2 1225   2.334   0.541   3.434 -0.2960 -0.5105 -0.1422
  421TIP3   OH2 1226   2.108   0.026   1.676 -0.1622  0.2185  0.7176
  421TIP3    H1 1227   2.161   0.100   1.704  1.5772 -0.6761 -0.0846
  421TIP3    H2 1228   2.052   0.062   1.607  0.6298  0.8160  0.3701
  422TIP3   OH2 1229   6.267   2.415   0.575 -0.5410 -0.1051 -0.0996
  422TIP3    H1 1230   6.362   2.412   0.576 -0.5406 -0.1074  1.6252
  422TIP3    H2 1231   6.245   2.425   0.482  1.1282  0.0837 -0.5077
  423TIP3   OH2 1232   0.383   5.303   5.172 -1.1953  0.7053 -0.5735
  423TIP3    H1 1233   0.397   5.398   5.174 -0.5642  0.6223 -0.7569
  423TIP3    H2 1234   0.450   5.270   5.111  0.2214 -0.1215  1.3469
  424TIP3   OH2 1235   4.457   2.263   4.032  0.5714  0.5252 -0.5442
  424TIP3    H1 1236   4.423   2.350   4.054 -1.4573 -0.5139  0.7642
  424TIP3    H2 1237   4.502   2.235   4.112  1.6350  0.5303 -1.1230
  425TIP3   OH2 1238   5.061   3.331   0.198 -0.1427  0.0662  0.3543
  425TIP3    H1 1239   5.091   3.343   0.108 -0.9216  1.0015  0.2022
  425TIP3    H2 1240   5.000   3.258   0.193 -0.6786  0.5280 -0.0092
  426TIP3   OH2 1241   3.260   4.305   4.504  0.3764 -0.2886 -0.2088
  426TIP3    H1 1242   3.275   4.369   4.434  1.5535  0.6207  0.8349
  426TIP3    H2 1243   3.169   4.320   4.530  0.6401  1.0092  0.0499
  427TIP3   OH2 1244   4.434   5.193   3.838  0.1146 -0.4598 -0.4170
  427TIP3    H1 1245   4.465   5.281   3.817 -1.1928  0.3761  0.9880
  427TIP3    H2 1246   4.389   5.164   3.759  0.8675 -0.0283 -1.0177
  428TIP3   OH2 1247   6.625   0.946   4.692 -0.2937 -0.3601 -0.1510
  428TIP3    H1 1248   6.628   1.026   4.640 -2.9966  0.7314  1.1514
  428TIP3    H2 1249   6.669   0.969   4.774  0.5406 -0.8230 -0.4607
  429TIP3   OH2 1250   3.945   5.922   0.994  0.0960 -0.0592  0.1409
  429TIP3    H1 1251   4.003   5.846   1.002  0.3947  0.1821  0.2941
  429TIP3    H2 1252   3.873   5.903   1.055  0.5365  0.1090  0.7208
  430TIP3   OH2 1253   3.184   1.748   0.959 -0.2151 -0.3841 -0.9139
  430TIP3    H1 1254   3.213   1.732   1.048 -0.9408 -0.2358 -0.6466
  430TIP3    H2 1255   3.175   1.660   0.921  1.0012 -0.4298 -1.1571
  431TIP3   OH2 1256   2.934   3.748   5.605 -0.4495  0.1384 -0.1733
  431TIP3    H1 1257   3.000   3.729   5.538 -0.1431 -0.6379  0.3466
  431TIP3    H2 1258   2.979   3.806   5.667 -1.1383  2.0223 -1.3218
  432TIP3   OH2 1259   6.989   2.502   1.630 -0.0238  0.5320 -0.0306
  432TIP3    H1 1260   6.958   2.508   1.720 -0.8118 -0.0415 -0.2595
  432TIP3    H2 1261   6.951   2.579   1.587  0.0087  0.5766  0.0196
  433TIP3   OH2 1262   2.558   4.273   0.969 -0.6278 -0.1028 -0.8746
  433TIP3    H1 1263   2.640   4.323   0.973  0.4038 -1.7248 -0.5403
  433TIP3    H2 1264   2.574   4.197   1.026 -2.5710 -0.1992 -0.3800
  434TIP3   OH2 1265   3.043   6.382   2.556 -0.0955 -0.8662 -0.6247
  434TIP3    H1 1266   3.063   6.403   2.465  2.0128 -2.6837 -0.6655
  434TIP3    H2 1267   2.958   6.338   2.553 -0.9105  0.6959 -1.4359
  435TIP3   OH2 1268   2.058   2.682   1.387 -0.3392 -0.3393 -0.1417
  435TIP3    H1 1269   2.001   2.702   1.461 -1.1491  1.5441 -1.2015
  435TIP3    H2 1270   2.127   2.627   1.424 -1.7823 -1.0912  1.5779
  436TIP3   OH2 1271   2.618   2.399   1.560  0.1654  0.6609 -0.5355
  436TIP3    H1 1272   2.561   2.445   1.621 -0.2092  0.6715 -0.8896
  436TIP3    H2 1273   2.573   2.317   1.542  1.6032 -0.6201  1.3667
  437TIP3   OH2 1274   6.730   4.812   5.610 -0.1778 -0.3972 -0.2318
  437TIP3    H1 1275   6.695   4.819   5.698 -0.2565 -0.3454 -0.2665
  437TIP3    H2 1276   6.708   4.723   5.582 -2.9514  0.5198 -1.3626
  438TIP3   OH2 1277   5.962   1.284   3.741 -0.3229 -0.1556  0.4199
  438TIP3    H1 1278   5.911   1.328   3.810  1.0573  1.0036  0.7554
  438TIP3    H2 1279   6.023   1.228   3.789 -0.2854 -0.3916  0.0933
  439TIP3   OH2 1280   4.712   3.147   0.659 -0.1485 -0.2707 -0.3337
  439TIP3    H1 1281   4.736   3.189   0.742 -0.8536  0.0447 -0.2897
  439TIP3    H2 1282   4.665   3.214   0.610 -3.4722 -1.6289  0.7187
  440TIP3   OH2 1283   5.041   5.635   4.839  0.5420  0.0990  0.3747
  440TIP3    H1 1284   5.020   5.602   4.752 -4.6009  0.4486  1.1384
  440TIP3    H2 1285   5.013   5.564   4.898  1.0844  1.0265  1.7959
  441TIP3   OH2 1286   3.931   4.887   4.510 -0.3728 -0.3423  0.4979
  441TIP3    H1 1287   3.938   4.965   4.565 -0.9270  0.3715 -0.4136
  441TIP3    H2 1288   3.940   4.920   4.421 -0.9816 -1.2794  0.0784
  442TIP3   OH2 1289   5.453   0.073   5.159  0.2988  0.0319  0.1013
  442TIP3    H1 1290   5.514  -0.001   5.167 -2.0298 -1.8578  2.5649
  442TIP3    H2 1291   5.445   0.107   5.248 -0.0297  2.2119 -0.6932
  443TIP3   OH2 1292   6.304   6.013   4.770  0.2284 -0.4570 -0.1189
  443TIP3    H1 1293   6.399   6.020   4.771  0.3041 -0.8673 -1.6959
  443TIP3    H2 1294   6.285   5.935   4.821  0.6906 -0.0069  0.7501
  444TIP3   OH2 1295   5.638   3.051   3.296 -0.1544  0.0018 -0.1685
  444TIP3    H1 1296   5.620   3.091   3.381  2.4696  1.5127 -0.2288
  444TIP3    H2 1297   5.565   3.080   3.240 -1.4610 -0.3111  1.3004
  445TIP3   OH2 1298   0.580   1.457   3.897 -0.0444 -0.2574  0.6914
  445TIP3    H1 1299   0.573   1.402   3.820 -0.4160  0.5725  0.1208
  445TIP3    H2 1300   0.629   1.404   3.960  1.6849 -0.3503 -0.6498
  446TIP3   OH2 1301   2.858   4.219   2.038  0.4647  0.6417  0.3398
  446TIP3    H1 1302   2.803   4.262   2.104 -1.5282  0.6325 -1.2401
  446TIP3    H2 1303   2.924   4.172   2.089 -1.4801 -0.0313  2.3955
  447TIP3   OH2 1304   4.397   5.581  -0.011  0.0890 -0.3263 -0.1010
  447TIP3    H1 1305   4.398   5.566   0.083 -1.2264  0.5459  0.0678
  447TIP3    H2 1306   4.453   5.658  -0.023  1.4386 -1.2838 -0.2292
  448TIP3   OH2 1307   4.423   3.085   0.720 -0.1026 -0.2016  0.2043
  448TIP3    H1 1308   4.487   3.076   0.650  0.4161  2.0492  0.3185
  448TIP3    H2 1309   4.475   3.080   0.801 -0.4162 -0.7922  0.3720
  449TIP3   OH2 1310   3.947   3.188   0.110  0.3945  0.0900 -0.0791
  449TIP3    H1 1311   4.006   3.232   0.170  0.9048 -0.8754  0.1434
  449TIP3    H2 1312   3.868   3.172   0.161 -0.1953  1.6144 -0.4527
  450TIP3   OH2 1313   3.595   3.581   1.740 -0.1812  0.1190  0.1203
  450TIP3    H1 1314   3.555   3.668   1.740 -1.2230 -0.2516  3.4177
  450TIP3    H2 1315   3.639   3.574   1.825 -2.8014 -3.6656  1.4278
  451TIP3   OH2 1316   1.249   3.662   4.101  0.2924  0.1912  0.0515
  451TIP3    H1 1317   1.177   3.602   4.080 -2.1327  1.4204  3.7930
  451TIP3    H2 1318   1.327   3.606   4.106 -1.1442 -1.9600 -0.2466
  452TIP3   OH2 1319   5.267   2.502   1.687 -0.0148 -0.0348 -0.2594
  452TIP3    H1 1320   5.260   2.422   1.635 -0.2855 -1.2267  1.5153
  452TIP3    H2 1321   5.197   2.558   1.654 -2.1115 -1.9169  0.6586
  453TIP3   OH2 1322   5.566   6.027   3.170  0.3612 -0.1538 -0.3440
  453TIP3    H1 1323   5.634   6.061   3.112  1.3046  1.1178  1.4086
  453TIP3    H2 1324   5.606   5.950   3.210 -0.1725 -0.8428 -1.1008
  454TIP3   OH2 1325   1.573   6.519   4.974 -0.2247 -0.1964 -0.0673
  454TIP3    H1 1326   1.477   6.524   4.967 -0.2143  1.3872  0.4394
  454TIP3    H2 1327   1.589   6.498   5.065 -0.0906  0.3396  0.0368
  455TIP3   OH2 1328   6.888   3.215   2.330 -0.4684 -0.2240 -0.0111
  455TIP3    H1 1329   6.824   3.197   2.261  0.7220 -1.5266 -0.8303
  455TIP3    H2 1330   6.856   3.165   2.405 -0.9722 -0.0012 -0.0698
  456TIP3   OH2 1331   4.884   1.555   4.512 -0.3769  0.3130  0.0883
  456TIP3    H1 1332   4.882   1.569   4.607  0.0846  3.0135 -0.2207
  456TIP3    H2 1333   4.834   1.629   4.476 -1.2703 -1.1206 -1.7661
  457TIP3   OH2 1334   3.992   4.810   4.835 -0.5772 -0.1642 -0.6518
  457TIP3    H1 1335   3.979   4.738   4.897 -1.3380  1.2667  0.9202
  457TIP3    H2 1336   3.904   4.830   4.802 -0.6453  1.1440  0.2472
  458TIP3   OH2 1337   4.591   0.867   3.160  0.0507 -0.4003 -0.1492
  458TIP3    H1 1338   4.553   0.783   3.133  1.8962 -0.5985 -2.4967
  458TIP3    H2 1339   4.543   0.933   3.110 -0.9135 -0.0744  1.1550
  459TIP3   OH2 1340   5.613   6.746   4.547  0.1148 -0.6018  0.3140
  459TIP3    H1 1341   5.632   6.653   4.555 -1.5420 -1.0572 -0.5045
  459TIP3    H2 1342   5.523   6.749   4.513  0.8460  1.2441 -1.7059
  460TIP3   OH2 1343   2.040   4.046   2.965 -0.3114 -0.1361 -0.3389
  460TIP3    H1 1344   2.037   4.003   2.880  0.5172  0.0005 -0.4467
  460TIP3    H2 1345   2.000   4.132   2.949 -2.5966 -1.0673  0.0362
  461TIP3   OH2 1346   1.914   3.966   4.862 -0.9765  0.1039 -0.2754
  461TIP3    H1 1347   1.824   3.977   4.892 -1.1746 -1.5112 -0.1926
  461TIP3    H2 1348   1.911   3.987   4.769 -1.4234  0.1116 -0.2619
  462TIP3   OH2 1349   5.709   0.339   1.444  0.1860 -0.1533 -0.3830
  462TIP3    H1 1350   5.730   0.424   1.481 -0.3652 -0.3433  0.3944
  462TIP3    H2 1351   5.645   0.301   1.504  0.9706 -1.4315 -0.2945
  463TIP3   OH2 1352   2.988   6.596   4.804  0.2660 -0.3817 -0.0756
  463TIP3    H1 1353   3.070   6.633   4.773  0.7215 -0.6970  0.7332
  463TIP3    H2 1354   2.963   6.534   4.735  0.3984  0.1319 -0.5976
  464TIP3   OH2 1355   0.973   5.775   3.999 -0.2670 -0.3520  0.0602
  464TIP3    H1 1356   0.920   5.854   4.014  0.2941  0.4446 -1.8042
  464TIP3    H2 1357   0.909   5.705   3.990 -0.9496  0.3427 -0.7256
  465TIP3   OH2 1358   1.024   2.001   1.175  0.2629  0.3533  0.0372
  465TIP3    H1 1359   0.981   2.082   1.147 -0.1353  1.0745  2.4974
  465TIP3    H2 1360   1.111   2.005   1.136  0.6224  2.5197  0.9560
  466TIP3   OH2 1361   0.230   0.437   4.701  0.6774  0.0992 -0.1967
  466TIP3    H1 1362   0.148   0.414   4.657  0.3164  0.6696  0.1629
  466TIP3    H2 1363   0.288   0.463   4.630  0.2767  0.4895 -0.3885
  467TIP3   OH2 1364   6.832   1.392   4.718  0.2947 -0.6507 -0.4237
  467TIP3    H1 1365   6.780   1.444   4.778  3.1471  1.5430  0.3955
  467TIP3    H2 1366   6.810   1.425   4.631 -0.5031 -0.6077 -0.2106
  468TIP3   OH2 1367   6.501   3.947   5.043  0.2751 -0.1869  0.0100
  468TIP3    H1 1368   6.548   3.901   5.112 -0.4656 -0.6160  0.2500
  468TIP3    H2 1369   6.485   3.880   4.977 -0.9709 -0.3452  0.4428
  469TIP3   OH2 1370   2.707   0.695   5.599  0.2033  0.0703  0.2750
  469TIP3    H1 1371   2.617   0.727   5.614  0.2388 -0.1294  0.9313
  469TIP3    H2 1372   2.699   0.634   5.525 -0.4972 -1.2695  1.4201
  470TIP3   OH2 1373   2.260   4.180   1.532  0.2487 -0.4224 -0.2129
  470TIP3    H1 1374   2.351   4.176   1.562  0.9643  0.2030 -2.1300
  470TIP3    H2 1375   2.260   4.249   1.465 -1.6883 -0.2694 -0.1129
  471TIP3   OH2 1376   4.682   2.060   0.499  0.1431 -0.3838  0.4235
  471TIP3    H1 1377   4.595   2.021   0.498 -0.1569  0.2629  0.9375
  471TIP3    H2 1378   4.679   2.125   0.570 -0.5980  3.3114 -2.6185
  472TIP3   OH2 1379   2.785   3.593   4.292  0.2763  0.0561 -0.5968
  472TIP3    H1 1380   2.691   3.589   4.308  0.6548  1.1640  2.3968
  472TIP3    H2 1381   2.795   3.663   4.226 -0.9144  0.7062 -0.1087
  473TIP3   OH2 1382   0.293   6.126   4.386 -0.0234 -0.2730  0.1164
  473TIP3    H1 1383   0.338   6.210   4.391 -1.5292  0.6149 -0.3237
  473TIP3    H2 1384   0.332   6.083   4.310  1.3919 -0.3842  0.8831
  474TIP3   OH2 1385   6.650   5.922   5.625 -0.5938 -0.1791  0.2067
  474TIP3    H1 1386   6.632   6.013   5.599  2.9034  1.0110  1.4046
  474TIP3    H2 1387   6.691   5.884   5.547  1.0364  0.3844  0.7541
  475TIP3   OH2 1388   2.255   6.481   4.867 -0.1046 -0.3040 -0.2305
  475TIP3    H1 1389   2.283   6.411   4.927 -0.4553 -0.7980 -0.6341
  475TIP3    H2 1390   2.195   6.438   4.806 -1.1024  0.5538  0.1084
  476TIP3   OH2 1391   1.884   5.937   2.692 -0.5213 -0.2363  0.0883
  476TIP3    H1 1392   1.932   6.020   2.698  1.2069 -1.1424 -0.6143
  476TIP3    H2 1393   1.937   5.875   2.742 -1.4182 -1.1011 -0.0072
  477TIP3   OH2 1394   6.167   5.392   1.774 -0.7594  0.2811  0.1701
  477TIP3    H1 1395   6.212   5.437   1.845  0.5306  0.4865 -0.7461
  477TIP3    H2 1396   6.214   5.309   1.765 -1.9449 -0.4533  0.6173
  478TIP3   OH2 1397   4.039   2.714   2.727  0.6384  0.0963  0.2469
  478TIP3    H1 1398   4.045   2.621   2.748  1.9361 -0.4027 -2.0801
  478TIP3    H2 1399   3.977   2.719   2.655  1.8516  0.7871 -0.7870
  479TIP3   OH2 1400   0.985   4.463   2.830  0.2282  0.4979 -0.1292
  479TIP3    H1 1401   0.960   4.401   2.761  1.1481  0.2692 -0.2671
  479TIP3    H2 1402   0.913   4.526   2.833 -1.4141 -1.3047  0.9243
  480TIP3   OH2 1403   5.904   3.644   5.505  0.0262 -0.0201 -0.1464
  480TIP3    H1 1404   5.962   3.705   5.552 -0.6695  0.7891 -0.2993
  480TIP3    H2 1405   5.925   3.558   5.541  1.5507  0.1996 -0.4368
  481TIP3   OH2 1406   5.918   4.713   0.024  0.0667 -0.2237  0.5157
  481TIP3    H1 1407   5.960   4.798   0.017  1.0212 -0.6305  1.1302
  481TIP3    H2 1408   5.841   4.729   0.079 -1.5193  0.8229 -1.8330
  482TIP3   OH2 1409   3.622   0.717   4.070 -0.0821 -0.2057  0.3788
  482TIP3    H1 1410   3.582   0.784   4.126  1.2401  1.3795 -0.4667
  482TIP3    H2 1411   3.625   0.757   3.984 -0.9438 -2.1203 -0.5951
  483TIP3   OH2 1412   1.864   2.275   4.582  0.4798 -0.0117  0.0789
  483TIP3    H1 1413   1.850   2.267   4.488 -0.7010  1.4973  0.0934
  483TIP3    H2 1414   1.918   2.353   4.592  0.2539  0.0771  0.6717
  484TIP3   OH2 1415   5.140   5.827   3.114 -0.0161  0.0859 -0.5321
  484TIP3    H1 1416   5.062   5.792   3.158  1.4902 -1.2464  1.2286
  484TIP3    H2 1417   5.129   5.803   3.022 -0.5805 -2.1995  0.0830
  485TIP3   OH2 1418   4.316   5.950   4.536 -0.5547  0.2460  0.1553
  485TIP3    H1 1419   4.281   5.978   4.451  1.6821  1.0551 -0.5627
  485TIP3    H2 1420   4.281   5.861   4.547  0.1645 -0.4180 -2.2794
  486TIP3   OH2 1421   7.211   0.581   5.417  0.3645  0.6289 -0.3027
  486TIP3    H1 1422   7.181   0.493   5.439  0.3886  1.2353  2.5286
  486TIP3    H2 1423   7.192   0.590   5.324 -0.3339 -2.0781 -0.5049
  487TIP3   OH2 1424   5.663   2.880   1.679 -0.4707  0.1822 -0.0845
  487TIP3    H1 1425   5.614   2.958   1.705  2.0495  1.7510  0.3263
  487TIP3    H2 1426   5.673   2.888   1.584  1.3653  1.4294  0.1701
  488TIP3   OH2 1427   0.266   6.492   3.541 -0.1876  0.6948  0.5637
  488TIP3    H1 1428   0.352   6.521   3.511  0.7326 -0.6218  1.7826
  488TIP3    H2 1429   0.222   6.462   3.462  0.0468  2.3424 -0.2294
  489TIP3   OH2 1430   2.641   2.072   4.791 -0.0295 -0.0914 -0.1577
  489TIP3    H1 1431   2.722   2.052   4.837 -0.0757  0.4533  0.1705
  489TIP3    H2 1432   2.646   2.021   4.710 -0.4652 -1.9509  0.9463
  490TIP3   OH2 1433   4.347   6.769   1.878 -0.2288  0.2590 -0.1546
  490TIP3    H1 1434   4.321   6.722   1.957 -0.0448 -0.3553 -0.4547
  490TIP3    H2 1435   4.307   6.856   1.887 -0.8614 -0.0673  0.2407
  491TIP3   OH2 1436   6.432   6.380   2.965  0.0205 -0.4729 -0.2903
  491TIP3    H1 1437   6.513   6.427   2.945  0.7456 -1.4021  0.3584
  491TIP3    H2 1438   6.455   6.288   2.954 -0.5307 -0.8278  1.3560
  492TIP3   OH2 1439   4.828   5.271   4.191 -0.3777 -0.1103  0.0900
  492TIP3    H1 1440   4.869   5.210   4.129  2.1007  2.2489 -0.8163
  492TIP3    H2 1441   4.901   5.306   4.242 -1.5195  2.6019  0.0417
  493TIP3   OH2 1442   4.762   1.223   2.849 -0.0726  0.8585  0.2122
  493TIP3    H1 1443   4.830   1.160   2.828 -1.0891 -0.1343 -0.1693
  493TIP3    H2 1444   4.685   1.170   2.871 -0.4176  1.9313  1.7757
  494TIP3   OH2 1445   4.630   3.553   5.508 -0.1795 -0.6908 -0.2451
  494TIP3    H1 1446   4.567   3.618   5.539  0.3791 -0.3788  0.2766
  494TIP3    H2 1447   4.704   3.604   5.475  0.3967 -1.0491  0.4515
  495TIP3   OH2 1448   0.777   0.404   3.281  0.4241 -0.0636 -0.3278
  495TIP3    H1 1449   0.778   0.368   3.193 -0.6661  1.6769 -1.1178
  495TIP3    H2 1450   0.817   0.337   3.336  2.5599 -0.5736 -2.3684
  496TIP3   OH2 1451   4.318   4.356   0.498  0.4059 -0.3848  0.3689
  496TIP3    H1 1452   4.377   4.379   0.427  0.8983 -0.7155  0.6702
  496TIP3    H2 1453   4.295   4.441   0.538  0.1754 -0.2048 -0.1351
  497TIP3   OH2 1454   0.967   2.858   2.753  0.2793 -0.6025 -0.0897
  497TIP3    H1 1455   1.018   2.885   2.677 -2.9125 -0.0671 -2.2536
  497TIP3    H2 1456   1.012   2.898   2.828  2.1092  1.0740 -1.9545
  498TIP3   OH2 1457   2.830   1.069   5.196  0.2137  0.2066  0.2856
  498TIP3    H1 1458   2.872   0.986   5.218 -0.1968 -0.0992 -0.0883
  498TIP3    H2 1459   2.748   1.045   5.153  0.1554  0.8043  0.0471
  499TIP3   OH2 1460   4.692   0.877   2.263 -0.3054 -0.4239  0.3651
  499TIP3    H1 1461   4.758   0.937   2.299  0.7283 -0.5293 -1.2623
  499TIP3    H2 1462   4.628   0.933   2.221 -0.6002 -0.3724  0.8781
  500TIP3   OH2 1463   2.575   6.412   5.835 -0.6832 -0.4476 -0.2086
  500TIP3    H1 1464   2.500   6.385   5.783 -1.2023 -1.6776  1.0935
  500TIP3    H2 1465   2.651   6.395   5.779 -1.2882 -0.4426 -1.0503
  501TIP3   OH2 1466   6.772   2.607   5.637  0.1387 -0.1959  0.0326
  501TIP3    H1 1467   6.745   2.697   5.656  1.2646  0.3695 -0.8905
  501TIP3    H2 1468   6.692   2.563   5.610 -0.0925  1.1101 -1.5477
  502TIP3   OH2 1469   0.528   6.331   4.487  0.5320  0.5177  0.7673
  502TIP3    H1 1470   0.539   6.419   4.452 -0.7500 -0.3974 -2.2260
  502TIP3    H2 1471   0.601   6.281   4.451 -0.3039 -0.2496  0.0782
  503TIP3   OH2 1472   1.235   0.054   3.890 -0.0513  0.2031  0.0660
  503TIP3    H1 1473   1.244  -0.024   3.835 -0.8278  0.0894  0.0926
  503TIP3    H2 1474   1.187   0.116   3.835  0.8333  0.7850 -0.0693
  504TIP3   OH2 1475   0.553   4.932   0.270  0.4300  0.2324  0.0081
  504TIP3    H1 1476   0.646   4.926   0.250  1.4610  1.0078  3.7612
  504TIP3    H2 1477   0.536   4.856   0.326 -0.9748  0.5563  0.0565
  505TIP3   OH2 1478   6.928   0.636   1.759 -0.4721  0.0160  0.0035
  505TIP3    H1 1479   6.947   0.663   1.849 -1.1928 -0.6978  0.3898
  505TIP3    H2 1480   6.840   0.670   1.742 -1.5414 -2.1901  0.6133
  506TIP3   OH2 1481   6.885   5.798   1.949  0.8591 -0.4471 -0.1981
  506TIP3    H1 1482   6.963   5.748   1.927  1.2648  0.5660 -1.1924
  506TIP3    H2 1483   6.827   5.786   1.874  0.5822 -0.1976 -0.0258
  507TIP3   OH2 1484   5.282   1.213   2.586  0.3142  0.0047 -0.1536
  507TIP3    H1 1485   5.269   1.120   2.604  0.3846 -0.3428 -1.7692
  507TIP3    H2 1486   5.193   1.248   2.577  0.2987 -0.3386 -1.5092
  508TIP3   OH2 1487   3.637   3.746   3.539 -0.0571 -0.1018 -0.7898
  508TIP3    H1 1488   3.719   3.750   3.489  0.8506 -1.5238  0.5200
  508TIP3    H2 1489   3.608   3.655   3.529 -0.3297 -0.1677  0.5378
  509TIP3   OH2 1490   6.580   2.983   5.343  0.2006 -0.1684  0.1770
  509TIP3    H1 1491   6.655   2.986   5.403 -0.3169 -0.6123  0.8535
  509TIP3    H2 1492   6.538   3.069   5.352  1.6797  0.8387 -1.6213
  510TIP3   OH2 1493   1.083   6.443   1.442 -0.1385  0.2467  0.0493
  510TIP3    H1 1494   1.102   6.376   1.377  0.7775  1.3206 -0.8145
  510TIP3    H2 1495   1.169   6.479   1.466 -0.7447  2.7620 -1.3014
  511TIP3   OH2 1496   2.083   4.697   1.064 -0.0169  0.1000  0.0192
  511TIP3    H1 1497   2.005   4.658   1.104  0.0728  0.3242  0.4162
  511TIP3    H2 1498   2.065   4.791   1.065  0.4369  0.1861  0.4986
  512TIP3   OH2 1499   0.011   0.934   1.635  0.0322  0.3154  0.2219
  512TIP3    H1 1500   0.051   0.883   1.564  0.9190  0.1624  0.8151
  512TIP3    H2 1501   0.061   1.015   1.637  0.5784 -0.0306  1.2168
  513TIP3   OH2 1502   4.008   0.298   2.123  0.6291  0.1607 -0.2281
  513TIP3    H1 1503   4.031   0.242   2.048 -0.1264 -1.3039  0.5972
  513TIP3    H2 1504   3.967   0.239   2.186  1.5890  1.2847  1.5378
  514TIP3   OH2 1505   2.938   2.852   1.278 -0.6923 -0.0344  0.2066
  514TIP3    H1 1506   2.867   2.916   1.276  1.0846  2.0380  0.1407
  514TIP3    H2 1507   3.003   2.886   1.217  0.7049 -1.4451  0.8453
  515TIP3   OH2 1508   5.496   4.056   1.069  0.3167 -0.4114 -0.0004
  515TIP3    H1 1509   5.501   4.126   1.004 -0.8901 -0.4998 -0.2060
  515TIP3    H2 1510   5.404   4.055   1.097  0.1359 -2.3681 -0.5283
  516TIP3   OH2 1511   5.662   2.660   5.248 -0.0798 -0.3024 -0.1560
  516TIP3    H1 1512   5.647   2.677   5.341  1.9026 -0.5979  0.2571
  516TIP3    H2 1513   5.574   2.653   5.211 -0.9488 -1.7611  1.9644
  517TIP3   OH2 1514   5.802   6.126   2.627  0.0319  0.2270  0.0948
  517TIP3    H1 1515   5.842   6.200   2.580 -1.1999  0.4353 -0.6864
  517TIP3    H2 1516   5.864   6.055   2.617  1.2928  1.1756  0.9393
  518TIP3   OH2 1517   2.436   4.527   3.667  0.3136  0.0166 -0.6306
  518TIP3    H1 1518   2.495   4.494   3.734 -0.6155 -0.5076 -0.0408
  518TIP3    H2 1519   2.401   4.449   3.625 -0.2260  0.3048 -0.7259
  519TIP3   OH2 1520   1.558   0.174   2.981  0.4782  0.2024 -0.2250
  519TIP3    H1 1521   1.467   0.172   2.952  0.1910  0.6507  0.6071
  519TIP3    H2 1522   1.603   0.111   2.925 -0.5260 -0.6909 -0.0462
  520TIP3   OH2 1523   6.793   3.380   3.419  0.8248 -0.1969 -0.2604
  520TIP3    H1 1524   6.859   3.353   3.354 -0.3101 -1.5176 -0.9139
  520TIP3    H2 1525   6.825   3.344   3.502  1.0619 -0.5987 -0.5220
  521TIP3   OH2 1526   6.395   0.139   3.055 -0.2155 -0.7310  0.0135
  521TIP3    H1 1527   6.354   0.226   3.057 -1.1662 -1.1345 -0.9652
  521TIP3    H2 1528   6.328   0.082   3.018  0.8998 -1.6061 -0.7195
  522TIP3   OH2 1529   2.480   1.076   5.690  0.5285 -0.5578  0.7020
  522TIP3    H1 1530   2.552   1.063   5.752  0.6617 -1.8062  0.3179
  522TIP3    H2 1531   2.413   1.121   5.741  0.4238 -2.0024  1.9335
  523TIP3   OH2 1532   0.326   1.389   2.041 -0.6516  0.1981  0.0858
  523TIP3    H1 1533   0.308   1.313   2.097  1.2552  1.0426  1.9776
  523TIP3    H2 1534   0.313   1.357   1.952 -1.6283 -1.8409  0.9070
  524TIP3   OH2 1535   4.181   3.789   0.590 -0.0921 -0.7590  0.0854
  524TIP3    H1 1536   4.225   3.874   0.598 -0.1518 -0.5739 -1.3170
  524TIP3    H2 1537   4.195   3.763   0.499 -1.5875 -1.4196  0.0168
  525TIP3   OH2 1538   1.305   6.519   5.119 -0.1392  0.4394  0.7489
  525TIP3    H1 1539   1.359   6.582   5.167  1.0820 -1.0253  1.4062
  525TIP3    H2 1540   1.216   6.534   5.150  0.1886  1.5555  1.1868
  526TIP3   OH2 1541   3.375   4.926   4.094  0.1075 -0.1691  0.1258
  526TIP3    H1 1542   3.371   4.851   4.153  0.6983  0.1248  0.5441
  526TIP3    H2 1543   3.368   5.002   4.151 -0.4149  0.1020 -0.2903
  527TIP3   OH2 1544   3.864   4.698   1.320  0.1173  0.1038  0.2597
  527TIP3    H1 1545   3.789   4.755   1.337 -0.4311  0.2031 -2.1075
  527TIP3    H2 1546   3.841   4.615   1.360 -1.5328 -0.0112 -0.8373
  528TIP3   OH2 1547   5.461   4.285   4.971  0.1620  0.6032 -0.0025
  528TIP3    H1 1548   5.426   4.196   4.972 -1.6416  1.2476  2.1117
  528TIP3    H2 1549   5.544   4.280   5.019  0.9347 -0.1996 -1.3785
  529TIP3   OH2 1550   4.906   3.785   3.875  0.0499  0.3074  0.0614
  529TIP3    H1 1551   4.929   3.873   3.905 -1.0472  0.2726  1.1002
  529TIP3    H2 1552   4.827   3.797   3.823 -0.7149 -0.1477  1.0745
  530TIP3   OH2 1553   7.075   4.939   4.683 -0.0060  0.5287  0.4240
  530TIP3    H1 1554   7.051   5.029   4.661  0.9947  0.8403  0.5822
  530TIP3    H2 1555   7.052   4.931   4.776 -0.9089  0.3309  0.1973
  531TIP3   OH2 1556   4.397   6.678   0.131  0.3649  0.4673  0.4348
  531TIP3    H1 1557   4.365   6.693   0.220 -0.1484  0.8128  0.2032
  531TIP3    H2 1558   4.478   6.629   0.142  0.0859  0.1308  1.0746
  532TIP3   OH2 1559   6.520   4.287   3.304 -0.2185 -0.5888  0.2519
  532TIP3    H1 1560   6.597   4.247   3.263  0.1279 -1.3390  1.5716
  532TIP3    H2 1561   6.492   4.223   3.369 -2.1545 -0.4481 -0.4010
  533TIP3   OH2 1562   2.656   4.399   3.252  0.2450 -0.0808  0.5566
  533TIP3    H1 1563   2.750   4.411   3.264  0.3454  0.2340 -0.5170
  533TIP3    H2 1564   2.631   4.463   3.186 -0.6443 -0.4629  0.5032
  534TIP3   OH2 1565   2.859   1.255   1.006  0.2373 -0.8592 -0.9088
  534TIP3    H1 1566   2.934   1.261   1.066 -0.1498 -1.7050 -0.3144
  534TIP3    H2 1567   2.789   1.302   1.051  0.5551  0.4849 -1.7495
  535TIP3   OH2 1568   6.403   0.215   5.168 -0.0134 -0.3412 -0.0632
  535TIP3    H1 1569   6.470   0.201   5.235 -0.3304  2.3971  0.9596
  535TIP3    H2 1570   6.448   0.265   5.099 -0.2663 -1.1494 -0.8311
  536TIP3   OH2 1571   5.535   2.655   0.365  0.1295 -0.0219  0.1673
  536TIP3    H1 1572   5.445   2.651   0.396 -0.4237 -0.2807 -1.3910
  536TIP3    H2 1573   5.563   2.744   0.385 -0.1764 -0.1856  1.4018
  537TIP3   OH2 1574   6.962   0.132   3.687  0.4325 -0.0932  0.1388
  537TIP3    H1 1575   7.044   0.182   3.692  0.4935 -0.1132 -0.5076
  537TIP3    H2 1576   6.895   0.191   3.721  0.2018  1.1680 -2.2624
  538TIP3   OH2 1577   4.901   4.080   1.430 -0.0389  0.3792 -0.3816
  538TIP3    H1 1578   4.981   4.100   1.479  0.4588  0.3381 -1.1691
  538TIP3    H2 1579   4.835   4.139   1.467 -0.0131 -0.5568  1.2420
  539TIP3   OH2 1580   1.298   1.007   1.229 -0.0665 -0.6160  0.3429
  539TIP3    H1 1581   1.270   0.916   1.236  1.2000 -1.1682 -1.2584
  539TIP3    H2 1582   1.237   1.055   1.285 -1.3210 -2.3180  0.5056
  540TIP3   OH2 1583   2.600   2.669   3.472  0.3422  0.0772  0.1470
  540TIP3    H1 1584   2.675   2.610   3.464  1.7436  1.6923  0.7782
  540TIP3    H2 1585   2.620   2.722   3.549 -1.9553 -0.1036  0.9459
  541TIP3   OH2 1586   1.368   1.225   1.777 -0.3472 -0.5703  0.0690
  541TIP3    H1 1587   1.378   1.309   1.733  0.3515 -0.1306  1.0297
  541TIP3    H2 1588   1.435   1.225   1.845 -0.5860 -1.7478  0.3376
  542TIP3   OH2 1589   1.119   6.271   4.231  0.2134 -0.6106  0.0428
  542TIP3    H1 1590   1.161   6.267   4.316 -1.3796  0.2025  0.9104
  542TIP3    H2 1591   1.167   6.208   4.177  2.4577  0.2394  0.9545
  543TIP3   OH2 1592   1.017   2.097   4.143 -0.1314 -0.3074 -0.0241
  543TIP3    H1 1593   1.022   2.129   4.233  0.3068 -0.6711  0.0838
  543TIP3    H2 1594   1.026   2.002   4.151  1.4674 -0.2319 -0.5679
  544TIP3   OH2 1595   0.961   2.798   2.437  0.6590  0.0446 -0.3416
  544TIP3    H1 1596   0.987   2.888   2.456  0.5361  0.1664 -0.7473
  544TIP3    H2 1597   1.042   2.747   2.447  0.9185  0.3279 -0.9630
  545TIP3   OH2 1598   0.534   1.430   5.009  0.4001  0.4616 -0.1283
  545TIP3    H1 1599   0.531   1.492   4.936  1.0501  2.6110  1.5756
  545TIP3    H2 1600   0.476   1.468   5.075  0.1254 -1.2398  0.6633
  546TIP3   OH2 1601   4.678   2.871   3.583  0.2220  0.0353  0.1646
  546TIP3    H1 1602   4.714   2.867   3.672  0.2996 -0.9016  0.1038
  546TIP3    H2 1603   4.754   2.887   3.527 -0.0335  2.3433  0.3796
  547TIP3   OH2 1604   1.055   5.017   2.262 -0.0954 -0.7175  0.0334
  547TIP3    H1 1605   0.965   5.016   2.297 -0.2780 -0.4906 -0.4209
  547TIP3    H2 1606   1.071   4.927   2.235 -0.0570 -0.8343  0.4379
  548TIP3   OH2 1607   1.900   5.019   2.622 -0.5816  0.3352  0.3335
  548TIP3    H1 1608   1.937   4.984   2.541 -1.4411 -0.0555  0.0971
  548TIP3    H2 1609   1.901   5.114   2.611 -1.3662  0.2641 -0.4517
  549TIP3   OH2 1610   2.006   0.322   5.867 -0.4156  0.0716  0.3717
  549TIP3    H1 1611   2.058   0.243   5.883 -1.8388 -0.7549  1.0122
  549TIP3    H2 1612   2.005   0.331   5.771  0.4459 -0.1940  0.3308
  550TIP3   OH2 1613   1.162   1.912   2.764  0.3490 -0.3250  0.4679
  550TIP3    H1 1614   1.213   1.868   2.832  0.1082  2.0575  2.3274
  550TIP3    H2 1615   1.208   1.994   2.748 -1.3274  0.5894  0.0976
  551TIP3   OH2 1616   2.788   0.151   5.780  0.4470 -0.2661 -0.0156
  551TIP3    H1 1617   2.872   0.157   5.826 -0.1209  0.1399  0.9862
  551TIP3    H2 1618   2.755   0.241   5.780 -1.0156 -0.7643  1.5479
  552TIP3   OH2 1619   5.514   6.784   2.713  0.4989 -0.0721  0.4579
  552TIP3    H1 1620   5.477   6.700   2.684  0.7886  0.1048 -0.4681
  552TIP3    H2 1621   5.600   6.762   2.749  1.1378 -0.0609 -0.9615
  553TIP3   OH2 1622   5.944   2.427   4.184  0.3873 -0.3000  0.4695
  553TIP3    H1 1623   6.005   2.481   4.234 -1.2192  1.3356  0.7778
  553TIP3    H2 1624   5.924   2.354   4.242  2.5971 -1.3123  0.0511
  554TIP3   OH2 1625   0.544   0.165   4.105  0.2217 -0.0163  0.5877
  554TIP3    H1 1626   0.506   0.246   4.071 -1.8590 -0.8301  0.8197
  554TIP3    H2 1627   0.632   0.190   4.135 -0.3991  2.1619  0.7447
  555TIP3   OH2 1628   1.215   6.029   3.605  0.5280  0.0117 -0.2223
  555TIP3    H1 1629   1.154   6.070   3.667  1.7844 -0.2099  1.2302
  555TIP3    H2 1630   1.175   5.945   3.584  0.3270 -0.1436  0.7257
  556TIP3   OH2 1631   1.430   3.329  -0.006 -0.2010  0.9071 -0.0853
  556TIP3    H1 1632   1.465   3.241  -0.023 -2.2747 -0.0568  0.3434
  556TIP3    H2 1633   1.461   3.350   0.082 -0.7022  0.0490  0.3110
  557TIP3   OH2 1634   5.926   2.151   2.786  0.0982 -0.0856  0.0324
  557TIP3    H1 1635   5.884   2.123   2.704  1.5587 -0.1247 -0.7364
  557TIP3    H2 1636   5.900   2.242   2.797 -0.3929 -0.1847 -0.2983
  558TIP3   OH2 1637   3.720   3.272   4.366  0.3816 -0.0749  0.0751
  558TIP3    H1 1638   3.759   3.342   4.314  0.9211  0.5673  1.3098
  558TIP3    H2 1639   3.716   3.197   4.306 -0.4534  1.0620 -1.3510
  559TIP3   OH2 1640   4.327   0.858   1.106  0.0690  0.1719  0.3724
  559TIP3    H1 1641   4.320   0.903   1.022 -0.8385 -0.8790 -0.1463
  559TIP3    H2 1642   4.421   0.842   1.117  0.1667 -0.0449 -0.6483
  560TIP3   OH2 1643   5.066   4.086   2.815 -0.6000  0.2141 -0.4409
  560TIP3    H1 1644   5.151   4.094   2.772  0.5833  0.1706  1.7359
  560TIP3    H2 1645   5.082   4.027   2.889 -2.0725  1.6254  1.0799
  561TIP3   OH2 1646   0.701   3.423   5.658  0.6760  0.0516  0.3760
  561TIP3    H1 1647   0.637   3.414   5.729  0.6407 -1.8737  0.1456
  561TIP3    H2 1648   0.648   3.425   5.578  0.8092  0.5205  0.2967
  562TIP3   OH2 1649   4.251   2.902   3.254  0.2128  0.2814 -0.0284
  562TIP3    H1 1650   4.238   2.883   3.161  0.0607  0.8093 -0.1212
  562TIP3    H2 1651   4.343   2.882   3.270  0.2684  0.2878 -0.3194
  563TIP3   OH2 1652   1.388   2.441   2.384  0.0646 -0.1172  0.2807
  563TIP3    H1 1653   1.438   2.514   2.422 -1.3767  1.2713 -0.3834
  563TIP3    H2 1654   1.449   2.367   2.387  0.9982  0.6403  2.5808
  564TIP3   OH2 1655   5.088   5.724   2.830  0.1522 -0.4975 -0.7261
  564TIP3    H1 1656   5.105   5.718   2.736  1.4523  2.4152 -0.7878
  564TIP3    H2 1657   5.020   5.792   2.837  1.5997  0.9137  0.4666
  565TIP3   OH2 1658   1.703   4.734   0.421 -0.0103 -0.0392 -0.4483
  565TIP3    H1 1659   1.654   4.748   0.341  0.6916 -0.3360 -0.9423
  565TIP3    H2 1660   1.751   4.652   0.406  1.8564  1.0275 -0.6348
  566TIP3   OH2 1661   2.561   5.663   4.244 -0.2754  0.5158 -0.6032
  566TIP3    H1 1662   2.593   5.604   4.312 -1.5252  0.0739 -0.3739
  566TIP3    H2 1663   2.548   5.607   4.168 -0.5915  0.6663 -0.6613
  567TIP3   OH2 1664   4.625   2.700   1.211 -0.3580 -0.6345 -0.3718
  567TIP3    H1 1665   4.589   2.659   1.290 -1.5956  1.3514  0.1652
  567TIP3    H2 1666   4.688   2.764   1.244  1.2848 -1.7635 -1.1807
  568TIP3   OH2 1667   6.377   2.397   5.103  0.1698  0.2615  0.1957
  568TIP3    H1 1668   6.339   2.376   5.188 -1.4153  0.9979 -0.2846
  568TIP3    H2 1669   6.446   2.460   5.122  0.7616 -0.6324  1.0506
  569TIP3   OH2 1670   6.675   6.478   3.448 -0.6938  0.1653  0.2111
  569TIP3    H1 1671   6.737   6.415   3.409 -0.3824 -0.1938  1.2653
  569TIP3    H2 1672   6.589   6.438   3.433 -0.4597 -0.8705  1.4485
  570TIP3   OH2 1673   6.526   1.366   0.122 -0.2489 -0.0351  0.9123
  570TIP3    H1 1674   6.593   1.371   0.054  1.5747 -2.7213  2.3137
  570TIP3    H2 1675   6.551   1.433   0.186  0.1997  0.0498  0.6519
  571TIP3   OH2 1676   5.532   4.850   0.384  0.1945  0.1162 -1.3857
  571TIP3    H1 1677   5.573   4.926   0.343 -0.8592  1.4284 -0.1208
  571TIP3    H2 1678   5.440   4.875   0.395  0.2983 -0.3412  1.2295
  572TIP3   OH2 1679   6.564   2.640   2.784 -0.2139 -0.4189  0.3040
  572TIP3    H1 1680   6.547   2.683   2.868  1.6130  0.2675  0.3631
  572TIP3    H2 1681   6.563   2.711   2.720  1.9445 -0.3548  0.2801
  573TIP3   OH2 1682   2.068   1.313   0.831 -0.1618 -0.3904  0.0914
  573TIP3    H1 1683   2.124   1.256   0.884  0.2357 -0.6113 -0.5540
  573TIP3    H2 1684   2.100   1.301   0.741  0.8874  1.8919  0.0733
  574TIP3   OH2 1685   1.757   5.257   3.459  0.2109 -0.2363  0.5034
  574TIP3    H1 1686   1.725   5.301   3.538 -1.6003 -0.3875 -0.1013
  574TIP3    H2 1687   1.710   5.174   3.457 -0.6037  0.2163 -1.2720
  575TIP3   OH2 1688   3.454   4.652   3.772 -0.2248 -0.3053 -0.1484
  575TIP3    H1 1689   3.494   4.566   3.783 -0.7494 -0.6172 -0.6442
  575TIP3    H2 1690   3.502   4.693   3.701  0.2819 -0.0258  0.3453
  576TIP3   OH2 1691   5.801   5.436   2.965 -0.1411  0.1675  0.3105
  576TIP3    H1 1692   5.761   5.523   2.957  0.3713  0.3810 -0.0541
  576TIP3    H2 1693   5.846   5.424   2.881 -0.0685 -0.3772  0.4290
  577TIP3   OH2 1694   5.989   2.600   3.932  0.2125  0.2543 -0.0216
  577TIP3    H1 1695   6.008   2.564   3.845  0.7076  0.2340  0.0905
  577TIP3    H2 1696   6.075   2.610   3.972 -0.0603 -0.4363  0.7485
  578TIP3   OH2 1697   5.093   4.137   1.240  0.1616  0.3497 -0.1330
  578TIP3    H1 1698   5.008   4.120   1.280  1.1026  0.0553  1.8319
  578TIP3    H2 1699   5.151   4.155   1.313  2.0064 -0.3125 -1.3654
  579TIP3   OH2 1700   2.834   3.013   0.242 -0.1006  0.3458 -0.8651
  579TIP3    H1 1701   2.886   2.933   0.242  1.1876  1.1458  0.2688
  579TIP3    H2 1702   2.752   2.989   0.287 -0.1728 -0.5796 -1.4726
  580TIP3   OH2 1703   6.662   0.825   1.360  0.2233 -0.1540  0.1957
  580TIP3    H1 1704   6.689   0.827   1.268  0.9240  1.2211  0.4173
  580TIP3    H2 1705   6.586   0.883   1.364 -0.1627 -0.6595  0.3908
  581TIP3   OH2 1706   2.354   5.261   3.349 -0.0561 -1.1020 -0.0467
  581TIP3    H1 1707   2.352   5.165   3.351  1.3636 -1.1613  0.2407
  581TIP3    H2 1708   2.435   5.283   3.395 -0.0829  0.2189 -0.6022
  582TIP3   OH2 1709   5.382   6.535   3.404  0.8981 -0.3318  0.7220
  582TIP3    H1 1710   5.393   6.630   3.413  2.0550 -0.1811 -1.5585
  582TIP3    H2 1711   5.296   6.524   3.364  1.2729 -0.1335 -0.1613
  583TIP3   OH2 1712   7.069   2.223   5.627  0.7230 -0.3048 -0.3297
  583TIP3    H1 1713   7.164   2.235   5.635  0.5105  1.3437  0.0588
  583TIP3    H2 1714   7.051   2.245   5.535  0.8192 -1.5897 -0.6778
  584TIP3   OH2 1715   6.664   2.927   1.779 -0.1198 -0.3937  0.2030
  584TIP3    H1 1716   6.642   2.902   1.868 -0.7362 -1.2994 -0.1851
  584TIP3    H2 1717   6.595   2.887   1.725  0.9878 -1.0480 -0.7941
  585TIP3   OH2 1718   5.514   1.754   0.177  0.1595  0.6651 -0.2616
  585TIP3    H1 1719   5.540   1.667   0.208 -2.8778 -0.3908 -0.2643
  585TIP3    H2 1720   5.450   1.737   0.108 -0.0096  2.9378 -0.7618
  586TIP3   OH2 1721   4.665   5.956   4.280 -0.0397 -0.5313 -0.5480
  586TIP3    H1 1722   4.602   5.895   4.241 -0.9204 -0.4729  0.7047
  586TIP3    H2 1723   4.714   5.991   4.206 -0.8971 -1.2472 -1.4815
  587TIP3   OH2 1724   7.093   4.209   4.659 -0.0476 -0.2507 -0.4032
  587TIP3    H1 1725   7.113   4.194   4.566  0.0136  2.0673 -0.8101
  587TIP3    H2 1726   7.051   4.128   4.687  0.8236 -1.3984 -2.1804
  588TIP3   OH2 1727   1.697   2.136   3.923  0.2204 -0.3065  0.3844
  588TIP3    H1 1728   1.686   2.057   3.870 -0.2486  0.2962 -0.4484
  588TIP3    H2 1729   1.733   2.105   4.006  0.8626 -1.2852 -0.2478
  589TIP3   OH2 1730   4.684   1.945   1.494 -0.1797  0.1366  0.9778
  589TIP3    H1 1731   4.691   1.852   1.519 -1.8366 -0.7646 -1.5364
  589TIP3    H2 1732   4.746   1.956   1.423 -1.1854  0.4873  0.1302
  590TIP3   OH2 1733   6.517   2.048   2.107 -0.0896  0.2912  0.1438
  590TIP3    H1 1734   6.508   2.136   2.144  1.7514  1.1650 -1.3196
  590TIP3    H2 1735   6.435   2.032   2.061 -0.1890  1.5547 -0.1562
  591TIP3   OH2 1736   5.269   5.586   1.680 -0.6433  0.1657  0.0498
  591TIP3    H1 1737   5.251   5.629   1.764 -1.3746 -0.7998  0.4149
  591TIP3    H2 1738   5.182   5.570   1.643 -0.4273 -1.2889  0.1008
  592TIP3   OH2 1739   2.059   0.786   1.319 -0.0747 -0.6128 -0.5052
  592TIP3    H1 1740   2.134   0.829   1.360 -0.0220 -1.1462 -0.0239
  592TIP3    H2 1741   1.982   0.830   1.356 -0.0080  0.3617 -1.4711
  593TIP3   OH2 1742   1.326   0.422   4.963 -0.0212  0.5093 -0.0890
  593TIP3    H1 1743   1.331   0.462   5.050 -0.5640 -0.7505  0.5402
  593TIP3    H2 1744   1.310   0.496   4.904 -0.2722  1.3073  0.9459
  594TIP3   OH2 1745   6.620   5.065   0.645 -0.8871 -0.0687 -0.0553
  594TIP3    H1 1746   6.619   4.973   0.669  2.1166 -0.1816  0.0135
  594TIP3    H2 1747   6.600   5.111   0.727 -0.3685 -0.6303  0.3956
  595TIP3   OH2 1748   3.208   0.345   1.758  0.3014  0.0216 -0.3254
  595TIP3    H1 1749   3.256   0.301   1.688 -0.6624 -0.9338 -0.4000
  595TIP3    H2 1750   3.258   0.325   1.837  0.2139 -0.6882 -0.4490
  596TIP3   OH2 1751   6.909   2.740   1.444  0.2472  0.5237 -0.0308
  596TIP3    H1 1752   6.932   2.833   1.440 -0.1495  0.6387  0.1855
  596TIP3    H2 1753   6.815   2.739   1.427  0.3772  0.0857 -0.7544
  597TIP3   OH2 1754   5.566   1.107   4.814  0.2084  0.1170  0.0060
  597TIP3    H1 1755   5.549   1.064   4.897  1.2847  0.1403  0.2486
  597TIP3    H2 1756   5.526   1.050   4.748 -0.2452 -0.1357  0.4955
  598TIP3   OH2 1757   0.909   4.273   2.648  0.5402 -0.5650  0.1854
  598TIP3    H1 1758   0.953   4.189   2.633  0.0556 -0.5946 -1.3117
  598TIP3    H2 1759   0.828   4.266   2.597  0.3178  0.6730  0.3508
  599TIP3   OH2 1760   1.297   3.290   0.423 -0.1624  0.1274  0.1036
  599TIP3    H1 1761   1.232   3.232   0.385 -1.4118 -0.3325  2.6858
  599TIP3    H2 1762   1.366   3.232   0.456 -1.3625 -0.0435  2.5920
  600TIP3   OH2 1763   0.219   3.636   3.449  0.6176 -0.4238 -0.0444
  600TIP3    H1 1764   0.234   3.679   3.365 -2.0286 -0.8335 -0.7992
  600TIP3    H2 1765   0.224   3.543   3.430 -2.0590 -0.5860 -0.2762
  601TIP3   OH2 1766   5.143   4.125   4.116  0.8047  0.7354 -0.1071
  601TIP3    H1 1767   5.233   4.136   4.146  0.8146 -0.6529  0.4589
  601TIP3    H2 1768   5.114   4.213   4.091  1.0589  1.8655  3.2067
  602TIP3   OH2 1769   0.799   2.521   2.015 -0.0538  0.1303 -0.0198
  602TIP3    H1 1770   0.863   2.494   1.949 -0.5097 -1.2157  0.0588
  602TIP3    H2 1771   0.851   2.541   2.092  0.2640 -3.7123  1.0062
  603TIP3   OH2 1772   4.883   4.083   2.320  0.0798  0.1455  0.6133
  603TIP3    H1 1773   4.802   4.077   2.369  1.3986  0.5680  2.9787
  603TIP3    H2 1774   4.861   4.050   2.233 -2.3431 -0.7519  1.4957
  604TIP3   OH2 1775   6.543   2.864   0.436  0.6942 -0.5911 -0.1664
  604TIP3    H1 1776   6.479   2.846   0.505  0.7431  1.0477  0.3501
  604TIP3    H2 1777   6.541   2.786   0.380 -1.8820 -0.5369 -0.2619
  605TIP3   OH2 1778   5.742   6.400   3.459 -0.9596 -0.2110 -0.4183
  605TIP3    H1 1779   5.681   6.332   3.485  0.7548 -1.0194  1.7529
  605TIP3    H2 1780   5.722   6.474   3.516 -1.8563  0.6526 -1.7854
  606TIP3   OH2 1781   2.167   1.175   1.213 -0.2481  0.1955  0.1082
  606TIP3    H1 1782   2.092   1.227   1.244 -0.2180  0.1768  0.2135
  606TIP3    H2 1783   2.151   1.163   1.120 -0.0003  0.8103 -0.0154
  607TIP3   OH2 1784   4.643   0.234   1.966  0.7951 -0.3816 -0.4704
  607TIP3    H1 1785   4.736   0.213   1.964  0.3804 -2.4361 -3.0410
  607TIP3    H2 1786   4.611   0.210   1.880 -2.0522  0.8247  0.1330
  608TIP3   OH2 1787   2.011   4.137   4.383 -0.4395 -0.0013 -0.4078
  608TIP3    H1 1788   2.089   4.087   4.360 -0.6948 -0.9036  0.6352
  608TIP3    H2 1789   1.993   4.189   4.305  0.7619 -0.3465 -0.9360
  609TIP3   OH2 1790   4.741   3.405   1.901  0.1457  0.1839  0.1590
  609TIP3    H1 1791   4.691   3.421   1.981  1.3714 -0.1963  1.0318
  609TIP3    H2 1792   4.832   3.423   1.925  0.6517 -0.8051 -0.8846
  610TIP3   OH2 1793   3.969   5.315   1.833  0.1387  0.1621  0.0085
  610TIP3    H1 1794   3.999   5.387   1.889  0.7734 -0.1778  0.1182
  610TIP3    H2 1795   4.007   5.237   1.873  0.9019 -0.0507 -1.0919
  611TIP3   OH2 1796   5.485   0.796   3.829 -0.0362 -0.8680  0.0114
  611TIP3    H1 1797   5.561   0.853   3.840 -0.3608 -0.3055 -0.5488
  611TIP3    H2 1798   5.425   0.823   3.898  0.2674 -1.3104  0.4523
  612TIP3   OH2 1799   3.747   5.225   5.062  0.7339 -0.0718  0.2402
  612TIP3    H1 1800   3.826   5.217   5.008 -0.2016  0.1644 -1.2112
  612TIP3    H2 1801   3.729   5.319   5.063  0.7719 -0.0690  1.0229
  613TIP3   OH2 1802   3.139   5.038   0.684  0.3345 -0.5033  0.1935
  613TIP3    H1 1803   3.048   5.012   0.668  0.7317 -0.5760 -2.2107
  613TIP3    H2 1804   3.134   5.092   0.763 -1.7122 -0.9204  0.4169
  614TIP3   OH2 1805   6.513   0.740   2.683  0.1157 -0.3605 -0.2760
  614TIP3    H1 1806   6.576   0.809   2.706  0.5719 -1.1446  0.9614
  614TIP3    H2 1807   6.527   0.724   2.590  0.7767  0.4490 -0.3259
  615TIP3   OH2 1808   1.827   2.868   3.192  0.1560 -0.6166  0.4373
  615TIP3    H1 1809   1.883   2.796   3.220  1.1083 -0.2167 -0.3707
  615TIP3    H2 1810   1.784   2.898   3.272  1.6662 -0.4462  1.2093
  616TIP3   OH2 1811   5.135   5.910   5.398  0.1170 -0.7475  0.3800
  616TIP3    H1 1812   5.104   5.954   5.478  0.1151 -0.5423  0.2664
  616TIP3    H2 1813   5.216   5.956   5.375 -0.0951 -0.5450  0.0363
  617TIP3   OH2 1814   0.595   0.475   0.826  0.5301  0.0184  0.1076
  617TIP3    H1 1815   0.645   0.394   0.819 -0.2412 -0.3219 -3.3094
  617TIP3    H2 1816   0.508   0.452   0.795 -0.9304  1.3402  2.8787
  618TIP3   OH2 1817   6.757   2.337   5.208 -0.5281 -0.6771  0.0163
  618TIP3    H1 1818   6.780   2.255   5.166  0.0601 -0.1130 -0.8059
  618TIP3    H2 1819   6.814   2.343   5.284  0.8015 -0.1674 -0.9727
  619TIP3   OH2 1820   1.738   2.906   4.870 -0.2847  0.0494  0.5219
  619TIP3    H1 1821   1.744   2.948   4.784 -0.2471 -0.1836  0.4117
  619TIP3    H2 1822   1.706   2.818   4.853  1.1812 -0.5293  0.5801
  620TIP3   OH2 1823   6.554   0.570   0.917 -0.3818  0.0901  1.2417
  620TIP3    H1 1824   6.516   0.510   0.853  1.6134 -0.2907  0.3295
  620TIP3    H2 1825   6.571   0.515   0.994  0.0614 -0.1767  0.9560
  621TIP3   OH2 1826   6.452   6.561   3.165 -0.3514 -0.0473 -0.4928
  621TIP3    H1 1827   6.447   6.498   3.093 -1.0734  0.8076 -1.2106
  621TIP3    H2 1828   6.375   6.543   3.218 -0.1485 -0.2654 -0.2661
  622TIP3   OH2 1829   0.286   0.209   1.753 -0.2951 -0.2636  0.6590
  622TIP3    H1 1830   0.191   0.223   1.761 -0.3032 -0.0688  0.2807
  622TIP3    H2 1831   0.300   0.201   1.659  0.1198  0.1417  0.6830
  623TIP3   OH2 1832   5.993   0.722   1.587 -0.0655  0.0592  0.0550
  623TIP3    H1 1833   6.070   0.700   1.533 -0.3427 -0.4488 -0.1400
  623TIP3    H2 1834   6.030   0.756   1.669  0.3832 -0.7397  0.1957
  624TIP3   OH2 1835   3.563   0.198   2.775  0.1447 -0.2380 -0.0896
  624TIP3    H1 1836   3.584   0.291   2.765  0.8331 -0.5109 -1.3817
  624TIP3    H2 1837   3.648   0.154   2.776 -0.2038 -0.9399 -0.4004
  625TIP3   OH2 1838   5.724   4.202   1.294 -0.0803 -0.3348 -0.3235
  625TIP3    H1 1839   5.753   4.240   1.212  0.1355 -1.1329 -0.6294
  625TIP3    H2 1840   5.630   4.217   1.296  0.2528  2.2063  0.6362
  626TIP3   OH2 1841   1.143   3.433   2.948 -0.1896 -0.1308  0.3077
  626TIP3    H1 1842   1.209   3.503   2.955 -0.9125  1.0167 -2.7209
  626TIP3    H2 1843   1.141   3.412   2.854 -1.1510 -3.1507  0.9198
  627TIP3   OH2 1844   3.798   2.970   1.874  0.7117  0.3894 -0.1411
  627TIP3    H1 1845   3.753   2.935   1.951  0.6930  0.8037  0.0366
  627TIP3    H2 1846   3.821   3.059   1.898  0.8350  0.4734 -0.5636
  628TIP3   OH2 1847   1.706   6.176   5.722  0.3560  0.0046 -0.3054
  628TIP3    H1 1848   1.738   6.190   5.632  1.0828  0.3837  0.0041
  628TIP3    H2 1849   1.769   6.222   5.777 -0.9867  1.1744  0.3204
  629TIP3   OH2 1850   5.442   0.099   1.870 -0.4012  0.5140 -0.3616
  629TIP3    H1 1851   5.460   0.183   1.911 -0.9297  0.4046  0.1105
  629TIP3    H2 1852   5.526   0.052   1.872 -0.4610  0.4416  0.7660
  630TIP3   OH2 1853   6.764   2.878   4.014 -0.4017  0.0032 -0.7091
  630TIP3    H1 1854   6.733   2.892   4.104 -2.0014 -2.1572 -0.8274
  630TIP3    H2 1855   6.804   2.961   3.989  0.0963  0.6865  1.9864
  631TIP3   OH2 1856   4.110   5.425   2.970 -0.7283 -0.4129  0.5474
  631TIP3    H1 1857   4.145   5.498   2.919 -0.5212 -0.1300  1.0817
  631TIP3    H2 1858   4.183   5.364   2.979 -0.7467 -0.4350  0.5479
  632TIP3   OH2 1859   2.770   1.674   0.173 -0.0658 -0.3072 -0.1198
  632TIP3    H1 1860   2.747   1.763   0.201  0.3589 -0.0482 -0.5846
  632TIP3    H2 1861   2.686   1.632   0.156 -0.4201 -0.7834  2.4080
  633TIP3   OH2 1862   2.876   4.734   1.155  0.2734 -0.3735 -0.4864
  633TIP3    H1 1863   2.921   4.818   1.166 -0.6781 -0.1153  2.0377
  633TIP3    H2 1864   2.793   4.756   1.113 -0.0854 -0.0134  0.4120
  634TIP3   OH2 1865   1.539   5.493   1.763 -0.0953 -0.0095  0.1614
  634TIP3    H1 1866   1.577   5.576   1.792  2.9562 -0.7793 -1.2399
  634TIP3    H2 1867   1.544   5.435   1.839  1.2064  0.0548  0.1456
  635TIP3   OH2 1868   6.033   4.718   4.021 -0.6323 -0.3625  0.7728
  635TIP3    H1 1869   6.082   4.716   4.104  1.0093 -2.8999 -0.1334
  635TIP3    H2 1870   6.086   4.774   3.964  0.3075 -1.6131  0.3637
  636TIP3   OH2 1871   5.740   2.969   0.972 -0.1022 -0.0220  0.1019
  636TIP3    H1 1872   5.785   3.043   0.930  0.1044 -0.1405  0.1142
  636TIP3    H2 1873   5.710   2.915   0.898 -1.6489  0.8835  0.0330
  637TIP3   OH2 1874   0.635   3.474   3.823  0.3868  0.1673  0.1167
  637TIP3    H1 1875   0.688   3.443   3.897  0.3586 -2.2416 -0.7775
  637TIP3    H2 1876   0.687   3.452   3.746 -2.0239 -2.8895 -0.8527
  638TIP3   OH2 1877   1.394   1.462   5.543 -0.0613  0.3870  0.1694
  638TIP3    H1 1878   1.451   1.437   5.471  0.1450  0.6547  0.2401
  638TIP3    H2 1879   1.307   1.430   5.517  0.1668 -0.2754  0.1902
  639TIP3   OH2 1880   4.169   4.291   3.754 -0.2854  0.5501  0.1664
  639TIP3    H1 1881   4.089   4.323   3.711 -0.7354 -1.6200 -0.7433
  639TIP3    H2 1882   4.145   4.287   3.847 -1.0399  0.4684 -0.0195
  640TIP3   OH2 1883   4.551   2.334   4.565  0.4170  0.3741 -0.3797
  640TIP3    H1 1884   4.555   2.417   4.517 -1.9804  1.6700  1.4821
  640TIP3    H2 1885   4.460   2.306   4.558  0.4891 -0.5095  1.5933
  641TIP3   OH2 1886   1.361   6.382   3.921  0.9483  0.3348 -0.6369
  641TIP3    H1 1887   1.365   6.286   3.922  0.7559  0.3295 -0.3778
  641TIP3    H2 1888   1.302   6.402   3.848 -1.1032  0.1751  0.8946
  642TIP3   OH2 1889   1.726   3.190   1.356  0.2517  0.3359  0.3026
  642TIP3    H1 1890   1.654   3.193   1.293  0.9541  0.1503 -0.5315
  642TIP3    H2 1891   1.692   3.233   1.434 -0.9700 -0.2836  0.1423
  643TIP3   OH2 1892   4.334   4.501   4.004  0.0616  0.1665 -0.4908
  643TIP3    H1 1893   4.250   4.523   3.966 -1.5586 -0.2490  2.5440
  643TIP3    H2 1894   4.334   4.406   4.010 -0.7445  0.2451  2.3281
  644TIP3   OH2 1895   3.864   5.024   3.994  0.1705  0.3578 -0.6415
  644TIP3    H1 1896   3.920   5.098   3.969  1.3272 -0.4589 -0.5347
  644TIP3    H2 1897   3.915   4.946   3.971 -0.6391 -0.4085  0.0896
  645TIP3   OH2 1898   3.021   1.638   2.629  0.8572 -0.0824  0.7257
  645TIP3    H1 1899   2.980   1.609   2.710  0.1013 -1.0841  0.0170
  645TIP3    H2 1900   3.062   1.721   2.651 -0.4331  0.3036  1.8200
  646TIP3   OH2 1901   6.369   5.392   3.956 -0.1419  0.3105 -0.0026
  646TIP3    H1 1902   6.449   5.347   3.929 -0.9574 -0.8848 -0.4728
  646TIP3    H2 1903   6.300   5.356   3.900 -1.0602  1.1446  0.5552
  647TIP3   OH2 1904   4.815   6.643   5.778  0.5242  0.1841  0.0497
  647TIP3    H1 1905   4.822   6.551   5.804  1.2256  0.7502  2.0257
  647TIP3    H2 1906   4.904   6.677   5.786  0.1618  1.1871 -0.0740
  648TIP3   OH2 1907   0.452   2.984   5.167  0.4435 -0.3024  0.2095
  648TIP3    H1 1908   0.462   2.892   5.193 -0.4022 -0.4682 -0.0286
  648TIP3    H2 1909   0.460   3.032   5.249  1.2191 -0.5523  0.2952
  649TIP3   OH2 1910   5.396   4.174   2.949 -0.3578  0.3799  0.5289
  649TIP3    H1 1911   5.483   4.214   2.956 -0.9639  1.5654  1.6231
  649TIP3    H2 1912   5.351   4.226   2.883  0.6657 -2.0853 -2.3721
  650TIP3   OH2 1913   5.390   1.770   4.931  0.3467 -0.1040 -0.0888
  650TIP3    H1 1914   5.304   1.805   4.955  0.5233  1.0381 -1.0028
  650TIP3    H2 1915   5.372   1.702   4.867  0.1394  0.7498 -0.9633
  651TIP3   OH2 1916   4.776   4.972   2.059  0.1650  0.0135 -0.1956
  651TIP3    H1 1917   4.847   4.970   1.995 -0.7878 -0.5121 -1.2554
  651TIP3    H2 1918   4.814   4.933   2.138  1.2672  0.4150 -0.5122
  652TIP3   OH2 1919   4.541   5.034   0.211 -0.4867  0.0835 -0.0624
  652TIP3    H1 1920   4.624   5.014   0.169  0.0688  0.7055  0.7015
  652TIP3    H2 1921   4.525   4.960   0.270  0.5476  0.8605  1.2601
  653TIP3   OH2 1922   5.956   2.637   5.345  0.3039  0.3026  0.4946
  653TIP3    H1 1923   5.950   2.673   5.433 -1.2912 -1.2714  1.0858
  653TIP3    H2 1924   5.878   2.671   5.300  1.6194  1.9199 -0.6906
  654TIP3   OH2 1925   6.001   3.724   0.351 -0.3416  0.2762 -0.5168
  654TIP3    H1 1926   6.041   3.647   0.391  0.1054  0.0831 -1.2989
  654TIP3    H2 1927   6.022   3.796   0.410  0.5310  0.0447 -0.5307
  655TIP3   OH2 1928   5.671   3.883   0.467  0.1253 -0.4702 -0.1166
  655TIP3    H1 1929   5.743   3.872   0.530 -0.2604  0.8875  0.5986
  655TIP3    H2 1930   5.672   3.802   0.415  2.4347 -0.3443 -0.4018
  656TIP3   OH2 1931   5.797   6.388   4.368  0.1209 -0.4824  0.3511
  656TIP3    H1 1932   5.744   6.369   4.291  0.0784  1.1556 -0.0655
  656TIP3    H2 1933   5.737   6.429   4.430  0.7625  1.0040  0.0381
  657TIP3   OH2 1934   3.987   1.502   2.250  0.3956  0.8690  0.5434
  657TIP3    H1 1935   3.934   1.482   2.327 -0.1376  0.2846  0.0420
  657TIP3    H2 1936   3.989   1.420   2.200  0.2923  1.3768 -0.3155
  658TIP3   OH2 1937   5.553   2.757   3.987  0.5577 -0.2794  1.1520
  658TIP3    H1 1938   5.499   2.685   3.954  0.6449 -0.4119  1.2994
  658TIP3    H2 1939   5.511   2.782   4.070 -2.4544  3.0582 -1.0356
  659TIP3   OH2 1940   0.562   6.669   1.334 -0.3180 -0.1594 -0.5218
  659TIP3    H1 1941   0.616   6.704   1.263  0.4778 -0.3629 -0.0285
  659TIP3    H2 1942   0.518   6.746   1.371  0.3123  0.1378 -0.3745
  660TIP3   OH2 1943   4.999   2.118   3.917 -0.0260  0.0374 -0.0300
  660TIP3    H1 1944   5.027   2.058   3.986  0.6163 -0.0970 -0.3890
  660TIP3    H2 1945   4.904   2.124   3.926  0.0540  0.0075  0.8443
  661TIP3   OH2 1946   3.045   5.626   5.794 -0.1922  0.0129  0.5127
  661TIP3    H1 1947   2.999   5.646   5.712 -0.9552 -0.3408  0.8440
  661TIP3    H2 1948   2.978   5.634   5.862  0.5752  0.9096  1.1891
  662TIP3   OH2 1949   1.843   3.128   5.487  0.1931  0.8092  0.3357
  662TIP3    H1 1950   1.859   3.124   5.581  0.7895  2.0968  0.3093
  662TIP3    H2 1951   1.753   3.159   5.480  0.2821  1.1113  0.4930
  663TIP3   OH2 1952   6.469   5.598   1.655  0.1335 -0.4576 -0.9493
  663TIP3    H1 1953   6.539   5.654   1.622  0.5178 -0.7567 -0.6491
  663TIP3    H2 1954   6.480   5.516   1.606  0.2302 -0.6362 -0.6290
  664TIP3   OH2 1955   0.813   0.581   5.492  0.2783  0.5908 -0.3086
  664TIP3    H1 1956   0.820   0.582   5.588 -2.5383 -1.2024  0.0508
  664TIP3    H2 1957   0.894   0.542   5.462  0.5153 -0.4595  1.5193
  665TIP3   OH2 1958   2.681   1.441   5.137  0.0859  0.0950 -0.2627
  665TIP3    H1 1959   2.727   1.407   5.213 -0.5705 -0.8071 -0.2543
  665TIP3    H2 1960   2.592   1.458   5.169 -0.2430 -0.4565 -0.8598
  666TIP3   OH2 1961   5.458   4.402   5.735 -0.2979 -0.6318  0.5606
  666TIP3    H1 1962   5.412   4.408   5.819 -1.5976  2.7095 -0.2226
  666TIP3    H2 1963   5.399   4.350   5.680 -0.0939 -1.6543  1.2716
  667TIP3   OH2 1964   3.453   1.255   1.628  0.1936  0.4998 -0.5726
  667TIP3    H1 1965   3.455   1.171   1.582 -1.9670  0.0978 -0.0742
  667TIP3    H2 1966   3.427   1.233   1.717  2.2223  1.4771  0.3089
  668TIP3   OH2 1967   6.925   4.334   0.156 -0.0554 -0.3793 -0.4916
  668TIP3    H1 1968   6.851   4.280   0.128 -0.4450 -0.4260  0.5798
  668TIP3    H2 1969   6.997   4.306   0.100 -0.1349 -2.3294  0.2918
  669TIP3   OH2 1970   4.547   1.739   5.477  0.3832  0.2615  0.5373
  669TIP3    H1 1971   4.468   1.749   5.530 -0.4206  0.7066 -0.6943
  669TIP3    H2 1972   4.566   1.827   5.444  0.9463  0.0218  0.2009
  670TIP3   OH2 1973   2.602   6.393   4.043 -0.1813 -0.1319  0.0043
  670TIP3    H1 1974   2.553   6.469   4.013  0.7472  0.2277 -0.6567
  670TIP3    H2 1975   2.590   6.392   4.138 -1.0830  0.2034 -0.0999
  671TIP3   OH2 1976   7.104   4.436   5.647 -0.0103 -0.0831  0.5382
  671TIP3    H1 1977   7.146   4.505   5.698  1.0788 -1.3380  1.4194
  671TIP3    H2 1978   7.057   4.383   5.712 -0.1914 -0.6148 -0.0148
  672TIP3   OH2 1979   5.520   5.070   0.046 -0.3949  0.3802  0.0823
  672TIP3    H1 1980   5.581   5.078   0.119 -0.5876 -0.4521  0.3486
  672TIP3    H2 1981   5.516   5.157   0.007  0.5770  0.5576  0.3712
  673TIP3   OH2 1982   0.248   4.098   4.616 -0.0289  0.3259 -0.8288
  673TIP3    H1 1983   0.264   4.192   4.624  0.8058  0.1677 -0.5261
  673TIP3    H2 1984   0.332   4.058   4.639  0.3170 -0.4243 -3.1220
  674TIP3   OH2 1985   1.977   4.155   1.980 -0.2682 -0.0622  0.4356
  674TIP3    H1 1986   2.067   4.143   2.012 -0.6994 -0.4606  1.5216
  674TIP3    H2 1987   1.922   4.134   2.055 -1.2337  2.1340  0.4251
  675TIP3   OH2 1988   5.874   0.174   5.824  0.0013  0.7630 -0.1427
  675TIP3    H1 1989   5.867   0.117   5.748 -0.2852 -1.1549  1.2454
  675TIP3    H2 1990   5.968   0.179   5.842 -0.0624 -2.1644  1.6880
  676TIP3   OH2 1991   4.747   3.833   4.299  0.6569 -0.4681 -0.0943
  676TIP3    H1 1992   4.718   3.869   4.215  0.7076 -1.9053 -0.7577
  676TIP3    H2 1993   4.691   3.756   4.313 -1.4207  1.3118  2.6765
  677TIP3   OH2 1994   3.042   5.243   1.806 -0.2662 -0.0461 -0.2986
  677TIP3    H1 1995   2.993   5.325   1.815 -0.3752 -0.1287 -0.1355
  677TIP3    H2 1996   3.013   5.206   1.723 -1.3730 -0.6822  0.3463
  678TIP3   OH2 1997   1.584   6.135   2.515 -0.5449 -0.3625 -0.5264
  678TIP3    H1 1998   1.527   6.059   2.521  0.4468 -1.1159 -0.3888
  678TIP3    H2 1999   1.615   6.148   2.605 -2.2957  1.4945 -0.1140
  679TIP3   OH2 2000   4.657   0.876   3.824  0.2309  0.0426  0.3882
  679TIP3    H1 2001   4.629   0.841   3.909  2.0842 -1.8157  0.2933
  679TIP3    H2 2002   4.751   0.886   3.832  0.5187 -0.6802 -1.6253
  680TIP3   OH2 2003   3.308   3.277   2.358 -0.2241  0.2657  0.2492
  680TIP3    H1 2004   3.283   3.308   2.445  2.3308 -2.5814  2.2297
  680TIP3    H2 2005   3.390   3.322   2.339  2.7503 -3.6083  2.5147
  681TIP3   OH2 2006   6.296   0.473   1.689  0.2887 -0.3255 -0.1438
  681TIP3    H1 2007   6.311   0.548   1.747 -1.3796  0.8259 -1.1164
  681TIP3    H2 2008   6.382   0.431   1.682  0.9292  0.5582  1.6638
  682TIP3   OH2 2009   6.281   6.354   3.960 -0.0653  0.1388 -1.0011
  682TIP3    H1 2010   6.198   6.306   3.970 -0.2466  0.4044 -1.2197
  682TIP3    H2 2011   6.333   6.300   3.901 -0.5916  0.6216 -1.9201
  683TIP3   OH2 2012   6.009   3.310   4.132  0.5453 -0.4706 -0.4573
  683TIP3    H1 2013   5.952   3.280   4.204  0.3325  0.2053 -0.3388
  683TIP3    H2 2014   6.096   3.316   4.172  0.5778 -0.8502 -0.4635
  684TIP3   OH2 2015   0.701   4.245   4.444 -0.4450 -0.1983  0.0464
  684TIP3    H1 2016   0.664   4.200   4.520  0.8640  0.6674  1.2395
  684TIP3    H2 2017   0.729   4.174   4.386 -1.8737 -0.8727  0.1259
  685TIP3   OH2 2018   3.360   5.861   1.722  0.3979  0.0102 -0.0726
  685TIP3    H1 2019   3.382   5.917   1.648  1.6806  1.3048  1.2327
  685TIP3    H2 2020   3.429   5.795   1.724  0.2641 -0.1328 -0.1374
  686TIP3   OH2 2021   6.888   0.037   2.899 -0.0206 -0.7058  0.1254
  686TIP3    H1 2022   6.799   0.038   2.934 -0.3376  0.1695 -0.6292
  686TIP3    H2 2023   6.902   0.126   2.867  0.9618 -0.9498 -0.1769
  687TIP3   OH2 2024   6.415   4.239   1.921 -0.3743  0.2193  0.6466
  687TIP3    H1 2025   6.349   4.207   1.860  0.2731 -1.1433  0.6247
  687TIP3    H2 2026   6.407   4.334   1.916 -0.9955  0.1282 -0.8314
  688TIP3   OH2 2027   6.267   0.960   3.097  1.0307 -0.0163 -0.7366
  688TIP3    H1 2028   6.211   0.920   3.164  1.1318  1.7103  0.4710
  688TIP3    H2 2029   6.346   0.906   3.096  0.2165 -1.2396 -0.9233
  689TIP3   OH2 2030   6.899   1.013   2.771  0.1068 -0.0200  0.2502
  689TIP3    H1 2031   6.982   1.060   2.763  1.9828 -3.1677 -0.8150
  689TIP3    H2 2032   6.898   0.979   2.860  1.0131 -1.6334 -0.3211
  690TIP3   OH2 2033   0.127   2.162   5.374  0.1590 -0.6941  0.2557
  690TIP3    H1 2034   0.166   2.083   5.337  0.7401 -0.4888  0.4183
  690TIP3    H2 2035   0.087   2.206   5.299  1.9677  0.0922 -0.3068
  691TIP3   OH2 2036   4.655   2.490   0.425  0.4804  0.2939 -0.5859
  691TIP3    H1 2037   4.652   2.426   0.353  2.2712  0.6790 -1.0564
  691TIP3    H2 2038   4.713   2.559   0.392  0.5286  0.9671  0.8574
  692TIP3   OH2 2039   6.831   4.248   0.472 -0.3615 -0.1120  0.1099
  692TIP3    H1 2040   6.759   4.274   0.415  0.8742 -0.7906 -1.8453
  692TIP3    H2 2041   6.856   4.329   0.517 -0.0128  0.9890 -1.9154
  693TIP3   OH2 2042   4.686   1.792   0.281  0.4204  0.7772 -0.6565
  693TIP3    H1 2043   4.704   1.757   0.369  0.8348  0.6976 -0.7686
  693TIP3    H2 2044   4.773   1.801   0.242  0.1771 -0.4128 -1.5262
  694TIP3   OH2 2045   4.542   5.048   2.682  0.4254 -0.4447  0.5229
  694TIP3    H1 2046   4.487   5.007   2.749  0.9419  1.2551  2.0660
  694TIP3    H2 2047   4.632   5.027   2.707  0.6088 -0.5004 -0.1449
  695TIP3   OH2 2048   1.915   0.885   2.220 -1.0300 -0.0382 -0.1494
  695TIP3    H1 2049   1.838   0.941   2.213 -0.1638  0.9814 -2.5956
  695TIP3    H2 2050   1.901   0.816   2.154  0.2923  0.4166 -0.9510
  696TIP3   OH2 2051   5.025   5.352   5.668 -0.1390 -0.0837  0.2445
  696TIP3    H1 2052   5.070   5.290   5.726 -0.9696  0.5954  1.6729
  696TIP3    H2 2053   4.932   5.330   5.679 -0.6269  2.4344  2.1307
  697TIP3   OH2 2054   2.871   3.941   2.752  0.5957 -0.2845  0.2177
  697TIP3    H1 2055   2.947   3.925   2.695 -0.6817 -0.2127 -1.5836
  697TIP3    H2 2056   2.909   3.967   2.836  2.5590  0.0895 -0.7327
  698TIP3   OH2 2057   6.020   1.786  -0.011  0.2140  0.1151 -0.3987
  698TIP3    H1 2058   6.017   1.700  -0.053 -0.5383 -1.4776  2.5924
  698TIP3    H2 2059   6.038   1.767   0.081 -0.3538  3.1464  0.4542
  699TIP3   OH2 2060   4.738   0.147   5.695  0.2745  0.2010 -0.3549
  699TIP3    H1 2061   4.668   0.120   5.636  1.4116 -1.3829 -1.0348
  699TIP3    H2 2062   4.715   0.107   5.779 -0.9220  1.8007  0.1452
  700TIP3   OH2 2063   3.874   6.747   4.466  0.2247 -0.2163 -0.0576
  700TIP3    H1 2064   3.829   6.697   4.534 -1.7703  1.0971 -0.3189
  700TIP3    H2 2065   3.807   6.760   4.398  0.8038  2.3118 -0.2271
  701TIP3   OH2 2066   1.242   2.318   0.995  0.4459 -0.6072 -0.5206
  701TIP3    H1 2067   1.262   2.328   0.902  1.1790  0.2296 -0.2932
  701TIP3    H2 2068   1.237   2.408   1.029  1.1471 -0.9019  0.4259
  702TIP3   OH2 2069   6.553   3.276   1.881 -0.7366  0.1774 -0.4569
  702TIP3    H1 2070   6.549   3.265   1.786 -1.2700  1.2836 -0.5728
  702TIP3    H2 2071   6.472   3.236   1.914  0.8977 -3.2336 -0.0957
  703TIP3   OH2 2072   3.101   6.718   3.985  0.3269  0.5707  0.4206
  703TIP3    H1 2073   3.180   6.770   3.974  0.0358  0.9424  0.0617
  703TIP3    H2 2074   3.056   6.724   3.900  0.3160 -0.3067  0.3519
  704TIP3   OH2 2075   4.041   4.376   1.603 -0.1976 -0.0103 -0.0567
  704TIP3    H1 2076   3.965   4.333   1.564 -0.2166 -1.0306  1.0380
  704TIP3    H2 2077   4.113   4.357   1.543 -0.6392  0.2561 -0.6773
  705TIP3   OH2 2078   4.744   6.100   1.056  0.4807 -0.1027 -0.2710
  705TIP3    H1 2079   4.827   6.055   1.039  2.0752  2.0816  1.3750
  705TIP3    H2 2080   4.686   6.067   0.986  2.9980 -0.8702 -2.1799
  706TIP3   OH2 2081   6.397   3.181   0.467 -0.0838 -0.3347 -0.5672
  706TIP3    H1 2082   6.438   3.224   0.392  0.0773  0.7556  0.1282
  706TIP3    H2 2083   6.460   3.188   0.538  0.1525 -2.1721 -0.5293
  707TIP3   OH2 2084   3.168   6.018   2.507  0.3930  0.6890 -0.0699
  707TIP3    H1 2085   3.242   5.979   2.461 -0.4317 -0.4747 -0.4290
  707TIP3    H2 2086   3.103   6.035   2.439 -0.2298  0.3868  0.4448
  708TIP3   OH2 2087   2.003   3.091   0.450 -0.7804 -0.8024  0.1610
  708TIP3    H1 2088   1.924   3.043   0.474 -0.6726 -2.2400 -2.0637
  708TIP3    H2 2089   2.070   3.023   0.437  0.3334  0.2416  0.2160
  709TIP3   OH2 2090   2.705   0.125   5.397 -0.9777  0.7047  0.6291
  709TIP3    H1 2091   2.700   0.189   5.468 -2.3976  1.8006 -0.4108
  709TIP3    H2 2092   2.618   0.086   5.395  0.1143 -2.0841  1.8984
  710TIP3   OH2 2093   2.832   0.955   5.708  0.1606 -0.0936 -0.1034
  710TIP3    H1 2094   2.795   0.880   5.663  0.5498 -0.3116 -0.0598
  710TIP3    H2 2095   2.772   0.972   5.781 -0.6821  0.4991 -0.9161
  711TIP3   OH2 2096   4.721   3.720   0.953  0.2895 -0.4742  0.0565
  711TIP3    H1 2097   4.692   3.774   1.027  3.5347 -1.1277  2.0344
  711TIP3    H2 2098   4.691   3.767   0.876 -0.9122  1.7446  1.7365
  712TIP3   OH2 2099   1.223   4.373   3.999  0.4208 -0.5966  0.2696
  712TIP3    H1 2100   1.277   4.294   3.995  1.0010 -0.1928  0.0177
  712TIP3    H2 2101   1.186   4.382   3.911 -0.5448 -1.1979  0.5981
  713TIP3   OH2 2102   2.906   3.565   0.094 -0.3245 -0.2959  0.2677
  713TIP3    H1 2103   2.966   3.639   0.095 -0.2771 -0.3307  1.4749
  713TIP3    H2 2104   2.962   3.489   0.077 -0.4744 -0.0090 -1.7376
  714TIP3   OH2 2105   0.552   5.414   3.597  0.2713 -0.5341  0.7118
  714TIP3    H1 2106   0.588   5.487   3.649  1.8170 -1.2589  0.7376
  714TIP3    H2 2107   0.554   5.339   3.656  0.7480 -1.0639  0.0500
  715TIP3   OH2 2108   6.311   5.978   5.896  0.0512 -0.2668 -0.1066
  715TIP3    H1 2109   6.233   6.029   5.919  0.3949  1.3385 -2.1969
  715TIP3    H2 2110   6.294   5.948   5.806  1.0776 -1.4838  0.0768
  716TIP3   OH2 2111   0.239   4.492   3.343  0.3782  0.1117 -0.1325
  716TIP3    H1 2112   0.250   4.476   3.249 -0.5052  0.4038 -0.2939
  716TIP3    H2 2113   0.172   4.559   3.348  0.1933 -0.1247  0.7287
  717TIP3   OH2 2114   1.952   1.197   4.733 -0.0898 -0.5957 -0.2389
  717TIP3    H1 2115   1.932   1.266   4.796  0.5255  0.3186 -1.0118
  717TIP3    H2 2116   1.947   1.240   4.647 -0.0786 -1.6061 -0.7676
  718TIP3   OH2 2117   4.035   5.224   3.876 -0.1168  0.2920  0.0244
  718TIP3    H1 2118   3.972   5.292   3.853  0.0736  0.1608 -0.9148
  718TIP3    H2 2119   4.081   5.204   3.795  1.1446  0.3700  0.6936
  719TIP3   OH2 2120   3.256   0.966   4.769  0.4958  0.2616 -0.4078
  719TIP3    H1 2121   3.227   1.014   4.691  2.0170  1.1739 -0.4643
  719TIP3    H2 2122   3.233   1.022   4.842  0.7431  0.2869 -0.3476
  720TIP3   OH2 2123   1.645   6.493   4.295 -0.4831  0.4024  0.3975
  720TIP3    H1 2124   1.550   6.504   4.298 -0.5747 -0.4175  0.5922
  720TIP3    H2 2125   1.660   6.429   4.226 -0.1199 -0.0438  0.8860
  721TIP3   OH2 2126   2.545   5.426   0.899 -0.4773  0.1399 -0.5131
  721TIP3    H1 2127   2.531   5.427   0.804  0.0319 -0.4078 -0.6016
  721TIP3    H2 2128   2.458   5.438   0.936 -0.6945  0.2790 -1.0501
  722TIP3   OH2 2129   3.759   3.063   4.205 -0.2537  0.4083  0.3540
  722TIP3    H1 2130   3.832   3.058   4.142 -0.3335  2.8407 -0.0254
  722TIP3    H2 2131   3.680   3.059   4.150 -0.4419 -1.3427  0.6918
  723TIP3   OH2 2132   4.353   3.874   1.003  0.5208 -0.5858  0.0413
  723TIP3    H1 2133   4.354   3.881   1.099  0.3509  0.1075 -0.0014
  723TIP3    H2 2134   4.344   3.965   0.973 -0.2276 -0.8672 -0.6102
  724TIP3   OH2 2135   3.940   4.296   2.684  0.0957 -0.1248 -0.9901
  724TIP3    H1 2136   3.971   4.242   2.757  0.8336 -0.2336 -1.3767
  724TIP3    H2 2137   3.969   4.250   2.606  1.0055  0.9688 -1.3273
  725TIP3   OH2 2138   1.365   5.831   3.839  0.3710  0.4828  0.1602
  725TIP3    H1 2139   1.319   5.838   3.923  2.5995  1.6315  1.3716
  725TIP3    H2 2140   1.396   5.740   3.837  1.3019  0.7526  1.1837
  726TIP3   OH2 2141   4.904   5.321   3.044 -0.1101  0.2919 -0.0043
  726TIP3    H1 2142   4.931   5.261   2.974 -0.6230  0.0846 -0.0271
  726TIP3    H2 2143   4.955   5.401   3.027 -0.8490  0.5569 -1.1236
  727TIP3   OH2 2144   1.653   0.366   4.092 -0.4203  0.1216 -0.0875
  727TIP3    H1 2145   1.583   0.380   4.156 -0.2152  0.0373  0.1597
  727TIP3    H2 2146   1.621   0.294   4.038  0.7566 -2.0793  1.9538
  728TIP3   OH2 2147   4.542   4.831   0.425 -0.2272 -0.0767 -0.1667
  728TIP3    H1 2148   4.595   4.839   0.504 -0.6130  1.5622 -0.0458
  728TIP3    H2 2149   4.583   4.760   0.375 -0.1795 -1.3806  1.6490
  729TIP3   OH2 2150   5.042   5.284   2.048  0.4394  0.5307  0.0769
  729TIP3    H1 2151   4.961   5.318   2.086  1.2820  0.2755  2.2331
  729TIP3    H2 2152   5.014   5.211   1.993 -0.6761 -0.9673  2.4883
  730TIP3   OH2 2153   4.357   3.049   4.674 -0.4036  0.4941 -0.0626
  730TIP3    H1 2154   4.373   3.007   4.590 -0.6391 -0.2647  0.2608
  730TIP3    H2 2155   4.427   3.113   4.683  0.4491 -0.3887 -0.2188
  731TIP3   OH2 2156   5.419   3.194   3.188  0.0054  0.0056  0.0108
  731TIP3    H1 2157   5.377   3.269   3.229 -0.4894 -0.3022  0.0654
  731TIP3    H2 2158   5.381   3.190   3.100 -0.0206 -0.2266  0.0322
  732TIP3   OH2 2159   6.308   2.779   1.168 -0.4375 -0.1280 -0.0590
  732TIP3    H1 2160   6.318   2.696   1.214 -2.0365 -1.0187 -1.2184
  732TIP3    H2 2161   6.266   2.837   1.233  2.1797  0.3748  1.3061
  733TIP3   OH2 2162   5.214   0.583   5.131 -0.0743 -0.0952  0.2002
  733TIP3    H1 2163   5.149   0.610   5.197 -1.3179 -0.3426 -0.8890
  733TIP3    H2 2164   5.270   0.660   5.120 -0.9116  0.5451  0.3004
  734TIP3   OH2 2165   0.473   5.687   3.395 -0.3972  0.0019 -0.4083
  734TIP3    H1 2166   0.459   5.758   3.332  2.9085  0.5028 -0.7425
  734TIP3    H2 2167   0.526   5.726   3.464 -0.5713 -1.5493  0.6499
  735TIP3   OH2 2168   6.197   5.015   2.536 -0.0536 -0.0437 -0.0207
  735TIP3    H1 2169   6.266   5.071   2.573  0.6254 -0.6559 -0.3306
  735TIP3    H2 2170   6.226   4.926   2.557 -1.2147 -0.2805  0.6264
  736TIP3   OH2 2171   1.238   0.434   0.399  0.1138  0.0051  0.0145
  736TIP3    H1 2172   1.231   0.485   0.480  1.4479  0.4629 -0.1455
  736TIP3    H2 2173   1.274   0.350   0.426 -1.5693 -0.6992  0.1964
  737TIP3   OH2 2174   6.026   5.306   4.304  0.6756 -0.1350 -0.3480
  737TIP3    H1 2175   6.113   5.320   4.266  0.8315  0.5003  0.2125
  737TIP3    H2 2176   6.001   5.392   4.338  0.7127 -0.7283  1.2954
  738TIP3   OH2 2177   3.199   1.443   2.927  0.3327  0.0989 -0.5010
  738TIP3    H1 2178   3.151   1.360   2.928 -1.1274  0.8501 -2.3030
  738TIP3    H2 2179   3.133   1.508   2.951  1.7862  0.6861  2.4088
  739TIP3   OH2 2180   5.964   0.936   0.107 -0.2861  0.5984  0.3828
  739TIP3    H1 2181   6.045   0.934   0.057 -1.1206 -1.2407 -1.0080
  739TIP3    H2 2182   5.991   0.926   0.198  1.0179 -0.6972 -0.1208
  740TIP3   OH2 2183   1.873   4.036   4.612  0.2272  0.1913 -0.4193
  740TIP3    H1 2184   1.812   4.085   4.557  1.4793  2.2901 -0.0337
  740TIP3    H2 2185   1.958   4.043   4.567  0.5543 -1.3035 -0.1216
  741TIP3   OH2 2186   5.506   4.224   3.625  0.2322  0.0173 -1.0403
  741TIP3    H1 2187   5.601   4.215   3.629  0.8210  2.9641 -3.8257
  741TIP3    H2 2188   5.492   4.318   3.614 -3.1292 -0.2143  0.1635
  742TIP3   OH2 2189   7.074   2.451   2.008 -0.3128 -0.0213  0.2161
  742TIP3    H1 2190   7.054   2.439   2.101 -1.2635 -1.4186 -0.1511
  742TIP3    H2 2191   6.991   2.478   1.969 -0.1646 -0.4438 -0.4004
  743TIP3   OH2 2192   6.616   1.322   4.874  0.0607 -0.0350  0.0549
  743TIP3    H1 2193   6.570   1.404   4.892  0.7847 -0.1738  3.2814
  743TIP3    H2 2194   6.549   1.255   4.880 -0.0265  0.0918  0.5389
  744TIP3   OH2 2195   2.287   6.514   4.473  0.2228  0.1011 -0.0115
  744TIP3    H1 2196   2.197   6.545   4.484 -0.5696 -2.3508  1.0794
  744TIP3    H2 2197   2.340   6.593   4.483 -1.7135  1.4298  0.4978
  745TIP3   OH2 2198   2.568   0.586   1.390 -0.2030  0.0544  0.1589
  745TIP3    H1 2199   2.486   0.549   1.422 -1.4561  0.7770 -2.0094
  745TIP3    H2 2200   2.624   0.590   1.467 -2.5944  0.5775  1.9995
  746TIP3   OH2 2201   4.672   1.172   0.436  0.3893  0.2451 -0.0307
  746TIP3    H1 2202   4.592   1.222   0.422 -0.4110 -1.4421 -2.1669
  746TIP3    H2 2203   4.738   1.237   0.457 -1.2256  1.8441  0.3129
  747TIP3   OH2 2204   2.407   5.390   2.928 -0.4475 -0.5972 -0.5526
  747TIP3    H1 2205   2.494   5.403   2.889 -0.8087 -1.7084 -1.8282
  747TIP3    H2 2206   2.380   5.477   2.956 -0.0120  0.2368 -2.5369
  748TIP3   OH2 2207   0.888   1.172   3.620  0.2418 -0.2767  0.5227
  748TIP3    H1 2208   0.952   1.132   3.679  1.0477 -0.3629 -0.3909
  748TIP3    H2 2209   0.939   1.200   3.544 -0.7099  0.2271  0.0451
  749TIP3   OH2 2210   0.432   1.589   0.503 -0.4122  0.1909  0.3904
  749TIP3    H1 2211   0.414   1.645   0.428  0.6177 -0.3844 -0.3119
  749TIP3    H2 2212   0.425   1.647   0.579 -1.8128  0.7051 -0.1010
  750TIP3   OH2 2213   4.627   5.423   5.651 -0.1971 -0.3927 -0.2033
  750TIP3    H1 2214   4.562   5.363   5.690 -0.8849  0.2288 -0.3636
  750TIP3    H2 2215   4.672   5.462   5.726 -1.6564  0.9552  0.0322
  751TIP3   OH2 2216   2.385   2.751   3.345  0.3461  0.1272 -0.2864
  751TIP3    H1 2217   2.399   2.828   3.400 -0.0595 -0.3622  0.5202
  751TIP3    H2 2218   2.456   2.692   3.368  0.8593  0.3947 -1.1609
  752TIP3   OH2 2219   0.281   1.117   2.443 -0.0944 -0.1197  0.0431
  752TIP3    H1 2220   0.218   1.052   2.476 -2.3615  1.4718 -0.9300
  752TIP3    H2 2221   0.349   1.064   2.400 -1.9050 -1.8796 -0.8189
  753TIP3   OH2 2222   7.234   2.683   2.045 -0.7124  0.0830  0.3718
  753TIP3    H1 2223   7.216   2.734   1.966  1.8626 -1.1183 -1.0926
  753TIP3    H2 2224   7.203   2.595   2.024  1.1735 -0.5561  0.1226
  754TIP3   OH2 2225   0.576   5.007   2.881 -0.0874  0.0912 -0.4903
  754TIP3    H1 2226   0.644   5.004   2.814  0.2786  0.1038 -0.1283
  754TIP3    H2 2227   0.537   5.093   2.872 -0.6810 -0.2543 -1.3022
  755TIP3   OH2 2228   2.954   6.070   2.337  0.0335  0.1690 -0.0567
  755TIP3    H1 2229   2.941   5.994   2.280  0.1727 -0.6424  0.9768
  755TIP3    H2 2230   2.895   6.056   2.411 -0.8807  1.7139 -0.4560
  756TIP3   OH2 2231   3.738   5.093   4.293 -0.1033 -0.7464  0.5739
  756TIP3    H1 2232   3.789   5.067   4.216 -0.6561 -2.7271  0.8272
  756TIP3    H2 2233   3.679   5.020   4.309  1.6324 -1.6076  4.3363
  757TIP3   OH2 2234   0.332   3.359   2.064 -0.7734  0.6673  0.3345
  757TIP3    H1 2235   0.395   3.393   2.001 -0.3758 -0.3317  0.1714
  757TIP3    H2 2236   0.362   3.270   2.082 -1.6050  0.5034  0.9725
  758TIP3   OH2 2237   2.052   4.196   5.303  0.2083 -0.0199  0.2910
  758TIP3    H1 2238   1.970   4.244   5.316  0.5186  0.5133  0.2847
  758TIP3    H2 2239   2.067   4.152   5.386  0.5060  0.8019  0.6818
  759TIP3   OH2 2240   0.367   6.543   2.118 -0.3354 -0.3208  0.3352
  759TIP3    H1 2241   0.359   6.542   2.023  2.5795  1.0723 -0.0129
  759TIP3    H2 2242   0.459   6.523   2.135 -0.0309  2.4214  2.6700
  760TIP3   OH2 2243   6.684   0.799   1.080 -0.4772  0.4664 -0.2907
  760TIP3    H1 2244   6.666   0.880   1.033 -2.9611 -0.1279 -0.5080
  760TIP3    H2 2245   6.611   0.741   1.057  1.1171 -1.8042 -0.0223
  761TIP3   OH2 2246   2.068   4.818   0.597  0.6399  0.0291  1.0228
  761TIP3    H1 2247   2.076   4.881   0.525  0.8722 -1.2127 -0.0865
  761TIP3    H2 2248   2.102   4.865   0.674  0.5135  1.3491  0.3107
  762TIP3   OH2 2249   5.570   3.395   5.464 -0.3942 -0.1314  0.0557
  762TIP3    H1 2250   5.574   3.483   5.428 -1.1062 -0.4407 -0.8092
  762TIP3    H2 2251   5.640   3.393   5.530  0.0528  0.8658 -0.3691
  763TIP3   OH2 2252   6.168   6.765   2.359 -0.0130 -0.0757  0.4518
  763TIP3    H1 2253   6.198   6.690   2.308  1.9657  0.1433  1.2061
  763TIP3    H2 2254   6.204   6.750   2.446  0.7853  1.9296  0.5184
  764TIP3   OH2 2255   3.162   4.778   4.270 -0.1577  0.3622  0.2243
  764TIP3    H1 2256   3.069   4.762   4.288  0.2988 -1.1442  1.4173
  764TIP3    H2 2257   3.186   4.848   4.331 -1.0546  2.6684 -1.8640
  765TIP3   OH2 2258   6.818   4.755   2.801 -0.5882  0.4822  0.7211
  765TIP3    H1 2259   6.848   4.734   2.890  0.9973 -1.2531 -0.1428
  765TIP3    H2 2260   6.755   4.826   2.813 -1.7509 -0.8485  3.3915
  766TIP3   OH2 2261   6.534   4.086   1.470  0.0509 -0.6080  0.0578
  766TIP3    H1 2262   6.611   4.056   1.421 -1.2476 -1.4430 -1.5780
  766TIP3    H2 2263   6.508   4.010   1.522 -0.1366 -0.5968 -0.0183
  767TIP3   OH2 2264   6.428   5.654   0.732 -0.5687 -0.3095 -0.1291
  767TIP3    H1 2265   6.350   5.633   0.680 -1.4221  0.5181  0.7582
  767TIP3    H2 2266   6.396   5.715   0.799  0.9990  0.6309 -0.1903
  768TIP3   OH2 2267   3.124   5.044   1.539  0.2062  0.0788 -0.1799
  768TIP3    H1 2268   3.047   5.058   1.594 -0.1000  0.7538 -0.7576
  768TIP3    H2 2269   3.114   4.956   1.505 -0.2814  0.1354 -0.1917
  769TIP3   OH2 2270   6.576   1.570   5.816 -0.2506 -0.1112  0.5621
  769TIP3    H1 2271   6.595   1.501   5.880 -0.9578  0.5885  1.5588
  769TIP3    H2 2272   6.509   1.531   5.759  1.6699 -1.3932 -0.9388
  770TIP3   OH2 2273   2.039   5.816   2.187  0.1120  0.1025  0.1699
  770TIP3    H1 2274   2.007   5.745   2.242  1.0192  1.0919  2.0586
  770TIP3    H2 2275   2.094   5.773   2.121 -2.2764 -1.2654 -1.0647
  771TIP3   OH2 2276   5.065   6.142   3.043 -0.2134 -0.1203 -0.5123
  771TIP3    H1 2277   5.045   6.073   3.106  1.2547  1.6895  2.1511
  771TIP3    H2 2278   4.987   6.198   3.044 -0.4369 -0.4290 -0.7690
  772TIP3   OH2 2279   6.995   2.745   0.091  0.2460 -0.1377  0.0928
  772TIP3    H1 2280   7.018   2.781   0.005 -0.1238  0.8797  0.4051
  772TIP3    H2 2281   6.933   2.675   0.072  0.3386 -0.0717 -0.4857
  773TIP3   OH2 2282   3.692   4.488   2.378 -0.1692  0.4069 -0.5841
  773TIP3    H1 2283   3.628   4.558   2.368  0.1306  0.7064 -0.4486
  773TIP3    H2 2284   3.744   4.515   2.454  0.4276  0.4182 -0.9890
  774TIP3   OH2 2285   3.234   5.661   3.141  0.0133 -0.2255  0.0687
  774TIP3    H1 2286   3.310   5.718   3.156 -1.2313  1.4063  0.4181
  774TIP3    H2 2287   3.256   5.613   3.061  0.7166  1.4885 -0.8231
  775TIP3   OH2 2288   1.265   6.091   4.053 -0.3262  0.0799  0.5376
  775TIP3    H1 2289   1.310   6.104   3.969 -2.3092 -1.1648 -0.8047
  775TIP3    H2 2290   1.250   5.997   4.058 -0.7582  0.2014  2.0431
  776TIP3   OH2 2291   2.300   3.036   1.380 -0.0172 -0.5102 -0.0901
  776TIP3    H1 2292   2.242   2.996   1.315 -0.5506 -0.7483  0.5181
  776TIP3    H2 2293   2.386   2.998   1.362 -0.1759 -0.6263 -0.6125
  777TIP3   OH2 2294   0.204   0.102  -0.012  0.1990 -0.0799 -0.1593
  777TIP3    H1 2295   0.136   0.041  -0.041 -0.3298  0.4545 -0.0597
  777TIP3    H2 2296   0.182   0.121   0.079  1.2269 -0.9009  0.2698
  778TIP3   OH2 2297   5.287   6.821   2.855 -0.0732 -0.1455 -0.4446
  778TIP3    H1 2298   5.353   6.803   2.788  0.3155  1.7948 -0.6333
  778TIP3    H2 2299   5.245   6.736   2.870  3.1332 -1.7365  0.4879
  779TIP3   OH2 2300   2.712   6.350   2.441  0.0535  0.0737  0.3476
  779TIP3    H1 2301   2.712   6.414   2.369  1.2065 -0.5324 -0.2279
  779TIP3    H2 2302   2.718   6.265   2.397  0.1197 -0.3456  1.1489
  780TIP3   OH2 2303   4.188   2.382   0.245  0.8642  0.5312 -0.3697
  780TIP3    H1 2304   4.179   2.390   0.150  0.1369  0.9020 -0.2763
  780TIP3    H2 2305   4.195   2.472   0.277  0.2797  0.4486  0.0019
  781TIP3   OH2 2306   6.870   2.131   1.138 -0.3684 -0.1623  0.9990
  781TIP3    H1 2307   6.921   2.161   1.063  0.7885 -1.8469  1.0417
  781TIP3    H2 2308   6.846   2.211   1.185  1.2420  0.7687  0.3128
  782TIP3   OH2 2309   6.555   0.156   4.865 -0.1628 -0.2900 -0.1763
  782TIP3    H1 2310   6.549   0.244   4.900 -0.6807 -0.4101  0.0497
  782TIP3    H2 2311   6.466   0.135   4.835 -0.4714 -1.3707  1.3616
  783TIP3   OH2 2312   6.623   3.720   2.466 -0.0097  0.2256  0.0174
  783TIP3    H1 2313   6.660   3.736   2.379 -0.0095  0.8669  0.1311
  783TIP3    H2 2314   6.564   3.794   2.481 -0.7648 -0.3895  0.1572
  784TIP3   OH2 2315   6.845   2.823   2.734  0.2095 -0.4094  0.4331
  784TIP3    H1 2316   6.892   2.757   2.684  1.0743 -0.0667  0.7787
  784TIP3    H2 2317   6.827   2.781   2.818  0.9536 -0.1330  0.7327
  785TIP3   OH2 2318   2.234   0.049   3.978  0.3252 -0.0201  0.3219
  785TIP3    H1 2319   2.260  -0.037   4.010  1.0041  0.1961  0.3781
  785TIP3    H2 2320   2.186   0.032   3.897 -0.3720 -0.5010  0.8231
  786TIP3   OH2 2321   6.157   6.663   0.921  0.3969 -0.8715  0.5560
  786TIP3    H1 2322   6.179   6.722   0.992  0.4608  0.0560 -0.2108
  786TIP3    H2 2323   6.091   6.604   0.957  0.2258 -0.2363  1.2980
  787TIP3   OH2 2324   2.547   2.124   0.389  0.0266 -0.3056  0.1588
  787TIP3    H1 2325   2.604   2.047   0.381 -0.2808 -0.6260  0.9593
  787TIP3    H2 2326   2.586   2.175   0.460 -0.1383 -0.0371  0.0591
  788TIP3   OH2 2327   2.428   0.982   4.720 -0.3329  0.0252  0.3354
  788TIP3    H1 2328   2.377   0.988   4.640  0.8787  0.7404 -0.4050
  788TIP3    H2 2329   2.364   0.999   4.790 -0.8186  2.8199 -0.6394
  789TIP3   OH2 2330   5.526   5.003   5.547 -0.0074 -0.6388 -0.0329
  789TIP3    H1 2331   5.524   5.037   5.457 -1.3733 -0.1574  0.1557
  789TIP3    H2 2332   5.489   4.915   5.540  0.6135 -0.9009 -0.0517
  790TIP3   OH2 2333   4.182   0.752   5.821  0.3546  0.1332 -0.6049
  790TIP3    H1 2334   4.113   0.746   5.756 -0.2058 -1.2091  0.0896
  790TIP3    H2 2335   4.170   0.838   5.861 -0.7769 -0.0087 -0.6343
  791TIP3   OH2 2336   5.514   1.981   5.066  0.8119  0.5875 -0.0966
  791TIP3    H1 2337   5.526   2.076   5.054  0.2469  0.7388  0.4924
  791TIP3    H2 2338   5.420   1.967   5.054  0.2746  0.6390  3.1580
  792TIP3   OH2 2339   0.180   5.062   2.644 -0.0890 -0.3481 -0.7083
  792TIP3    H1 2340   0.130   5.042   2.565  0.7919  0.6045 -1.5329
  792TIP3    H2 2341   0.269   5.033   2.624 -0.1538 -1.5935  0.5672
  793TIP3   OH2 2342   5.261   6.075   2.880 -0.1822  0.0497 -0.1465
  793TIP3    H1 2343   5.199   6.100   2.811 -0.7081 -1.1263 -0.1302
  793TIP3    H2 2344   5.212   6.091   2.961  0.0860  0.5175 -0.0736
  794TIP3   OH2 2345   6.096   4.222   1.150 -0.0228  0.1187 -0.1606
  794TIP3    H1 2346   6.148   4.175   1.085 -1.1243  1.0278 -1.7562
  794TIP3    H2 2347   6.070   4.303   1.107 -2.6711 -0.2442  0.5544
  795TIP3   OH2 2348   3.332   6.162   0.303  0.0938 -0.1269 -0.0227
  795TIP3    H1 2349   3.417   6.197   0.276  0.1137  0.8289  1.1945
  795TIP3    H2 2350   3.271   6.190   0.234  0.7955 -1.0898 -1.0638
  796TIP3   OH2 2351   3.835   4.249   5.746 -0.2891 -0.7576  0.2001
  796TIP3    H1 2352   3.814   4.270   5.837 -0.8885 -0.2734 -0.0440
  796TIP3    H2 2353   3.751   4.233   5.704 -0.2603  1.4308 -0.8467
  797TIP3   OH2 2354   3.470   6.697   5.000 -0.4468 -0.1225 -0.0150
  797TIP3    H1 2355   3.403   6.702   5.068  0.1661 -1.7814  0.7882
  797TIP3    H2 2356   3.552   6.687   5.049  0.2184  0.4391 -0.9846
  798TIP3   OH2 2357   3.820   0.309   4.415  0.0633 -0.0964 -0.5020
  798TIP3    H1 2358   3.742   0.365   4.416 -0.5463 -0.7585 -3.2695
  798TIP3    H2 2359   3.787   0.221   4.398  1.3832 -0.3664 -1.9517
  799TIP3   OH2 2360   3.673   6.328   0.246  0.4662  0.1972 -0.0551
  799TIP3    H1 2361   3.738   6.384   0.204 -0.0278  0.6339 -0.2356
  799TIP3    H2 2362   3.590   6.353   0.207 -0.0107  0.6133  1.1806
  800TIP3   OH2 2363   4.525   3.490   0.045  0.4546  0.2540 -0.0002
  800TIP3    H1 2364   4.440   3.472   0.085  0.3252  0.4026 -0.2038
  800TIP3    H2 2365   4.588   3.481   0.116  0.0519  2.3919  0.6760
  801TIP3   OH2 2366   0.847   0.271   1.177  0.0063  0.4143  0.3436
  801TIP3    H1 2367   0.830   0.178   1.163 -2.0893  0.8041  0.0410
  801TIP3    H2 2368   0.903   0.273   1.255  0.9996 -1.1213 -0.2710
  802TIP3   OH2 2369   4.394   4.971   1.505 -0.1104  0.1926 -0.0077
  802TIP3    H1 2370   4.307   4.946   1.536  0.4741 -1.5181  0.3895
  802TIP3    H2 2371   4.382   5.058   1.466 -1.8974  0.1708  0.4094
  803TIP3   OH2 2372   5.567   1.442   4.351  0.8199  0.7097  0.2251
  803TIP3    H1 2373   5.531   1.442   4.440 -1.3679  0.6764 -0.6188
  803TIP3    H2 2374   5.649   1.491   4.359  0.9718  0.2155  2.3552
  804TIP3   OH2 2375   0.385   3.581   0.599 -0.1048 -0.4112  0.0437
  804TIP3    H1 2376   0.337   3.549   0.523  0.6995 -1.4105 -0.0703
  804TIP3    H2 2377   0.367   3.516   0.668 -0.7109  0.4053  0.6723
  805TIP3   OH2 2378   3.355   5.493   1.488  0.1738  0.8248 -0.4769
  805TIP3    H1 2379   3.342   5.402   1.462  1.5206  1.0863 -2.3116
  805TIP3    H2 2380   3.384   5.489   1.579  0.7979 -0.6258 -0.7176
  806TIP3   OH2 2381   4.402   3.927   2.056 -0.8858  0.1071  0.1649
  806TIP3    H1 2382   4.463   3.959   1.990 -0.3745 -0.7993  0.1925
  806TIP3    H2 2383   4.369   3.844   2.021  1.6787 -2.0023  2.3332
  807TIP3   OH2 2384   2.032   2.441   3.337  0.3298  0.2501  0.2660
  807TIP3    H1 2385   2.038   2.535   3.355 -0.5085  0.0006  2.1119
  807TIP3    H2 2386   1.966   2.409   3.398 -0.0688 -1.4053 -0.9613
  808TIP3   OH2 2387   3.695   0.517   0.132 -0.4115 -0.0808  0.4469
  808TIP3    H1 2388   3.642   0.518   0.212 -1.1268  2.3715  0.0183
  808TIP3    H2 2389   3.784   0.501   0.162 -1.1767 -3.9895  1.2220
  809TIP3   OH2 2390   5.353   1.002   1.574 -0.1241 -0.3276  0.3324
  809TIP3    H1 2391   5.284   1.012   1.509 -0.5081 -0.4425  0.7141
  809TIP3    H2 2392   5.374   0.909   1.573  0.8661 -0.1101 -0.6200
  810TIP3   OH2 2393   1.924   0.679   3.319  0.0186 -0.0496  0.0173
  810TIP3    H1 2394   1.853   0.634   3.274  1.2519 -1.7768 -0.3373
  810TIP3    H2 2395   1.951   0.749   3.259 -2.0914  1.4417  0.6839
  811TIP3   OH2 2396   6.934   1.086   4.153 -0.4188 -0.7080  0.1269
  811TIP3    H1 2397   6.906   1.146   4.084  0.7095 -0.0701  0.2060
  811TIP3    H2 2398   7.022   1.059   4.127  0.2869  0.0353  1.6163
  812TIP3   OH2 2399   3.308   0.236   2.841  0.1770 -0.5827 -0.6630
  812TIP3    H1 2400   3.255   0.157   2.851  2.1764 -1.9055  0.2326
  812TIP3    H2 2401   3.397   0.203   2.826  1.2668  1.4420  0.8416
  813TIP3   OH2 2402   2.036   6.386   4.729 -0.3369  0.2422  0.6667
  813TIP3    H1 2403   2.001   6.298   4.743 -2.6822  0.6761 -1.7345
  813TIP3    H2 2404   1.960   6.443   4.731  0.7476  1.8202 -0.6235
  814TIP3   OH2 2405   6.359   0.771   2.906 -0.0943 -0.0454  0.2883
  814TIP3    H1 2406   6.435   0.774   2.847  0.0249  1.4096  0.4705
  814TIP3    H2 2407   6.291   0.820   2.859 -0.4124 -0.0005  0.7906
  815TIP3   OH2 2408   6.819   2.069   5.394  0.0240  0.4436  0.2185
  815TIP3    H1 2409   6.786   2.150   5.432  3.0028  3.3645 -2.6777
  815TIP3    H2 2410   6.910   2.064   5.423  0.7560 -0.1696 -1.9336
  816TIP3   OH2 2411   4.246   4.808   0.095 -0.0234  0.5221  0.3454
  816TIP3    H1 2412   4.311   4.764   0.040 -1.1093  0.3739 -0.8572
  816TIP3    H2 2413   4.164   4.762   0.077 -0.9510  2.2060  0.0034
  817TIP3   OH2 2414   1.191   1.991   3.913  0.5438  0.3789 -0.2181
  817TIP3    H1 2415   1.129   1.944   3.857  0.6998 -0.2244  0.1025
  817TIP3    H2 2416   1.136   2.049   3.966  0.5138  2.2251 -2.1369
  818TIP3   OH2 2417   5.956   1.039   5.806 -0.5471  0.5861  0.5807
  818TIP3    H1 2418   6.009   1.061   5.882  0.7753  0.8643 -0.3667
  818TIP3    H2 2419   5.911   0.958   5.829  1.2113 -0.3119  1.0326
  819TIP3   OH2 2420   6.162   2.071   2.670  0.0539  0.2287  0.1738
  819TIP3    H1 2421   6.202   1.992   2.707 -1.9291 -1.4746 -1.1579
  819TIP3    H2 2422   6.078   2.079   2.714  0.5628  2.1566  0.9086
  820TIP3   OH2 2423   1.267   3.907   3.460  0.8497 -0.0667  0.0824
  820TIP3    H1 2424   1.226   3.851   3.395 -0.9878  0.8164  0.4355
  820TIP3    H2 2425   1.253   3.996   3.428  0.1879  0.3678  1.4935
  821TIP3   OH2 2426   6.094   4.577   1.997 -0.4367  0.3786  0.2689
  821TIP3    H1 2427   6.115   4.661   2.038 -2.5128  1.0458  0.0518
  821TIP3    H2 2428   6.059   4.523   2.068 -0.8511  0.3432  0.0388
  822TIP3   OH2 2429   6.453   4.622   2.119 -0.0347  0.4654  0.7168
  822TIP3    H1 2430   6.525   4.636   2.057 -0.0966 -0.4757  0.4206
  822TIP3    H2 2431   6.492   4.572   2.191 -0.5063 -0.5518  0.2851
  823TIP3   OH2 2432   1.826   3.627   2.430 -0.1224 -0.0219  0.3757
  823TIP3    H1 2433   1.832   3.532   2.417 -0.0205 -0.1823  1.5002
  823TIP3    H2 2434   1.858   3.641   2.519 -3.1793  0.6988  1.4780
  824TIP3   OH2 2435   1.695   3.369   1.961  0.1909 -0.3644 -0.2213
  824TIP3    H1 2436   1.740   3.439   1.913 -1.8087  0.9154 -0.3791
  824TIP3    H2 2437   1.665   3.411   2.042 -2.6294 -0.4208 -1.1216
  825TIP3   OH2 2438   2.282   5.876   3.684  0.1116  0.2058  0.8233
  825TIP3    H1 2439   2.344   5.877   3.757  3.4174  0.9439 -1.7333
  825TIP3    H2 2440   2.252   5.966   3.677 -0.7915 -0.0167  1.6695
  826TIP3   OH2 2441   3.689   2.915   3.908  0.1225  0.4576 -0.3320
  826TIP3    H1 2442   3.668   2.871   3.990  1.1400  1.3221  0.4268
  826TIP3    H2 2443   3.707   2.844   3.846 -0.1360 -0.2048  0.3367
  827TIP3   OH2 2444   5.023   3.135   5.793 -0.1408  0.0750 -0.0088
  827TIP3    H1 2445   5.062   3.124   5.706 -1.1667 -0.0976 -0.4673
  827TIP3    H2 2446   5.065   3.213   5.829 -2.0094  2.1495 -2.0063
  828TIP3   OH2 2447   3.814   0.500   5.129  0.3052  0.4366  0.5177
  828TIP3    H1 2448   3.909   0.506   5.114  0.0870 -0.1087 -1.3182
  828TIP3    H2 2449   3.804   0.518   5.223  2.3841 -0.9651  1.0973
  829TIP3   OH2 2450   3.859   6.749   4.022  0.1677 -0.4835  0.5213
  829TIP3    H1 2451   3.915   6.785   3.953  3.1993 -1.9187  2.0335
  829TIP3    H2 2452   3.917   6.739   4.098 -2.4318 -1.1287  2.6018
  830TIP3   OH2 2453   1.021   4.032   2.603 -0.5301  0.0245  0.4918
  830TIP3    H1 2454   1.043   3.984   2.682 -1.6384 -0.6519  0.4178
  830TIP3    H2 2455   1.030   3.968   2.532  1.0435  0.7807 -0.0363
  831TIP3   OH2 2456   5.023   4.906   3.735 -0.5427  0.3990 -0.1930
  831TIP3    H1 2457   4.952   4.972   3.732 -1.0669 -0.1920 -1.2484
  831TIP3    H2 2458   5.037   4.892   3.829 -0.9580  1.4414  0.0515
  832TIP3   OH2 2459   5.521   4.420   4.010  0.1670  0.2519 -0.2265
  832TIP3    H1 2460   5.604   4.379   3.986 -0.9487 -1.8322 -0.8010
  832TIP3    H2 2461   5.495   4.470   3.933  0.1902 -0.3163 -0.6065
  833TIP3   OH2 2462   2.028   6.251   2.346 -0.1218 -0.1520  0.5381
  833TIP3    H1 2463   2.118   6.232   2.372 -0.4644  0.5689  2.3643
  833TIP3    H2 2464   1.985   6.282   2.426 -1.4070  1.6471 -0.7710
  834TIP3   OH2 2465   6.341   1.327   3.727  0.1446 -0.6181  0.2409
  834TIP3    H1 2466   6.422   1.372   3.704 -0.3758  0.5424  0.5951
  834TIP3    H2 2467   6.338   1.330   3.823 -1.4261  1.4613  0.1929
  835TIP3   OH2 2468   0.321   4.873   2.869 -0.0808 -0.0784  0.5264
  835TIP3    H1 2469   0.415   4.889   2.873 -0.0898 -0.2088  1.4989
  835TIP3    H2 2470   0.295   4.907   2.784  0.7591  0.4093  0.4505
  836TIP3   OH2 2471   1.550   2.497   1.953  1.1078 -0.0069  0.2029
  836TIP3    H1 2472   1.568   2.587   1.927 -0.6743  0.4545  0.4057
  836TIP3    H2 2473   1.570   2.495   2.047  2.4285 -0.2047 -0.0736
  837TIP3   OH2 2474   4.014   1.463   1.903  0.7381 -0.0629  0.3740
  837TIP3    H1 2475   3.976   1.546   1.931 -1.4764 -0.6389 -0.7046
  837TIP3    H2 2476   4.037   1.477   1.811  3.0483  0.1983  0.9412
  838TIP3   OH2 2477   1.799   3.152   3.575 -0.5247  0.3592  0.1878
  838TIP3    H1 2478   1.869   3.168   3.639 -0.4992  0.3885  0.1529
  838TIP3    H2 2479   1.723   3.197   3.611 -0.8329 -0.6412  0.7951
  839TIP3   OH2 2480   6.902   6.260   3.493 -0.0989  0.3046 -0.5537
  839TIP3    H1 2481   6.985   6.240   3.449 -0.5052 -2.5654 -0.2340
  839TIP3    H2 2482   6.908   6.215   3.578 -1.6612  0.7143 -0.1844
  840TIP3   OH2 2483   2.616   1.441   0.453 -0.3848  0.0787  0.7167
  840TIP3    H1 2484   2.662   1.518   0.487  0.0839 -0.2531  0.8448
  840TIP3    H2 2485   2.685   1.375   0.440 -0.9301 -0.7427  1.7887
  841TIP3   OH2 2486   4.516   5.849   5.258  0.5876 -0.7063  0.0764
  841TIP3    H1 2487   4.464   5.902   5.317 -2.3722 -1.2641 -1.8485
  841TIP3    H2 2488   4.534   5.906   5.183  0.5470 -1.3053 -0.4009
  842TIP3   OH2 2489   0.319   6.299   1.910  0.2027 -0.2281 -0.2717
  842TIP3    H1 2490   0.297   6.373   1.853 -0.2744 -1.9057 -2.4362
  842TIP3    H2 2491   0.413   6.307   1.923  0.1969  0.6319 -0.6519
  843TIP3   OH2 2492   1.197   2.175   5.123  0.0645  0.0815  0.1201
  843TIP3    H1 2493   1.213   2.102   5.063 -1.9704  0.1762 -0.6477
  843TIP3    H2 2494   1.157   2.242   5.068  0.1599  1.0319  1.1757
  844TIP3   OH2 2495   6.946   5.051   1.500 -0.0984  0.2069 -0.0954
  844TIP3    H1 2496   6.912   5.131   1.459  0.0642  0.3362  0.0184
  844TIP3    H2 2497   7.003   5.083   1.571 -0.1049 -0.0105  0.0094
  845TIP3   OH2 2498   2.127   5.019   1.473  0.1956 -0.5419 -0.3017
  845TIP3    H1 2499   2.144   5.098   1.421  3.5463 -0.7656  0.2038
  845TIP3    H2 2500   2.093   5.053   1.556 -0.3072  0.2165 -0.8062
  846TIP3   OH2 2501   6.099   5.611   4.130 -0.1184  0.5505  0.4856
  846TIP3    H1 2502   6.089   5.653   4.215  0.0299  0.8988  0.3311
  846TIP3    H2 2503   6.194   5.603   4.118 -0.1499 -0.4560  0.8239
  847TIP3   OH2 2504   7.117   3.930   0.055  0.4443  0.2023 -0.3176
  847TIP3    H1 2505   7.085   4.002   0.109  1.4862  0.4444  0.0166
  847TIP3    H2 2506   7.203   3.908   0.093 -0.3077 -1.9536  0.2723
  848TIP3   OH2 2507   5.522   0.144   3.112 -0.3405  0.5354  0.0447
  848TIP3    H1 2508   5.534   0.119   3.020 -1.1757  2.0788 -0.5134
  848TIP3    H2 2509   5.587   0.091   3.159  2.2345  1.8282 -1.7544
  849TIP3   OH2 2510   3.509   3.051   4.110  0.2337 -0.2815  0.0659
  849TIP3    H1 2511   3.480   3.031   4.021  1.2280 -1.6603  0.0175
  849TIP3    H2 2512   3.483   2.975   4.162  1.3152 -0.3432  0.5545
  850TIP3   OH2 2513   3.106   2.696   5.572  0.1145 -0.5631 -0.2713
  850TIP3    H1 2514   3.189   2.740   5.554 -0.0348  0.0155  0.4021
  850TIP3    H2 2515   3.110   2.614   5.522  0.4321  0.1746 -1.4902
  851TIP3   OH2 2516   6.624   4.804   0.766 -0.1970  0.0081 -0.0680
  851TIP3    H1 2517   6.720   4.795   0.759 -0.2053  0.9502 -3.1639
  851TIP3    H2 2518   6.611   4.871   0.833  1.4200  0.8712 -0.5442
  852TIP3   OH2 2519   4.309   1.247   5.098 -0.2213  0.0595  0.5333
  852TIP3    H1 2520   4.239   1.229   5.160  0.5685 -0.6889  1.2299
  852TIP3    H2 2521   4.289   1.334   5.063 -0.5309  0.6219  2.0575
  853TIP3   OH2 2522   0.145   1.924   0.738 -0.1156  0.1301 -0.0213
  853TIP3    H1 2523   0.183   1.966   0.814 -0.4740 -1.8285  1.3094
  853TIP3    H2 2524   0.127   1.834   0.766  0.1189 -0.7893 -2.5378
  854TIP3   OH2 2525   5.478   2.547   1.528  0.4792 -0.1127  0.2034
  854TIP3    H1 2526   5.454   2.634   1.495 -1.0773 -0.8323 -0.6852
  854TIP3    H2 2527   5.409   2.526   1.591  0.7324 -0.7925  0.2595
  855TIP3   OH2 2528   0.706   1.262   1.572 -1.0400 -0.3528 -0.1530
  855TIP3    H1 2529   0.624   1.287   1.529 -0.1788  0.3458 -1.4624
  855TIP3    H2 2530   0.741   1.191   1.519 -0.8323 -0.6999  0.4406
  856TIP3   OH2 2531   1.252   5.271   3.683 -0.3139 -0.0496 -0.2726
  856TIP3    H1 2532   1.312   5.202   3.656  2.1607  2.0059 -0.4156
  856TIP3    H2 2533   1.169   5.226   3.698  1.3210 -3.1205  0.3615
  857TIP3   OH2 2534   5.528   0.358   0.932  0.3534  0.2029 -0.2568
  857TIP3    H1 2535   5.568   0.404   1.005 -0.4016  0.9250 -0.2749
  857TIP3    H2 2536   5.591   0.290   0.908  0.3718 -0.4098  1.4064
  858TIP3   OH2 2537   7.252   6.115   4.172  0.8664  0.0952 -0.8870
  858TIP3    H1 2538   7.224   6.086   4.259  0.1845 -1.3939 -1.5786
  858TIP3    H2 2539   7.187   6.080   4.112  0.9544  1.6717 -1.9707
  859TIP3   OH2 2540   1.440   1.665   3.376  0.4436 -0.0724 -0.2664
  859TIP3    H1 2541   1.366   1.699   3.326  1.5070  1.8458 -0.6235
  859TIP3    H2 2542   1.491   1.615   3.313  0.8228  0.8087 -0.6664
  860TIP3   OH2 2543   3.035   4.066   4.856 -0.4916  0.0699  0.0444
  860TIP3    H1 2544   3.009   3.988   4.906  1.3069  0.3782  1.5847
  860TIP3    H2 2545   3.111   4.038   4.805 -1.8300 -0.0147 -2.0114
  861TIP3   OH2 2546   6.294   1.594   1.282 -0.1851 -0.2275  0.3708
  861TIP3    H1 2547   6.337   1.513   1.253 -0.5530 -0.4832  0.5407
  861TIP3    H2 2548   6.325   1.660   1.219  0.7606 -0.3206  0.7138
  862TIP3   OH2 2549   2.114   0.246   3.464  0.5177 -0.1256  0.0102
  862TIP3    H1 2550   2.086   0.176   3.405  0.8017 -1.3077  1.2383
  862TIP3    H2 2551   2.186   0.207   3.514  0.1455  0.7822  1.2817
  863TIP3   OH2 2552   1.611   1.651   0.499  0.4851 -0.3848 -0.1508
  863TIP3    H1 2553   1.701   1.619   0.503  0.0741 -1.4304  2.9021
  863TIP3    H2 2554   1.570   1.600   0.429  1.8252 -0.9914 -0.5234
  864TIP3   OH2 2555   4.994   3.876   5.210  0.0272 -0.2529 -0.0502
  864TIP3    H1 2556   5.037   3.936   5.272 -1.0708  0.9499 -0.4031
  864TIP3    H2 2557   4.946   3.933   5.151 -0.8474 -1.4856 -0.5761
  865TIP3   OH2 2558   6.647   3.916   0.218 -0.6498 -0.1656  0.0186
  865TIP3    H1 2559   6.580   3.946   0.156  1.5535  2.1168 -1.4549
  865TIP3    H2 2560   6.670   3.828   0.188 -3.3609 -1.3404  1.0136
  866TIP3   OH2 2561   0.833   3.416   3.662 -0.0834  0.6655  0.1245
  866TIP3    H1 2562   0.826   3.322   3.675  1.2292  0.6726  1.2273
  866TIP3    H2 2563   0.925   3.430   3.638 -0.5143  1.5719 -1.1482
  867TIP3   OH2 2564   5.131   5.814   1.069 -0.0016 -0.3131  0.0586
  867TIP3    H1 2565   5.044   5.838   1.101 -0.8568  0.8421 -2.8009
  867TIP3    H2 2566   5.190   5.876   1.113 -1.3266  2.4023 -1.6783
  868TIP3   OH2 2567   0.895   0.045   2.086  0.2757 -0.6174 -0.2043
  868TIP3    H1 2568   0.903   0.033   2.181  0.8879 -0.2916 -0.2060
  868TIP3    H2 2569   0.972   0.000   2.050 -0.1156 -0.9963 -0.5707
  869TIP3   OH2 2570   3.773   2.235   2.672  0.1309  0.2301  0.1155
  869TIP3    H1 2571   3.678   2.235   2.656  0.1511  2.1333 -0.2556
  869TIP3    H2 2572   3.811   2.200   2.592 -0.2434 -0.1852  0.1177
  870TIP3   OH2 2573   5.575   6.101   2.129 -0.6465 -0.2751  0.8691
  870TIP3    H1 2574   5.602   6.190   2.150 -1.3799  0.1127  0.1766
  870TIP3    H2 2575   5.579   6.096   2.034 -2.1306 -0.4812  0.7988
  871TIP3   OH2 2576   4.213   3.485   5.677 -0.0630  0.3300  0.4587
  871TIP3    H1 2577   4.172   3.570   5.695 -1.3593 -0.4079  1.1488
  871TIP3    H2 2578   4.251   3.494   5.590 -0.0499  1.6587  0.5836
  872TIP3   OH2 2579   4.755   5.106   1.695  0.2169  0.0681 -0.6515
  872TIP3    H1 2580   4.819   5.046   1.733  1.5774  0.5340 -2.0954
  872TIP3    H2 2581   4.746   5.176   1.760  2.3031  0.7238 -1.0008
  873TIP3   OH2 2582   1.440   0.228   5.128  0.1492 -0.3478 -0.3129
  873TIP3    H1 2583   1.414   0.143   5.164 -1.9223  0.6166  0.6131
  873TIP3    H2 2584   1.400   0.231   5.042  0.3068 -0.3334 -0.3872
  874TIP3   OH2 2585   0.501   3.116   1.360 -0.4288  0.6721 -0.3451
  874TIP3    H1 2586   0.428   3.153   1.310  0.3060  2.5317 -0.0964
  874TIP3    H2 2587   0.540   3.191   1.405 -0.3025 -0.7450  2.0803
  875TIP3   OH2 2588   6.898   6.734   4.334  0.3575 -0.0782 -0.3560
  875TIP3    H1 2589   6.923   6.803   4.395 -1.6360  0.1846  0.2265
  875TIP3    H2 2590   6.964   6.665   4.347  0.7233  0.5210  1.1411
  876TIP3   OH2 2591   2.805   0.468   3.467  0.3048 -0.5249  0.1286
  876TIP3    H1 2592   2.734   0.532   3.463 -1.4039 -2.3752 -1.0986
  876TIP3    H2 2593   2.879   0.512   3.424 -0.3917  1.0742  0.4803
  877TIP3   OH2 2594   0.824   1.668   0.078 -0.0370  0.4392 -0.0790
  877TIP3    H1 2595   0.918   1.686   0.081  0.1681 -0.5874  0.5609
  877TIP3    H2 2596   0.805   1.655  -0.014  0.9049 -1.4031 -0.0663
  878TIP3   OH2 2597   5.529   4.025   3.893  0.4035 -0.1975 -0.0212
  878TIP3    H1 2598   5.437   4.024   3.868  0.1775 -2.0548  0.7372
  878TIP3    H2 2599   5.572   4.072   3.822 -1.3348  2.4501  0.5543
  879TIP3   OH2 2600   1.411   5.469   4.662  0.0625 -0.3058 -0.8114
  879TIP3    H1 2601   1.355   5.416   4.719  1.3158 -1.9870 -1.0631
  879TIP3    H2 2602   1.494   5.421   4.659  0.6985  0.8083 -2.4394
  880TIP3   OH2 2603   5.002   5.095   3.351  0.4025  0.0403  0.6618
  880TIP3    H1 2604   5.047   5.011   3.364  2.8782  1.2426  0.4393
  880TIP3    H2 2605   5.047   5.155   3.409  0.0207  1.6725 -0.6584
  881TIP3   OH2 2606   4.426   2.999   4.395 -0.3402  0.4855  0.1837
  881TIP3    H1 2607   4.343   2.961   4.364 -1.9911  1.9909  2.4038
  881TIP3    H2 2608   4.420   3.091   4.370  0.0427  0.8784  1.4753
  882TIP3   OH2 2609   1.862   1.804   2.791  0.0127 -0.0946 -0.0121
  882TIP3    H1 2610   1.854   1.893   2.756  2.9843  0.3618  0.2065
  882TIP3    H2 2611   1.899   1.753   2.718 -0.4278 -0.8393  0.2764
  883TIP3   OH2 2612   3.897   4.306   0.813  0.5251  0.0975  0.1623
  883TIP3    H1 2613   3.865   4.380   0.865  0.2029  0.7262 -0.9049
  883TIP3    H2 2614   3.892   4.232   0.873  0.5049  0.8569  1.1453
  884TIP3   OH2 2615   4.776   4.869   3.903  0.5859  0.4194  0.6044
  884TIP3    H1 2616   4.858   4.834   3.868 -1.1952 -0.8160 -2.7919
  884TIP3    H2 2617   4.793   4.962   3.914  2.5715  0.1283  0.4141
  885TIP3   OH2 2618   7.032   6.761   4.678 -0.2650 -0.0459 -0.4709
  885TIP3    H1 2619   7.098   6.804   4.624  1.3967 -0.9193  0.7572
  885TIP3    H2 2620   7.075   6.681   4.710 -0.3612  1.2726  3.6214
  886TIP3   OH2 2621   4.457   5.287   4.353 -0.5316  0.1026  0.1218
  886TIP3    H1 2622   4.447   5.300   4.258 -0.0131  1.6548  0.2410
  886TIP3    H2 2623   4.532   5.229   4.362 -0.1302  0.5189 -0.4241
  887TIP3   OH2 2624   5.511   2.632   3.535 -0.0777 -0.3349 -0.4117
  887TIP3    H1 2625   5.447   2.688   3.578 -0.2895  1.0235 -2.3518
  887TIP3    H2 2626   5.475   2.543   3.543 -0.0918 -0.1733  2.1011
  888TIP3   OH2 2627   2.436   4.618   1.677 -0.3715  0.0752  0.0856
  888TIP3    H1 2628   2.413   4.668   1.756  1.3643 -0.3904  0.9266
  888TIP3    H2 2629   2.372   4.647   1.612 -1.5870  0.7930  1.5259
  889TIP3   OH2 2630   2.292   0.775   3.303  0.5205 -0.4687  0.0636
  889TIP3    H1 2631   2.275   0.689   3.342  1.8490 -1.1513 -0.7735
  889TIP3    H2 2632   2.262   0.766   3.212  0.5446 -0.0033  0.0069
  890TIP3   OH2 2633   4.249   1.027   4.766  0.2213 -0.5794  0.6111
  890TIP3    H1 2634   4.235   1.093   4.698 -1.6022  0.3081  1.7734
  890TIP3    H2 2635   4.163   0.989   4.781  0.4752 -0.4308  2.7201
  891TIP3   OH2 2636   0.557   5.215   1.570  0.2958 -0.0411  0.3492
  891TIP3    H1 2637   0.577   5.302   1.604  2.9437 -0.5341  0.2936
  891TIP3    H2 2638   0.519   5.231   1.484 -0.6264  1.0592  0.9379
  892TIP3   OH2 2639   1.272   2.671   0.464  0.1354  0.3749  0.1435
  892TIP3    H1 2640   1.214   2.668   0.540 -0.6890 -0.5679 -0.4982
  892TIP3    H2 2641   1.309   2.583   0.459 -1.4937 -0.2549 -1.7939
  893TIP3   OH2 2642   3.625   5.300   5.605 -0.5345 -0.2471  0.4280
  893TIP3    H1 2643   3.675   5.284   5.684  0.1118  1.0598  0.3178
  893TIP3    H2 2644   3.579   5.218   5.588  0.5958 -1.0768  1.2327
  894TIP3   OH2 2645   2.999   6.655   2.660 -0.1650  0.2870  0.3200
  894TIP3    H1 2646   2.912   6.695   2.660  0.0574  0.7861  0.8868
  894TIP3    H2 2647   2.982   6.561   2.658 -0.7277  0.3752  0.8016
  895TIP3   OH2 2648   2.603   2.461   5.449  0.3397  0.2909 -0.4118
  895TIP3    H1 2649   2.653   2.537   5.479  0.1495  0.1533  0.2742
  895TIP3    H2 2650   2.591   2.475   5.355 -0.3721  1.4982 -0.1561
  896TIP3   OH2 2651   0.921   4.622   5.097  0.4555  0.4536 -0.3374
  896TIP3    H1 2652   0.852   4.658   5.152 -0.1468 -0.0673 -0.7437
  896TIP3    H2 2653   0.960   4.699   5.055 -0.8361  0.6597 -1.2198
  897TIP3   OH2 2654   3.701   6.729   5.172  0.3845  0.0019  0.0678
  897TIP3    H1 2655   3.711   6.808   5.120 -0.1936 -0.1795 -0.3241
  897TIP3    H2 2656   3.680   6.760   5.260 -1.0763  0.2735 -0.3520
  898TIP3   OH2 2657   3.580   5.309   0.230 -0.2572  0.6375 -0.1143
  898TIP3    H1 2658   3.558   5.389   0.276 -2.2061  0.6091 -0.9082
  898TIP3    H2 2659   3.516   5.245   0.260 -1.1994  0.4431 -2.3312
  899TIP3   OH2 2660   1.717   3.225   2.997  0.1135  0.2982  1.0108
  899TIP3    H1 2661   1.688   3.221   3.088  0.5408  1.0852  1.1900
  899TIP3    H2 2662   1.791   3.165   2.993 -1.3617 -1.5851  0.5917
  900TIP3   OH2 2663   5.639   1.323   3.512  0.1405  0.5623 -0.0672
  900TIP3    H1 2664   5.607   1.387   3.449 -1.7031 -1.1795 -0.9835
  900TIP3    H2 2665   5.681   1.255   3.458 -3.1046 -1.9094  0.2556
  901TIP3   OH2 2666   2.603   1.710   3.779  0.0726  0.3781  0.6814
  901TIP3    H1 2667   2.652   1.630   3.759  0.2223  0.8130 -0.8384
  901TIP3    H2 2668   2.540   1.683   3.846  0.6099 -0.8303  0.7322
  902TIP3   OH2 2669   5.861   3.650   2.522  0.3670 -0.3170 -0.0461
  902TIP3    H1 2670   5.831   3.736   2.492 -1.4779 -0.6652  0.6211
  902TIP3    H2 2671   5.862   3.658   2.618  0.6333 -0.8922  0.0003
  903TIP3   OH2 2672   1.957   3.963   3.222 -0.0650 -0.1368  0.6500
  903TIP3    H1 2673   1.983   4.009   3.143  1.6614  0.5209  1.5420
  903TIP3    H2 2674   2.038   3.955   3.273 -0.8399 -1.8436  1.6945
  904TIP3   OH2 2675   0.173   1.000   5.679 -0.5657 -0.0111 -0.2165
  904TIP3    H1 2676   0.199   1.063   5.611  0.2770 -0.7942 -0.6349
  904TIP3    H2 2677   0.127   0.931   5.632  0.9249 -1.0781 -0.1669
  905TIP3   OH2 2678   6.602   0.288   2.675  0.1968 -0.0156 -0.2819
  905TIP3    H1 2679   6.659   0.364   2.683 -0.0577  0.2088 -0.5685
  905TIP3    H2 2680   6.516   0.320   2.701  0.2975 -0.4920  0.7043
  906TIP3   OH2 2681   5.612   0.480   1.169  0.5968 -0.1124  0.3237
  906TIP3    H1 2682   5.548   0.536   1.213  0.6797 -0.4992  0.9449
  906TIP3    H2 2683   5.670   0.450   1.238  0.6474 -0.8447 -0.0249
  907TIP3   OH2 2684   0.316   6.459   2.894  0.3820  0.6799 -0.2412
  907TIP3    H1 2685   0.304   6.443   2.800  0.2684  1.3262 -0.3393
  907TIP3    H2 2686   0.282   6.547   2.908  0.4213  0.5950  0.4058
  908TIP3   OH2 2687   4.582   0.009   3.374  0.3638  0.3416 -0.0561
  908TIP3    H1 2688   4.524   0.060   3.431 -0.0118 -0.4411  0.2731
  908TIP3    H2 2689   4.626   0.075   3.320 -0.8719  0.9518 -0.3605
  909TIP3   OH2 2690   6.740   0.686   3.273 -0.1848  0.0089  0.0229
  909TIP3    H1 2691   6.688   0.763   3.250 -0.6141  0.2053  1.5666
  909TIP3    H2 2692   6.680   0.613   3.263 -0.6922  0.1977  1.4285
  910TIP3   OH2 2693   3.786   5.875   5.420 -0.0387  0.7217 -0.1518
  910TIP3    H1 2694   3.850   5.946   5.420  1.9482 -0.9472  1.0795
  910TIP3    H2 2695   3.834   5.800   5.384 -1.6815 -0.2993 -0.3029
  911TIP3   OH2 2696   2.677   6.123   4.035 -0.6042 -0.4443  0.4063
  911TIP3    H1 2697   2.677   6.144   4.128 -0.2698 -0.7358  0.4707
  911TIP3    H2 2698   2.671   6.208   3.991 -1.7594 -0.3503  0.7008
  912TIP3   OH2 2699   0.940   6.066   0.532 -0.5605 -0.4245  0.3040
  912TIP3    H1 2700   0.935   5.987   0.478 -1.4933 -0.4747  0.4400
  912TIP3    H2 2701   0.975   6.036   0.616  2.1017 -0.1351 -0.6242
  913TIP3   OH2 2702   1.862   0.744   1.823  0.3641 -0.1078  0.8985
  913TIP3    H1 2703   1.798   0.815   1.817 -0.2341 -0.7109 -0.3050
  913TIP3    H2 2704   1.850   0.707   1.910 -1.0178 -0.2872  0.6472
  914TIP3   OH2 2705   6.242   0.493   0.756 -0.2045  0.0129 -0.1590
  914TIP3    H1 2706   6.159   0.450   0.776  0.3179 -1.0146 -0.1221
  914TIP3    H2 2707   6.249   0.563   0.822  0.4623 -1.9308  1.9761
  915TIP3   OH2 2708   3.404   5.391   1.761 -0.3400  0.0988 -0.2082
  915TIP3    H1 2709   3.493   5.354   1.767 -0.3315  0.1039 -0.2989
  915TIP3    H2 2710   3.392   5.437   1.844 -0.5754 -0.6087  0.1570
  916TIP3   OH2 2711   6.386   0.460   2.757 -0.5419 -0.3486 -0.1096
  916TIP3    H1 2712   6.335   0.443   2.678  1.5282 -0.6586 -1.4474
  916TIP3    H2 2713   6.396   0.555   2.759 -1.6869 -0.2253  0.5330
  917TIP3   OH2 2714   3.935   6.568   3.015 -0.5022  0.0084 -0.2401
  917TIP3    H1 2715   3.995   6.494   3.006 -0.5708 -0.1619  0.5844
  917TIP3    H2 2716   3.921   6.598   2.926  0.4894 -0.2023 -0.4867
  918TIP3   OH2 2717   1.670   6.543   2.564 -0.2327 -0.2402 -0.5379
  918TIP3    H1 2718   1.648   6.628   2.600 -2.9735 -1.7469  1.7658
  918TIP3    H2 2719   1.757   6.524   2.599 -0.0897  1.0906 -0.1192
  919TIP3   OH2 2720   6.084   3.601   1.036  0.1929  0.7015  0.0887
  919TIP3    H1 2721   6.000   3.563   1.063  0.0473  1.2232  0.3841
  919TIP3    H2 2722   6.110   3.549   0.961  0.5137 -0.6558  1.1126
  920TIP3   OH2 2723   2.187   2.475   1.194 -0.3042  0.0241  0.5327
  920TIP3    H1 2724   2.092   2.468   1.199 -0.2792 -1.9912 -0.6890
  920TIP3    H2 2725   2.216   2.482   1.285 -1.6043  0.8019  0.9078
  921TIP3   OH2 2726   0.611   6.282   5.099 -0.4146  0.1487 -0.1469
  921TIP3    H1 2727   0.520   6.253   5.105 -0.6788  1.0234  0.2581
  921TIP3    H2 2728   0.620   6.317   5.011 -0.4706  0.0733 -0.1826
  922TIP3   OH2 2729   1.522   1.353   4.685  0.6428 -0.0294  0.5434
  922TIP3    H1 2730   1.502   1.356   4.779 -0.8228  0.1179  0.2500
  922TIP3    H2 2731   1.539   1.444   4.661 -0.0808  0.0833  0.4493
  923TIP3   OH2 2732   3.048   0.189   4.982  0.4281  0.0917  0.9348
  923TIP3    H1 2733   2.982   0.156   5.043  1.0401 -0.3953  1.3500
  923TIP3    H2 2734   3.125   0.206   5.036  0.3124  1.7057  0.6403
  924TIP3   OH2 2735   3.558   3.336   4.018 -0.0399 -0.2832 -0.1913
  924TIP3    H1 2736   3.620   3.391   4.067 -1.1318  1.3277 -0.5451
  924TIP3    H2 2737   3.491   3.313   4.083  0.0644 -0.6490 -0.2110
  925TIP3   OH2 2738   6.274   3.063   2.628 -0.4681  0.3087 -0.2885
  925TIP3    H1 2739   6.231   3.014   2.697  1.1886 -0.3682  0.3206
  925TIP3    H2 2740   6.309   3.141   2.672  0.3140  0.0330 -0.3929
  926TIP3   OH2 2741   5.209   0.053   4.470  0.0420  0.5526  0.0157
  926TIP3    H1 2742   5.170  -0.034   4.480  1.2579 -0.0752 -0.6173
  926TIP3    H2 2743   5.268   0.045   4.396  0.8598  1.6759  0.5197
  927TIP3   OH2 2744   2.323   1.281   3.324  0.7259  0.3586  0.7122
  927TIP3    H1 2745   2.272   1.224   3.383 -0.0949  0.3142 -0.0161
  927TIP3    H2 2746   2.358   1.349   3.381 -0.0391  0.3095  1.2607
  928TIP3   OH2 2747   5.933   4.339   4.134 -0.0116  0.9314  0.8790
  928TIP3    H1 2748   5.972   4.273   4.077  0.7400  2.0826  0.0093
  928TIP3    H2 2749   5.921   4.295   4.218 -3.5910 -1.6608 -0.7389
  929TIP3   OH2 2750   1.052   5.352   0.841  0.3171 -0.1897  0.0402
  929TIP3    H1 2751   0.971   5.301   0.841 -0.2674  0.7120 -0.1863
  929TIP3    H2 2752   1.096   5.327   0.922  0.0563 -1.0619 -0.0813
  930TIP3   OH2 2753   1.793   2.905   4.531 -0.0231  0.2700  0.1577
  930TIP3    H1 2754   1.801   3.000   4.540  0.8627  0.3455 -1.1088
  930TIP3    H2 2755   1.699   2.890   4.517 -0.2408  0.8922  0.8800
  931TIP3   OH2 2756   6.175   6.311   5.777 -0.1809 -0.4285 -0.0228
  931TIP3    H1 2757   6.081   6.327   5.779 -0.3822 -1.5311  0.8542
  931TIP3    H2 2758   6.198   6.314   5.685 -0.9659  0.4297 -0.2025
  932TIP3   OH2 2759   3.567   4.700   2.601  0.2772 -0.3963 -0.1732
  932TIP3    H1 2760   3.634   4.646   2.642  1.9392  1.7176  0.0396
  932TIP3    H2 2761   3.584   4.789   2.633 -1.2330  0.5755 -1.8775
  933TIP3   OH2 2762   4.228   1.020   3.607 -0.6489 -0.5727 -0.0423
  933TIP3    H1 2763   4.148   1.062   3.576  0.5457  1.0708 -1.0512
  933TIP3    H2 2764   4.287   1.020   3.532  1.0927  0.3233  1.2433
  934TIP3   OH2 2765   2.709   6.099   3.757  0.5687  0.0178  0.0221
  934TIP3    H1 2766   2.804   6.083   3.758  0.4909 -0.4641  0.4737
  934TIP3    H2 2767   2.680   6.072   3.844 -0.3362 -1.9762 -0.8508
  935TIP3   OH2 2768   0.466   0.063   0.414  0.1259 -0.5354  0.0297
  935TIP3    H1 2769   0.556   0.066   0.380  0.9481 -0.5048  2.0938
  935TIP3    H2 2770   0.454   0.146   0.458 -0.8005 -0.7003  0.1085
  936TIP3   OH2 2771   5.394   4.042   5.546  0.0731 -0.1790  0.5852
  936TIP3    H1 2772   5.412   3.948   5.542 -0.4267 -0.4143  2.5894
  936TIP3    H2 2773   5.479   4.084   5.536  0.2326 -0.7888 -0.8741
  937TIP3   OH2 2774   5.367   5.179   2.985 -0.3273 -0.0663  0.1044
  937TIP3    H1 2775   5.460   5.176   3.007 -0.3825  0.2729  0.3908
  937TIP3    H2 2776   5.322   5.174   3.069 -0.6000 -1.4097 -0.1095
  938TIP3   OH2 2777   4.126   6.520   0.964 -0.0498  0.0991 -0.2335
  938TIP3    H1 2778   4.067   6.594   0.952  0.0017  0.2740  0.5658
  938TIP3    H2 2779   4.126   6.503   1.058 -0.0501 -0.9127 -0.4011
  939TIP3   OH2 2780   7.006   1.293   3.969  0.1846 -0.3415 -0.2744
  939TIP3    H1 2781   7.025   1.269   3.879 -1.5488 -0.0036 -0.7703
  939TIP3    H2 2782   7.059   1.371   3.986  2.4518 -1.8301 -0.1188
  940TIP3   OH2 2783   5.051   2.441   0.360 -0.5853  0.4149  0.1238
  940TIP3    H1 2784   5.013   2.525   0.383 -0.2625  0.5362  0.2329
  940TIP3    H2 2785   5.027   2.383   0.433  0.2163  0.7324  0.6590
  941TIP3   OH2 2786   3.485   3.756   2.382 -0.0023  0.4085 -0.1782
  941TIP3    H1 2787   3.417   3.815   2.415  0.0206 -0.0530  0.7284
  941TIP3    H2 2788   3.517   3.711   2.460  1.1648  0.4212 -0.6269
  942TIP3   OH2 2789   4.847   5.766   5.310 -0.5709 -0.0631  0.4159
  942TIP3    H1 2790   4.836   5.803   5.223 -2.1975  0.1159  0.6653
  942TIP3    H2 2791   4.936   5.730   5.310 -0.2205  0.7398 -0.9944
  943TIP3   OH2 2792   1.344   4.438   0.678 -0.2085  0.1855  0.2379
  943TIP3    H1 2793   1.338   4.507   0.612 -0.5357  0.0719  0.1468
  943TIP3    H2 2794   1.298   4.363   0.640 -1.7172  0.5792  1.1863
  944TIP3   OH2 2795   6.422   5.165   3.526  0.1264 -0.4519  0.2259
  944TIP3    H1 2796   6.341   5.143   3.571 -0.2718 -0.8776 -0.6801
  944TIP3    H2 2797   6.475   5.085   3.531 -0.0766 -0.6291 -0.3899
  945TIP3   OH2 2798   6.088   2.479   2.256 -0.3853 -0.7418  0.0397
  945TIP3    H1 2799   6.097   2.433   2.172 -0.7453 -0.2307 -0.2922
  945TIP3    H2 2800   6.171   2.524   2.267 -0.5375 -0.3625 -0.3254
  946TIP3   OH2 2801   2.651   5.636   2.622 -0.3608 -0.4544 -0.2183
  946TIP3    H1 2802   2.681   5.548   2.645 -0.6997 -0.2321  1.1317
  946TIP3    H2 2803   2.664   5.688   2.701 -1.5774  0.3525 -0.5143
  947TIP3   OH2 2804   6.864   3.902   4.098 -0.1526 -0.5554 -0.0057
  947TIP3    H1 2805   6.909   3.867   4.021  2.1799  0.1232  0.9557
  947TIP3    H2 2806   6.921   3.973   4.129 -2.0720  0.5636  1.1683
  948TIP3   OH2 2807   6.199   1.452   4.006 -0.1611  0.4503  0.5933
  948TIP3    H1 2808   6.183   1.360   3.984 -0.0277  0.6377 -0.3237
  948TIP3    H2 2809   6.240   1.449   4.092  0.6272 -0.4071  0.2083
  949TIP3   OH2 2810   4.838   4.312   4.159 -0.3615 -0.1565 -0.1152
  949TIP3    H1 2811   4.862   4.243   4.222  0.1043  0.2694  0.1804
  949TIP3    H2 2812   4.833   4.391   4.212  0.3158  0.2597 -0.6673
  950TIP3   OH2 2813   3.830   0.816   4.239  0.0256  0.3524  0.4989
  950TIP3    H1 2814   3.872   0.895   4.206  0.6153 -0.7381 -1.5482
  950TIP3    H2 2815   3.785   0.779   4.163 -0.2228 -1.2764  1.3856
  951TIP3   OH2 2816   2.495   2.885   1.278 -0.6068 -0.5476 -0.1203
  951TIP3    H1 2817   2.524   2.903   1.188 -4.4953  0.2409 -1.4381
  951TIP3    H2 2818   2.503   2.790   1.288 -0.1633 -0.6552 -1.3250
  952TIP3   OH2 2819   3.785   5.482   3.384 -0.3936  0.2788 -0.6287
  952TIP3    H1 2820   3.798   5.575   3.370  0.7740  0.1910 -0.2724
  952TIP3    H2 2821   3.770   5.474   3.478 -0.8801  0.1485 -0.7180
  953TIP3   OH2 2822   5.575   4.920   1.341 -0.0071 -0.1031 -0.5855
  953TIP3    H1 2823   5.495   4.904   1.392  1.2942 -0.2967  1.4999
  953TIP3    H2 2824   5.646   4.890   1.397  1.7266  2.3332 -1.3209
  954TIP3   OH2 2825   3.039   0.549   3.358 -0.5538  0.1203 -0.3427
  954TIP3    H1 2826   3.125   0.586   3.337  0.5368 -1.9509  0.2468
  954TIP3    H2 2827   3.057   0.458   3.380 -2.9145 -0.3377 -0.1177
  955TIP3   OH2 2828   2.592   5.461   4.032  0.4480 -0.0212  1.0678
  955TIP3    H1 2829   2.514   5.416   4.065  0.5054 -0.5767  0.4741
  955TIP3    H2 2830   2.664   5.425   4.084  0.6094 -1.3011 -0.0037
  956TIP3   OH2 2831   2.250   0.121   1.099  0.1892  0.2657  0.2909
  956TIP3    H1 2832   2.226   0.135   1.190 -0.5891 -1.1339  0.3268
  956TIP3    H2 2833   2.335   0.164   1.089 -0.3154  1.5459  1.3198
  957TIP3   OH2 2834   2.307   2.890   3.660 -0.2732  0.1594 -0.6743
  957TIP3    H1 2835   2.255   2.873   3.582 -0.3348  0.8588 -0.7978
  957TIP3    H2 2836   2.274   2.974   3.693 -0.4871 -0.2998  0.3006
  958TIP3   OH2 2837   5.640   5.629   0.727 -0.1983  0.0030  0.1322
  958TIP3    H1 2838   5.715   5.572   0.742 -0.3694 -0.1836  0.2936
  958TIP3    H2 2839   5.671   5.717   0.747  0.2237  0.0399 -0.6400
  959TIP3   OH2 2840   1.156   3.398   0.180 -0.1349  0.2544  0.3805
  959TIP3    H1 2841   1.200   3.354   0.108 -3.4418 -2.1766 -0.3692
  959TIP3    H2 2842   1.208   3.376   0.257  0.8573 -1.1119 -0.6321
  960TIP3   OH2 2843   6.512   6.251   2.224  0.1725 -0.4166 -0.0495
  960TIP3    H1 2844   6.578   6.276   2.159 -0.3886  0.7259 -0.2065
  960TIP3    H2 2845   6.522   6.157   2.234  1.5320 -0.3249 -0.3970
  961TIP3   OH2 2846   3.022   5.962   0.599 -0.1166 -0.2952  0.0460
  961TIP3    H1 2847   3.100   6.013   0.579 -0.2072 -0.2150 -0.0973
  961TIP3    H2 2848   2.977   5.951   0.516 -0.7211  0.4114  0.2731
  962TIP3   OH2 2849   4.795   0.383   0.309 -0.0171 -0.0591  0.0736
  962TIP3    H1 2850   4.831   0.378   0.398  2.1894  0.8973 -0.7047
  962TIP3    H2 2851   4.727   0.451   0.314 -1.2361 -1.2953  1.3891
  963TIP3   OH2 2852   1.708   4.599   3.120 -0.0760 -0.5814  0.0636
  963TIP3    H1 2853   1.644   4.633   3.182 -0.9578  0.3885 -1.3135
  963TIP3    H2 2854   1.656   4.550   3.057  0.7432 -1.1449 -0.1893
  964TIP3   OH2 2855   0.655   2.541   0.002 -0.3941 -0.5756 -0.6442
  964TIP3    H1 2856   0.719   2.491   0.052  0.5266  0.4053 -0.7982
  964TIP3    H2 2857   0.651   2.626   0.046  0.5458  0.3570 -2.2566
  965TIP3   OH2 2858   0.859   4.599   1.340  0.3349 -0.1340 -0.0988
  965TIP3    H1 2859   0.871   4.641   1.255 -0.3778 -1.8986 -1.1224
  965TIP3    H2 2860   0.778   4.638   1.375  0.3383  0.2101 -0.4687
  966TIP3   OH2 2861   2.980   2.963   3.598 -0.5369 -0.0278  0.0338
  966TIP3    H1 2862   3.030   3.026   3.650  1.5908 -0.1935 -1.6457
  966TIP3    H2 2863   2.979   2.884   3.651  2.0698 -0.3693 -0.2783
  967TIP3   OH2 2864   4.687   3.983   2.520  0.8224 -1.1670  0.1192
  967TIP3    H1 2865   4.595   4.010   2.531  0.8069 -0.5274 -1.3219
  967TIP3    H2 2866   4.698   3.911   2.582 -0.5862 -1.1095  0.4822
  968TIP3   OH2 2867   1.253   4.210   0.928 -0.4268 -0.6222  0.0221
  968TIP3    H1 2868   1.348   4.227   0.928 -0.6748  1.2295 -1.9744
  968TIP3    H2 2869   1.245   4.124   0.887  0.4208 -1.0269  0.6797
  969TIP3   OH2 2870   2.456   4.984   2.485  0.5081  0.1791 -0.4617
  969TIP3    H1 2871   2.404   5.047   2.435 -1.5157 -0.7589  0.3433
  969TIP3    H2 2872   2.481   4.917   2.422  1.3056  0.9459 -0.9836
  970TIP3   OH2 2873   0.567   5.650   3.841  0.0013  0.7891 -1.1959
  970TIP3    H1 2874   0.608   5.566   3.821 -1.5305  0.1313 -1.7985
  970TIP3    H2 2875   0.542   5.644   3.933 -1.6515 -0.1677 -1.6609
  971TIP3   OH2 2876   3.764   2.686   3.013  0.3108  0.6988 -0.7922
  971TIP3    H1 2877   3.782   2.663   3.104  0.8180  0.4522 -0.9480
  971TIP3    H2 2878   3.775   2.604   2.965 -2.1078  0.3184 -0.8159
  972TIP3   OH2 2879   6.931   3.350   4.975  0.3340  0.5859 -0.6763
  972TIP3    H1 2880   6.961   3.359   5.066  3.7884  1.0244 -1.7151
  972TIP3    H2 2881   6.915   3.256   4.964  0.9325  0.3844  0.1077
  973TIP3   OH2 2882   4.703   2.457   4.988  0.5153  0.2077 -0.3861
  973TIP3    H1 2883   4.664   2.514   4.921  0.0246  0.1122 -0.1889
  973TIP3    H2 2884   4.752   2.516   5.044 -1.5038  0.7539  0.9290
  974TIP3   OH2 2885   6.603   6.199   1.877 -0.1453  0.2775 -0.6212
  974TIP3    H1 2886   6.540   6.251   1.828  0.5414  1.2646 -0.4732
  974TIP3    H2 2887   6.620   6.249   1.956  0.5065 -0.1860 -0.4584
  975TIP3   OH2 2888   0.058   4.476   0.828  0.3278 -0.1465 -0.3750
  975TIP3    H1 2889  -0.014   4.515   0.878  0.7054  0.5906 -0.3901
  975TIP3    H2 2890   0.103   4.551   0.790  1.5186 -0.5610  0.1892
  976TIP3   OH2 2891   0.199   3.662   5.332 -0.6441  0.2046 -0.0244
  976TIP3    H1 2892   0.278   3.615   5.358 -1.3638  0.2211  2.4937
  976TIP3    H2 2893   0.134   3.593   5.318 -0.8516  0.2815  0.5162
  977TIP3   OH2 2894   6.382   1.928   4.885  0.2224  0.1538 -0.3507
  977TIP3    H1 2895   6.454   1.950   4.825 -0.3307 -1.6015 -1.7216
  977TIP3    H2 2896   6.413   1.851   4.933 -0.0523  0.4757  0.3665
  978TIP3   OH2 2897   4.761   4.931   0.919 -0.0448 -0.1329 -0.1291
  978TIP3    H1 2898   4.727   4.954   1.006 -0.4007  1.1383 -0.5793
  978TIP3    H2 2899   4.852   4.961   0.921 -0.1654  0.2484 -0.3214
  979TIP3   OH2 2900   2.666   6.211   1.372  0.3548  0.1137 -0.4222
  979TIP3    H1 2901   2.708   6.279   1.319  0.2064 -1.4059 -2.6337
  979TIP3    H2 2902   2.612   6.260   1.434  1.6047  2.0230 -0.7364
  980TIP3   OH2 2903   4.428   6.383   2.180  0.3395  0.7343  0.2637
  980TIP3    H1 2904   4.442   6.300   2.225 -1.5438 -0.6818 -1.5456
  980TIP3    H2 2905   4.460   6.367   2.091 -1.0127  1.5567 -0.3968
  981TIP3   OH2 2906   0.510   0.279   4.997 -0.7083  0.0241  0.1120
  981TIP3    H1 2907   0.536   0.261   5.087  1.4584  2.6217  0.1265
  981TIP3    H2 2908   0.555   0.212   4.946  1.0129  0.6594  0.7245
  982TIP3   OH2 2909   3.262   5.823   5.688 -0.1931 -0.2405  0.3611
  982TIP3    H1 2910   3.198   5.757   5.714 -0.1768  0.0601  1.1924
  982TIP3    H2 2911   3.293   5.861   5.771  0.8293 -0.1619 -0.0465
  983TIP3   OH2 2912   6.903   6.572   5.789  0.2435 -0.5805  0.2974
  983TIP3    H1 2913   6.952   6.503   5.835  0.1383  1.3035  3.5531
  983TIP3    H2 2914   6.852   6.614   5.858 -1.8379  1.0041 -2.0602
  984TIP3   OH2 2915   6.621   2.875   0.991  0.3070 -0.2433 -0.4497
  984TIP3    H1 2916   6.664   2.944   1.042 -0.3766  0.4993 -0.8635
  984TIP3    H2 2917   6.683   2.857   0.920 -0.3420  1.3394 -1.4654
  985TIP3   OH2 2918   7.002   4.419   3.374  0.0741  0.0983 -0.0710
  985TIP3    H1 2919   7.033   4.505   3.344  0.0727  0.0021 -0.3519
  985TIP3    H2 2920   7.050   4.404   3.456 -2.4721  1.9533  1.9513
  986TIP3   OH2 2921   0.033   5.870   3.672 -0.4547 -0.5477  0.3256
  986TIP3    H1 2922   0.071   5.861   3.585 -0.0282 -1.5258  0.5946
  986TIP3    H2 2923   0.082   5.808   3.726 -0.4385  0.3315  1.3584
  987TIP3   OH2 2924   5.063   0.810   3.694  0.0373 -0.2912 -0.3737
  987TIP3    H1 2925   5.009   0.784   3.619  1.7589 -0.9635 -1.4499
  987TIP3    H2 2926   5.132   0.744   3.698  1.2057  0.9310  0.4731
  988TIP3   OH2 2927   3.823   5.766   3.376 -0.0782 -0.5952  0.0166
  988TIP3    H1 2928   3.798   5.837   3.317 -2.1666 -0.5764  0.8152
  988TIP3    H2 2929   3.888   5.805   3.434  0.3511  0.0333 -0.8705
  989TIP3   OH2 2930   4.135   0.989   2.054  0.0831 -0.6862 -0.5628
  989TIP3    H1 2931   4.190   0.972   2.130  1.5094 -0.3392 -1.4734
  989TIP3    H2 2932   4.046   0.967   2.083  0.4639  0.1612  1.4148
  990TIP3   OH2 2933   5.364   5.920   3.321  0.5473  0.6510 -0.2672
  990TIP3    H1 2934   5.318   5.886   3.244 -0.2712  0.6382  0.2135
  990TIP3    H2 2935   5.432   5.977   3.285  0.4524  0.3103 -1.0085
  991TIP3   OH2 2936   7.198   6.296   0.796 -0.5649  0.0955  0.8138
  991TIP3    H1 2937   7.199   6.203   0.819  0.1279  0.2038  1.2764
  991TIP3    H2 2938   7.265   6.305   0.729  0.7852  0.5718  2.1672
  992TIP3   OH2 2939   2.885   6.423   4.049  0.0914  0.1786  0.6893
  992TIP3    H1 2940   2.794   6.393   4.046 -0.0271  0.5027  0.9798
  992TIP3    H2 2941   2.937   6.343   4.055 -0.0388 -0.1888 -1.9033
  993TIP3   OH2 2942   6.826   2.241   2.367  0.5690 -0.1895  0.4405
  993TIP3    H1 2943   6.797   2.290   2.290  2.4333  1.0401  0.4565
  993TIP3    H2 2944   6.745   2.217   2.412 -0.5216 -0.0233 -1.3245
  994TIP3   OH2 2945   2.784   6.714   5.598 -0.0081 -0.2572 -0.1869
  994TIP3    H1 2946   2.793   6.790   5.539  1.2145 -0.8983 -0.8601
  994TIP3    H2 2947   2.708   6.666   5.564 -1.4480  1.1579  0.8593
  995TIP3   OH2 2948   2.836   2.005   0.655 -0.0533  0.3388  0.0777
  995TIP3    H1 2949   2.814   1.975   0.566  1.3260  0.4563 -0.3160
  995TIP3    H2 2950   2.824   2.100   0.651 -0.3389  0.3086  0.1354
  996TIP3   OH2 2951   7.237   4.428   1.819 -0.2688 -0.0740 -0.2840
  996TIP3    H1 2952   7.158   4.410   1.870  0.0684  0.9285  0.6087
  996TIP3    H2 2953   7.222   4.382   1.736 -1.9653  0.4453 -0.2979
  997TIP3   OH2 2954   4.462   2.325   3.571  0.2663 -0.4800 -0.1652
  997TIP3    H1 2955   4.384   2.278   3.601 -0.7175  0.2263 -1.4935
  997TIP3    H2 2956   4.531   2.258   3.569 -0.6461 -1.4444 -0.2508
  998TIP3   OH2 2957   6.268   1.665   1.569 -0.0762  0.4083  0.0185
  998TIP3    H1 2958   6.328   1.615   1.625 -1.4616 -0.9523  0.3653
  998TIP3    H2 2959   6.286   1.633   1.480  0.4085  0.7462 -0.0063
  999TIP3   OH2 2960   1.184   3.606   1.681  0.2196  0.1693 -0.3535
  999TIP3    H1 2961   1.135   3.524   1.693  0.6883 -0.1667 -0.7025
  999TIP3    H2 2962   1.195   3.640   1.770  0.5352 -0.4605 -0.1390
 1000TIP3   OH2 2963   5.382   4.636   0.187  0.1370  0.3125  0.4489
 1000TIP3    H1 2964   5.290   4.610   0.188  0.4039 -0.8042  2.7080
 1000TIP3    H2 2965   5.380   4.731   0.198 -0.7343  0.5527 -1.3789
 1001TIP3   OH2 2966   2.384   1.607   4.857 -0.3525  0.0364 -0.0707
 1001TIP3    H1 2967   2.307   1.607   4.800 -0.6142 -0.4330  0.2727
 1001TIP3    H2 2968   2.429   1.688   4.836 -1.0592  0.4257 -0.1215
 1002TIP3   OH2 2969   4.073   3.798   1.098 -0.0780 -0.5215  0.0679
 1002TIP3    H1 2970   4.122   3.822   1.019 -0.3622  1.0913  0.3391
 1002TIP3    H2 2971   4.137   3.799   1.168 -0.2774  0.5931  0.2562
 1003TIP3   OH2 2972   3.383   0.790   1.070  0.1808 -0.2514  0.1348
 1003TIP3    H1 2973   3.394   0.803   0.976  0.3896 -0.9911  0.0474
 1003TIP3    H2 2974   3.463   0.827   1.108 -0.2817  0.8092  0.1011
 1004TIP3   OH2 2975   7.089   6.533   4.344 -0.1109  0.3722 -0.2186
 1004TIP3    H1 2976   7.116   6.517   4.254  1.7173 -0.6700  0.4687
 1004TIP3    H2 2977   7.168   6.563   4.389 -1.2026  1.8487  0.8542
 1005TIP3   OH2 2978   6.456   3.689   3.176 -0.0281 -0.4578 -0.5270
 1005TIP3    H1 2979   6.415   3.606   3.200 -0.1873 -0.5021 -0.9551
 1005TIP3    H2 2980   6.545   3.681   3.211  0.2829 -1.2330 -1.4564
 1006TIP3   OH2 2981   2.877   4.243   2.896 -0.7445 -0.3569 -0.2912
 1006TIP3    H1 2982   2.970   4.260   2.910 -0.5730  0.5113 -2.1286
 1006TIP3    H2 2983   2.856   4.173   2.958  1.0028 -0.2402  0.5001
 1007TIP3   OH2 2984   0.730   3.713   5.837  0.2049  0.0078 -0.9942
 1007TIP3    H1 2985   0.792   3.703   5.764  0.7948 -0.1246 -0.4779
 1007TIP3    H2 2986   0.660   3.766   5.801  0.2272 -0.5068 -1.8319
 1008TIP3   OH2 2987   7.180   4.832   2.127 -0.0374  0.7957 -0.7100
 1008TIP3    H1 2988   7.267   4.823   2.087  0.7188  0.5241  0.9027
 1008TIP3    H2 2989   7.123   4.776   2.074  1.0342  0.0517 -1.1143
 1009TIP3   OH2 2990   1.476   4.286   5.192  0.8137 -0.4050  0.5404
 1009TIP3    H1 2991   1.501   4.348   5.124  0.0137 -0.2333  0.3949
 1009TIP3    H2 2992   1.502   4.328   5.274 -1.6711  1.1608  0.6163
 1010TIP3   OH2 2993   5.575   4.441   0.173  0.0188 -0.4589  0.5070
 1010TIP3    H1 2994   5.537   4.371   0.226  1.3804 -0.1891  1.9072
 1010TIP3    H2 2995   5.505   4.505   0.164 -1.5529 -2.3283 -1.5531
 1011TIP3   OH2 2996   5.341   5.173   3.352  0.6658 -0.3076  0.2970
 1011TIP3    H1 2997   5.251   5.179   3.382  0.8834 -0.0085  0.8964
 1011TIP3    H2 2998   5.364   5.262   3.326  0.5169 -0.5372 -0.6714
 1012TIP3   OH2 2999   1.055   5.273   4.350 -0.3539 -0.7367  0.4613
 1012TIP3    H1 3000   1.146   5.299   4.365 -0.6189  0.5452 -0.0220
 1012TIP3    H2 3001   1.060   5.213   4.275  0.1433 -1.1602  0.8241
 1013TIP3   OH2 3002   2.416   4.524   4.967  0.2877  0.2248  0.5059
 1013TIP3    H1 3003   2.405   4.479   4.883 -1.4414  2.0383 -0.3434
 1013TIP3    H2 3004   2.405   4.456   5.033 -1.9714 -0.6921 -0.7028
 1014TIP3   OH2 3005   4.095   6.192   1.023 -0.1098 -0.0685  0.6425
 1014TIP3    H1 3006   4.129   6.277   0.998 -0.1814 -0.0657  0.5516
 1014TIP3    H2 3007   4.069   6.151   0.940 -0.3561 -0.0562  0.7115
 1015TIP3   OH2 3008   0.273   3.486   4.742 -0.0338  0.2501 -0.5475
 1015TIP3    H1 3009   0.350   3.507   4.794 -0.7480  1.2711  0.1549
 1015TIP3    H2 3010   0.236   3.572   4.719 -0.4547 -0.2111 -1.6382
 1016TIP3   OH2 3011   7.068   2.129   2.211  0.2833 -0.0730 -0.7252
 1016TIP3    H1 3012   6.988   2.180   2.223  0.5982  0.0586  1.1514
 1016TIP3    H2 3013   7.113   2.172   2.138 -1.1316  0.1130 -1.5221
 1017TIP3   OH2 3014   4.578   0.410   5.150  0.0145  0.3590 -0.3606
 1017TIP3    H1 3015   4.501   0.353   5.154  2.2292 -2.8510 -0.1745
 1017TIP3    H2 3016   4.642   0.370   5.209  2.3306  2.1031 -1.5059
 1018TIP3   OH2 3017   3.402   2.799   0.639 -0.4039  0.0871  0.1024
 1018TIP3    H1 3018   3.413   2.704   0.638 -0.9014  0.0006  1.3068
 1018TIP3    H2 3019   3.343   2.817   0.565  0.9877 -0.3344 -1.1569
 1019TIP3   OH2 3020   6.269   3.409   5.326  0.2683  0.4171  0.5757
 1019TIP3    H1 3021   6.199   3.466   5.292  0.1544 -1.0049 -1.8282
 1019TIP3    H2 3022   6.338   3.470   5.352 -1.4289  1.8215  2.1428
 1020TIP3   OH2 3023   2.884   4.005   3.774 -0.1075  0.3681  0.2735
 1020TIP3    H1 3024   2.880   3.972   3.684  0.2987 -0.1901  0.4542
 1020TIP3    H2 3025   2.977   4.015   3.792 -0.0644 -1.5066  1.3285
 1021TIP3   OH2 3026   2.860   3.098   1.077  0.7620 -0.1119  0.1808
 1021TIP3    H1 3027   2.889   3.187   1.061 -0.9027  0.1047 -2.1607
 1021TIP3    H2 3028   2.856   3.090   1.172  2.0392  1.9051  0.4455
 1022TIP3   OH2 3029   5.184   2.254   0.598 -0.1739 -0.1453  0.6818
 1022TIP3    H1 3030   5.160   2.267   0.690 -0.1145  0.4140  0.6220
 1022TIP3    H2 3031   5.122   2.189   0.566 -0.5519  0.0673  0.9738
 1023TIP3   OH2 3032   2.854   1.597   1.142  0.3226  0.0978 -0.1542
 1023TIP3    H1 3033   2.862   1.664   1.074  1.0517 -0.7639 -0.9447
 1023TIP3    H2 3034   2.781   1.543   1.113 -0.4038  0.6481  0.5941
 1024TIP3   OH2 3035   3.701   3.565   4.473 -0.2897  0.0639 -0.2602
 1024TIP3    H1 3036   3.719   3.471   4.473 -1.5063 -0.1984 -1.7781
 1024TIP3    H2 3037   3.618   3.573   4.521 -1.0941  0.1410 -1.6295
 1025TIP3   OH2 3038   1.937   5.956   0.648  0.1281  0.1480 -0.4830
 1025TIP3    H1 3039   2.019   5.936   0.693  0.8023 -0.6438 -1.9944
 1025TIP3    H2 3040   1.959   5.954   0.555 -1.1695  1.9320 -0.8864
 1026TIP3   OH2 3041   3.915   1.727   2.017 -0.4110  0.5316 -0.5545
 1026TIP3    H1 3042   3.823   1.751   2.003 -1.0314 -0.6003  1.2582
 1026TIP3    H2 3043   3.919   1.699   2.108  2.0665  1.9188 -0.1299
 1027TIP3   OH2 3044   2.079   4.942   3.781 -0.1976  0.3436 -0.1439
 1027TIP3    H1 3045   2.143   4.872   3.798  1.8121  1.7271 -1.5042
 1027TIP3    H2 3046   2.081   4.953   3.686 -2.7486  0.2590 -0.2647
 1028TIP3   OH2 3047   3.901   5.882   4.323  0.7584 -0.5303 -0.8513
 1028TIP3    H1 3048   3.896   5.921   4.411 -3.3933  0.4369 -1.3076
 1028TIP3    H2 3049   3.906   5.788   4.339  1.1255 -0.3208  0.3787
 1029TIP3   OH2 3050   7.003   2.976   3.034  0.7739  0.2625  0.6654
 1029TIP3    H1 3051   6.937   3.044   3.023  2.2777  2.0053  1.7885
 1029TIP3    H2 3052   7.038   2.962   2.946 -0.3651  0.0400  0.2319
 1030TIP3   OH2 3053   6.742   0.455   3.723  0.8344 -0.1191 -0.5570
 1030TIP3    H1 3054   6.707   0.368   3.741  1.0385 -0.2541 -0.8148
 1030TIP3    H2 3055   6.667   0.514   3.738  0.5813 -0.3762 -0.8032
 1031TIP3   OH2 3056   5.832   1.564   5.597 -0.1189 -0.4391  0.5806
 1031TIP3    H1 3057   5.767   1.509   5.641 -1.6921 -0.2305 -1.2975
 1031TIP3    H2 3058   5.827   1.538   5.505  0.2801  1.6734 -0.1026
 1032TIP3   OH2 3059   4.231   2.835   0.731  0.4012 -0.3878  0.0570
 1032TIP3    H1 3060   4.287   2.911   0.719  1.6962 -1.3751 -0.4363
 1032TIP3    H2 3061   4.158   2.849   0.670  2.4445 -1.1840 -2.8219
 1033TIP3   OH2 3062   5.836   0.309   1.845 -0.7362  0.6465 -0.2493
 1033TIP3    H1 3063   5.844   0.333   1.937 -1.6578  0.6939 -0.1750
 1033TIP3    H2 3064   5.925   0.283   1.819 -0.6644 -0.3629  0.9225
 1034TIP3   OH2 3065   6.609   6.478   1.163  0.0057  0.4357 -0.1778
 1034TIP3    H1 3066   6.560   6.469   1.081  0.1496  0.6059 -0.2834
 1034TIP3    H2 3067   6.615   6.572   1.178  1.9882  0.5286 -1.1927
 1035TIP3   OH2 3068   2.555   0.780   3.519 -0.3394 -0.2757  0.1478
 1035TIP3    H1 3069   2.503   0.705   3.491 -0.7765 -0.1577  0.6165
 1035TIP3    H2 3070   2.554   0.840   3.445  0.0081 -0.7289 -0.2261
 1036TIP3   OH2 3071   2.970   2.332   2.672 -0.3253  0.6660  0.3741
 1036TIP3    H1 3072   2.939   2.273   2.740  0.6337 -1.3203 -0.8122
 1036TIP3    H2 3073   2.891   2.367   2.633 -1.1230 -2.0600 -0.6982
 1037TIP3   OH2 3074   2.563   5.206   1.952 -0.4585 -0.6802  0.0021
 1037TIP3    H1 3075   2.470   5.223   1.940 -0.6369 -2.1207 -0.8500
 1037TIP3    H2 3076   2.579   5.124   1.906  1.4396  0.0161 -0.6904
 1038TIP3   OH2 3077   1.355   1.018   0.632 -0.0296 -0.2001  0.2622
 1038TIP3    H1 3078   1.372   1.012   0.725 -0.1021 -0.1320  0.2804
 1038TIP3    H2 3079   1.332   1.110   0.618  1.0456  0.0438 -0.0034
 1039TIP3   OH2 3080   2.374   4.461   0.904 -0.6240  0.2319 -0.1953
 1039TIP3    H1 3081   2.435   4.390   0.925 -1.0798  0.0587  0.6160
 1039TIP3    H2 3082   2.288   4.419   0.902 -0.8305  0.6522 -0.2840
 1040TIP3   OH2 3083   2.923   1.782   1.520  0.0238 -0.0927  0.0916
 1040TIP3    H1 3084   2.830   1.798   1.536 -0.0340  0.0060 -0.3405
 1040TIP3    H2 3085   2.960   1.767   1.607 -0.0416  1.7554  0.4688
 1041TIP3   OH2 3086   6.797   0.302   5.727 -0.2548  0.5237  0.2101
 1041TIP3    H1 3087   6.821   0.241   5.657  0.2832  1.2922 -0.2870
 1041TIP3    H2 3088   6.809   0.251   5.808  3.5174  0.9177  0.0635
 1042TIP3   OH2 3089   1.089   5.486   5.053  0.3832 -0.0394 -0.3951
 1042TIP3    H1 3090   1.033   5.544   5.105  0.7436 -0.8703  0.9677
 1042TIP3    H2 3091   1.041   5.472   4.971 -1.4471 -0.8114  0.7659
 1043TIP3   OH2 3092   4.890   2.415   2.486 -0.4427 -0.1717 -0.2646
 1043TIP3    H1 3093   4.874   2.371   2.569 -1.2868 -0.0835 -0.3675
 1043TIP3    H2 3094   4.809   2.463   2.468  0.2783  1.0249 -0.4040
 1044TIP3   OH2 3095   6.668   2.941   4.255  0.0339  0.3828 -0.2471
 1044TIP3    H1 3096   6.585   2.937   4.302  0.2688 -1.8549  0.0505
 1044TIP3    H2 3097   6.732   2.969   4.321 -0.5179  2.6779 -0.6100
 1045TIP3   OH2 3098   4.093   5.603   1.827 -0.3306  0.0785  0.0437
 1045TIP3    H1 3099   4.040   5.642   1.758 -1.4907 -2.7321 -0.7864
 1045TIP3    H2 3100   4.181   5.640   1.813 -1.1270  1.6005 -1.2214
 1046TIP3   OH2 3101   4.911   0.411   2.986  0.3541  0.2485 -0.4166
 1046TIP3    H1 3102   4.997   0.370   2.984  0.5956  0.7235 -0.1000
 1046TIP3    H2 3103   4.853   0.348   2.944  0.6979 -0.4434  0.1311
 1047TIP3   OH2 3104   1.249   3.513   2.628  0.1601 -0.1285  0.8846
 1047TIP3    H1 3105   1.289   3.435   2.667  1.0814  0.2772  0.7749
 1047TIP3    H2 3106   1.311   3.584   2.648  0.1052  0.2890 -0.3575
 1048TIP3   OH2 3107   4.460   5.950   3.868  0.3413 -0.1320 -0.8296
 1048TIP3    H1 3108   4.453   6.004   3.790  0.4968  0.8892 -0.1559
 1048TIP3    H2 3109   4.487   6.010   3.937 -1.2610 -0.6818  0.3566
 1049TIP3   OH2 3110   5.176   1.539   2.402 -0.4013 -0.3912 -0.1281
 1049TIP3    H1 3111   5.115   1.572   2.336  1.0142  1.2175 -0.7175
 1049TIP3    H2 3112   5.121   1.490   2.463 -2.0160 -0.4090 -1.5086
 1050TIP3   OH2 3113   2.171   2.722   4.431 -0.0247 -0.1791  0.2389
 1050TIP3    H1 3114   2.256   2.742   4.390 -0.0942  0.4583  0.3965
 1050TIP3    H2 3115   2.125   2.670   4.365  0.8815 -1.4321  0.5486
 1051TIP3   OH2 3116   3.261   1.522   4.263 -0.1455 -0.0589 -0.1066
 1051TIP3    H1 3117   3.282   1.614   4.249  0.1191 -0.0729  0.1835
 1051TIP3    H2 3118   3.188   1.504   4.204 -0.7136  0.5365  0.4118
 1052TIP3   OH2 3119   4.779   3.600   0.586  0.2916 -0.1995  0.7170
 1052TIP3    H1 3120   4.708   3.661   0.609  0.8865  0.0951  1.8862
 1052TIP3    H2 3121   4.839   3.652   0.533  0.1707 -0.1332  0.6441
 1053TIP3   OH2 3122   6.218   0.478   2.519 -0.1413  0.0040 -0.0628
 1053TIP3    H1 3123   6.131   0.499   2.554 -1.7169 -0.4096 -3.2906
 1053TIP3    H2 3124   6.232   0.545   2.451  1.8819 -0.2366  0.0635
 1054TIP3   OH2 3125   5.256   4.683   1.045  0.3570  0.1102  0.3523
 1054TIP3    H1 3126   5.272   4.650   0.957 -0.3242  1.3603 -0.2662
 1054TIP3    H2 3127   5.323   4.750   1.058  0.9442 -0.6034  1.1037
 1055TIP3   OH2 3128   1.863   6.572   1.685  0.5170  0.5238 -0.5148
 1055TIP3    H1 3129   1.851   6.484   1.648 -1.6169  0.5219  0.0811
 1055TIP3    H2 3130   1.958   6.579   1.700  0.7285 -1.6712 -0.5645
 1056TIP3   OH2 3131   5.187   4.330   5.071  0.3453  0.1705  0.3741
 1056TIP3    H1 3132   5.130   4.292   5.004 -1.1188 -0.7216  2.0550
 1056TIP3    H2 3133   5.273   4.332   5.030 -0.7985  1.3478 -2.1687
 1057TIP3   OH2 3134   6.348   1.841   1.882 -0.0012 -0.3064  0.7652
 1057TIP3    H1 3135   6.440   1.817   1.890  0.2593 -0.3226 -1.5223
 1057TIP3    H2 3136   6.304   1.760   1.857 -0.0763  0.2975 -1.2344
 1058TIP3   OH2 3137   6.829   6.188   4.963  0.0069  0.1344 -0.2094
 1058TIP3    H1 3138   6.853   6.104   5.001 -0.4001  0.8242  1.6617
 1058TIP3    H2 3139   6.906   6.214   4.912  0.8504 -0.4884  0.7201
 1059TIP3   OH2 3140   2.832   5.266   2.292 -0.0024 -0.2734  0.2399
 1059TIP3    H1 3141   2.832   5.252   2.387  2.2680 -3.6666 -0.0642
 1059TIP3    H2 3142   2.917   5.306   2.274 -0.4897  0.5070 -0.3986
 1060TIP3   OH2 3143   4.230   3.078   1.972 -0.1890  0.1543 -0.2825
 1060TIP3    H1 3144   4.300   3.143   1.964 -1.1028  1.0188 -1.6429
 1060TIP3    H2 3145   4.193   3.071   1.884 -1.5205 -0.6070  0.3044
 1061TIP3   OH2 3146   2.578   5.621   0.263 -0.4112 -0.2135  0.4919
 1061TIP3    H1 3147   2.617   5.533   0.258 -1.1137 -0.4745 -2.2782
 1061TIP3    H2 3148   2.529   5.630   0.181 -0.1027  2.9098  0.5217
 1062TIP3   OH2 3149   3.665   1.909   5.489 -0.3276 -0.5528  0.2260
 1062TIP3    H1 3150   3.720   1.831   5.498 -0.6618 -1.1859 -2.4158
 1062TIP3    H2 3151   3.581   1.876   5.456 -0.6927  0.8632 -0.3520
 1063TIP3   OH2 3152   4.582   1.152   5.110 -0.2804  0.0926 -0.5596
 1063TIP3    H1 3153   4.609   1.136   5.020 -0.1681 -0.1250 -0.4885
 1063TIP3    H2 3154   4.489   1.173   5.105 -0.6270 -1.3690 -0.5745
 1064TIP3   OH2 3155   1.031   3.130   2.062  0.0125  0.0096 -0.3685
 1064TIP3    H1 3156   1.087   3.166   1.994  0.5931  0.7011  0.4629
 1064TIP3    H2 3157   1.082   3.059   2.101 -0.9017 -1.3857 -1.6153
 1065TIP3   OH2 3158   0.032   4.495   3.878 -0.2505 -0.0028 -0.4594
 1065TIP3    H1 3159   0.008   4.569   3.933 -0.4877 -1.0009  0.8545
 1065TIP3    H2 3160   0.127   4.502   3.869 -0.2132  0.2043  0.0640
 1066TIP3   OH2 3161   3.813   0.155   1.058 -0.4024  0.2130  0.4535
 1066TIP3    H1 3162   3.849   0.162   0.970 -0.2816  0.0091  0.4858
 1066TIP3    H2 3163   3.754   0.079   1.053  0.4004 -0.4447  0.8192
 1067TIP3   OH2 3164   1.694   4.765   2.373  0.7127  0.1934 -0.1845
 1067TIP3    H1 3165   1.734   4.748   2.458 -1.1248  1.2994  0.9787
 1067TIP3    H2 3166   1.648   4.849   2.384 -1.3764 -0.6760 -1.5802
 1068TIP3   OH2 3167   5.765   2.041   3.668  0.2312  0.3249 -0.6033
 1068TIP3    H1 3168   5.695   1.997   3.716  0.5363  0.7394  0.2502
 1068TIP3    H2 3169   5.722   2.078   3.591 -0.2156 -0.6019 -0.8066
 1069TIP3   OH2 3170   3.625   4.803   1.399 -0.2179 -0.5960  0.1605
 1069TIP3    H1 3171   3.652   4.758   1.478 -0.5662  0.0295  0.6418
 1069TIP3    H2 3172   3.538   4.838   1.419  0.1643  0.5356 -0.0868
 1070TIP3   OH2 3173   1.871   2.801   5.562 -0.4836  0.1869 -0.4616
 1070TIP3    H1 3174   1.938   2.777   5.626 -0.2588 -0.8644 -1.0770
 1070TIP3    H2 3175   1.920   2.833   5.486 -0.6253 -1.3243 -1.2168
 1071TIP3   OH2 3176   6.399   4.852   4.886  0.4434 -0.1223  0.6197
 1071TIP3    H1 3177   6.456   4.897   4.824  0.0786  0.5738  0.7868
 1071TIP3    H2 3178   6.452   4.779   4.919  0.4837 -0.7927 -0.8571
 1072TIP3   OH2 3179   6.516   4.857   3.221  0.6662 -0.5017 -0.1027
 1072TIP3    H1 3180   6.458   4.928   3.249  3.4169  2.0471 -0.3695
 1072TIP3    H2 3181   6.483   4.832   3.135 -1.2341 -0.6658  0.6142
 1073TIP3   OH2 3182   0.343   6.571   1.843 -0.2428 -0.3869 -0.6776
 1073TIP3    H1 3183   0.284   6.626   1.791  0.8689 -0.2433 -1.8482
 1073TIP3    H2 3184   0.425   6.620   1.845  0.1487 -1.0520  0.0448
 1074TIP3   OH2 3185   1.609   4.253   4.280  0.5318 -0.1263 -0.1427
 1074TIP3    H1 3186   1.624   4.188   4.211  1.7456  0.4683 -0.4745
 1074TIP3    H2 3187   1.516   4.273   4.275  0.2194 -1.4994 -0.3263
 1075TIP3   OH2 3188   1.684   5.698   4.758 -0.3951  0.0803 -0.1126
 1075TIP3    H1 3189   1.745   5.631   4.789  0.3011 -0.0116 -1.5868
 1075TIP3    H2 3190   1.738   5.777   4.749 -0.8815  0.4517  0.1983
 1076TIP3   OH2 3191   5.563   6.293   3.784  0.1291  0.1110  0.1862
 1076TIP3    H1 3192   5.637   6.348   3.812 -0.5056  0.9419  0.2940
 1076TIP3    H2 3193   5.601   6.206   3.772  0.9287  0.2957  1.1933
 1077TIP3   OH2 3194   4.071   1.333   4.296  0.1619 -0.2192 -0.3605
 1077TIP3    H1 3195   4.102   1.400   4.357 -1.9069 -0.8777  1.5576
 1077TIP3    H2 3196   4.061   1.255   4.350 -1.2280 -1.0000 -1.6819
 1078TIP3   OH2 3197   6.127   2.489   1.181  0.3985 -0.7838 -0.2510
 1078TIP3    H1 3198   6.123   2.572   1.228 -0.3650 -1.6382  1.2606
 1078TIP3    H2 3199   6.059   2.434   1.221  1.6531 -2.5444 -0.3830
 1079TIP3   OH2 3200   6.399   4.437   4.971  0.0547 -0.4809 -0.3337
 1079TIP3    H1 3201   6.323   4.422   5.028  2.1239 -1.3443  2.4373
 1079TIP3    H2 3202   6.436   4.349   4.959  2.7432  0.2409  1.7425
 1080TIP3   OH2 3203   3.021   0.919   3.431 -0.0657  0.1780 -0.4353
 1080TIP3    H1 3204   3.116   0.909   3.437 -0.0210  0.2109 -0.9865
 1080TIP3    H2 3205   3.005   0.942   3.339 -0.6741 -0.5984 -0.5409
 1081TIP3   OH2 3206   1.919   2.578   1.182  0.2927 -0.0719  0.2816
 1081TIP3    H1 3207   1.980   2.599   1.111  1.5958 -0.6279  1.2125
 1081TIP3    H2 3208   1.958   2.617   1.260 -1.2347  0.7131  0.6956
 1082TIP3   OH2 3209   1.892   2.754   1.609  0.1395 -0.1979  0.6503
 1082TIP3    H1 3210   1.825   2.689   1.630 -0.3622  0.4810  1.2298
 1082TIP3    H2 3211   1.869   2.830   1.662  2.1958 -0.4168  1.9659
 1083TIP3   OH2 3212   1.859   5.394   2.203  0.7245  0.2981 -0.2616
 1083TIP3    H1 3213   1.914   5.421   2.276  1.4707 -0.6273 -0.4557
 1083TIP3    H2 3214   1.795   5.464   2.194 -1.6106 -1.0771  3.4297
 1084TIP3   OH2 3215   6.508   1.125   3.200 -0.3767 -0.0016  0.4003
 1084TIP3    H1 3216   6.436   1.091   3.254 -0.7357  0.1561  0.0241
 1084TIP3    H2 3217   6.492   1.220   3.198  0.5884  0.2037  1.4038
 1085TIP3   OH2 3218   5.558   6.555   5.109  0.1480  0.1694  0.3881
 1085TIP3    H1 3219   5.650   6.532   5.122 -0.2092 -1.9185 -0.4413
 1085TIP3    H2 3220   5.512   6.513   5.182 -0.4420 -1.2373 -0.7474
 1086TIP3   OH2 3221   3.614   2.695   2.735 -0.3795 -0.0378  0.1158
 1086TIP3    H1 3222   3.584   2.604   2.733  0.5854 -0.3592 -0.0131
 1086TIP3    H2 3223   3.627   2.714   2.828  1.0848 -0.6018  0.0453
 1087TIP3   OH2 3224   1.301   0.291   4.454 -0.5905  0.1082 -0.4058
 1087TIP3    H1 3225   1.348   0.294   4.371 -0.6015  0.9718 -0.3844
 1087TIP3    H2 3226   1.227   0.350   4.443 -0.3254  0.6018  0.3747
 1088TIP3   OH2 3227   3.936   0.159   3.631  0.6631  0.0864 -0.0469
 1088TIP3    H1 3228   3.949   0.066   3.646  1.1554  0.4369  2.0606
 1088TIP3    H2 3229   3.841   0.171   3.629  0.5746 -0.6748 -2.1800
 1089TIP3   OH2 3230   3.161   5.378   3.251  0.3554 -0.3252 -0.4445
 1089TIP3    H1 3231   3.173   5.382   3.157 -0.2353  1.4225 -0.4813
 1089TIP3    H2 3232   3.162   5.469   3.280 -0.2261 -0.7726  1.1316
 1090TIP3   OH2 3233   6.989   3.252   1.300 -0.3341  0.1552 -0.2101
 1090TIP3    H1 3234   6.959   3.271   1.211  1.6411  1.4555 -0.6596
 1090TIP3    H2 3235   7.025   3.335   1.331 -1.0181 -0.2624  1.8544
 1091TIP3   OH2 3236   4.536   3.380   2.562 -0.3639  0.3692 -0.1825
 1091TIP3    H1 3237   4.614   3.433   2.547 -0.1873  0.2498  0.3022
 1091TIP3    H2 3238   4.481   3.396   2.485  0.6192 -0.4331 -1.0596
 1092TIP3   OH2 3239   4.056   5.260   1.010  0.0699 -0.3406 -0.2225
 1092TIP3    H1 3240   4.018   5.279   0.925 -3.1224 -0.6544  1.0012
 1092TIP3    H2 3241   4.045   5.166   1.021  1.7271 -0.5381  0.0156
 1093TIP3   OH2 3242   2.046   0.853   1.642 -0.5815 -0.3068 -0.1255
 1093TIP3    H1 3243   1.974   0.876   1.583 -1.0335 -0.5239  0.3364
 1093TIP3    H2 3244   2.008   0.788   1.701  0.0846 -0.6469 -0.0708
 1094TIP3   OH2 3245   0.519   4.000   4.572  1.2213 -0.2478 -0.1489
 1094TIP3    H1 3246   0.515   3.931   4.506  1.2246  0.5321 -0.9887
 1094TIP3    H2 3247   0.538   3.955   4.654 -2.5419 -1.7183  0.0690
 1095TIP3   OH2 3248   3.357   4.067   4.407 -0.1707 -0.0412  0.4230
 1095TIP3    H1 3249   3.341   4.156   4.439 -0.2485  0.2783 -0.4645
 1095TIP3    H2 3250   3.285   4.051   4.345  0.1026 -0.5515  0.2339
 1096TIP3   OH2 3251   5.161   3.010   5.106 -0.0030  0.5672  0.4003
 1096TIP3    H1 3252   5.191   3.028   5.195  0.3101 -0.6904  0.5546
 1096TIP3    H2 3253   5.150   3.097   5.068  2.3305  1.1363  0.8362
 1097TIP3   OH2 3254   0.666   5.648   1.153 -0.2645 -0.0866 -0.0184
 1097TIP3    H1 3255   0.677   5.572   1.095 -0.5111 -1.6237  1.8430
 1097TIP3    H2 3256   0.754   5.662   1.189 -0.3267  0.2168  0.0131
 1098TIP3   OH2 3257   1.486   2.168   0.508  0.2892 -0.3536 -0.8772
 1098TIP3    H1 3258   1.510   2.175   0.415 -0.2275 -3.4860 -1.3684
 1098TIP3    H2 3259   1.534   2.091   0.539 -0.6343 -0.1913  1.0870
 1099TIP3   OH2 3260   0.484   2.126   3.427 -0.1950 -0.1514  0.2672
 1099TIP3    H1 3261   0.533   2.131   3.509  1.0973  0.5618 -0.5169
 1099TIP3    H2 3262   0.502   2.038   3.394 -1.0264 -0.5745  0.9264
 1100TIP3   OH2 3263   0.476   3.122   2.138  0.5651 -0.4783  0.0885
 1100TIP3    H1 3264   0.558   3.164   2.164  0.1705  0.1988  0.2576
 1100TIP3    H2 3265   0.481   3.035   2.176 -0.2625  0.6700  3.0854
 1101TIP3   OH2 3266   4.830   6.033   3.594 -0.0228  0.3126 -0.8394
 1101TIP3    H1 3267   4.907   6.071   3.637  0.3305  0.5588 -1.6675
 1101TIP3    H2 3268   4.775   6.108   3.571 -0.9010  0.0924  0.4379
 1102TIP3   OH2 3269   5.416   2.204   0.772 -0.3822  0.3638 -0.5961
 1102TIP3    H1 3270   5.336   2.182   0.725 -0.0596 -0.9246 -0.5882
 1102TIP3    H2 3271   5.461   2.265   0.714  0.0471 -1.2547 -2.0737
 1103TIP3   OH2 3272   2.806   1.528   2.213 -0.1383  0.0848 -0.1731
 1103TIP3    H1 3273   2.780   1.491   2.297 -0.4507  0.0483 -0.2848
 1103TIP3    H2 3274   2.771   1.467   2.148 -2.1709  1.4102 -0.4341
 1104TIP3   OH2 3275   6.577   6.171   3.019  0.1918  0.6724  0.0054
 1104TIP3    H1 3276   6.653   6.146   3.071 -1.6423 -0.1816  2.4454
 1104TIP3    H2 3277   6.504   6.173   3.081 -1.7159  1.9930 -2.1089
 1105TIP3   OH2 3278   0.057   1.403   0.103 -0.5797 -0.4515  0.3029
 1105TIP3    H1 3279   0.039   1.351   0.182  0.9898 -0.9186  0.3997
 1105TIP3    H2 3280   0.133   1.360   0.063 -1.5732 -0.4554 -1.6955
 1106TIP3   OH2 3281   4.285   5.850   1.985 -0.2862  0.2733  0.1825
 1106TIP3    H1 3282   4.317   5.784   2.047 -1.3003  0.1757  0.6207
 1106TIP3    H2 3283   4.312   5.934   2.023 -0.9168  0.2156  0.7846
 1107TIP3   OH2 3284   2.715   0.330   3.233 -0.1556  0.1656 -0.3563
 1107TIP3    H1 3285   2.737   0.378   3.313 -1.0042  0.2678 -0.1794
 1107TIP3    H2 3286   2.743   0.387   3.162  0.9130 -0.0704 -0.1391
 1108TIP3   OH2 3287   1.982   1.699   2.552 -0.4032 -0.0382 -0.2027
 1108TIP3    H1 3288   2.026   1.778   2.522  0.3198 -0.7325 -1.0351
 1108TIP3    H2 3289   1.946   1.660   2.472 -0.4294 -0.7363  0.1404
 1109TIP3   OH2 3290   1.320   0.380   1.419  0.2124  0.4549 -0.5008
 1109TIP3    H1 3291   1.358   0.466   1.434 -2.5672  1.9415 -1.1425
 1109TIP3    H2 3292   1.316   0.340   1.506  1.5368  0.9528 -0.1923
 1110TIP3   OH2 3293   0.111   1.211   0.964 -0.1264 -0.3450  0.1564
 1110TIP3    H1 3294   0.164   1.289   0.948  0.7085 -0.8600  0.3509
 1110TIP3    H2 3295   0.167   1.138   0.936  0.0688 -1.0441  2.2139
 1111TIP3   OH2 3296   0.647   0.156   0.943  0.1155  0.3598  0.0819
 1111TIP3    H1 3297   0.696   0.102   1.004  0.8373 -0.1184 -0.8930
 1111TIP3    H2 3298   0.568   0.104   0.924  0.8739 -0.4528 -0.9630
 1112TIP3   OH2 3299   1.344   6.743   5.766 -0.1697 -0.4988 -0.4039
 1112TIP3    H1 3300   1.407   6.756   5.695  0.6581  0.6760  0.4957
 1112TIP3    H2 3301   1.272   6.693   5.726  0.7851 -0.8438 -1.7563
 1113TIP3   OH2 3302   4.599   3.381   2.150  0.1396  0.1046  0.3523
 1113TIP3    H1 3303   4.660   3.312   2.177  0.1112  0.1880  0.6224
 1113TIP3    H2 3304   4.513   3.341   2.159  0.0574  0.5345  1.5524
 1114TIP3   OH2 3305   4.505   0.067   0.326 -0.2722  0.2693  0.8173
 1114TIP3    H1 3306   4.501   0.061   0.421 -0.4520  0.7250  0.8409
 1114TIP3    H2 3307   4.540  -0.018   0.298 -0.7772 -0.0891  1.2516
 1115TIP3   OH2 3308   6.215   4.793   2.088  0.1678  0.2394 -0.2363
 1115TIP3    H1 3309   6.298   4.749   2.105 -1.0407 -1.3077  2.3977
 1115TIP3    H2 3310   6.220   4.875   2.138 -0.6835 -0.9688  1.9724
 1116TIP3   OH2 3311   0.219   6.414   0.278  0.2222  0.2030  0.1140
 1116TIP3    H1 3312   0.156   6.357   0.233  0.4547  0.3557 -0.4103
 1116TIP3    H2 3313   0.292   6.356   0.298  1.7022  0.8296 -2.8816
 1117TIP3   OH2 3314   1.974   2.052   4.682 -0.6063 -0.0486  0.7224
 1117TIP3    H1 3315   1.931   2.135   4.664 -1.4777 -0.2422  1.8008
 1117TIP3    H2 3316   2.022   2.032   4.602  0.2738  1.8726  0.7281
 1118TIP3   OH2 3317   2.089   3.893   4.162  0.0320 -0.0571  0.3684
 1118TIP3    H1 3318   2.011   3.901   4.217 -0.5665  1.8998 -0.6622
 1118TIP3    H2 3319   2.143   3.969   4.185 -0.4263  1.0572 -1.9485
 1119TIP3   OH2 3320   6.632   6.398   3.966 -0.2526  0.5386  0.3740
 1119TIP3    H1 3321   6.665   6.346   3.892 -0.9185  0.9991 -0.2548
 1119TIP3    H2 3322   6.711   6.435   4.006  0.1488 -0.1083  0.1976
 1120TIP3   OH2 3323   5.794   6.188   5.055 -0.1431 -0.3007 -0.1472
 1120TIP3    H1 3324   5.759   6.118   5.000  2.3861 -2.7344  1.0518
 1120TIP3    H2 3325   5.875   6.151   5.091  1.6732  3.4845  0.1461
 1121TIP3   OH2 3326   5.920   0.310   0.739  0.1628 -0.1226  0.2356
 1121TIP3    H1 3327   5.936   0.404   0.738  0.0200 -0.0984  0.3627
 1121TIP3    H2 3328   5.947   0.282   0.826 -1.6299  0.1090  0.8887
 1122TIP3   OH2 3329   5.267   0.082   1.440 -0.1583 -0.5345 -0.0818
 1122TIP3    H1 3330   5.281   0.054   1.530 -0.3961  1.0133  0.4772
 1122TIP3    H2 3331   5.355   0.098   1.406 -0.0918 -0.5160  0.0951
 1123TIP3   OH2 3332   0.577   1.049   0.294 -0.5456 -0.0690  0.4118
 1123TIP3    H1 3333   0.635   1.058   0.369  0.8452 -0.8739 -0.5129
 1123TIP3    H2 3334   0.609   1.113   0.231 -0.9408 -0.2171  0.0533
 1124TIP3   OH2 3335   3.650   0.754   3.637 -0.3264 -0.6273  0.2593
 1124TIP3    H1 3336   3.572   0.769   3.691 -0.4532  0.8865 -0.2713
 1124TIP3    H2 3337   3.717   0.810   3.677 -0.3012  0.1745 -0.8450
 1125TIP3   OH2 3338   5.822   0.520   3.555  0.2203 -0.0628 -0.2575
 1125TIP3    H1 3339   5.728   0.539   3.564  0.1745  0.5752 -1.6965
 1125TIP3    H2 3340   5.865   0.599   3.587  0.2883 -0.4139  0.5436
 1126TIP3   OH2 3341   2.452   0.016   4.546 -0.6844 -0.2521  0.5614
 1126TIP3    H1 3342   2.528  -0.025   4.505 -1.3120 -1.0430  0.1590
 1126TIP3    H2 3343   2.447   0.103   4.506  0.7794  0.3461  1.5752
 1127TIP3   OH2 3344   2.111   1.889   4.892  0.2611  0.1944  0.0515
 1127TIP3    H1 3345   2.203   1.915   4.882  0.8951 -2.4327 -2.3496
 1127TIP3    H2 3346   2.063   1.947   4.832  0.1470  2.0680  1.8522
 1128TIP3   OH2 3347   4.649   5.138   3.496  0.1883  0.7901 -0.2154
 1128TIP3    H1 3348   4.693   5.102   3.420  1.1234  0.4419  0.4785
 1128TIP3    H2 3349   4.642   5.232   3.478  2.0283  1.0079  0.0338
 1129TIP3   OH2 3350   6.445   2.274   3.540  0.8955  0.1678  0.6981
 1129TIP3    H1 3351   6.456   2.186   3.575  1.5012 -0.2965 -0.5991
 1129TIP3    H2 3352   6.516   2.325   3.579  0.3530  0.1931  1.7036
 1130TIP3   OH2 3353   0.484   3.590   4.874 -0.1717  0.2422  0.0877
 1130TIP3    H1 3354   0.497   3.636   4.957  0.8388  0.3038 -0.0891
 1130TIP3    H2 3355   0.554   3.622   4.818 -0.3501 -0.4143 -0.5215
 1131TIP3   OH2 3356   6.970   0.471   3.122  0.3342 -0.0352 -0.4775
 1131TIP3    H1 3357   7.023   0.400   3.159 -0.1039 -0.2537 -0.2595
 1131TIP3    H2 3358   6.900   0.426   3.075 -0.2249  0.2463  0.0624
 1132TIP3   OH2 3359   3.598   2.612   3.409 -0.7392 -0.1729 -0.0128
 1132TIP3    H1 3360   3.650   2.628   3.330 -0.1891  2.6048  0.8012
 1132TIP3    H2 3361   3.656   2.561   3.465  0.7286  1.8002  0.3735
 1133TIP3   OH2 3362   4.452   6.621   0.573  0.3835  1.1456 -0.1810
 1133TIP3    H1 3363   4.407   6.555   0.627  2.8352  0.1845  0.8184
 1133TIP3    H2 3364   4.386   6.689   0.560 -2.3156 -1.4272 -1.3093
 1134TIP3   OH2 3365   6.208   4.209   1.709 -0.1728  0.1809 -0.2492
 1134TIP3    H1 3366   6.241   4.158   1.635 -1.3991 -1.0196 -0.0059
 1134TIP3    H2 3367   6.150   4.274   1.668  0.7658  0.8939 -0.4898
 1135TIP3   OH2 3368   6.392   4.862   0.038  0.0191 -0.5560  0.2579
 1135TIP3    H1 3369   6.472   4.905   0.007  0.6526 -0.4664  1.9176
 1135TIP3    H2 3370   6.384   4.784  -0.018  1.1382 -0.4386 -0.0939
 1136TIP3   OH2 3371   1.662   6.107   4.873 -0.1649  0.2861 -0.2699
 1136TIP3    H1 3372   1.738   6.058   4.845 -0.2739  1.0491 -2.0236
 1136TIP3    H2 3373   1.613   6.125   4.793 -1.3104  1.2772  0.5973
 1137TIP3   OH2 3374   4.505   0.798   4.137  0.0237 -0.4901 -0.0035
 1137TIP3    H1 3375   4.487   0.745   4.060  1.1963 -0.6457 -0.1844
 1137TIP3    H2 3376   4.524   0.735   4.206  1.3168 -0.3400 -0.1944
 1138TIP3   OH2 3377   7.172   6.219   4.999  0.1560 -0.3075  0.2620
 1138TIP3    H1 3378   7.244   6.279   4.983 -0.0373 -0.2702 -0.4749
 1138TIP3    H2 3379   7.181   6.194   5.091  2.5769 -2.2220 -0.3908
 1139TIP3   OH2 3380   5.009   6.210   3.726  0.3002 -0.0877  0.0104
 1139TIP3    H1 3381   5.069   6.224   3.652 -0.0568 -0.7044 -0.3982
 1139TIP3    H2 3382   4.964   6.294   3.736  0.2801 -0.0299 -0.5350
 1140TIP3   OH2 3383   2.970   4.440   1.910  0.6240  0.2226  0.2314
 1140TIP3    H1 3384   2.972   4.461   2.004  1.0240 -0.5759  0.4131
 1140TIP3    H2 3385   2.927   4.354   1.906  1.0431  0.0339 -0.2672
 1141TIP3   OH2 3386   6.090   0.806   0.399  0.6779  0.2057 -0.4465
 1141TIP3    H1 3387   6.116   0.749   0.471 -0.1966 -0.0415 -0.3200
 1141TIP3    H2 3388   6.141   0.775   0.324  2.2555  1.0148  0.2310
 1142TIP3   OH2 3389   6.088   1.727   5.361  0.1379 -0.4724 -0.0696
 1142TIP3    H1 3390   6.183   1.724   5.373  0.1640  2.2425  1.0065
 1142TIP3    H2 3391   6.054   1.665   5.426  1.1451 -1.4210 -0.4217
 1143TIP3   OH2 3392   4.353   2.565   2.547  0.1348 -0.0163  0.1201
 1143TIP3    H1 3393   4.350   2.484   2.599  0.2599 -0.6051 -0.7589
 1143TIP3    H2 3394   4.305   2.543   2.467  1.1476  0.4036 -0.6245
 1144TIP3   OH2 3395   6.678   6.718   5.885 -0.3279  0.0195 -0.0618
 1144TIP3    H1 3396   6.677   6.804   5.843 -1.4647 -0.2269 -0.5773
 1144TIP3    H2 3397   6.642   6.659   5.818 -4.2411 -0.0778  1.8649
 1145TIP3   OH2 3398   6.647   5.516   1.431 -0.5788  0.0571 -0.2775
 1145TIP3    H1 3399   6.743   5.521   1.439 -0.0028 -2.3400 -3.4917
 1145TIP3    H2 3400   6.624   5.587   1.371 -0.8851  0.7051  0.5836
 1146TIP3   OH2 3401   2.052   0.101   5.554  0.6545 -0.3746  0.1625
 1146TIP3    H1 3402   1.996   0.168   5.515  0.6887  0.4531  1.4988
 1146TIP3    H2 3403   2.106   0.070   5.481 -0.8556 -0.5231 -0.9568
 1147TIP3   OH2 3404   3.137   0.115   3.664  0.6527  0.4335 -0.1619
 1147TIP3    H1 3405   3.143   0.072   3.579  1.7156 -0.3292  0.2711
 1147TIP3    H2 3406   3.156   0.046   3.727 -1.2000  0.7199  0.7929
 1148TIP3   OH2 3407   4.567   0.924   0.348 -0.3860 -0.3701  0.3204
 1148TIP3    H1 3408   4.475   0.941   0.331 -0.6115 -1.6999  0.1038
 1148TIP3    H2 3409   4.605   1.010   0.365 -1.3301  0.3803 -1.1922
 1149TIP3   OH2 3410   0.733   6.217   4.338 -0.3294  0.1213 -0.1575
 1149TIP3    H1 3411   0.686   6.246   4.259 -2.2884 -2.0553  0.1121
 1149TIP3    H2 3412   0.782   6.140   4.309  0.2991  0.2951  0.4130
 1150TIP3   OH2 3413   7.187   0.676   3.471 -0.3534 -0.4494 -0.4120
 1150TIP3    H1 3414   7.133   0.597   3.459 -0.5894  0.0797 -3.7878
 1150TIP3    H2 3415   7.144   0.723   3.542 -1.1728 -2.5462  0.5857
 1151TIP3   OH2 3416   5.173   1.954   4.936  0.2305 -0.5126 -0.0318
 1151TIP3    H1 3417   5.158   2.030   4.993  0.3949  0.9514 -1.8323
 1151TIP3    H2 3418   5.088   1.938   4.895  0.2098 -1.2859  0.3141
 1152TIP3   OH2 3419   0.105   2.267   1.262 -0.2722 -0.2977  0.3991
 1152TIP3    H1 3420   0.131   2.260   1.354 -0.6971  1.1450  0.6556
 1152TIP3    H2 3421   0.111   2.361   1.242  1.5336 -0.7683 -1.5722
 1153TIP3   OH2 3422   2.710   4.483   4.904  0.1664  0.2348  0.3235
 1153TIP3    H1 3423   2.707   4.447   4.993 -0.5806  0.9438  0.6075
 1153TIP3    H2 3424   2.760   4.564   4.913  0.2949  0.1854  0.0473
 1154TIP3   OH2 3425   2.700   2.309   2.095  0.1935  0.2414  0.1547
 1154TIP3    H1 3426   2.616   2.331   2.136 -1.1489  0.2499 -2.4422
 1154TIP3    H2 3427   2.694   2.215   2.079  1.0380  0.0919  0.6463
 1155TIP3   OH2 3428   1.863   3.076   2.316  0.2993 -0.2400  0.1545
 1155TIP3    H1 3429   1.773   3.069   2.347  0.6467  0.5337  1.4414
 1155TIP3    H2 3430   1.883   3.170   2.321  1.8358 -0.5998  1.9746
 1156TIP3   OH2 3431   6.000   1.120   4.679  0.0887 -0.1917 -0.5386
 1156TIP3    H1 3432   6.052   1.106   4.758 -1.1498  2.1199  0.7872
 1156TIP3    H2 3433   5.917   1.077   4.697  0.0515 -0.2687 -0.8887
 1157TIP3   OH2 3434   5.065   5.353   3.935  0.0964  0.1512 -0.5341
 1157TIP3    H1 3435   5.125   5.408   3.884  0.1961 -0.4835 -1.1124
 1157TIP3    H2 3436   5.041   5.407   4.009  1.9525  0.1843  0.1043
 1158TIP3   OH2 3437   4.977   1.796   1.936  0.0885  0.3825 -0.1485
 1158TIP3    H1 3438   4.991   1.875   1.883 -1.1685  1.5762  1.2062
 1158TIP3    H2 3439   5.036   1.806   2.010  0.1255 -0.1097 -0.1071
 1159TIP3   OH2 3440   6.451   1.271   1.836 -0.3573 -0.0784 -0.3141
 1159TIP3    H1 3441   6.536   1.283   1.879 -0.5175  1.5356 -0.3919
 1159TIP3    H2 3442   6.390   1.252   1.907 -0.7869  3.4063  0.3832
 1160TIP3   OH2 3443   3.045   2.155   3.996 -0.0678 -0.3172  0.3821
 1160TIP3    H1 3444   2.958   2.170   3.960 -0.3185 -1.3543  0.5445
 1160TIP3    H2 3445   3.101   2.142   3.919 -0.0653  0.2256  0.2838
 1161TIP3   OH2 3446   0.313   3.398   1.053 -0.5105 -0.4574 -0.0391
 1161TIP3    H1 3447   0.319   3.310   1.089  0.3128 -0.4617 -0.1559
 1161TIP3    H2 3448   0.350   3.390   0.965  0.8629  0.2630  0.4422
 1162TIP3   OH2 3449   1.262   1.214   4.356 -1.0603  0.1098  0.1605
 1162TIP3    H1 3450   1.349   1.198   4.392 -1.4478  1.2919  1.7898
 1162TIP3    H2 3451   1.277   1.247   4.268 -0.0036 -2.0187 -0.4863
 1163TIP3   OH2 3452   2.729   2.449   2.634  0.3441  0.0486  0.0150
 1163TIP3    H1 3453   2.678   2.528   2.653  0.0797  0.0973 -0.8342
 1163TIP3    H2 3454   2.751   2.457   2.541  0.9201 -0.5379  0.0937
 1164TIP3   OH2 3455   4.070   6.711   5.472 -0.1721 -0.6616 -0.2832
 1164TIP3    H1 3456   4.030   6.697   5.386  0.0097 -4.7119  0.0817
 1164TIP3    H2 3457   4.159   6.740   5.453 -0.6335  0.0982 -1.3758
 1165TIP3   OH2 3458   6.700   2.384   3.708 -0.2651  0.3929 -0.4083
 1165TIP3    H1 3459   6.694   2.313   3.645 -1.5570  1.2070 -1.2332
 1165TIP3    H2 3460   6.735   2.458   3.659 -0.1899  0.7189  0.1194
 1166TIP3   OH2 3461   2.089   6.689   5.418  0.0329 -0.1821  0.2965
 1166TIP3    H1 3462   2.087   6.766   5.474 -1.2882 -0.7571  1.1075
 1166TIP3    H2 3463   2.043   6.715   5.338 -1.4892 -0.4143  1.0417
 1167TIP3   OH2 3464   0.197   0.052   3.802  0.0988 -0.6619 -0.7105
 1167TIP3    H1 3465   0.286   0.067   3.835 -0.7998  2.5349  0.6047
 1167TIP3    H2 3466   0.197   0.091   3.715  0.1604 -1.3542 -1.0264
 1168TIP3   OH2 3467   4.510   6.131   3.669 -0.0483 -0.0294 -0.4500
 1168TIP3    H1 3468   4.580   6.184   3.709 -0.1472 -0.2073 -0.0405
 1168TIP3    H2 3469   4.453   6.196   3.628 -1.0017  0.3246  1.3441
 1169TIP3   OH2 3470   0.131   6.431   4.874 -0.1686 -0.5241  0.0211
 1169TIP3    H1 3471   0.215   6.392   4.851 -0.6068 -1.2531 -0.4009
 1169TIP3    H2 3472   0.150   6.524   4.886  1.0806 -0.9542  1.9007
 1170TIP3   OH2 3473   2.896   1.044   4.194 -0.8450 -0.1746  0.4247
 1170TIP3    H1 3474   2.808   1.063   4.227 -0.6688  1.1308  0.1806
 1170TIP3    H2 3475   2.950   1.117   4.225 -0.1572 -0.2220 -0.6211
 1171TIP3   OH2 3476   5.655   1.745   5.008  0.1637 -0.0539  0.0787
 1171TIP3    H1 3477   5.582   1.806   5.020  0.4924  0.0110  2.1868
 1171TIP3    H2 3478   5.617   1.658   5.021 -0.1436 -0.3045 -2.1315
 1172TIP3   OH2 3479   3.601   4.197   5.183 -0.3013  0.3897 -0.0476
 1172TIP3    H1 3480   3.563   4.203   5.095 -1.5279  0.4215  0.4710
 1172TIP3    H2 3481   3.617   4.103   5.195 -0.2788  0.3675 -0.2366
 1173TIP3   OH2 3482   5.454   2.669   3.244  0.2237  0.0776  0.3456
 1173TIP3    H1 3483   5.534   2.692   3.291  0.5267 -1.5686  0.6991
 1173TIP3    H2 3484   5.444   2.575   3.259  0.3513 -0.5540 -2.9180
 1174TIP3   OH2 3485   6.148   3.956   5.024 -0.0388  0.1457 -0.4515
 1174TIP3    H1 3486   6.071   3.919   5.066 -0.6410  1.3601 -0.4468
 1174TIP3    H2 3487   6.221   3.933   5.082 -0.5465 -0.0952  0.0992
 1175TIP3   OH2 3488   4.639   0.609   0.773  0.3295  0.1845  0.4675
 1175TIP3    H1 3489   4.599   0.605   0.860  1.5952 -0.4407  1.0427
 1175TIP3    H2 3490   4.689   0.527   0.765  1.0931  0.7142 -0.4129
 1176TIP3   OH2 3491   2.863   0.041   0.857  0.2143 -0.1671  0.3099
 1176TIP3    H1 3492   2.911  -0.015   0.918 -1.0166 -0.0166  1.4517
 1176TIP3    H2 3493   2.853  -0.012   0.778  0.4457 -0.9690  0.8083
 1177TIP3   OH2 3494   2.761   6.125   1.984 -0.5938  0.7375  0.4888
 1177TIP3    H1 3495   2.786   6.171   2.064 -2.0512 -0.6833  1.8256
 1177TIP3    H2 3496   2.666   6.120   1.988 -0.5903 -0.7153 -0.5592
 1178TIP3   OH2 3497   4.967   3.914   0.049  0.1347  0.9412  0.3920
 1178TIP3    H1 3498   4.946   4.007   0.060  0.0369  1.0315 -0.5034
 1178TIP3    H2 3499   4.884   3.869   0.062  0.1865  0.9686  0.8485
 1179TIP3   OH2 3500   7.161   6.604   2.050 -0.0997  0.1313 -0.2625
 1179TIP3    H1 3501   7.199   6.692   2.042 -3.5489  1.6593 -1.5522
 1179TIP3    H2 3502   7.149   6.592   2.144 -0.8038  1.6428 -0.1270
 1180TIP3   OH2 3503   3.827   2.700   2.563  0.7412  0.2194 -0.6133
 1180TIP3    H1 3504   3.774   2.656   2.497 -1.5329 -0.6150  1.5901
 1180TIP3    H2 3505   3.766   2.715   2.636  2.9389  1.6619  1.0414
 1181TIP3   OH2 3506   5.491   2.849   5.646 -0.2241 -0.0804  0.3016
 1181TIP3    H1 3507   5.495   2.945   5.643  0.2291 -0.1230 -1.3835
 1181TIP3    H2 3508   5.401   2.830   5.671 -0.6996  0.7968 -0.6673
 1182TIP3   OH2 3509   4.148   4.959   2.357  0.3602  0.1628  0.3765
 1182TIP3    H1 3510   4.141   4.890   2.423 -2.0462 -0.4177 -0.3693
 1182TIP3    H2 3511   4.235   4.946   2.318 -0.2378 -2.9290 -0.1896
 1183TIP3   OH2 3512   1.802   1.640   3.428  0.0353 -0.2175 -0.3787
 1183TIP3    H1 3513   1.773   1.601   3.345 -1.6728 -0.8321  0.4608
 1183TIP3    H2 3514   1.775   1.732   3.422  0.3022 -0.1555 -0.6652
 1184TIP3   OH2 3515   4.258   0.552   0.008 -0.3696 -0.3810  0.1728
 1184TIP3    H1 3516   4.164   0.541   0.021 -0.9428  1.4809 -1.6532
 1184TIP3    H2 3517   4.284   0.615   0.075 -1.1818  1.5734 -1.2381
 1185TIP3   OH2 3518   3.377   4.310   5.789  0.1918  0.1789 -0.2921
 1185TIP3    H1 3519   3.303   4.255   5.764  1.4934 -2.2359  0.7695
 1185TIP3    H2 3520   3.363   4.329   5.882  0.0332  1.2077 -0.5174
 1186TIP3   OH2 3521   4.192   0.258   4.116 -0.3900 -0.3520 -0.0674
 1186TIP3    H1 3522   4.200   0.309   4.196 -1.9503  0.3839 -0.3309
 1186TIP3    H2 3523   4.278   0.263   4.075 -0.7751  3.3262 -0.7639
 1187TIP3   OH2 3524   1.357   3.733   0.428 -0.0951  1.0072  0.0833
 1187TIP3    H1 3525   1.287   3.769   0.374 -0.6528 -2.1802 -1.5803
 1187TIP3    H2 3526   1.313   3.673   0.488  1.0372  0.4317  0.3634
 1188TIP3   OH2 3527   3.358   0.821   2.312  0.8075 -0.1779  0.4641
 1188TIP3    H1 3528   3.337   0.774   2.393  1.9064 -0.4243  0.6245
 1188TIP3    H2 3529   3.325   0.910   2.327 -0.5875 -0.6685  0.4640
 1189TIP3   OH2 3530   2.722   6.064   4.711 -0.3249 -0.5605  0.2716
 1189TIP3    H1 3531   2.651   6.000   4.723 -0.8533  0.2560  1.6103
 1189TIP3    H2 3532   2.798   6.010   4.690 -1.4177 -1.4332 -1.8405
 1190TIP3   OH2 3533   1.225   2.909   0.028 -0.1344 -0.0053  0.2211
 1190TIP3    H1 3534   1.251   2.879  -0.059  1.3390 -0.1627  0.6773
 1190TIP3    H2 3535   1.175   2.836   0.064 -0.3834 -0.1127 -0.3290
 1191TIP3   OH2 3536   5.167   3.875   1.658 -0.0673  0.4428 -0.1327
 1191TIP3    H1 3537   5.212   3.907   1.736 -0.7002 -0.3779  0.6002
 1191TIP3    H2 3538   5.166   3.949   1.598  1.2083  0.8219  0.2915
 1192TIP3   OH2 3539   1.153   4.173   1.322  0.4833 -0.3037 -0.2809
 1192TIP3    H1 3540   1.114   4.126   1.248  2.4750 -3.2132  0.3727
 1192TIP3    H2 3541   1.089   4.241   1.343 -2.1043 -2.0111 -2.0014
 1193TIP3   OH2 3542   2.567   3.777   5.767  0.4099 -0.0356  0.1216
 1193TIP3    H1 3543   2.479   3.740   5.760  0.9602 -1.2741 -0.7215
 1193TIP3    H2 3544   2.620   3.705   5.800  1.2538  0.4453 -0.1675
 1194TIP3   OH2 3545   5.872   0.642   4.428 -0.8732  0.2982 -0.3833
 1194TIP3    H1 3546   5.815   0.719   4.440  1.3296  2.2965 -1.8586
 1194TIP3    H2 3547   5.907   0.625   4.515 -0.9511  1.3543 -0.1300
 1195TIP3   OH2 3548   3.534   3.050   4.695  0.1372  0.5373 -0.1145
 1195TIP3    H1 3549   3.585   3.059   4.775  3.1433  0.5694 -1.8726
 1195TIP3    H2 3550   3.542   2.957   4.672 -1.7993  0.2426  0.2175
 1196TIP3   OH2 3551   1.767   0.442   4.971  0.2475  0.5851 -0.4183
 1196TIP3    H1 3552   1.712   0.365   4.958 -0.5968  0.7497  1.6703
 1196TIP3    H2 3553   1.760   0.492   4.890 -1.5817 -0.0974 -0.7161
 1197TIP3   OH2 3554   7.114   5.121   0.265  0.0313 -0.4573  0.1461
 1197TIP3    H1 3555   7.091   5.207   0.302  0.3474 -0.4438  0.3103
 1197TIP3    H2 3556   7.030   5.081   0.245 -0.1676 -0.7601  1.5324
 1198TIP3   OH2 3557   1.796   2.578   0.725  0.2294 -0.0120 -0.4635
 1198TIP3    H1 3558   1.864   2.513   0.741 -0.1234 -0.3081 -0.1146
 1198TIP3    H2 3559   1.807   2.643   0.795 -1.1518 -1.1717  0.9247
 1199TIP3   OH2 3560   6.985   3.049   3.485 -0.1521 -0.0572  0.2344
 1199TIP3    H1 3561   7.056   3.109   3.509 -0.2137  1.3034 -2.5748
 1199TIP3    H2 3562   7.028   2.974   3.445 -0.2248 -0.0131  0.0720
 1200TIP3   OH2 3563   7.206   4.603   5.449 -0.1625  0.5545  0.3962
 1200TIP3    H1 3564   7.184   4.531   5.391  2.5940  0.4656 -0.6566
 1200TIP3    H2 3565   7.171   4.576   5.535 -2.6226 -0.1561 -0.7295
 1201TIP3   OH2 3566   1.276   3.035   0.990  0.4347  0.1111 -0.0531
 1201TIP3    H1 3567   1.189   3.009   1.019  0.5215 -0.2328 -0.0998
 1201TIP3    H2 3568   1.273   3.027   0.895 -0.1395  2.1082 -0.2597
 1202TIP3   OH2 3569   5.470   5.643   3.391 -0.0350  0.1120  0.8778
 1202TIP3    H1 3570   5.420   5.724   3.390 -0.3213 -0.0643  0.1530
 1202TIP3    H2 3571   5.561   5.670   3.403 -0.2307  0.4661  1.6637
 1203TIP3   OH2 3572   5.397   1.016   0.801  0.1111  0.2381  0.3487
 1203TIP3    H1 3573   5.446   0.936   0.782  0.5768  0.5885  0.0440
 1203TIP3    H2 3574   5.448   1.060   0.869  1.1165  1.3845 -1.0781
 1204TIP3   OH2 3575   0.477   3.626   1.039 -0.6135 -0.0552 -0.0766
 1204TIP3    H1 3576   0.458   3.708   1.084  0.6980 -0.4551  1.2567
 1204TIP3    H2 3577   0.400   3.571   1.056 -1.4512  0.8208 -0.8862
 1205TIP3   OH2 3578   7.178   4.442   3.605 -0.0186  0.0361  0.3117
 1205TIP3    H1 3579   7.189   4.403   3.692 -1.6728  0.3719  0.7039
 1205TIP3    H2 3580   7.239   4.516   3.605  0.9864 -0.7623  0.6565
 1206TIP3   OH2 3581   6.333   1.777   3.049  0.1363  0.0368 -0.4486
 1206TIP3    H1 3582   6.284   1.695   3.052  0.0612  0.1080  1.2991
 1206TIP3    H2 3583   6.331   1.809   3.139 -0.5551  2.3963 -1.2337
 1207TIP3   OH2 3584   1.694   5.670   0.589  0.6622 -0.3505  0.3961
 1207TIP3    H1 3585   1.603   5.659   0.616  1.0429 -2.1817  1.0333
 1207TIP3    H2 3586   1.702   5.621   0.508  0.9193  0.4443 -0.0749
 1208TIP3   OH2 3587   3.203   6.759   2.334  0.0946 -0.2457 -0.0946
 1208TIP3    H1 3588   3.143   6.737   2.406 -0.9161  0.6970 -0.6327
 1208TIP3    H2 3589   3.235   6.674   2.303 -0.6475 -0.7388  0.4639
 1209TIP3   OH2 3590   6.838   4.243   4.958 -0.0480 -0.1564 -0.0967
 1209TIP3    H1 3591   6.747   4.235   4.928 -0.3828 -2.0713  1.2193
 1209TIP3    H2 3592   6.882   4.165   4.924  1.0946  0.6821 -0.6050
 1210TIP3   OH2 3593   1.421   2.071   3.721 -0.0424  0.8141  0.0849
 1210TIP3    H1 3594   1.351   2.094   3.783  1.2063  0.1722  1.7893
 1210TIP3    H2 3595   1.459   2.155   3.696 -1.5672  1.2058 -1.1193
 1211TIP3   OH2 3596   0.289   1.519   5.271  0.2157 -0.1990  0.2169
 1211TIP3    H1 3597   0.380   1.548   5.279  0.1214  0.4096 -0.8114
 1211TIP3    H2 3598   0.239   1.581   5.325  0.2980  0.0705 -0.0161
 1212TIP3   OH2 3599   1.426   5.442   0.400 -0.0077 -0.2817  1.2257
 1212TIP3    H1 3600   1.363   5.411   0.465 -1.8164 -0.7045 -0.6197
 1212TIP3    H2 3601   1.384   5.424   0.316  0.9023  2.9140 -0.0707
 1213TIP3   OH2 3602   0.361   0.544   5.267 -0.3163  0.0460 -0.6426
 1213TIP3    H1 3603   0.429   0.520   5.330 -0.3542  0.0661 -0.5945
 1213TIP3    H2 3604   0.355   0.639   5.274 -1.2394 -0.0645  0.2600
 1214TIP3   OH2 3605   0.301   5.630   0.167  0.2222 -0.8178  0.2447
 1214TIP3    H1 3606   0.306   5.720   0.136 -1.5155 -0.4232  1.0237
 1214TIP3    H2 3607   0.386   5.615   0.210  0.8147  0.1795 -0.5340
 1215TIP3   OH2 3608   4.446   1.336   2.566 -0.1777  0.1879 -0.1282
 1215TIP3    H1 3609   4.384   1.345   2.495  0.8035  2.0321 -0.8174
 1215TIP3    H2 3610   4.394   1.306   2.641 -1.4911 -0.2661 -1.1985
 1216TIP3   OH2 3611   6.146   2.323   3.962  0.0047  0.1444  0.1780
 1216TIP3    H1 3612   6.157   2.393   4.026 -0.1386  1.7268 -1.4554
 1216TIP3    H2 3613   6.227   2.273   3.965 -0.1765 -0.0888  1.8754
 1217TIP3   OH2 3614   4.717   6.455   2.776 -0.5893  0.1214  0.4726
 1217TIP3    H1 3615   4.682   6.435   2.689  0.6657 -0.7056  0.1399
 1217TIP3    H2 3616   4.722   6.551   2.778  1.7053  0.1106 -1.3487
 1218TIP3   OH2 3617   6.708   1.271   1.971  0.8994 -0.3789  0.3013
 1218TIP3    H1 3618   6.698   1.195   2.028  0.7509 -0.0979  0.6630
 1218TIP3    H2 3619   6.707   1.346   2.032  0.5019 -0.0601 -0.0956
 1219TIP3   OH2 3620   4.826   1.172   4.195  0.1866  0.5192  0.1255
 1219TIP3    H1 3621   4.774   1.229   4.252  1.0390  2.5453 -1.0160
 1219TIP3    H2 3622   4.791   1.187   4.108  0.1225 -1.1203 -0.1538
 1220TIP3   OH2 3623   2.018   3.853   1.068  0.0286  0.0329 -0.5379
 1220TIP3    H1 3624   2.023   3.937   1.022  1.4476 -0.3586 -1.1649
 1220TIP3    H2 3625   1.943   3.809   1.030 -1.1544  1.2610  0.2713
 1221TIP3   OH2 3626   1.666   5.704   5.040 -0.5652  0.0728 -0.9360
 1221TIP3    H1 3627   1.653   5.769   5.109 -2.1278 -0.8593 -0.3131
 1221TIP3    H2 3628   1.630   5.744   4.961 -0.6230  0.3440 -0.7711
 1222TIP3   OH2 3629   1.480   5.876   4.657  0.6280 -0.4774 -0.2370
 1222TIP3    H1 3630   1.482   5.881   4.752  1.4696 -3.1747 -0.0380
 1222TIP3    H2 3631   1.511   5.788   4.637  0.6230  0.0737 -3.0284
 1223TIP3   OH2 3632   4.807   6.211   2.303 -0.6108 -0.7708 -0.2454
 1223TIP3    H1 3633   4.866   6.152   2.255  0.8581  0.7204 -0.3709
 1223TIP3    H2 3634   4.820   6.188   2.395 -0.5392 -1.0891 -0.3343
 1224TIP3   OH2 3635   0.556   0.576   1.341  0.5014 -0.3708 -0.7254
 1224TIP3    H1 3636   0.468   0.563   1.375  0.6878  2.0337  0.8901
 1224TIP3    H2 3637   0.545   0.633   1.265  0.5648 -1.2662 -1.4212
 1225TIP3   OH2 3638   6.994   3.633   0.048 -0.1721  0.8327 -0.4127
 1225TIP3    H1 3639   7.075   3.679   0.027  0.4146 -0.1723 -0.4247
 1225TIP3    H2 3640   7.020   3.541   0.055 -1.4292  0.3876 -1.1507
 1226TIP3   OH2 3641   4.307   4.984   4.633 -0.3109 -0.1676 -0.0799
 1226TIP3    H1 3642   4.247   4.909   4.640 -1.8172  0.9402 -0.6449
 1226TIP3    H2 3643   4.359   4.964   4.554  2.2282 -2.5464  1.9918
 1227TIP3   OH2 3644   1.128   2.910   5.773 -0.5872 -0.6350  1.0529
 1227TIP3    H1 3645   1.120   2.924   5.678 -1.4810  0.0163  1.2129
 1227TIP3    H2 3646   1.223   2.907   5.788 -0.4325 -1.6033  0.0310
 1228TIP3   OH2 3647   2.365   5.069   0.529 -0.4471 -0.0112 -0.3894
 1228TIP3    H1 3648   2.317   5.109   0.602 -0.5334  0.6299 -0.7887
 1228TIP3    H2 3649   2.300   5.064   0.459 -0.3278 -0.5025 -0.4614
 1229TIP3   OH2 3650   1.618   6.741   3.019 -0.0545 -0.1445  0.3591
 1229TIP3    H1 3651   1.539   6.687   3.017 -0.3771  0.3111  0.4620
 1229TIP3    H2 3652   1.646   6.746   2.928 -0.0034 -0.5072  0.3536
 1230TIP3   OH2 3653   6.022   1.342   1.678  0.3559 -0.2623  0.0445
 1230TIP3    H1 3654   6.031   1.427   1.635 -0.0096 -0.0676  0.3486
 1230TIP3    H2 3655   6.096   1.291   1.646  1.3323  0.5962  0.8658
 1231TIP3   OH2 3656   3.468   3.617   5.006 -0.2180 -0.0591 -0.4754
 1231TIP3    H1 3657   3.487   3.642   4.915  2.0638  0.4695  0.0685
 1231TIP3    H2 3658   3.521   3.539   5.021  1.7984  1.4974  1.1753
 1232TIP3   OH2 3659   3.109   2.927   4.510  0.0383  0.0327 -0.2613
 1232TIP3    H1 3660   3.061   2.871   4.570 -1.4176  1.8213  0.3343
 1232TIP3    H2 3661   3.145   2.997   4.565  0.7770  0.3658 -1.1383
 1233TIP3   OH2 3662   5.481   3.317   1.008  0.5892 -0.1336  0.2134
 1233TIP3    H1 3663   5.403   3.371   1.002  1.1756  0.7205 -0.0054
 1233TIP3    H2 3664   5.525   3.329   0.923  2.2954  1.5550  1.2308
 1234TIP3   OH2 3665   4.959   4.582   4.070  0.4955 -0.2303 -0.2218
 1234TIP3    H1 3666   4.870   4.607   4.093  0.8148  0.0469  0.7627
 1234TIP3    H2 3667   4.958   4.486   4.071  0.8829 -0.2757  2.6758
 1235TIP3   OH2 3668   4.693   3.919   4.042 -0.1831 -0.1410  0.5970
 1235TIP3    H1 3669   4.773   3.965   4.017 -1.8268  1.9109 -1.3313
 1235TIP3    H2 3670   4.664   3.874   3.963 -2.0445  0.9913  0.5597
 1236TIP3   OH2 3671   6.743   3.017   3.226  0.0689 -0.2482  0.5662
 1236TIP3    H1 3672   6.737   2.997   3.132  0.1133 -1.5622  0.8203
 1236TIP3    H2 3673   6.819   3.075   3.233  0.3165 -0.4668 -0.1782
 1237TIP3   OH2 3674   2.867   6.711   5.268 -0.0961 -0.0608  0.0740
 1237TIP3    H1 3675   2.859   6.771   5.194 -2.4612  1.1570  1.1898
 1237TIP3    H2 3676   2.862   6.767   5.345 -0.1898 -1.5037  1.1522
 1238TIP3   OH2 3677   2.565   0.846   1.425 -0.2521  0.5973 -0.5891
 1238TIP3    H1 3678   2.574   0.763   1.378 -1.3871 -0.6495  1.2283
 1238TIP3    H2 3679   2.580   0.823   1.517 -0.4854  2.4418 -0.0458
 1239TIP3   OH2 3680   6.357   3.085   1.041 -0.2615  0.0603  0.2214
 1239TIP3    H1 3681   6.394   3.142   0.973 -0.4312 -3.2181 -2.8950
 1239TIP3    H2 3682   6.423   3.085   1.111  0.8626  2.0569 -0.7576
 1240TIP3   OH2 3683   2.369   1.973   1.391  0.1884  0.1669 -0.3847
 1240TIP3    H1 3684   2.395   1.886   1.422 -0.6136 -0.0570 -0.3000
 1240TIP3    H2 3685   2.438   1.999   1.331 -0.4171 -1.3094 -1.8124
 1241TIP3   OH2 3686   5.223   0.772   5.605 -0.4579  0.0429 -0.4358
 1241TIP3    H1 3687   5.255   0.846   5.657  0.9608  0.2927 -1.6129
 1241TIP3    H2 3688   5.211   0.807   5.517 -0.3913 -0.9633 -0.8625
 1242TIP3   OH2 3689   4.151   5.185   2.206 -0.1143 -0.4014  0.0807
 1242TIP3    H1 3690   4.120   5.126   2.275 -1.2272 -1.1972 -1.0588
 1242TIP3    H2 3691   4.071   5.209   2.159  0.5459  0.6993 -0.4968
 1243TIP3   OH2 3692   0.096   1.529   4.522 -0.1249  0.2285 -0.4407
 1243TIP3    H1 3693   0.172   1.581   4.495  0.1428  2.4645  3.7192
 1243TIP3    H2 3694   0.134   1.450   4.561  0.0887  0.9279  0.8233
 1244TIP3   OH2 3695   2.090   4.449   5.505  0.0217 -0.0128 -0.0255
 1244TIP3    H1 3696   2.095   4.357   5.532 -0.6470 -0.1045 -0.2033
 1244TIP3    H2 3697   2.141   4.453   5.424  0.7271 -0.0533  0.4014
 1245TIP3   OH2 3698   1.278   6.607   4.478 -0.2745 -0.2388  0.3949
 1245TIP3    H1 3699   1.194   6.591   4.522 -1.8181 -0.0960 -2.2977
 1245TIP3    H2 3700   1.285   6.537   4.413  1.2989  0.2532 -0.0190
 1246TIP3   OH2 3701   4.945   0.545   0.775 -0.1217 -0.2503  0.2662
 1246TIP3    H1 3702   4.916   0.461   0.811 -0.9549  0.5337  1.5233
 1246TIP3    H2 3703   4.925   0.608   0.844  0.1588  1.0363 -0.7964
 1247TIP3   OH2 3704   2.571   5.615   3.296 -0.2152  0.4569  0.2099
 1247TIP3    H1 3705   2.618   5.545   3.341  0.1929  0.9198  0.5104
 1247TIP3    H2 3706   2.490   5.624   3.346 -0.2502  0.2360  0.1966
 1248TIP3   OH2 3707   6.451   6.514   5.766  0.2360  0.6535  0.1207
 1248TIP3    H1 3708   6.390   6.446   5.736  0.4902  1.3507 -2.1690
 1248TIP3    H2 3709   6.441   6.515   5.861  0.8022 -3.1343  0.3782
 1249TIP3   OH2 3710   3.084   0.673   3.647 -0.1690 -0.2236  0.3698
 1249TIP3    H1 3711   3.024   0.631   3.708 -1.8134  2.2317  0.5912
 1249TIP3    H2 3712   3.051   0.649   3.560 -0.3006 -0.4442  0.4826
 1250TIP3   OH2 3713   3.778   5.142   0.460  0.0347 -0.3759  0.3910
 1250TIP3    H1 3714   3.719   5.107   0.393 -0.5468  1.0562  0.1269
 1250TIP3    H2 3715   3.861   5.095   0.446 -0.1058 -0.1632 -1.2741
 1251TIP3   OH2 3716   0.053   1.683   2.929  0.0676 -0.2651 -0.2810
 1251TIP3    H1 3717   0.025   1.650   3.015 -0.9527  3.3054  0.9333
 1251TIP3    H2 3718  -0.016   1.655   2.869  0.3222 -1.9990  0.1675
 1252TIP3   OH2 3719   1.875   4.031   2.544 -0.0750  0.1174  0.2121
 1252TIP3    H1 3720   1.829   4.076   2.615  0.1672 -0.6976  0.9005
 1252TIP3    H2 3721   1.959   4.077   2.537  0.4896 -0.6655  1.4300
 1253TIP3   OH2 3722   0.321   2.601   0.632  0.2077  0.0257  0.0614
 1253TIP3    H1 3723   0.232   2.636   0.623  1.1991  2.4418 -1.2943
 1253TIP3    H2 3724   0.328   2.536   0.562 -0.0481  0.9365 -0.8380
 1254TIP3   OH2 3725   5.755   0.530   5.093 -0.3530  0.4846  0.1045
 1254TIP3    H1 3726   5.803   0.612   5.110 -0.0210  0.0779  1.2628
 1254TIP3    H2 3727   5.664   0.557   5.082 -0.2469  1.0139  0.4813
 1255TIP3   OH2 3728   3.206   0.099   4.480 -0.0279  0.1500 -0.2031
 1255TIP3    H1 3729   3.151   0.177   4.486  2.0114  1.6053  1.1556
 1255TIP3    H2 3730   3.215   0.069   4.570  0.7207 -0.5253 -0.4878
 1256TIP3   OH2 3731   4.031   6.765   4.210 -0.6563  0.1983 -0.2667
 1256TIP3    H1 3732   4.114   6.785   4.166  0.5069 -1.9029  0.7735
 1256TIP3    H2 3733   4.026   6.829   4.281  0.8651 -0.5156  0.5379
 1257TIP3   OH2 3734   0.605   0.580   4.145 -0.1027  0.1281  0.2542
 1257TIP3    H1 3735   0.535   0.523   4.111  0.1426 -0.9191  1.4427
 1257TIP3    H2 3736   0.630   0.540   4.228  1.4865  0.8390  0.1546
 1258TIP3   OH2 3737   3.942   3.591   5.108  0.2057 -0.4090  0.1150
 1258TIP3    H1 3738   3.926   3.621   5.019  2.3986 -0.2281 -0.2645
 1258TIP3    H2 3739   3.919   3.498   5.106  3.8232 -1.4763 -1.8391
 1259TIP3   OH2 3740   7.169   3.858   3.214 -0.2395 -0.2763 -0.0378
 1259TIP3    H1 3741   7.158   3.923   3.283 -1.4139 -1.4009  0.8902
 1259TIP3    H2 3742   7.166   3.909   3.133 -0.2975  0.9152  0.6902
 1260TIP3   OH2 3743   4.632   5.806   2.890  0.2641  0.1410 -0.0157
 1260TIP3    H1 3744   4.720   5.838   2.868 -0.2187  0.9631 -0.7570
 1260TIP3    H2 3745   4.649   5.732   2.949  1.4699 -0.0330 -0.5456
 1261TIP3   OH2 3746   1.346   3.899   5.166  0.3237 -0.1612  0.2423
 1261TIP3    H1 3747   1.385   3.843   5.099  2.3709  0.2592  0.9824
 1261TIP3    H2 3748   1.272   3.849   5.200  0.9071 -1.5628 -0.4691
 1262TIP3   OH2 3749   7.222   5.794   3.991 -0.1518 -0.0672 -0.5420
 1262TIP3    H1 3750   7.185   5.882   3.984  3.4314  1.6401 -0.5089
 1262TIP3    H2 3751   7.229   5.778   4.085 -1.0469 -0.5259 -0.5481
 1263TIP3   OH2 3752   4.004   0.078   1.395  0.2585 -0.2701 -0.2740
 1263TIP3    H1 3753   4.079   0.058   1.451  1.7066  1.3516 -1.4943
 1263TIP3    H2 3754   3.962   0.153   1.436  0.0135 -0.4262 -0.2352
 1264TIP3   OH2 3755   5.809   2.577   4.711  0.1948 -0.0563 -0.2617
 1264TIP3    H1 3756   5.762   2.499   4.681  0.2586 -0.4362  0.6052
 1264TIP3    H2 3757   5.768   2.600   4.794  0.6308  0.4288 -0.1749
 1265TIP3   OH2 3758   3.605   5.754   2.335 -0.0165  0.1183 -0.0588
 1265TIP3    H1 3759   3.683   5.791   2.376 -0.3259 -1.9755  2.7851
 1265TIP3    H2 3760   3.633   5.669   2.302 -0.3989  0.7286 -2.1256
 1266TIP3   OH2 3761   6.569   4.335   5.275 -0.1121  0.6039 -0.3265
 1266TIP3    H1 3762   6.574   4.421   5.234 -0.6869  0.5172 -0.5817
 1266TIP3    H2 3763   6.554   4.352   5.368 -0.9928  0.7689 -0.4942
 1267TIP3   OH2 3764   2.814   5.020   5.150  0.2326  0.7567 -0.2539
 1267TIP3    H1 3765   2.890   4.963   5.140 -0.0061  0.2949  0.5179
 1267TIP3    H2 3766   2.763   5.008   5.069 -0.1462 -0.6226  0.1706
 1268TIP3   OH2 3767   4.521   4.785   3.799  0.1706  0.1599  0.0506
 1268TIP3    H1 3768   4.525   4.792   3.703 -0.1856  3.1483  0.1433
 1268TIP3    H2 3769   4.607   4.815   3.829 -0.0323  0.1377  0.6756
 1269TIP3   OH2 3770   1.900   4.501   3.502 -0.5041 -0.1063  0.0328
 1269TIP3    H1 3771   1.926   4.554   3.427  0.8358 -0.3586  0.2946
 1269TIP3    H2 3772   1.941   4.545   3.577 -2.1086  0.3448  0.6865
 1270TIP3   OH2 3773   1.852   1.741   4.473 -0.0980 -0.1594  0.1581
 1270TIP3    H1 3774   1.862   1.714   4.382 -2.9140  1.1413 -0.6393
 1270TIP3    H2 3775   1.910   1.817   4.481 -0.3447  0.1512 -0.7932
 1271TIP3   OH2 3776   6.811   2.637   3.290  0.3130  0.1309 -0.0377
 1271TIP3    H1 3777   6.789   2.635   3.383 -0.5265  1.0176 -0.1932
 1271TIP3    H2 3778   6.860   2.718   3.278  0.0086  0.2616 -0.4394
 1272TIP3   OH2 3779   3.138   1.891   2.975  0.4159  0.2342  0.3741
 1272TIP3    H1 3780   3.184   1.933   2.902 -0.1526  0.6748  0.2649
 1272TIP3    H2 3781   3.051   1.871   2.941 -0.0705  1.0108  1.1020
 1273TIP3   OH2 3782   3.285   2.467   2.864 -0.3652 -0.5170  0.3208
 1273TIP3    H1 3783   3.258   2.408   2.933  1.7543 -0.2609  1.4465
 1273TIP3    H2 3784   3.242   2.550   2.885 -1.5768 -1.0381 -0.0195
 1274TIP3   OH2 3785   5.620   4.631   5.390 -0.2871 -0.0630 -0.4166
 1274TIP3    H1 3786   5.532   4.616   5.356  0.6991 -2.7167 -2.0330
 1274TIP3    H2 3787   5.669   4.667   5.316  0.2133  0.7590  0.2858
 1275TIP3   OH2 3788   2.247   3.116   5.828 -0.0519  0.4400  0.0828
 1275TIP3    H1 3789   2.181   3.055   5.859  0.2084 -0.7463 -1.5194
 1275TIP3    H2 3790   2.257   3.095   5.735 -0.3132  3.2964 -0.6897
 1276TIP3   OH2 3791   0.743   4.399   4.129 -0.3030  0.0823  0.2741
 1276TIP3    H1 3792   0.662   4.377   4.083 -1.2000  2.1540  0.7415
 1276TIP3    H2 3793   0.727   4.373   4.219 -0.4600  0.4888  0.3658
 1277TIP3   OH2 3794   6.731   3.135   3.566  0.9886  0.2956 -0.3003
 1277TIP3    H1 3795   6.761   3.210   3.618 -0.1760  0.8193 -0.3455
 1277TIP3    H2 3796   6.810   3.101   3.525  1.8357  0.3020  1.2594
 1278TIP3   OH2 3797   5.692   0.556   3.144  0.1040  0.1574 -0.0861
 1278TIP3    H1 3798   5.739   0.638   3.132 -0.9128  0.8299  0.3732
 1278TIP3    H2 3799   5.751   0.502   3.196  0.7185  0.6595 -0.2530
 1279TIP3   OH2 3800   6.258   2.336   5.356  0.1634  0.4682  0.0686
 1279TIP3    H1 3801   6.243   2.403   5.422  0.5562  2.1394 -1.4643
 1279TIP3    H2 3802   6.292   2.261   5.405 -0.6671  1.2173  1.8873
 1280TIP3   OH2 3803   3.133   1.349   4.704 -0.0692  0.0608 -0.7686
 1280TIP3    H1 3804   3.043   1.365   4.677 -0.2775  0.5842  0.1802
 1280TIP3    H2 3805   3.186   1.383   4.632 -0.5925  2.0853 -0.2677
 1281TIP3   OH2 3806   3.655   3.752   3.186 -0.5658  0.5518 -0.2276
 1281TIP3    H1 3807   3.608   3.728   3.266  0.8370 -1.4382  0.0530
 1281TIP3    H2 3808   3.585   3.769   3.123 -1.7246 -1.4965  0.4054
 1282TIP3   OH2 3809   3.311   2.050   5.056 -0.1069 -0.1138  0.1392
 1282TIP3    H1 3810   3.227   2.058   5.101 -0.0831  2.6669 -0.0964
 1282TIP3    H2 3811   3.373   2.096   5.113  2.3479 -5.3940  2.3708
 1283TIP3   OH2 3812   5.196   0.372   5.741 -0.5559  0.0970  0.1028
 1283TIP3    H1 3813   5.133   0.301   5.755  0.1957 -0.8150 -0.8821
 1283TIP3    H2 3814   5.227   0.358   5.651  0.2039  1.1979  0.1774
 1284TIP3   OH2 3815   1.990   6.428   5.443 -0.0047 -0.2171  0.0307
 1284TIP3    H1 3816   2.019   6.398   5.357  0.7451 -1.6541  0.7468
 1284TIP3    H2 3817   2.026   6.516   5.451 -0.3017  0.0397 -1.2162
 1285TIP3   OH2 3818   1.634   3.126   1.842  0.0849 -0.1032 -0.3156
 1285TIP3    H1 3819   1.670   3.210   1.872 -0.1262  0.1277 -0.6959
 1285TIP3    H2 3820   1.704   3.088   1.788  0.6245 -0.7096  0.7736
 1286TIP3   OH2 3821   3.097   1.697   1.886  0.5198  0.3709  0.0504
 1286TIP3    H1 3822   3.114   1.681   1.978 -0.2251  1.4975  0.4039
 1286TIP3    H2 3823   3.022   1.641   1.865  0.6642  0.1447  0.1347
 1287TIP3   OH2 3824   2.488   1.566   5.462 -0.0080 -0.3238  0.0462
 1287TIP3    H1 3825   2.465   1.541   5.373  1.8456 -0.7111 -0.3462
 1287TIP3    H2 3826   2.431   1.641   5.481 -0.4371 -0.2487 -1.4382
 1288TIP3   OH2 3827   6.782   2.665   2.424  0.6112  0.4694  0.2257
 1288TIP3    H1 3828   6.727   2.589   2.446 -0.6595  0.9264 -1.2314
 1288TIP3    H2 3829   6.859   2.655   2.480 -1.3281  0.3164  3.0904
 1289TIP3   OH2 3830   0.348   3.534   3.807  0.2917  0.0689 -0.0167
 1289TIP3    H1 3831   0.326   3.622   3.777 -0.8024 -0.1348  0.1705
 1289TIP3    H2 3832   0.441   3.524   3.785  0.4381  1.2794  0.0042
 1290TIP3   OH2 3833   6.008   2.768   2.167 -0.0429 -0.2148  0.0625
 1290TIP3    H1 3834   6.033   2.827   2.096 -0.7955  0.2701  0.1905
 1290TIP3    H2 3835   6.050   2.684   2.145  0.5534  0.2028 -0.4213
 1291TIP3   OH2 3836   0.022   3.334   2.000  0.0336  0.3162  0.5743
 1291TIP3    H1 3837   0.108   3.335   1.957 -0.4968  1.2692 -0.5081
 1291TIP3    H2 3838   0.026   3.408   2.062  0.3224 -0.2331  1.2220
 1292TIP3   OH2 3839   1.297   6.545   1.551 -0.1260 -0.0790  0.0988
 1292TIP3    H1 3840   1.321   6.538   1.643 -0.8959 -2.1531  0.2064
 1292TIP3    H2 3841   1.380   6.558   1.505  0.6510 -1.8314  0.8914
 1293TIP3   OH2 3842   0.580   4.625   2.562  0.3463 -0.5176  0.4568
 1293TIP3    H1 3843   0.510   4.675   2.519  0.1920 -0.0135  1.2653
 1293TIP3    H2 3844   0.657   4.681   2.555  1.0721 -1.6979 -1.7230
 1294TIP3   OH2 3845   5.521   5.466   2.972  0.5245  0.2828 -0.7105
 1294TIP3    H1 3846   5.450   5.524   2.998  0.9756  0.7780 -0.5750
 1294TIP3    H2 3847   5.516   5.463   2.876  1.1377  1.3618 -0.7823
 1295TIP3   OH2 3848   2.275   4.385   0.373 -0.8249  0.3915 -0.1038
 1295TIP3    H1 3849   2.262   4.385   0.278 -0.5977  0.2719 -0.1345
 1295TIP3    H2 3850   2.224   4.461   0.403 -0.5346  0.6995 -0.3699
 1296TIP3   OH2 3851   4.205   0.459   0.771  0.5408  0.2477  1.1717
 1296TIP3    H1 3852   4.266   0.396   0.808  1.4461  0.2355 -0.2670
 1296TIP3    H2 3853   4.193   0.524   0.840  0.2086 -1.0471  2.3879
 1297TIP3   OH2 3854   7.132   3.977   2.972 -0.1204 -0.6939  0.0188
 1297TIP3    H1 3855   7.215   4.023   2.980 -0.0447 -0.7173 -0.5690
 1297TIP3    H2 3856   7.066   4.046   2.970 -0.1267 -0.6787  0.5663
 1298TIP3   OH2 3857   4.470   6.025   1.352  0.1795 -0.6092  0.6975
 1298TIP3    H1 3858   4.392   6.028   1.296  0.7461 -1.2552 -0.1496
 1298TIP3    H2 3859   4.504   6.115   1.349 -0.3291 -0.4108  0.7830
 1299TIP3   OH2 3860   2.177   6.434   0.539 -0.2091  0.0884  0.0654
 1299TIP3    H1 3861   2.094   6.479   0.552 -0.2438  0.1610 -0.3834
 1299TIP3    H2 3862   2.243   6.504   0.540 -0.0251 -0.0785  1.5191
 1300TIP3   OH2 3863   0.388   2.518   0.307  0.6371 -1.4431 -0.5135
 1300TIP3    H1 3864   0.371   2.425   0.323 -2.0995 -0.6810  1.9265
 1300TIP3    H2 3865   0.473   2.534   0.347  0.1706 -2.5260  1.0028
 1301TIP3   OH2 3866   0.119   3.340   2.894 -0.3228  0.3325  0.2856
 1301TIP3    H1 3867   0.157   3.347   2.807  1.5006 -2.6261  0.6776
 1301TIP3    H2 3868   0.028   3.315   2.879 -0.4297  1.3105 -0.7434
 1302TIP3   OH2 3869   0.404   2.597   5.870 -0.2441  0.5438  0.1825
 1302TIP3    H1 3870   0.418   2.664   5.938 -0.6408  1.2361 -0.3965
 1302TIP3    H2 3871   0.451   2.631   5.793 -1.0258  0.5078 -0.3228
 1303TIP3   OH2 3872   0.225   3.752   3.197  0.5227 -0.2237 -0.0325
 1303TIP3    H1 3873   0.196   3.671   3.156 -0.2304 -0.4430  0.9003
 1303TIP3    H2 3874   0.154   3.815   3.180  2.2745  1.1501 -3.1931
 1304TIP3   OH2 3875   5.471   3.386   4.148 -0.2094  0.2304  1.0787
 1304TIP3    H1 3876   5.470   3.334   4.228  1.1540 -0.1510  0.8725
 1304TIP3    H2 3877   5.443   3.473   4.175 -0.8331 -0.1665  1.7489
 1305TIP3   OH2 3878   3.277   4.271   3.720  0.0310 -0.6260 -0.4066
 1305TIP3    H1 3879   3.294   4.362   3.697  0.7802 -0.8441 -0.7522
 1305TIP3    H2 3880   3.222   4.239   3.649 -0.5421 -0.3510 -0.0964
 1306TIP3   OH2 3881   6.381   3.575   3.759 -0.3060 -0.3638  0.4013
 1306TIP3    H1 3882   6.438   3.555   3.684 -0.5583  0.2124  0.0397
 1306TIP3    H2 3883   6.429   3.642   3.807 -1.0467  0.7864 -0.3985
 1307TIP3   OH2 3884   1.951   6.478   0.309 -0.5517 -0.0939 -0.3304
 1307TIP3    H1 3885   1.981   6.534   0.237 -2.7229  0.0468 -1.1824
 1307TIP3    H2 3886   1.963   6.531   0.387  3.2030 -0.7440 -0.2511
 1308TIP3   OH2 3887   4.817   3.176   0.292 -0.0659 -0.1880  0.0194
 1308TIP3    H1 3888   4.740   3.144   0.244  0.3480 -1.2512  0.0307
 1308TIP3    H2 3889   4.785   3.250   0.343 -1.3410 -1.2563  0.8395
 1309TIP3   OH2 3890   6.520   5.522   4.461 -0.5894 -0.1019  0.3007
 1309TIP3    H1 3891   6.574   5.576   4.403  0.7764 -0.0138  1.5946
 1309TIP3    H2 3892   6.566   5.439   4.467 -1.8257 -0.8663 -0.3647
 1310TIP3   OH2 3893   4.397   3.395   2.788 -0.1792  0.2670  0.1104
 1310TIP3    H1 3894   4.472   3.386   2.846 -0.4390 -0.2417  0.3707
 1310TIP3    H2 3895   4.435   3.397   2.700  0.1609  0.2869  0.2568
 1311TIP3   OH2 3896   3.117   6.202   1.993  0.4561  0.3534 -0.4918
 1311TIP3    H1 3897   3.112   6.135   1.924  2.6535  0.5393 -0.9124
 1311TIP3    H2 3898   3.162   6.159   2.065  0.5914  0.9453 -0.2191
 1312TIP3   OH2 3899   2.987   5.144   5.695 -0.3659 -0.0655 -0.4186
 1312TIP3    H1 3900   3.000   5.222   5.748  2.2835 -1.0417  0.5528
 1312TIP3    H2 3901   2.942   5.083   5.753 -1.8082  0.4401 -0.9526
 1313TIP3   OH2 3902   4.550   3.030   2.074  0.0893  0.1537 -0.5688
 1313TIP3    H1 3903   4.628   2.987   2.038  0.5250  0.0024  0.5139
 1313TIP3    H2 3904   4.480   2.967   2.061  0.6684 -0.8236  0.7468
 1314TIP3   OH2 3905   0.277   4.157   2.034 -0.1414  0.3673 -0.1254
 1314TIP3    H1 3906   0.197   4.209   2.024  0.4008  1.7373  2.0144
 1314TIP3    H2 3907   0.347   4.222   2.043  0.8829 -0.7686  0.4197
 1315TIP3   OH2 3908   1.004   0.317   2.106  0.0706  0.3294  0.1128
 1315TIP3    H1 3909   1.069   0.249   2.123 -0.3690 -0.3114 -0.7336
 1315TIP3    H2 3910   0.923   0.269   2.086 -0.4064  1.1057  0.1299
 1316TIP3   OH2 3911   4.612   5.965   4.584 -0.1957  0.1093 -0.1713
 1316TIP3    H1 3912   4.517   5.978   4.585 -0.3933 -1.2436  0.0659
 1316TIP3    H2 3913   4.623   5.872   4.568  1.1002  0.2198  0.0069
 1317TIP3   OH2 3914   1.298   3.026   2.839 -0.4212  0.2081 -0.4770
 1317TIP3    H1 3915   1.308   2.942   2.794  1.0791  0.8400 -1.4041
 1317TIP3    H2 3916   1.313   3.005   2.931 -0.1614 -0.5584 -0.6864
 1318TIP3   OH2 3917   0.697   6.756   2.246 -0.1025  0.2340 -0.3811
 1318TIP3    H1 3918   0.695   6.824   2.179  1.3310  0.8274  0.1413
 1318TIP3    H2 3919   0.630   6.783   2.309  1.2543  1.8713  0.4478
 1319TIP3   OH2 3920   5.975   1.822   3.635  0.0410  0.6775  0.0534
 1319TIP3    H1 3921   5.996   1.792   3.724 -1.0338 -1.3235 -0.3095
 1319TIP3    H2 3922   5.901   1.882   3.646 -1.6168 -1.3313  0.3866
 1320TIP3   OH2 3923   2.426   3.133   2.904  0.3689  0.3459 -0.1452
 1320TIP3    H1 3924   2.405   3.051   2.949  2.5265 -0.3301 -0.2340
 1320TIP3    H2 3925   2.417   3.201   2.970 -0.7728 -0.0407  0.1116
 1321TIP3   OH2 3926   7.185   1.135   0.626 -0.4170 -0.1510 -0.9086
 1321TIP3    H1 3927   7.198   1.218   0.580  0.3251 -0.8113 -1.9311
 1321TIP3    H2 3928   7.270   1.091   0.622 -0.4577 -0.4380  0.7157
 1322TIP3   OH2 3929   4.982   2.944   3.067 -0.4217 -0.4698  0.0057
 1322TIP3    H1 3930   5.018   2.986   3.145 -0.5264  1.9171 -1.1268
 1322TIP3    H2 3931   4.887   2.955   3.076 -0.3807  3.1217 -1.9724
 1323TIP3   OH2 3932   4.666   4.989   1.469  0.2016  0.4061  0.4833
 1323TIP3    H1 3933   4.671   5.039   1.551 -0.3862  0.7770  0.2977
 1323TIP3    H2 3934   4.576   4.960   1.464 -0.1895  1.6990 -0.7926
 1324TIP3   OH2 3935   4.564   0.692   2.835  0.2468 -0.4325  0.3351
 1324TIP3    H1 3936   4.566   0.597   2.838 -1.0727 -0.5495 -1.0054
 1324TIP3    H2 3937   4.477   0.716   2.869  1.2853  0.4572  2.5681
 1325TIP3   OH2 3938   1.239   1.223   3.247 -0.1446  0.3409 -0.2826
 1325TIP3    H1 3939   1.317   1.240   3.301 -0.6777  0.4768  0.4627
 1325TIP3    H2 3940   1.226   1.304   3.198  0.1720  0.3278 -0.3887
 1326TIP3   OH2 3941   3.810   0.118   1.702  0.3116  0.6673 -0.3275
 1326TIP3    H1 3942   3.862   0.047   1.664 -1.4530 -0.2996 -1.0569
 1326TIP3    H2 3943   3.803   0.182   1.631 -1.1758 -0.1604 -0.9830
 1327TIP3   OH2 3944   0.616   2.234   4.455 -0.4995  0.4950 -0.3142
 1327TIP3    H1 3945   0.554   2.214   4.524 -0.0417  0.5900  0.1264
 1327TIP3    H2 3946   0.576   2.198   4.375  0.5268 -2.6906  0.4779
 1328TIP3   OH2 3947   2.737   6.078   5.786 -0.6141 -0.5802  0.5695
 1328TIP3    H1 3948   2.655   6.129   5.782  0.5928  1.4198 -1.5840
 1328TIP3    H2 3949   2.775   6.099   5.871 -0.5114  1.6475  0.0283
 1329TIP3   OH2 3950   6.845   3.711   2.624 -0.1080  0.0068 -0.5974
 1329TIP3    H1 3951   6.769   3.723   2.567  0.3496  1.2380 -0.9913
 1329TIP3    H2 3952   6.847   3.790   2.678 -1.1759 -1.6002  1.9593
 1330TIP3   OH2 3953   3.138   1.468   0.934 -0.4287  0.0706  0.0623
 1330TIP3    H1 3954   3.216   1.426   0.897 -1.4999 -0.2891 -1.9610
 1330TIP3    H2 3955   3.128   1.430   1.021  0.7478 -1.0559 -0.2742
 1331TIP3   OH2 3956   2.545   5.105   0.292 -0.2350 -0.2743  0.4808
 1331TIP3    H1 3957   2.575   5.076   0.206 -0.6716 -0.2803  0.3269
 1331TIP3    H2 3958   2.572   5.036   0.352 -0.4661 -0.5656  0.2528
 1332TIP3   OH2 3959   0.733   0.848   4.830 -0.2862 -0.2179  0.1473
 1332TIP3    H1 3960   0.760   0.930   4.788  0.5467 -0.1094  0.8517
 1332TIP3    H2 3961   0.815   0.800   4.842 -0.6887 -0.8543  0.3633
 1333TIP3   OH2 3962   0.585   6.306   0.773 -0.3512 -0.3782 -0.0281
 1333TIP3    H1 3963   0.545   6.316   0.859 -2.0650  1.8150 -0.9742
 1333TIP3    H2 3964   0.511   6.297   0.713  0.7519 -0.3345 -1.4456
 1334TIP3   OH2 3965   6.277   4.455   3.951  0.1298 -0.9788  0.3224
 1334TIP3    H1 3966   6.368   4.450   3.979  0.2242 -1.6124 -0.0833
 1334TIP3    H2 3967   6.261   4.373   3.905  0.1346  0.1589 -1.8986
 1335TIP3   OH2 3968   5.843   6.751   4.103  0.2052 -0.1629  0.5698
 1335TIP3    H1 3969   5.911   6.697   4.062  0.1252 -0.5077  0.8851
 1335TIP3    H2 3970   5.768   6.692   4.111 -0.9197  0.8017 -1.8391
 1336TIP3   OH2 3971   6.275   4.398   4.259  0.4582  0.2605  0.7341
 1336TIP3    H1 3972   6.371   4.396   4.262  0.4555 -1.7049  0.8153
 1336TIP3    H2 3973   6.254   4.409   4.166  0.7474  1.2956  0.7822
 1337TIP3   OH2 3974   3.072   4.297   1.130  0.0515  0.1042  0.0679
 1337TIP3    H1 3975   3.107   4.257   1.209 -1.0745  0.0999  0.5860
 1337TIP3    H2 3976   3.111   4.385   1.128  0.3439 -0.0173  0.4474
 1338TIP3   OH2 3977   3.287   2.565   2.570 -0.0097 -0.1440 -0.4274
 1338TIP3    H1 3978   3.204   2.603   2.600 -0.1577 -0.3373 -0.5894
 1338TIP3    H2 3979   3.332   2.541   2.651  0.5500  1.3138 -0.2710
 1339TIP3   OH2 3980   3.938   3.043   1.214 -0.6659 -0.1017 -0.1230
 1339TIP3    H1 3981   3.916   2.972   1.275 -1.2480  0.5635  0.4603
 1339TIP3    H2 3982   4.009   3.090   1.258  0.4073 -0.8831 -0.9591
 1340TIP3   OH2 3983   4.959   6.275   0.638  0.5177 -0.4279 -0.1568
 1340TIP3    H1 3984   4.870   6.274   0.603  0.1063 -1.0388  0.8479
 1340TIP3    H2 3985   4.947   6.277   0.733  1.5851 -0.1731 -0.0124
 1341TIP3   OH2 3986   2.054   4.680   4.095  0.4154 -0.5431 -0.2650
 1341TIP3    H1 3987   2.114   4.612   4.125  0.3095 -0.2239  0.7083
 1341TIP3    H2 3988   2.106   4.760   4.099 -0.2071 -0.1809  1.1040
 1342TIP3   OH2 3989   3.622   4.181   2.569  0.5140 -0.4477 -0.0372
 1342TIP3    H1 3990   3.637   4.256   2.626  0.9048 -0.4423 -0.1389
 1342TIP3    H2 3991   3.705   4.170   2.523  0.9754 -1.8853  1.0713
 1343TIP3   OH2 3992   1.036   1.537   4.288 -0.3896 -0.2719 -0.0613
 1343TIP3    H1 3993   0.960   1.540   4.347 -0.2208 -0.9396  0.2061
 1343TIP3    H2 3994   1.108   1.510   4.345 -0.0560 -0.1236 -0.4149
 1344TIP3   OH2 3995   2.928   3.729   1.134  0.3104  0.2927 -0.1147
 1344TIP3    H1 3996   2.904   3.815   1.099  1.2463  0.9806  0.8689
 1344TIP3    H2 3997   2.954   3.746   1.224  1.1833 -0.9199 -0.1114
 1345TIP3   OH2 3998   1.001   1.549   5.615 -0.1605  0.3890  0.1338
 1345TIP3    H1 3999   1.045   1.504   5.543  1.1215 -0.0326  1.1382
 1345TIP3    H2 4000   0.911   1.519   5.611  0.1653 -0.5453 -0.5704
 1346TIP3   OH2 4001   1.370   1.437   0.663 -0.5427 -0.3644 -0.5261
 1346TIP3    H1 4002   1.317   1.507   0.624  1.1337  1.4637  0.3206
 1346TIP3    H2 4003   1.427   1.482   0.725  0.4127 -2.5507  0.2613
 1347TIP3   OH2 4004   3.337   6.413   5.201  0.0805 -0.1720 -0.3370
 1347TIP3    H1 4005   3.304   6.385   5.115  0.9253 -1.9696 -0.1060
 1347TIP3    H2 4006   3.432   6.420   5.190  0.6769 -3.6750  1.1921
 1348TIP3   OH2 4007   3.815   6.753   5.615 -0.3778 -0.0149  0.1518
 1348TIP3    H1 4008   3.909   6.742   5.603 -0.7439 -1.2593 -2.2320
 1348TIP3    H2 4009   3.798   6.720   5.704  1.0928 -2.4273 -0.3621
 1349TIP3   OH2 4010   6.021   4.067   4.080  0.1813 -0.1631  0.2516
 1349TIP3    H1 4011   6.086   4.035   4.143  0.7656 -0.8821 -0.6817
 1349TIP3    H2 4012   5.961   3.993   4.069 -0.0920  0.0692  0.1841
 1350TIP3   OH2 4013   5.588   1.864   4.122  0.0584 -0.7753  0.1725
 1350TIP3    H1 4014   5.626   1.809   4.053 -1.6831 -0.1993 -1.3029
 1350TIP3    H2 4015   5.625   1.828   4.204  0.2908 -3.0399 -0.8436
 1351TIP3   OH2 4016   2.952   0.698   1.178  0.1049  0.1970 -0.2856
 1351TIP3    H1 4017   2.981   0.789   1.176 -1.7340  0.9088  1.6850
 1351TIP3    H2 4018   2.939   0.679   1.271 -5.4495  0.0297 -0.7580
 1352TIP3   OH2 4019   2.980   0.979   4.917  0.0796 -0.3939  0.0402
 1352TIP3    H1 4020   3.050   1.012   4.973 -0.0097 -0.4322  0.1751
 1352TIP3    H2 4021   2.926   0.926   4.975 -1.5958  1.7858  0.6304
 1353TIP3   OH2 4022   1.834   6.203   5.485 -0.0957  0.0424 -0.0824
 1353TIP3    H1 4023   1.784   6.193   5.404  0.7090  3.1387 -1.1232
 1353TIP3    H2 4024   1.908   6.259   5.460  1.5490 -0.8964  2.3085
 1354TIP3   OH2 4025   6.510   5.363   0.750  0.3837 -0.3827  0.1524
 1354TIP3    H1 4026   6.423   5.347   0.715 -1.1169  2.7747  1.9900
 1354TIP3    H2 4027   6.496   5.377   0.844  2.9681 -0.3174  0.6082
 1355TIP3   OH2 4028   0.956   3.970   5.103 -0.2288  0.3989  0.1472
 1355TIP3    H1 4029   0.912   3.989   5.186 -0.2329  0.1139  0.2139
 1355TIP3    H2 4030   1.038   4.020   5.107 -0.2859  0.4836  0.2695
 1356TIP3   OH2 4031   2.920   4.099   1.591  0.2179  0.1116  0.4484
 1356TIP3    H1 4032   2.936   4.192   1.608  0.2396  0.2352 -0.2280
 1356TIP3    H2 4033   2.973   4.079   1.514 -0.2531 -0.3164  0.2279
 1357TIP3   OH2 4034   3.836   5.096   5.553 -0.0502 -0.3214  0.3479
 1357TIP3    H1 4035   3.791   5.072   5.472  0.8369 -1.2629  0.1086
 1357TIP3    H2 4036   3.809   5.186   5.570  0.0139  0.0176 -1.1892
 1358TIP3   OH2 4037   1.661   6.035   0.603 -0.5699  0.1602 -0.3702
 1358TIP3    H1 4038   1.756   6.027   0.601 -0.4388  1.5506 -1.9472
 1358TIP3    H2 4039   1.642   6.070   0.690  0.4650  0.7487 -0.3658
 1359TIP3   OH2 4040   6.085   0.801   3.270  0.5558 -0.4582 -0.2146
 1359TIP3    H1 4041   6.039   0.855   3.335 -0.1571  0.6943 -1.6224
 1359TIP3    H2 4042   6.135   0.739   3.322 -1.8094 -1.1089  1.4223
 1360TIP3   OH2 4043   4.990   2.514   5.130  0.1965  0.5391 -0.4062
 1360TIP3    H1 4044   5.025   2.440   5.178  2.0980  1.1290 -0.8186
 1360TIP3    H2 4045   4.920   2.548   5.186 -0.1261 -1.0122  0.1743
 1361TIP3   OH2 4046   2.964   6.421   2.037 -0.2802 -0.1061 -0.1099
 1361TIP3    H1 4047   3.011   6.342   2.014  1.4832 -0.3800  3.6134
 1361TIP3    H2 4048   3.017   6.492   2.002 -0.4499 -0.5120 -1.2050
 1362TIP3   OH2 4049   1.236   3.802   1.913 -0.4999 -0.6381 -0.0624
 1362TIP3    H1 4050   1.268   3.873   1.857  2.3073 -1.0630  0.8520
 1362TIP3    H2 4051   1.218   3.845   1.997  0.6245 -0.8732  0.3123
 1363TIP3   OH2 4052   1.797   4.791   1.583  0.1448  0.2400  0.2171
 1363TIP3    H1 4053   1.874   4.748   1.546 -0.7294 -0.2553 -1.0775
 1363TIP3    H2 4054   1.764   4.728   1.648 -0.6363 -0.7133 -1.0642
 1364TIP3   OH2 4055   3.362   1.394   1.114 -0.0504  0.3104  0.1376
 1364TIP3    H1 4056   3.362   1.368   1.022  0.1027 -0.6341  0.3978
 1364TIP3    H2 4057   3.454   1.410   1.135  0.1764 -1.5527  0.6853
 1365TIP3   OH2 4058   2.519   6.029   0.232  0.3760 -0.0665 -0.4217
 1365TIP3    H1 4059   2.452   6.009   0.298  1.5019 -0.4121  0.6611
 1365TIP3    H2 4060   2.483   5.998   0.150 -1.5514  1.3758 -0.1852
 1366TIP3   OH2 4061   4.696   0.334   4.622 -0.0131  0.2518 -0.3139
 1366TIP3    H1 4062   4.680   0.292   4.706  0.8587  0.9290  0.2016
 1366TIP3    H2 4063   4.769   0.284   4.584  0.5894  0.8531  0.0125
 1367TIP3   OH2 4064   4.575   0.557   1.321 -0.0558 -0.4379  0.7833
 1367TIP3    H1 4065   4.599   0.500   1.248 -2.3404  1.3099 -1.5037
 1367TIP3    H2 4066   4.552   0.497   1.392  0.7719 -2.2528 -0.4059
 1368TIP3   OH2 4067   6.163   2.678   5.137 -0.4217  0.3493 -0.0824
 1368TIP3    H1 4068   6.174   2.588   5.109  0.9847  0.4507  0.0579
 1368TIP3    H2 4069   6.104   2.673   5.212  0.2964 -0.5758  0.4518
 1369TIP3   OH2 4070   0.575   6.586   5.788 -0.2061  0.0412  0.0299
 1369TIP3    H1 4071   0.487   6.623   5.780  0.2875  1.0608 -0.9205
 1369TIP3    H2 4072   0.631   6.661   5.807  0.4717 -0.6021  0.6025
 1370TIP3   OH2 4073   5.784   0.822   5.898 -0.5159  0.0511 -0.5954
 1370TIP3    H1 4074   5.817   0.733   5.894 -0.6500 -0.0092 -0.3667
 1370TIP3    H2 4075   5.696   0.817   5.859 -0.0287  0.3264 -1.7755
 1371TIP3   OH2 4076   4.905   4.429   5.007 -0.0682 -0.1546  0.1248
 1371TIP3    H1 4077   4.950   4.344   5.013 -0.4394 -0.2909  1.3504
 1371TIP3    H2 4078   4.875   4.446   5.097 -0.1255  1.2088 -0.1310
 1372TIP3   OH2 4079   3.216   1.141   3.142  0.0482  0.5049 -0.2129
 1372TIP3    H1 4080   3.161   1.146   3.064 -0.3375  1.0228  0.0871
 1372TIP3    H2 4081   3.166   1.185   3.210 -0.1764 -1.0433  0.6578
 1373TIP3   OH2 4082   2.209   5.046   0.040  0.0283 -0.1272 -0.4405
 1373TIP3    H1 4083   2.204   4.970   0.099  0.4274 -1.0297 -1.5372
 1373TIP3    H2 4084   2.166   5.017  -0.040 -0.7041  1.1650 -0.5345
 1374TIP3   OH2 4085   2.516   5.863   4.681  0.2439 -0.2380  0.1459
 1374TIP3    H1 4086   2.440   5.908   4.719  1.1244  0.5953  0.9876
 1374TIP3    H2 4087   2.495   5.770   4.688 -1.4504 -0.0101 -1.2543
 1375TIP3   OH2 4088   1.705   0.391   2.928  0.0837  0.2449 -0.0709
 1375TIP3    H1 4089   1.636   0.451   2.897 -0.5681  0.0672  0.9808
 1375TIP3    H2 4090   1.661   0.307   2.937  0.3739  0.1773  0.8128
 1376TIP3   OH2 4091   5.337   0.261   2.476 -0.6471  0.4833  0.2944
 1376TIP3    H1 4092   5.252   0.254   2.520  0.1924  0.8607  2.0753
 1376TIP3    H2 4093   5.389   0.190   2.512 -0.2453  0.1410 -0.9227
 1377TIP3   OH2 4094   4.092   6.370   5.075 -0.7459 -0.0084  0.0204
 1377TIP3    H1 4095   4.135   6.437   5.021  1.3960 -1.9095 -0.7784
 1377TIP3    H2 4096   4.016   6.415   5.112  0.6467  2.8879 -0.3486
 1378TIP3   OH2 4097   4.186   5.279   0.296 -0.1716  0.2743 -0.0427
 1378TIP3    H1 4098   4.106   5.316   0.259 -1.4831  0.5096  2.7744
 1378TIP3    H2 4099   4.201   5.199   0.246 -1.4956  0.7894 -1.3553
 1379TIP3   OH2 4100   0.467   0.085   5.660 -0.2159  0.1655  0.0865
 1379TIP3    H1 4101   0.391   0.064   5.716  0.7710 -0.4266  1.2587
 1379TIP3    H2 4102   0.484   0.178   5.679  1.2417 -0.4676  2.2826
 1380TIP3   OH2 4103   5.656   3.887   4.699  0.7180  0.6570 -0.2342
 1380TIP3    H1 4104   5.741   3.908   4.738 -0.7441 -0.1010  3.8017
 1380TIP3    H2 4105   5.600   3.961   4.722  0.3229  1.5298 -3.5169
 1381TIP3   OH2 4106   5.334   5.940   1.155  0.6278 -0.1191 -0.5745
 1381TIP3    H1 4107   5.364   5.961   1.243 -0.6038  0.4899 -0.2784
 1381TIP3    H2 4108   5.402   5.976   1.097  1.4158 -0.4843  0.1099
 1382TIP3   OH2 4109   3.391   5.859   4.066 -0.1602  0.2094  0.8538
 1382TIP3    H1 4110   3.458   5.898   4.121  1.2564  1.0017 -1.2931
 1382TIP3    H2 4111   3.308   5.885   4.107  0.7437 -1.3506  3.9439
 1383TIP3   OH2 4112   2.105   4.592   2.805  0.4531  0.2928 -0.1261
 1383TIP3    H1 4113   2.097   4.687   2.810 -0.0018  0.2007  1.6946
 1383TIP3    H2 4114   2.195   4.576   2.777  1.2882  1.2761  1.7782
 1384TIP3   OH2 4115   0.105   2.556   5.447  0.1480 -0.6700  0.5958
 1384TIP3    H1 4116   0.042   2.627   5.448 -0.4031 -1.0745 -1.0460
 1384TIP3    H2 4117   0.115   2.531   5.538 -1.2007  0.1637  1.0043
 1385TIP3   OH2 4118   6.156   1.719   5.048 -0.5923  0.4135  0.7473
 1385TIP3    H1 4119   6.135   1.701   5.140 -1.4662  1.6489  0.8164
 1385TIP3    H2 4120   6.169   1.814   5.045  1.6221  0.1320  0.0034
 1386TIP3   OH2 4121   5.364   1.329   3.628 -0.1388  0.4132  0.3581
 1386TIP3    H1 4122   5.450   1.322   3.588  1.5566  1.1543  3.4807
 1386TIP3    H2 4123   5.354   1.423   3.646 -0.5425  0.0982  1.9829
 1387TIP3   OH2 4124   1.666   3.817   4.604  0.3732 -0.5618  0.0317
 1387TIP3    H1 4125   1.700   3.791   4.690  1.0738 -0.3505 -0.1688
 1387TIP3    H2 4126   1.713   3.898   4.584 -3.0612  1.9973  1.4554
 1388TIP3   OH2 4127   7.038   1.917   4.080 -0.3586 -0.1565 -0.3037
 1388TIP3    H1 4128   7.067   1.847   4.020  0.5057 -2.2286  2.3132
 1388TIP3    H2 4129   6.946   1.897   4.097  0.2358 -1.7170  1.5630
 1389TIP3   OH2 4130   3.217   2.193   4.205 -0.5059  0.4198  0.2330
 1389TIP3    H1 4131   3.159   2.167   4.133 -2.8329  0.9789  1.7882
 1389TIP3    H2 4132   3.158   2.232   4.270  1.7412  1.7154  1.6263
 1390TIP3   OH2 4133   0.103   3.247   0.041 -0.6751 -0.3104 -0.0469
 1390TIP3    H1 4134   0.116   3.169  -0.012  0.6400  1.1952 -2.0866
 1390TIP3    H2 4135   0.165   3.238   0.113  1.1755 -0.1310 -1.5440
 1391TIP3   OH2 4136   7.199   3.734   0.600 -0.1828 -0.5204  0.4780
 1391TIP3    H1 4137   7.131   3.757   0.537  0.6066 -0.9937 -0.5681
 1391TIP3    H2 4138   7.186   3.641   0.618 -1.5434 -0.0104  2.4599
 1392TIP3   OH2 4139   6.112   2.314   0.087 -0.1790  0.2533  0.0539
 1392TIP3    H1 4140   6.113   2.262   0.006 -0.1285 -0.7388  0.6782
 1392TIP3    H2 4141   6.081   2.254   0.154 -0.8517  1.2478  0.6727
 1393TIP3   OH2 4142   3.694   3.608   1.993  0.0636 -0.0584 -0.4376
 1393TIP3    H1 4143   3.619   3.663   2.013 -0.5388 -1.1548  0.4081
 1393TIP3    H2 4144   3.738   3.596   2.077  0.9353  0.1968 -0.8451
 1394TIP3   OH2 4145   6.220   2.223   4.466  0.0609  0.1889 -0.3073
 1394TIP3    H1 4146   6.267   2.253   4.543 -0.5251 -0.9565  0.5358
 1394TIP3    H2 4147   6.211   2.128   4.479 -0.7808  0.0980 -1.3694
 1395TIP3   OH2 4148   5.651   0.498   5.793  0.1298  0.1249 -0.2145
 1395TIP3    H1 4149   5.571   0.543   5.767  0.1986 -0.0795 -0.8027
 1395TIP3    H2 4150   5.623   0.412   5.821  0.2128 -0.2343 -1.1901
 1396TIP3   OH2 4151   4.063   0.674   4.197 -0.1814  0.0174 -0.3206
 1396TIP3    H1 4152   4.084   0.669   4.291  0.5953  0.4881 -0.4621
 1396TIP3    H2 4153   3.981   0.723   4.194 -1.0122 -1.2958  0.2055
 1397TIP3   OH2 4154   4.551   1.637   0.084 -0.7305  0.1612 -0.0360
 1397TIP3    H1 4155   4.578   1.703   0.147 -0.5669 -0.3247  0.4077
 1397TIP3    H2 4156   4.479   1.678   0.036  0.2558  1.1800 -0.7040
 1398TIP3   OH2 4157   1.783   2.686   0.454 -0.4514 -0.7270  0.1256
 1398TIP3    H1 4158   1.732   2.618   0.410 -0.2496 -0.5702 -0.3687
 1398TIP3    H2 4159   1.816   2.645   0.533 -0.1611 -1.2688 -0.2712
 1399TIP3   OH2 4160   0.186   1.739   1.514 -0.3634  0.0081  0.4087
 1399TIP3    H1 4161   0.234   1.818   1.487  0.2241 -0.8582 -1.2202
 1399TIP3    H2 4162   0.103   1.772   1.548 -0.1233  1.3493 -0.2334
 1400TIP3   OH2 4163   2.530   5.326   3.532 -0.0966  0.0464 -0.0259
 1400TIP3    H1 4164   2.531   5.248   3.586  0.1057  0.6139  0.8084
 1400TIP3    H2 4165   2.509   5.397   3.593 -0.8134  0.5781 -0.8554
 1401TIP3   OH2 4166   5.623   4.081   4.214  0.7658  0.3617 -0.8512
 1401TIP3    H1 4167   5.709   4.119   4.233  1.4563 -0.6098 -1.8732
 1401TIP3    H2 4168   5.635   4.035   4.131 -0.5079 -0.5513 -0.5631
 1402TIP3   OH2 4169   6.740   6.786   1.110 -0.3878  0.2630 -0.4409
 1402TIP3    H1 4170   6.826   6.757   1.140 -0.4441  1.1713  0.6579
 1402TIP3    H2 4171   6.747   6.881   1.104 -1.8728  0.5887  1.7067
 1403TIP3   OH2 4172   3.978   6.118   5.427 -0.5668  0.5627 -0.0255
 1403TIP3    H1 4173   3.998   6.050   5.491 -1.3795  0.9445  0.6445
 1403TIP3    H2 4174   4.018   6.197   5.462  1.5720  0.2089 -1.4730
 1404TIP3   OH2 4175   6.634   1.585   4.180  0.0392 -0.1771  0.1170
 1404TIP3    H1 4176   6.725   1.597   4.154  0.0468 -3.0223 -1.6525
 1404TIP3    H2 4177   6.584   1.642   4.121  0.6389  1.8108  1.4649
 1405TIP3   OH2 4178   4.634   3.839   1.210  0.2521 -0.2807 -0.2721
 1405TIP3    H1 4179   4.544   3.846   1.240 -0.3524 -1.4413 -1.6760
 1405TIP3    H2 4180   4.667   3.929   1.211 -0.1619 -0.0928  2.3447
 1406TIP3   OH2 4181   2.634   1.950   3.196  0.0019  0.1369 -0.7926
 1406TIP3    H1 4182   2.699   1.996   3.143  0.4920 -0.2446 -0.5385
 1406TIP3    H2 4183   2.672   1.863   3.209 -0.3860  0.0375 -0.3137
 1407TIP3   OH2 4184   3.101   3.381   1.199 -0.5848  0.1537 -0.2206
 1407TIP3    H1 4185   3.082   3.391   1.292  0.1526  2.4481 -0.2507
 1407TIP3    H2 4186   3.178   3.323   1.196 -0.6381  0.0295  0.5869
 1408TIP3   OH2 4187   1.633   2.655   5.658  0.0932 -0.5116  0.1047
 1408TIP3    H1 4188   1.721   2.677   5.628  0.2921 -0.8822  0.4184
 1408TIP3    H2 4189   1.579   2.662   5.579  0.1897  0.8117  0.1283
 1409TIP3   OH2 4190   5.487   4.533   5.141 -0.1719 -0.0646  0.2157
 1409TIP3    H1 4191   5.464   4.620   5.111  0.7393  0.6608  1.5013
 1409TIP3    H2 4192   5.531   4.492   5.067 -0.5124  0.6025 -0.3575
 1410TIP3   OH2 4193   4.885   2.268   2.924 -0.3356  0.2946 -0.3406
 1410TIP3    H1 4194   4.904   2.179   2.892 -2.3744 -0.5198  0.5211
 1410TIP3    H2 4195   4.902   2.263   3.018  1.7198  1.5276 -0.5833
 1411TIP3   OH2 4196   3.501   3.838   4.539 -0.5315  0.2642 -0.3209
 1411TIP3    H1 4197   3.454   3.918   4.515 -1.9507 -0.2720  0.4822
 1411TIP3    H2 4198   3.468   3.772   4.477 -1.2346 -0.2269  0.5502
 1412TIP3   OH2 4199   4.979   1.824   0.390  0.1345  0.3980 -0.3260
 1412TIP3    H1 4200   5.012   1.846   0.303 -0.5345  0.7490 -0.4986
 1412TIP3    H2 4201   5.017   1.890   0.447  0.8248 -0.0177 -0.2943
 1413TIP3   OH2 4202   1.135   4.979   2.603  0.1249 -0.3110 -0.8254
 1413TIP3    H1 4203   1.169   5.037   2.535  0.6884  0.6420  0.2498
 1413TIP3    H2 4204   1.211   4.928   2.631  0.4617  0.9926  0.7520
 1414TIP3   OH2 4205   1.961   1.626   3.810 -0.2675  0.3632 -0.4454
 1414TIP3    H1 4206   1.907   1.671   3.875 -0.9478 -0.9467 -0.0643
 1414TIP3    H2 4207   1.950   1.677   3.729 -0.6083  1.1395  0.0793
 1415TIP3   OH2 4208   3.222   4.751   3.899 -0.1861  0.1987 -0.2084
 1415TIP3    H1 4209   3.307   4.724   3.864 -0.6419 -0.9178 -0.5056
 1415TIP3    H2 4210   3.244   4.809   3.973  0.9062 -1.6591  1.0217
 1416TIP3   OH2 4211   6.963   5.213   0.901  0.2620 -0.2574 -0.0054
 1416TIP3    H1 4212   6.976   5.119   0.897  0.7124 -0.1710 -2.5197
 1416TIP3    H2 4213   7.040   5.246   0.948 -0.2837 -1.1640  1.5669
 1417TIP3   OH2 4214   2.893   2.901   2.480  0.0656 -0.0658  0.3383
 1417TIP3    H1 4215   2.921   2.838   2.546  0.5521  0.1752  0.3617
 1417TIP3    H2 4216   2.809   2.934   2.512  0.0979 -0.2559  0.6218
 1418TIP3   OH2 4217   4.098   1.453   3.465  0.5723 -0.3286 -0.5190
 1418TIP3    H1 4218   4.111   1.358   3.471 -0.8955 -0.5024  4.4285
 1418TIP3    H2 4219   4.003   1.463   3.453  0.3886  0.3788  1.2085
 1419TIP3   OH2 4220   0.564   3.443   5.419  0.7077 -0.1436  0.4268
 1419TIP3    H1 4221   0.535   3.353   5.435  1.1991 -0.5082 -0.6745
 1419TIP3    H2 4222   0.490   3.497   5.446  0.6286 -0.8357  1.6566
 1420TIP3   OH2 4223   3.232   3.670   4.636 -0.1676 -0.3186  0.1404
 1420TIP3    H1 4224   3.311   3.620   4.656 -0.8698 -1.7125 -0.4365
 1420TIP3    H2 4225   3.235   3.682   4.541 -0.4768 -0.0851  0.1602
 1421TIP3   OH2 4226   3.415   0.708   2.077  0.2323 -0.3312 -0.1264
 1421TIP3    H1 4227   3.507   0.684   2.070  0.3177  0.2190 -1.2761
 1421TIP3    H2 4228   3.405   0.741   2.166  1.2845  0.0936 -0.1477
 1422TIP3   OH2 4229   7.117   1.165   2.760 -0.2520  0.0501 -0.1099
 1422TIP3    H1 4230   7.114   1.237   2.823  1.3214 -0.4754  0.6069
 1422TIP3    H2 4231   7.104   1.206   2.675 -2.1571  0.8057  0.4919
 1423TIP3   OH2 4232   6.791   5.936   0.954 -0.2854 -0.9234  0.5739
 1423TIP3    H1 4233   6.850   5.999   0.995  0.5232 -0.6872 -0.8844
 1423TIP3    H2 4234   6.705   5.956   0.992 -0.1071  1.2639 -0.0318
 1424TIP3   OH2 4235   0.782   3.879   4.040 -0.2159 -0.0679 -0.1872
 1424TIP3    H1 4236   0.805   3.827   3.963  0.1599 -0.1604 -0.0130
 1424TIP3    H2 4237   0.809   3.825   4.114 -0.4252  0.0934  0.0072
 1425TIP3   OH2 4238   7.077   5.632   3.837 -0.0529  0.3673  0.5681
 1425TIP3    H1 4239   7.150   5.588   3.794  0.5158  0.7072  1.1713
 1425TIP3    H2 4240   7.117   5.702   3.888 -0.9035  1.2454  0.0671
 1426TIP3   OH2 4241   0.738   3.144   3.718 -0.0920  0.0206 -0.0964
 1426TIP3    H1 4242   0.761   3.082   3.787 -1.6758 -1.1225 -0.5375
 1426TIP3    H2 4243   0.651   3.176   3.741 -0.5425 -0.1882 -1.3791
 1427TIP3   OH2 4244   5.900   2.285   1.993  0.5010  0.3372  0.1226
 1427TIP3    H1 4245   5.913   2.234   2.073  1.3379  0.6518  0.2029
 1427TIP3    H2 4246   5.989   2.308   1.965  0.2200  0.1188 -0.9740
 1428TIP3   OH2 4247   6.633   2.573   2.025 -0.5657  0.5925  0.0687
 1428TIP3    H1 4248   6.607   2.598   2.114 -1.9992  0.3310 -0.2569
 1428TIP3    H2 4249   6.572   2.619   1.968 -1.3380 -1.2397 -0.6612
 1429TIP3   OH2 4250   3.853   5.338   4.362  0.0924 -0.2192  0.6856
 1429TIP3    H1 4251   3.821   5.248   4.358 -0.0017 -0.2444  1.8452
 1429TIP3    H2 4252   3.949   5.329   4.363  0.0743 -0.3255  1.3069
 1430TIP3   OH2 4253   6.452   4.811   1.056  0.0380  0.7609 -0.7888
 1430TIP3    H1 4254   6.440   4.895   1.012 -0.3098  0.5307 -1.1348
 1430TIP3    H2 4255   6.395   4.750   1.009  0.4311  0.2866 -0.6672
 1431TIP3   OH2 4256   4.439   0.971   3.423 -0.8773 -0.0349  0.1669
 1431TIP3    H1 4257   4.407   1.014   3.343 -1.6067  1.6958  1.3323
 1431TIP3    H2 4258   4.534   0.969   3.413 -0.9875 -0.6765 -1.1145
 1432TIP3   OH2 4259   6.175   4.452   5.144  0.8044  0.0569 -0.4168
 1432TIP3    H1 4260   6.173   4.389   5.216  1.4252 -0.0940 -0.5228
 1432TIP3    H2 4261   6.123   4.526   5.175 -1.2277 -1.1036 -0.8804
 1433TIP3   OH2 4262   3.920   4.934   0.198 -0.0571  0.5769 -0.2173
 1433TIP3    H1 4263   3.979   4.968   0.266 -0.0722  0.0849  0.0477
 1433TIP3    H2 4264   3.916   5.004   0.133  1.6534  0.2183 -0.7528
 1434TIP3   OH2 4265   5.589   6.077   1.838 -0.0223 -0.0748  0.3351
 1434TIP3    H1 4266   5.672   6.093   1.794  0.8042 -1.8405  1.1525
 1434TIP3    H2 4267   5.550   6.004   1.791 -1.3671  1.0016 -0.3088
 1435TIP3   OH2 4268   6.749   5.859   0.228  0.4463  0.8955  0.5782
 1435TIP3    H1 4269   6.705   5.908   0.297  0.3745  0.1781  1.0468
 1435TIP3    H2 4270   6.786   5.783   0.272  0.5405  0.5147 -0.1467
 1436TIP3   OH2 4271   4.384   5.322   2.166  0.0129  0.3559  0.6182
 1436TIP3    H1 4272   4.303   5.271   2.179 -0.7182  1.4859  0.6042
 1436TIP3    H2 4273   4.454   5.259   2.184 -0.6458 -1.9994 -3.6732
 1437TIP3   OH2 4274   2.293   1.432   4.654  0.4624  0.3429  0.1532
 1437TIP3    H1 4275   2.386   1.411   4.645  0.1464 -0.9767 -0.2083
 1437TIP3    H2 4276   2.265   1.383   4.731 -0.7066 -2.2342 -1.7511
 1438TIP3   OH2 4277   7.076   1.586   1.449 -0.6316 -0.2909  0.0627
 1438TIP3    H1 4278   7.026   1.550   1.376 -0.1540 -1.4810  0.3012
 1438TIP3    H2 4279   7.125   1.512   1.484 -1.1872  0.1429  1.8838
 1439TIP3   OH2 4280   0.571   3.408   4.691  0.1496  0.0321  0.3401
 1439TIP3    H1 4281   0.511   3.333   4.686  1.1528 -0.8141  0.6028
 1439TIP3    H2 4282   0.544   3.455   4.770 -0.9228  0.3566 -0.1937
 1440TIP3   OH2 4283   1.732   1.264   0.415 -0.2770 -0.1719  0.0726
 1440TIP3    H1 4284   1.637   1.262   0.421 -0.3186  0.3870 -0.3283
 1440TIP3    H2 4285   1.761   1.186   0.463 -0.9610 -0.6838 -0.3284
 1441TIP3   OH2 4286   6.261   1.997   0.259 -0.2030 -0.7072 -0.0626
 1441TIP3    H1 4287   6.174   1.963   0.238 -0.0032 -0.9577 -0.5061
 1441TIP3    H2 4288   6.322   1.929   0.229  0.1271 -0.7786  0.7460
 1442TIP3   OH2 4289   2.655   1.578   4.058 -0.1080  0.0228  0.3998
 1442TIP3    H1 4290   2.702   1.507   4.103  0.4857 -0.3842 -0.8217
 1442TIP3    H2 4291   2.579   1.535   4.019 -0.3729  0.2857  0.6247
 1443TIP3   OH2 4292   4.157   3.494   2.065 -0.0309 -0.1603  0.4135
 1443TIP3    H1 4293   4.099   3.552   2.016 -0.6304  1.4851  2.9395
 1443TIP3    H2 4294   4.105   3.414   2.077 -1.6751  1.0650  2.1203
 1444TIP3   OH2 4295   5.075   5.843   2.551 -0.2711  0.1123 -0.6480
 1444TIP3    H1 4296   5.161   5.835   2.511 -0.7488  0.3445 -1.7771
 1444TIP3    H2 4297   5.015   5.808   2.484 -1.0159 -0.4197  0.2795
 1445TIP3   OH2 4298   2.979   1.048   0.588 -0.1700  0.4140 -0.1236
 1445TIP3    H1 4299   3.028   1.085   0.662 -3.3315  0.4745  2.1442
 1445TIP3    H2 4300   2.910   1.112   0.570 -0.7051 -0.5608 -1.7740
 1446TIP3   OH2 4301   3.041   3.772   1.396 -0.4106 -0.0477 -0.0115
 1446TIP3    H1 4302   3.030   3.763   1.491 -1.0750  1.6007  0.1067
 1446TIP3    H2 4303   3.118   3.720   1.376 -0.2406 -0.4076  1.4364
 1447TIP3   OH2 4304   6.711   6.754   0.097  0.0314 -0.4938 -0.2972
 1447TIP3    H1 4305   6.723   6.661   0.118 -1.9953 -0.9634 -1.0505
 1447TIP3    H2 4306   6.636   6.756   0.039  1.1118  1.4769 -1.7463
 1448TIP3   OH2 4307   5.791   1.944   1.724 -0.2990 -0.0597 -0.2454
 1448TIP3    H1 4308   5.740   1.971   1.800 -0.0889 -1.8658  0.5838
 1448TIP3    H2 4309   5.881   1.965   1.746 -0.2166 -0.7601  0.0939
 1449TIP3   OH2 4310   6.598   5.362   4.170  0.1956 -0.0837 -0.5401
 1449TIP3    H1 4311   6.607   5.351   4.075  0.8990 -0.0222 -0.4850
 1449TIP3    H2 4312   6.655   5.436   4.191 -0.8252  0.6487 -0.2267
 1450TIP3   OH2 4313   1.480   3.486   4.064 -0.2421  0.2747 -0.2601
 1450TIP3    H1 4314   1.565   3.464   4.103  0.6698  0.4922 -2.0192
 1450TIP3    H2 4315   1.502   3.527   3.980 -2.0793  1.0768 -0.4040
 1451TIP3   OH2 4316   2.335   1.236  -0.021  0.1049  0.0293 -0.0536
 1451TIP3    H1 4317   2.380   1.153  -0.006  0.7007  0.5585  1.2377
 1451TIP3    H2 4318   2.368   1.294   0.048  0.0797  1.4933 -1.2244
 1452TIP3   OH2 4319   7.054   0.034   2.559  0.4318  0.4744  0.2944
 1452TIP3    H1 4320   7.081   0.006   2.647  2.5734 -0.6243 -0.6461
 1452TIP3    H2 4321   7.135   0.045   2.511 -0.6203 -2.7387 -2.6866
 1453TIP3   OH2 4322   0.121   5.948   5.795 -0.3001 -0.2982  0.0850
 1453TIP3    H1 4323   0.179   5.878   5.824  0.0010 -0.4149 -0.7816
 1453TIP3    H2 4324   0.171   6.029   5.810 -0.8132 -0.2118  1.4908
 1454TIP3   OH2 4325   1.092   0.621   3.898  0.0649  0.0181 -0.0430
 1454TIP3    H1 4326   1.125   0.683   3.832  0.6765 -0.3461 -0.0839
 1454TIP3    H2 4327   1.170   0.594   3.946 -0.3112 -0.1149  0.4972
 1455TIP3   OH2 4328   2.617   5.856   4.954 -0.1474 -0.2915  0.2865
 1455TIP3    H1 4329   2.666   5.834   4.875 -2.0398 -0.0025 -1.0513
 1455TIP3    H2 4330   2.543   5.794   4.953 -1.4533  1.1973  0.5274
 1456TIP3   OH2 4331   1.347   4.727   1.107  0.0681  0.4215  0.6587
 1456TIP3    H1 4332   1.367   4.661   1.041  1.3440  1.1228  0.2955
 1456TIP3    H2 4333   1.266   4.697   1.148  0.0801 -0.8269 -0.1751
 1457TIP3   OH2 4334   4.200   3.977   4.923  0.4965 -0.8784  0.2371
 1457TIP3    H1 4335   4.206   4.072   4.926  1.3937 -0.9154  0.1043
 1457TIP3    H2 4336   4.183   3.950   5.013 -1.0534 -0.5368  0.0733
 1458TIP3   OH2 4337   2.840   2.484   1.443 -0.2791  0.2059 -0.1806
 1458TIP3    H1 4338   2.782   2.453   1.513  0.5255 -1.4605 -0.2084
 1458TIP3    H2 4339   2.808   2.440   1.365 -1.3042  2.2212 -0.9557
 1459TIP3   OH2 4340   1.540   2.667   4.267  0.1151 -0.1161  0.2634
 1459TIP3    H1 4341   1.446   2.654   4.259  0.0244 -0.0659  1.1419
 1459TIP3    H2 4342   1.569   2.600   4.328  0.5642  0.1918  0.3974
 1460TIP3   OH2 4343   2.203   6.348   2.748  0.1678  0.2822 -0.1203
 1460TIP3    H1 4344   2.182   6.405   2.821  0.4087  0.9655 -0.5759
 1460TIP3    H2 4345   2.297   6.360   2.734  0.1375  0.1069 -0.4980
 1461TIP3   OH2 4346   2.361   4.210   4.905  0.2795 -0.2700 -0.1568
 1461TIP3    H1 4347   2.278   4.170   4.879 -0.8140  1.8487 -0.0792
 1461TIP3    H2 4348   2.356   4.216   5.001  1.1624 -1.3749 -0.0097
 1462TIP3   OH2 4349   4.221   2.147   0.379  0.3068  0.1663  0.4696
 1462TIP3    H1 4350   4.162   2.080   0.343 -0.7854  1.0929  0.4911
 1462TIP3    H2 4351   4.198   2.227   0.332 -0.2019  1.0975  2.2106
 1463TIP3   OH2 4352   2.287   1.848   1.705 -0.4617 -0.4378  0.5124
 1463TIP3    H1 4353   2.271   1.781   1.639 -3.2801 -0.2750  0.9210
 1463TIP3    H2 4354   2.269   1.804   1.789 -0.7248  0.3632  0.8887
 1464TIP3   OH2 4355  -0.030   6.644   4.074  0.1378  0.6337  0.1955
 1464TIP3    H1 4356   0.000   6.555   4.054  0.7424  0.7113  0.7403
 1464TIP3    H2 4357   0.050   6.693   4.093 -0.3653  0.5953  2.6730
 1465TIP3   OH2 4358   3.685   5.060   0.769  0.0324 -0.7985 -0.4264
 1465TIP3    H1 4359   3.655   5.084   0.857  1.2141  2.4188 -0.7886
 1465TIP3    H2 4360   3.640   5.121   0.711 -0.7050 -2.8445 -2.1396
 1466TIP3   OH2 4361   5.554   6.520   0.574  0.0132 -0.0469 -0.3158
 1466TIP3    H1 4362   5.635   6.559   0.608 -0.9064  0.8858  0.9058
 1466TIP3    H2 4363   5.556   6.540   0.480  0.5729  1.1583 -0.0674
 1467TIP3   OH2 4364   6.780   3.333   2.571  0.5834  0.0682  0.3616
 1467TIP3    H1 4365   6.755   3.241   2.569  0.6798 -0.0038  1.6408
 1467TIP3    H2 4366   6.741   3.371   2.493  0.7216 -1.1038 -0.2896
 1468TIP3   OH2 4367   1.931   6.637   0.525  0.1890  0.1301 -0.5205
 1468TIP3    H1 4368   1.965   6.697   0.593  2.5914 -0.1873 -1.3344
 1468TIP3    H2 4369   1.848   6.607   0.560  0.6212  1.1516  1.6013
 1469TIP3   OH2 4370   2.648   1.234   2.550  0.6780  0.6324 -0.6397
 1469TIP3    H1 4371   2.711   1.230   2.479 -0.4329  0.9599 -1.6811
 1469TIP3    H2 4372   2.627   1.143   2.569  0.9213  0.5450 -0.7823
 1470TIP3   OH2 4373   5.160   2.525   5.507 -0.1459 -0.1973 -0.0180
 1470TIP3    H1 4374   5.162   2.467   5.431 -0.1470  2.1489 -1.9059
 1470TIP3    H2 4375   5.252   2.548   5.522 -0.3087  0.9398 -0.6457
 1471TIP3   OH2 4376   6.381   5.211   1.721 -0.7516 -0.1916 -0.4256
 1471TIP3    H1 4377   6.452   5.264   1.758 -0.5609  0.1149 -1.2168
 1471TIP3    H2 4378   6.398   5.123   1.755  0.1263 -0.1659 -0.7594
 1472TIP3   OH2 4379   5.507   3.504   3.663  0.1858  0.1563  0.0844
 1472TIP3    H1 4380   5.587   3.526   3.616 -1.1869  1.5710 -1.7939
 1472TIP3    H2 4381   5.515   3.549   3.747  0.9817  1.0907 -0.4618
 1473TIP3   OH2 4382   0.076   3.818   5.042 -0.1111  0.1442 -0.1229
 1473TIP3    H1 4383  -0.017   3.826   5.064 -0.1181 -0.3651  0.0718
 1473TIP3    H2 4384   0.121   3.862   5.114 -0.2167  1.0055 -0.5731
 1474TIP3   OH2 4385   2.089   3.738   3.650  0.4451 -0.2576  0.1422
 1474TIP3    H1 4386   2.078   3.753   3.744 -0.2725 -0.0662  0.0318
 1474TIP3    H2 4387   2.061   3.647   3.638 -0.5655  0.0623 -0.0528
 1475TIP3   OH2 4388   0.944   5.169   2.735  0.3952  0.3588 -0.5271
 1475TIP3    H1 4389   0.963   5.182   2.827 -2.8058  0.9358  0.1531
 1475TIP3    H2 4390   1.015   5.114   2.703  1.2151 -0.4387  2.4370
 1476TIP3   OH2 4391   1.529   0.399   2.506 -0.8087 -0.0450 -0.4677
 1476TIP3    H1 4392   1.596   0.333   2.485  0.4603  0.8910  0.4329
 1476TIP3    H2 4393   1.512   0.443   2.423  0.0049 -0.0364 -0.6391
 1477TIP3   OH2 4394   4.630   1.831   3.305 -0.1938  0.2716  0.5177
 1477TIP3    H1 4395   4.679   1.883   3.241 -2.1996  1.7342  0.0397
 1477TIP3    H2 4396   4.617   1.746   3.263  0.0940  0.5942 -0.2396
 1478TIP3   OH2 4397   7.149   3.564   3.498  0.3305 -0.0645 -0.1658
 1478TIP3    H1 4398   7.242   3.571   3.476  0.1198  0.9478 -0.7626
 1478TIP3    H2 4399   7.103   3.588   3.418 -0.4522  1.4237  0.6907
 1479TIP3   OH2 4400   6.599   0.186   4.467 -0.3434  0.0928  0.2723
 1479TIP3    H1 4401   6.527   0.237   4.504  0.1645  0.5784  0.6237
 1479TIP3    H2 4402   6.600   0.105   4.517 -0.0207  0.5097  0.9654
 1480TIP3   OH2 4403   2.274   2.574   3.148  0.0773 -0.5467 -0.2444
 1480TIP3    H1 4404   2.312   2.625   3.076  0.8271  0.2354  0.6968
 1480TIP3    H2 4405   2.311   2.612   3.227  2.0272 -3.6001  0.4820
 1481TIP3   OH2 4406   4.711   2.499   4.120  0.0350 -0.2068 -0.0746
 1481TIP3    H1 4407   4.636   2.467   4.069  0.6775 -0.6806 -0.7293
 1481TIP3    H2 4408   4.761   2.552   4.059  1.3825 -1.6451 -0.2597
 1482TIP3   OH2 4409   0.525  -0.004   3.449  0.1186  0.5263 -0.3854
 1482TIP3    H1 4410   0.516   0.073   3.393  0.6353  0.7531 -0.1543
 1482TIP3    H2 4411   0.580   0.025   3.521 -0.4959  0.2137  0.2136
 1483TIP3   OH2 4412   3.389   4.805   3.370  0.1093  0.1708  0.6842
 1483TIP3    H1 4413   3.390   4.828   3.463 -2.0322  2.0554  0.3290
 1483TIP3    H2 4414   3.417   4.713   3.368 -0.1202 -0.0375  3.2233
 1484TIP3   OH2 4415   3.717   0.128   2.199 -0.4534 -0.2698 -0.5490
 1484TIP3    H1 4416   3.745   0.182   2.125 -0.5335  0.1152 -0.3016
 1484TIP3    H2 4417   3.637   0.085   2.168 -0.2999 -0.3750 -0.8041
 1485TIP3   OH2 4418   7.094   4.159   2.192  0.1616 -0.0701 -0.1727
 1485TIP3    H1 4419   7.084   4.239   2.140 -0.4775 -0.3654 -0.5079
 1485TIP3    H2 4420   7.183   4.128   2.173  0.8745  1.1921  0.8652
 1486TIP3   OH2 4421   4.722   1.356   4.379 -0.0491  0.2179  0.2012
 1486TIP3    H1 4422   4.774   1.428   4.415  0.3634 -0.0528  0.1644
 1486TIP3    H2 4423   4.633   1.390   4.375  0.3084  1.0975 -0.8257
 1487TIP3   OH2 4424   6.110   0.789   0.740  0.4300 -0.9488 -0.5498
 1487TIP3    H1 4425   6.061   0.870   0.752 -0.5731 -1.4521 -1.1052
 1487TIP3    H2 4426   6.202   0.816   0.740  0.1418  0.8474 -4.7663
 1488TIP3   OH2 4427   0.653   3.426   0.846  0.0446  0.2167 -0.3688
 1488TIP3    H1 4428   0.624   3.509   0.807 -0.1473  1.6967  2.6373
 1488TIP3    H2 4429   0.573   3.374   0.852 -0.3331  0.8178 -0.0477
 1489TIP3   OH2 4430   0.943   2.094   1.909 -0.3845 -0.6147  0.3044
 1489TIP3    H1 4431   0.957   2.138   1.992 -0.0258  0.3372 -0.2532
 1489TIP3    H2 4432   0.970   2.004   1.925  0.7102 -0.1924  0.9102
 1490TIP3   OH2 4433   0.248   4.076   5.428  0.4184 -0.1760  0.4154
 1490TIP3    H1 4434   0.181   4.014   5.455 -1.1564  0.8132 -1.0740
 1490TIP3    H2 4435   0.202   4.159   5.418  1.9778  0.6664 -0.1381
 1491TIP3   OH2 4436   7.093   3.542   4.624  0.0046  0.3488 -0.0617
 1491TIP3    H1 4437   7.101   3.599   4.547 -1.4759  1.2272  0.3956
 1491TIP3    H2 4438   7.146   3.584   4.691 -2.0345  1.9478  0.6517
 1492TIP3   OH2 4439   4.866   5.883   2.370  0.3299 -0.6769 -0.4565
 1492TIP3    H1 4440   4.791   5.843   2.327 -0.3634 -0.0107  0.0980
 1492TIP3    H2 4441   4.900   5.946   2.306 -1.6968  1.5140  0.4726
 1493TIP3   OH2 4442   1.781   1.610   4.218 -0.3297  0.1333 -0.0684
 1493TIP3    H1 4443   1.742   1.530   4.253  0.1042 -0.1648 -0.2574
 1493TIP3    H2 4444   1.707   1.670   4.209 -0.7654 -0.4619 -0.5381
 1494TIP3   OH2 4445   1.118   4.737   0.876  0.1698  0.2248 -0.1577
 1494TIP3    H1 4446   1.208   4.705   0.878  0.3202  0.2936 -2.7448
 1494TIP3    H2 4447   1.125   4.830   0.897  0.8061  0.3801 -1.0224
 1495TIP3   OH2 4448   1.177   0.762   3.694 -0.0009 -0.3897 -0.2023
 1495TIP3    H1 4449   1.112   0.754   3.624 -1.8429 -0.0699  1.3987
 1495TIP3    H2 4450   1.258   0.730   3.654 -1.0595 -0.6288 -2.3381
 1496TIP3   OH2 4451   4.636   2.390   1.169 -0.3203 -0.3326 -0.1881
 1496TIP3    H1 4452   4.608   2.482   1.169  0.8499  0.0898  1.4607
 1496TIP3    H2 4453   4.555   2.340   1.178 -0.9432  0.5623 -0.6736
 1497TIP3   OH2 4454   0.517   1.536   2.184 -0.0614 -0.0105  0.3363
 1497TIP3    H1 4455   0.525   1.612   2.125 -2.7203  0.5600  0.5699
 1497TIP3    H2 4456   0.474   1.469   2.131 -2.9445  0.6746  1.6129
 1498TIP3   OH2 4457   6.935   5.569   0.710  0.0513 -0.6721  0.0507
 1498TIP3    H1 4458   6.962   5.600   0.796 -0.7909 -0.3208  0.2008
 1498TIP3    H2 4459   6.846   5.602   0.700  0.3930 -0.0818 -1.2610
 1499TIP3   OH2 4460   4.924   3.959   4.796 -0.3331  0.2243 -0.2558
 1499TIP3    H1 4461   4.854   3.929   4.737  1.0006 -1.7811 -0.9291
 1499TIP3    H2 4462   4.958   3.878   4.835  2.6856  0.9317 -1.1905
 1500TIP3   OH2 4463   1.457   2.954   4.222 -0.7820  0.1649 -0.4613
 1500TIP3    H1 4464   1.406   2.963   4.142  1.0190 -1.9506 -1.9732
 1500TIP3    H2 4465   1.453   2.860   4.243 -0.2671  0.4886  1.2666
 1501TIP3   OH2 4466   6.692   3.990   0.774 -0.1192  0.0591 -0.6721
 1501TIP3    H1 4467   6.680   3.973   0.680 -0.9916  1.8334 -0.9279
 1501TIP3    H2 4468   6.782   4.022   0.782  1.3318 -3.5688 -0.2699
 1502TIP3   OH2 4469   4.418   0.428   0.452  0.0309  0.3666 -0.1524
 1502TIP3    H1 4470   4.323   0.417   0.442 -0.0510  1.3913 -0.6128
 1502TIP3    H2 4471   4.430   0.520   0.472  0.8320 -0.0817  1.5794
 1503TIP3   OH2 4472   7.148   1.851   5.824 -0.0843  0.1687  0.2647
 1503TIP3    H1 4473   7.094   1.788   5.872 -1.6827  0.7759 -0.6745
 1503TIP3    H2 4474   7.133   1.934   5.868 -2.1468  0.8818 -1.6150
 1504TIP3   OH2 4475   0.427   2.628   1.227 -0.6212 -0.5044 -0.1367
 1504TIP3    H1 4476   0.415   2.546   1.178 -0.7946 -0.6189  0.0934
 1504TIP3    H2 4477   0.365   2.621   1.300  0.0885 -0.6301  0.4690
 1505TIP3   OH2 4478   5.380   1.963   3.390 -0.1882 -0.5861 -0.2396
 1505TIP3    H1 4479   5.468   1.957   3.352  0.8156  0.2104  1.7486
 1505TIP3    H2 4480   5.340   2.037   3.345  1.1896  0.7353  0.5928
 1506TIP3   OH2 4481   2.268   5.239   3.783 -0.0607 -0.9323 -0.4538
 1506TIP3    H1 4482   2.280   5.196   3.868  3.3446  0.2995 -0.1541
 1506TIP3    H2 4483   2.281   5.169   3.719 -1.3519 -1.6013 -0.0354
 1507TIP3   OH2 4484   3.298   2.908   0.266  0.0813 -0.0772  0.9928
 1507TIP3    H1 4485   3.241   2.911   0.344  1.6665  0.8282  2.1682
 1507TIP3    H2 4486   3.354   2.832   0.280  1.3481  0.9126  1.4896
 1508TIP3   OH2 4487   0.922   4.847   3.246  0.6242 -0.3027 -0.5005
 1508TIP3    H1 4488   0.830   4.840   3.221 -0.5859  0.6037  3.0347
 1508TIP3    H2 4489   0.964   4.768   3.210 -1.9024 -1.5751 -0.8308
 1509TIP3   OH2 4490   4.965   5.014   5.611  0.3015  0.2392  0.3530
 1509TIP3    H1 4491   4.928   5.049   5.692 -1.1728 -1.3077  0.4046
 1509TIP3    H2 4492   5.042   4.963   5.639 -0.0616 -0.0894  0.7679
 1510TIP3   OH2 4493   1.505   1.260   3.322 -0.1138 -0.4896 -0.0993
 1510TIP3    H1 4494   1.540   1.338   3.277  1.2122 -0.0786  1.5290
 1510TIP3    H2 4495   1.564   1.248   3.397 -0.7051 -2.6714  0.0726
 1511TIP3   OH2 4496   6.044   1.694   1.193 -0.0004 -0.2237 -0.2136
 1511TIP3    H1 4497   6.114   1.662   1.249  0.5039  1.2812  0.0477
 1511TIP3    H2 4498   5.990   1.617   1.177  0.7666 -1.0486  0.9697
 1512TIP3   OH2 4499   6.726   0.817   5.598 -1.0384 -0.6267 -0.0572
 1512TIP3    H1 4500   6.786   0.744   5.613 -0.6256 -0.0783  1.1029
 1512TIP3    H2 4501   6.757   0.885   5.657 -0.5775  1.0174 -2.1091
 1513TIP3   OH2 4502   5.780   4.249   2.718  0.1361 -0.5675  0.7379
 1513TIP3    H1 4503   5.710   4.313   2.714 -0.4506 -1.2397 -0.6800
 1513TIP3    H2 4504   5.860   4.300   2.710 -0.3175  0.0117 -0.2716
 1514TIP3   OH2 4505   3.282   1.817   0.532 -0.3461  0.2543 -0.3734
 1514TIP3    H1 4506   3.250   1.891   0.583  0.6330  1.1720 -1.0452
 1514TIP3    H2 4507   3.215   1.749   0.543 -1.4293  1.3436 -0.0022
 1515TIP3   OH2 4508   2.247   1.186   2.148  0.2808  0.1509 -0.7469
 1515TIP3    H1 4509   2.309   1.151   2.211  0.9638  0.5612 -1.1770
 1515TIP3    H2 4510   2.262   1.136   2.068  1.8092  1.8725 -1.6048
 1516TIP3   OH2 4511   5.563   6.635   1.634  0.7912  0.2022 -0.3264
 1516TIP3    H1 4512   5.610   6.675   1.561  0.6644  0.4582 -0.2666
 1516TIP3    H2 4513   5.518   6.560   1.595 -0.3574  1.0956 -0.7906
 1517TIP3   OH2 4514   0.119   5.421   3.801  0.7398 -0.9186 -0.7111
 1517TIP3    H1 4515   0.179   5.346   3.798 -0.2485 -1.7402 -0.5413
 1517TIP3    H2 4516   0.162   5.484   3.859  0.7180 -2.1462  0.6956
 1518TIP3   OH2 4517   6.011   4.859   4.352 -0.2641  0.5294  0.5514
 1518TIP3    H1 4518   5.987   4.773   4.320  1.6455  0.3771 -0.6564
 1518TIP3    H2 4519   6.034   4.845   4.444 -3.4830  0.5139  1.4728
 1519TIP3   OH2 4520   3.283   1.893   2.322 -0.4524 -0.3316 -0.3368
 1519TIP3    H1 4521   3.196   1.891   2.283 -0.5882  1.0045 -0.1746
 1519TIP3    H2 4522   3.312   1.984   2.311  2.2773 -1.3648 -3.3398
 1520TIP3   OH2 4523   0.659   0.960   3.606  0.0499  0.5117 -0.1658
 1520TIP3    H1 4524   0.655   0.999   3.693 -1.3053  0.2757 -0.0938
 1520TIP3    H2 4525   0.583   0.901   3.603 -1.5920  2.5421 -2.4248
 1521TIP3   OH2 4526   2.106   5.733   1.678  0.1944 -0.2195 -0.0975
 1521TIP3    H1 4527   2.047   5.698   1.745 -0.0569 -1.0048 -0.7021
 1521TIP3    H2 4528   2.078   5.824   1.667  1.2487  0.4056  1.9324
 1522TIP3   OH2 4529   4.033   5.005   0.443 -0.4496  0.7498  0.2601
 1522TIP3    H1 4530   4.025   5.024   0.537  1.8484  1.0251  0.4409
 1522TIP3    H2 4531   4.108   4.947   0.436  0.5518  2.1647 -1.5652
 1523TIP3   OH2 4532   4.865   2.624   4.430  0.3637 -0.1049  0.3169
 1523TIP3    H1 4533   4.897   2.582   4.510 -2.5258  0.1417  1.7372
 1523TIP3    H2 4534   4.790   2.570   4.403 -0.5934  1.5386 -0.4711
 1524TIP3   OH2 4535   2.689   0.872   0.220  0.0079 -0.0647  0.6404
 1524TIP3    H1 4536   2.733   0.799   0.263 -1.0985 -0.5517  0.9805
 1524TIP3    H2 4537   2.630   0.831   0.156  1.6506  0.6436 -1.4335
 1525TIP3   OH2 4538   3.394   3.144   2.663 -0.2441  0.2859 -0.0002
 1525TIP3    H1 4539   3.426   3.087   2.594 -3.3829 -0.6535 -0.8743
 1525TIP3    H2 4540   3.336   3.088   2.715 -0.4563  1.7673  1.4451
 1526TIP3   OH2 4541   2.428   4.131   0.440  0.1114  0.1838 -0.1236
 1526TIP3    H1 4542   2.468   4.128   0.353  0.0908  0.5419 -0.1445
 1526TIP3    H2 4543   2.357   4.195   0.432  1.4310  1.8167  0.7028
 1527TIP3   OH2 4544   4.007   4.136   2.909  0.1186  1.0726  0.1819
 1527TIP3    H1 4545   4.066   4.068   2.877  1.3076  1.2358  1.9221
 1527TIP3    H2 4546   4.064   4.207   2.938 -1.0713  2.5973 -1.0044
 1528TIP3   OH2 4547   5.255   5.539   3.749  0.0751  0.3019 -0.5857
 1528TIP3    H1 4548   5.331   5.552   3.806  0.0064  3.1437 -0.9755
 1528TIP3    H2 4549   5.288   5.491   3.674  0.7205 -1.3118  0.6859
 1529TIP3   OH2 4550   5.130   3.022   1.769 -0.4505 -0.9817  0.3176
 1529TIP3    H1 4551   5.085   2.938   1.778  0.0923 -1.1837  1.3631
 1529TIP3    H2 4552   5.066   3.080   1.729 -1.1534 -1.6449  0.4578
 1530TIP3   OH2 4553   4.335   4.081   3.009  0.4862 -0.1731 -0.5403
 1530TIP3    H1 4554   4.261   4.025   2.985  0.6387 -1.0225  0.8481
 1530TIP3    H2 4555   4.295   4.163   3.037  0.0929 -0.4072 -0.4060
 1531TIP3   OH2 4556   1.711   1.456   2.841  0.3383  0.6349  0.0532
 1531TIP3    H1 4557   1.653   1.385   2.811  1.7141 -0.6128  0.2138
 1531TIP3    H2 4558   1.699   1.458   2.936  1.7064 -0.7602  0.3034
 1532TIP3   OH2 4559   0.462   3.380   3.260  0.5484 -0.0916 -0.1496
 1532TIP3    H1 4560   0.472   3.433   3.180 -2.5026  0.5336 -0.2075
 1532TIP3    H2 4561   0.521   3.421   3.323  1.3810  0.7505 -1.4326
 1533TIP3   OH2 4562   0.232   1.479   4.822 -0.3432 -0.2221 -0.0498
 1533TIP3    H1 4563   0.267   1.422   4.754 -0.7352 -0.5649  0.0291
 1533TIP3    H2 4564   0.273   1.564   4.806  0.5972 -0.6372  0.1041
 1534TIP3   OH2 4565   1.134   4.164   5.659  0.2848 -0.4945 -0.3524
 1534TIP3    H1 4566   1.042   4.166   5.631  0.6855 -3.4615 -2.3648
 1534TIP3    H2 4567   1.183   4.170   5.577  1.9738  1.4103  0.7104
 1535TIP3   OH2 4568   1.069   1.500   1.489 -0.5820 -0.3254  0.1890
 1535TIP3    H1 4569   1.065   1.590   1.520  1.2648  0.1261 -0.7656
 1535TIP3    H2 4570   1.009   1.498   1.414 -0.0758  0.3244 -0.2423
 1536TIP3   OH2 4571   2.191   4.489   4.232  0.4444 -0.1328  0.1607
 1536TIP3    H1 4572   2.171   4.405   4.191 -0.3880 -0.9985  2.1653
 1536TIP3    H2 4573   2.276   4.476   4.274  1.0235  0.5444 -0.7779
 1537TIP3   OH2 4574   0.277   1.940   3.229 -0.1090 -0.0103  0.2737
 1537TIP3    H1 4575   0.225   1.969   3.304 -1.2722 -3.1418  0.8287
 1537TIP3    H2 4576   0.254   2.001   3.159 -0.3476  1.9296  1.9367
 1538TIP3   OH2 4577   4.783   1.620   5.571 -0.3771 -0.2040  0.4389
 1538TIP3    H1 4578   4.773   1.586   5.660 -0.5003  0.6540  0.7639
 1538TIP3    H2 4579   4.726   1.697   5.568 -0.4707 -0.2923 -0.4279
 1539TIP3   OH2 4580   5.165   3.270   3.434 -0.2991 -0.1907  0.1647
 1539TIP3    H1 4581   5.078   3.310   3.439 -0.4158 -0.5947  2.8305
 1539TIP3    H2 4582   5.223   3.333   3.476 -0.1593 -1.8007  2.6114
 1540TIP3   OH2 4583   4.700   3.061   4.616 -0.2408  0.6891  0.5625
 1540TIP3    H1 4584   4.658   3.030   4.536  1.2742 -0.7641  0.2703
 1540TIP3    H2 4585   4.721   3.153   4.599 -0.0879  0.4451 -0.6489
 1541TIP3   OH2 4586   1.630   6.208   1.800  0.8558  0.0496 -0.3490
 1541TIP3    H1 4587   1.712   6.243   1.765  1.1329 -1.8941 -1.8415
 1541TIP3    H2 4588   1.577   6.189   1.722  0.3155 -1.7123  0.3995
 1542TIP3   OH2 4589   2.102   6.696   4.954  0.3689  0.4279 -0.6979
 1542TIP3    H1 4590   2.069   6.741   4.876 -1.7374 -1.9022 -1.2787
 1542TIP3    H2 4591   2.143   6.617   4.921 -0.8161 -0.7516  0.5134
 1543TIP3   OH2 4592   6.545   2.068   2.751 -0.3674  0.4390  0.2286
 1543TIP3    H1 4593   6.571   1.976   2.743 -0.2561  0.4049  0.9482
 1543TIP3    H2 4594   6.595   2.101   2.825 -2.1139  0.4494  1.4656
 1544TIP3   OH2 4595   0.937   2.929   3.577 -0.0413 -0.4098 -0.4953
 1544TIP3    H1 4596   0.961   2.971   3.660 -2.0773 -1.7898  0.8842
 1544TIP3    H2 4597   0.975   2.841   3.583  0.6907 -0.1868 -1.5351
 1545TIP3   OH2 4598   2.857   2.605   0.817  0.2037 -0.3195 -0.4485
 1545TIP3    H1 4599   2.773   2.582   0.857  0.1712  1.2173  0.4471
 1545TIP3    H2 4600   2.834   2.637   0.730 -0.3296  1.2898  0.2337
 1546TIP3   OH2 4601   7.077   4.122   4.074 -0.0954  0.5559  0.2925
 1546TIP3    H1 4602   7.102   4.056   4.009 -1.0192 -1.3400  1.7721
 1546TIP3    H2 4603   7.157   4.139   4.124  0.0335  0.2037  0.2040
 1547TIP3   OH2 4604   2.576   6.026   5.522  0.1324 -0.5392 -0.2808
 1547TIP3    H1 4605   2.642   5.995   5.583 -0.5920  1.8906  1.9021
 1547TIP3    H2 4606   2.623   6.084   5.462  0.2640 -0.1969  0.1564
 1548TIP3   OH2 4607   2.597   4.068   1.542  0.1577  0.4472 -0.8178
 1548TIP3    H1 4608   2.568   4.119   1.618  0.1409  0.3917 -0.7862
 1548TIP3    H2 4609   2.687   4.096   1.527  0.7451 -0.7473  0.2685
 1549TIP3   OH2 4610   6.166   6.307   1.875 -0.0089  0.3608  0.4918
 1549TIP3    H1 4611   6.177   6.213   1.865  1.0559  0.4342  0.8450
 1549TIP3    H2 4612   6.193   6.326   1.965 -0.2029  0.9974  0.4266
 1550TIP3   OH2 4613   1.224   4.718   0.213 -0.0985 -0.1367  0.4170
 1550TIP3    H1 4614   1.257   4.629   0.207  2.1250  0.7028 -1.3769
 1550TIP3    H2 4615   1.142   4.717   0.164  0.7049 -0.8926 -0.9558
 1551TIP3   OH2 4616   4.412   0.014   0.717 -0.0169  0.3319  0.0754
 1551TIP3    H1 4617   4.483   0.055   0.667  0.4081  1.2822  1.3956
 1551TIP3    H2 4618   4.446   0.010   0.806 -0.6382 -1.5951  0.2634
 1552TIP3   OH2 4619   5.060   2.276   4.415  0.0043 -1.0279 -0.0341
 1552TIP3    H1 4620   5.003   2.304   4.486 -1.6395  2.1444 -2.3350
 1552TIP3    H2 4621   5.003   2.270   4.339  2.3601  0.8799 -2.1758
 1553TIP3   OH2 4622   6.007   6.386   0.874 -0.2104  0.1215  0.3254
 1553TIP3    H1 4623   6.025   6.398   0.967  0.9889 -0.4092  0.1818
 1553TIP3    H2 4624   6.090   6.407   0.830 -0.2672 -1.1825 -0.4843
 1554TIP3   OH2 4625   6.152   0.159   5.772  0.4180 -0.1496 -0.3193
 1554TIP3    H1 4626   6.176   0.136   5.682  1.0024 -0.7249 -0.0290
 1554TIP3    H2 4627   6.181   0.084   5.824  0.9023  0.5619  0.4619
 1555TIP3   OH2 4628   6.993   4.588   4.061  0.1601 -0.1994 -0.1804
 1555TIP3    H1 4629   6.944   4.513   4.027 -1.4794  0.1326  1.3279
 1555TIP3    H2 4630   6.939   4.664   4.040 -0.1404  0.1523  1.7137
 1556TIP3   OH2 4631   6.091   6.676   1.777 -0.0536 -0.2777  0.4398
 1556TIP3    H1 4632   6.164   6.638   1.728  0.1569 -0.2785  0.7488
 1556TIP3    H2 4633   6.124   6.683   1.867 -0.7883 -1.2026  0.7907
 1557TIP3   OH2 4634   2.356   3.700   4.177  0.3151  0.3014 -0.0359
 1557TIP3    H1 4635   2.398   3.782   4.153  0.2363  0.3514 -0.0028
 1557TIP3    H2 4636   2.292   3.683   4.108  1.0352 -0.2519 -0.5840
 1558TIP3   OH2 4637   0.326   0.413   0.633  0.1393 -0.2456 -0.4074
 1558TIP3    H1 4638   0.398   0.356   0.607  2.5701  2.0787  0.7475
 1558TIP3    H2 4639   0.300   0.457   0.553 -1.3183 -2.3356 -1.1792
 1559TIP3   OH2 4640   1.086   3.980   0.241 -0.0643  0.4532  0.1122
 1559TIP3    H1 4641   1.086   4.014   0.152  1.2766  2.1101  0.6825
 1559TIP3    H2 4642   1.092   3.885   0.231 -0.4004  0.5781 -1.5437
 1560TIP3   OH2 4643   5.748   5.949   0.382 -0.6360 -0.0840 -0.1588
 1560TIP3    H1 4644   5.704   5.875   0.424 -0.5842 -0.6652 -1.1077
 1560TIP3    H2 4645   5.838   5.920   0.369 -0.3340  0.5562  0.4451
 1561TIP3   OH2 4646   4.367   4.712   4.743 -0.5364 -0.1054  0.5075
 1561TIP3    H1 4647   4.349   4.700   4.650  2.4577 -0.8935 -0.0646
 1561TIP3    H2 4648   4.442   4.771   4.746 -0.5084 -0.1779  2.4350
 1562TIP3   OH2 4649   5.554   2.956   5.173  0.2689 -0.4073  0.4178
 1562TIP3    H1 4650   5.513   2.927   5.255 -0.1393 -1.6841 -0.2207
 1562TIP3    H2 4651   5.485   2.948   5.107 -0.1675  2.9073  0.2914
 1563TIP3   OH2 4652   3.165   3.739   2.334 -0.1615  0.1380  0.8375
 1563TIP3    H1 4653   3.141   3.663   2.385 -0.6189 -0.6987 -0.5752
 1563TIP3    H2 4654   3.137   3.719   2.245  0.2493  1.7033  0.3128
 1564TIP3   OH2 4655   1.603   3.010   2.382 -0.2918  0.2936  0.8208
 1564TIP3    H1 4656   1.618   2.917   2.365  0.9504  0.6718 -0.3330
 1564TIP3    H2 4657   1.565   3.043   2.302 -0.6204  0.8117  1.1851
 1565TIP3   OH2 4658   4.664   2.139   3.254 -0.5231  0.1096  0.2421
 1565TIP3    H1 4659   4.746   2.156   3.300 -0.6296  0.2239  0.3905
 1565TIP3    H2 4660   4.688   2.077   3.185 -0.2037  0.5848 -0.0771
 1566TIP3   OH2 4661   1.860   2.671   2.427 -0.0921 -0.1218 -0.4434
 1566TIP3    H1 4662   1.922   2.646   2.359  2.0807  2.2328  0.5164
 1566TIP3    H2 4663   1.892   2.627   2.506  0.6759  1.4148  0.1407
 1567TIP3   OH2 4664   2.303   0.713   4.428  0.1541 -0.1901 -0.4224
 1567TIP3    H1 4665   2.266   0.747   4.509 -0.4726  0.0151 -0.7930
 1567TIP3    H2 4666   2.254   0.756   4.358  1.2431  0.2716 -0.9281
 1568TIP3   OH2 4667   3.041   4.860   1.860 -0.4616 -0.3490  0.6344
 1568TIP3    H1 4668   2.974   4.828   1.799 -1.3376  1.9823  0.2539
 1568TIP3    H2 4669   3.093   4.783   1.881 -0.1117 -1.3117 -3.0636
 1569TIP3   OH2 4670   0.024   4.211   4.897  0.4632 -0.1552 -0.0107
 1569TIP3    H1 4671   0.011   4.303   4.874 -1.6758 -0.1042  1.2113
 1569TIP3    H2 4672  -0.009   4.162   4.821  0.1865  0.0662 -0.0344
 1570TIP3   OH2 4673   4.350   3.532   4.911  0.1912  0.4912  0.8525
 1570TIP3    H1 4674   4.444   3.547   4.923  0.3654 -0.7983  1.2147
 1570TIP3    H2 4675   4.312   3.546   4.998 -0.0946  1.8695  0.5272
 1571TIP3   OH2 4676   0.689   1.046   2.381  0.0704 -0.5492 -0.2680
 1571TIP3    H1 4677   0.691   1.119   2.442 -0.3707 -0.6638 -0.1116
 1571TIP3    H2 4678   0.625   0.985   2.418  0.1123 -0.8144 -0.6230
 1572TIP3   OH2 4679   3.494   5.262   4.239 -0.0205 -0.8786  0.2934
 1572TIP3    H1 4680   3.473   5.278   4.330  0.5054  0.0277  0.2787
 1572TIP3    H2 4681   3.584   5.228   4.241  0.5616  0.5385  0.0602
 1573TIP3   OH2 4682   1.413   0.247   0.487 -0.2749  0.6277 -0.1635
 1573TIP3    H1 4683   1.420   0.309   0.559 -0.2762  1.3284 -0.7482
 1573TIP3    H2 4684   1.503   0.238   0.455 -0.5095  1.7609 -1.2329
 1574TIP3   OH2 4685   1.512   4.325   0.878 -0.5835  0.1600  0.1594
 1574TIP3    H1 4686   1.443   4.349   0.815 -0.3195  0.9911  0.1805
 1574TIP3    H2 4687   1.558   4.253   0.835 -0.7450  0.3580 -0.3659
 1575TIP3   OH2 4688   4.991   2.661   3.746  0.2039  0.3207  0.4777
 1575TIP3    H1 4689   5.071   2.712   3.754  1.4394 -1.2033 -1.4262
 1575TIP3    H2 4690   5.004   2.586   3.804 -0.2015  0.4548  0.7530
 1576TIP3   OH2 4691   2.999   4.026   5.604  0.3934 -0.2498  0.1213
 1576TIP3    H1 4692   3.034   3.994   5.521  1.4564  2.3101 -0.5164
 1576TIP3    H2 4693   2.932   4.090   5.578 -2.1412 -2.2427  1.3250
 1577TIP3   OH2 4694   4.758   2.010   3.870 -0.4807 -0.2527  0.4002
 1577TIP3    H1 4695   4.662   2.008   3.866 -0.5465 -1.4087  1.6416
 1577TIP3    H2 4696   4.783   1.919   3.884  0.9862 -0.3308 -2.2823
 1578TIP3   OH2 4697   2.315   4.327   2.065 -0.2309  0.2635 -0.0457
 1578TIP3    H1 4698   2.314   4.342   1.971 -0.9786 -1.8000 -0.4307
 1578TIP3    H2 4699   2.279   4.407   2.103 -0.9347  0.7085 -1.5868
 1579TIP3   OH2 4700   1.048   6.133   5.641  0.9852 -0.0172 -0.2090
 1579TIP3    H1 4701   0.964   6.154   5.599 -0.0873 -2.5197  0.5099
 1579TIP3    H2 4702   1.079   6.216   5.675 -1.1344  1.0125 -0.6213
 1580TIP3   OH2 4703   1.474   6.152   4.646  0.3275  0.5647  0.1586
 1580TIP3    H1 4704   1.494   6.059   4.646 -2.1041 -0.2713 -4.3786
 1580TIP3    H2 4705   1.384   6.157   4.680 -0.9036  0.5712 -2.7822
 1581TIP3   OH2 4706   0.319   3.129   4.100  0.0019  0.4582  0.1948
 1581TIP3    H1 4707   0.328   3.224   4.098 -1.6434  0.6292 -1.7160
 1581TIP3    H2 4708   0.234   3.114   4.141  0.8694 -0.2999  1.8119
 1582TIP3   OH2 4709   3.047   1.368   3.619  0.4923 -0.1426  0.4285
 1582TIP3    H1 4710   3.119   1.312   3.649  0.9107 -0.8787 -1.8119
 1582TIP3    H2 4711   3.073   1.456   3.647  0.9889 -0.7238  1.8918
 1583TIP3   OH2 4712   6.981   6.307   0.588 -0.2745 -0.5544  0.0689
 1583TIP3    H1 4713   6.972   6.218   0.555  0.2981 -1.5739  2.4281
 1583TIP3    H2 4714   7.073   6.315   0.612 -0.6498  0.0577  1.4386
 1584TIP3   OH2 4715   4.288   5.751   3.157 -0.0188 -0.3790 -0.2203
 1584TIP3    H1 4716   4.349   5.677   3.163  1.6432  0.9588  0.0061
 1584TIP3    H2 4717   4.203   5.713   3.180  0.6972 -2.3074 -0.5253
 1585TIP3   OH2 4718   3.934   5.406   5.342 -0.1325  0.3161  0.1294
 1585TIP3    H1 4719   3.847   5.412   5.380 -0.0805  2.7043  0.0268
 1585TIP3    H2 4720   3.987   5.363   5.409 -1.2952 -0.9314  0.2943
 1586TIP3   OH2 4721   6.428   2.055   1.232  0.4644 -0.5865 -0.3343
 1586TIP3    H1 4722   6.420   2.149   1.248  2.4181 -0.4777  0.3832
 1586TIP3    H2 4723   6.382   2.014   1.305  0.3243 -0.1621 -0.1812
 1587TIP3   OH2 4724   2.093   4.420   0.687 -0.1565 -0.0993  0.3642
 1587TIP3    H1 4725   2.075   4.440   0.779  0.1551  1.7507  0.0721
 1587TIP3    H2 4726   2.132   4.500   0.653 -0.0481 -0.8347 -1.3312
 1588TIP3   OH2 4727   4.549   4.168   1.511 -0.7602  0.5727  0.2414
 1588TIP3    H1 4728   4.501   4.228   1.568 -0.5742  1.6347 -0.6747
 1588TIP3    H2 4729   4.487   4.146   1.442  0.1024  2.2724 -1.1753
 1589TIP3   OH2 4730   1.250   2.332   2.783 -0.5425 -0.3361  0.0062
 1589TIP3    H1 4731   1.184   2.397   2.808 -0.0722  0.1023  0.1062
 1589TIP3    H2 4732   1.275   2.291   2.866 -0.5828 -0.4038 -0.0150
 1590TIP3   OH2 4733   2.308   1.677   1.334  0.3654 -0.3026 -0.2327
 1590TIP3    H1 4734   2.381   1.690   1.274  0.4660 -1.1635 -0.3072
 1590TIP3    H2 4735   2.270   1.593   1.308  1.3879 -1.5003  1.9224
 1591TIP3   OH2 4736   5.405   5.141   4.810  0.3936  0.1637 -0.1137
 1591TIP3    H1 4737   5.382   5.052   4.784  0.2409 -0.4132  1.7766
 1591TIP3    H2 4738   5.399   5.193   4.730 -1.6009 -1.1104 -0.8644
 1592TIP3   OH2 4739   4.058   5.151   5.261  0.0403 -0.3508 -0.0229
 1592TIP3    H1 4740   4.072   5.099   5.181  0.4658  0.0203 -0.1984
 1592TIP3    H2 4741   3.997   5.220   5.234  2.5564  1.6951 -0.9326
 1593TIP3   OH2 4742   5.298   2.605   4.567  0.5544  0.3548  0.0929
 1593TIP3    H1 4743   5.255   2.673   4.515  0.6600  0.8718  0.6671
 1593TIP3    H2 4744   5.353   2.654   4.628  0.2210 -0.2342  0.8739
 1594TIP3   OH2 4745   5.985   3.017   5.535 -0.3571 -0.4856 -0.2498
 1594TIP3    H1 4746   5.929   2.939   5.530  0.2664 -0.9773  0.2414
 1594TIP3    H2 4747   5.946   3.069   5.605 -0.4326 -0.6344 -0.1790
 1595TIP3   OH2 4748   5.571   2.285   0.002 -0.4036  0.4379 -0.1084
 1595TIP3    H1 4749   5.536   2.354   0.058  0.8507 -0.0668  1.3909
 1595TIP3    H2 4750   5.640   2.244   0.055  1.5867  0.5985 -2.3893
 1596TIP3   OH2 4751   1.255   4.031   1.753  0.7094 -0.4112 -0.5199
 1596TIP3    H1 4752   1.240   4.005   1.662  0.8131 -1.2934 -0.2981
 1596TIP3    H2 4753   1.317   4.103   1.748  2.2989 -1.7654 -1.0633
 1597TIP3   OH2 4754   2.899   2.872   2.054 -0.5996 -0.3644  0.4219
 1597TIP3    H1 4755   2.945   2.938   2.105 -0.4585  0.7023 -1.0219
 1597TIP3    H2 4756   2.910   2.900   1.963 -2.0969 -1.3682 -0.1100
 1598TIP3   OH2 4757   5.781   2.962   5.019 -0.1046  0.4067 -0.3599
 1598TIP3    H1 4758   5.699   2.940   5.063 -0.9760 -0.1837 -2.1530
 1598TIP3    H2 4759   5.846   2.968   5.089 -1.7291  1.1650  1.1321
 1599TIP3   OH2 4760   6.913   0.267   2.508  0.2073 -0.4156  0.3316
 1599TIP3    H1 4761   6.886   0.293   2.596  3.2048  0.7101  1.0698
 1599TIP3    H2 4762   6.946   0.178   2.518 -0.5715 -0.7430  0.0527
 1600TIP3   OH2 4763   0.328   0.774   5.828 -0.0698  0.5663 -0.0416
 1600TIP3    H1 4764   0.236   0.789   5.805 -0.3789  1.9470  1.8359
 1600TIP3    H2 4765   0.376   0.839   5.776 -0.2429  0.3462 -0.4747
 1601TIP3   OH2 4766   4.217   0.597   1.023 -0.2025 -0.2686 -0.0392
 1601TIP3    H1 4767   4.291   0.656   1.009  2.6823 -3.4767  0.3082
 1601TIP3    H2 4768   4.217   0.582   1.118  0.4104 -2.2140 -0.3103
 1602TIP3   OH2 4769   4.930   0.850   5.018  0.3186  0.2711 -0.4482
 1602TIP3    H1 4770   4.866   0.824   5.085  0.7431 -1.9876 -0.8353
 1602TIP3    H2 4771   4.980   0.921   5.059 -3.2731  3.1769 -0.6839
 1603TIP3   OH2 4772   4.911   0.170   4.543 -0.3808 -0.0396  0.0798
 1603TIP3    H1 4773   4.963   0.205   4.471 -1.0296  2.7727  0.8889
 1603TIP3    H2 4774   4.973   0.164   4.616 -0.7862  1.8944  0.6276
 1604TIP3   OH2 4775   2.008   2.316   1.612 -0.2515 -0.2108  0.7008
 1604TIP3    H1 4776   2.067   2.244   1.636 -0.4640  0.0438  2.0790
 1604TIP3    H2 4777   2.035   2.388   1.668  0.5557  1.1198 -1.3011
 1605TIP3   OH2 4778   0.493   3.779   2.367  0.2861 -0.1320  0.2415
 1605TIP3    H1 4779   0.519   3.869   2.348  2.3127 -0.0722  2.8231
 1605TIP3    H2 4780   0.398   3.784   2.377  0.3728  1.7635  0.5479
 1606TIP3   OH2 4781   0.448   0.391   2.009  0.4166 -0.2276  0.1509
 1606TIP3    H1 4782   0.373   0.418   1.956  0.8145  1.0278  0.1896
 1606TIP3    H2 4783   0.511   0.358   1.945 -0.2377 -1.5046  0.1403
 1607TIP3   OH2 4784   0.230   3.125   5.357 -0.1047  0.5347  0.4112
 1607TIP3    H1 4785   0.150   3.152   5.401 -0.4452 -1.1144  0.8790
 1607TIP3    H2 4786   0.227   3.168   5.272 -0.3231  2.3321  1.2768
 1608TIP3   OH2 4787   2.332   1.648   2.403 -0.0681  0.2169  0.5052
 1608TIP3    H1 4788   2.284   1.636   2.485  0.8913  1.1578  1.2287
 1608TIP3    H2 4789   2.376   1.564   2.388 -1.0195 -0.2785  0.4241
 1609TIP3   OH2 4790   6.216   0.399   1.147  0.6291 -0.5754  0.1417
 1609TIP3    H1 4791   6.189   0.418   1.237  2.2522  1.2579  0.2984
 1609TIP3    H2 4792   6.221   0.485   1.105  0.1272 -1.3757 -1.6713
 1610TIP3   OH2 4793   2.808   3.176   0.731  0.0463 -0.7133 -0.1995
 1610TIP3    H1 4794   2.722   3.198   0.695 -0.2018 -0.1104  0.7143
 1610TIP3    H2 4795   2.793   3.096   0.782  0.4717 -1.7756 -1.6625
 1611TIP3   OH2 4796   6.023   4.613   1.417  0.5224 -0.0505  0.0397
 1611TIP3    H1 4797   5.999   4.621   1.325  1.8378 -1.8055 -0.4957
 1611TIP3    H2 4798   6.118   4.601   1.417  0.5855  0.1758  1.6525
 1612TIP3   OH2 4799   7.230   3.603   2.610 -0.7603  0.3199 -0.0843
 1612TIP3    H1 4800   7.164   3.536   2.628  0.2483 -0.4509  0.9187
 1612TIP3    H2 4801   7.224   3.664   2.684  1.0093 -0.9087  1.1683
 1613TIP3   OH2 4802   1.332   6.110   2.903  0.2240 -0.5925  0.3560
 1613TIP3    H1 4803   1.317   6.115   2.809 -0.9209  1.0505  0.5842
 1613TIP3    H2 4804   1.250   6.076   2.939 -0.7902  2.2421  1.0244
 1614TIP3   OH2 4805   0.761   6.833   0.663 -0.0654 -0.3349  0.2226
 1614TIP3    H1 4806   0.718   6.753   0.694 -1.8061  0.0128 -1.0743
 1614TIP3    H2 4807   0.815   6.804   0.590  1.5419 -0.6848  1.4865
 1615TIP3   OH2 4808   3.579   6.439   0.580 -0.0141 -0.2977 -0.0845
 1615TIP3    H1 4809   3.598   6.502   0.650  0.5621 -0.4242 -0.1178
 1615TIP3    H2 4810   3.563   6.494   0.503  1.1959 -0.1908 -0.2839
 1616TIP3   OH2 4811   0.921   2.496   4.438  0.0635  0.4764 -0.1831
 1616TIP3    H1 4812   0.841   2.487   4.491 -0.9061 -0.8062 -1.7496
 1616TIP3    H2 4813   0.945   2.406   4.417  0.5622  0.9287 -1.6738
 1617TIP3   OH2 4814   6.457   4.570   2.491 -0.6675 -0.2581  0.1343
 1617TIP3    H1 4815   6.436   4.656   2.527 -0.6644 -0.7352  1.3089
 1617TIP3    H2 4816   6.553   4.566   2.495 -0.5505  0.3488 -1.5242
 1618TIP3   OH2 4817   5.676   1.184   2.217 -0.0492 -0.0799 -0.2690
 1618TIP3    H1 4818   5.689   1.175   2.312  0.3545 -1.0370 -0.4077
 1618TIP3    H2 4819   5.670   1.279   2.203 -4.9731  0.1731  1.3740
 1619TIP3   OH2 4820   1.958   5.470   1.530  0.4593  0.0081  0.6481
 1619TIP3    H1 4821   1.866   5.445   1.530  0.9074 -1.8733  2.4378
 1619TIP3    H2 4822   1.966   5.531   1.456 -2.1379  0.0479  0.3118
 1620TIP3   OH2 4823   7.115   6.613   3.384 -0.3695  0.4960  0.2507
 1620TIP3    H1 4824   7.188   6.656   3.340 -1.3885 -0.3355 -2.4234
 1620TIP3    H2 4825   7.156   6.543   3.435  0.7908  0.9046 -0.0844
 1621TIP3   OH2 4826   2.524   3.636   3.727  0.2530  0.8064  0.4233
 1621TIP3    H1 4827   2.515   3.604   3.638 -1.5427 -1.9022  1.4538
 1621TIP3    H2 4828   2.616   3.659   3.736  0.7450 -0.1875 -1.7023
 1622TIP3   OH2 4829   6.026   5.738   5.154  0.1668 -0.1321 -0.4817
 1622TIP3    H1 4830   5.980   5.815   5.190 -1.0564 -1.0659  0.0488
 1622TIP3    H2 4831   5.965   5.702   5.090  1.0799 -0.2081 -1.3202
 1623TIP3   OH2 4832   0.333   4.815   5.664  0.8153  0.4454  0.5888
 1623TIP3    H1 4833   0.260   4.854   5.711  0.5573  0.6260  0.0428
 1623TIP3    H2 4834   0.329   4.721   5.686  0.0394  0.3522  0.0477
 1624TIP3   OH2 4835   6.213   2.733   0.271 -0.4980 -0.4921 -0.0044
 1624TIP3    H1 4836   6.253   2.820   0.273 -1.3865 -0.0850  0.5008
 1624TIP3    H2 4837   6.217   2.706   0.179  1.1641 -0.5872  0.0565
 1625TIP3   OH2 4838   6.662   3.799   5.204 -0.1414  0.0054 -0.4162
 1625TIP3    H1 4839   6.737   3.791   5.263 -0.9424 -0.6039  0.5650
 1625TIP3    H2 4840   6.675   3.731   5.138  0.8452  0.7942 -1.0525
 1626TIP3   OH2 4841   0.286   5.698   3.677  0.1815 -0.2603 -0.0035
 1626TIP3    H1 4842   0.368   5.741   3.652 -0.2431  0.3575 -0.3426
 1626TIP3    H2 4843   0.297   5.680   3.771  1.4864 -1.9473 -0.4152
 1627TIP3   OH2 4844   5.502   5.579   3.875 -0.6830 -0.2689  0.2201
 1627TIP3    H1 4845   5.519   5.491   3.842 -0.3077 -0.1533  0.0985
 1627TIP3    H2 4846   5.562   5.590   3.949 -0.9474 -0.2280  0.4299
 1628TIP3   OH2 4847   2.083   1.608   3.381 -0.0731  0.4088  0.1359
 1628TIP3    H1 4848   2.094   1.568   3.294  0.3201  2.0498 -0.6029
 1628TIP3    H2 4849   1.989   1.626   3.387  0.0418  1.2492 -0.4114
 1629TIP3   OH2 4850   3.552   5.446   5.160  0.0796  0.5664 -0.0036
 1629TIP3    H1 4851   3.491   5.372   5.159  2.2787 -1.3884  0.8892
 1629TIP3    H2 4852   3.584   5.451   5.070  0.1079  0.2756 -0.0104
 1630TIP3   OH2 4853   4.737   4.194   1.867  0.5806  0.0964 -0.4878
 1630TIP3    H1 4854   4.660   4.140   1.847  1.6954 -1.7253 -0.1389
 1630TIP3    H2 4855   4.766   4.225   1.781  0.3388 -0.5023 -0.7997
 1631TIP3   OH2 4856   5.854   4.500   3.930  0.1225 -0.4224 -0.2072
 1631TIP3    H1 4857   5.861   4.442   4.006  0.4987  0.7462  0.6637
 1631TIP3    H2 4858   5.924   4.564   3.941  0.7159 -0.7065 -1.9744
 1632TIP3   OH2 4859   1.049   2.563   5.150 -0.0107 -0.1604 -0.3440
 1632TIP3    H1 4860   1.094   2.519   5.222 -0.6418 -0.9334 -0.4125
 1632TIP3    H2 4861   0.956   2.547   5.167 -0.1895  0.1753 -0.9965
 1633TIP3   OH2 4862   6.010   6.006   0.011  0.0687 -0.1661  0.1707
 1633TIP3    H1 4863   6.045   5.960   0.088  0.0888 -0.6058 -0.0938
 1633TIP3    H2 4864   6.035   6.097   0.024 -1.0199  0.0027  1.3251
 1634TIP3   OH2 4865   4.985   2.778   1.799  0.5035  0.5063  0.7187
 1634TIP3    H1 4866   4.956   2.687   1.809  2.1386 -0.1334 -0.0234
 1634TIP3    H2 4867   4.988   2.812   1.888 -0.6407  0.0192  0.9654
 1635TIP3   OH2 4868   2.373   0.862   3.709  0.1557 -0.7374  0.4906
 1635TIP3    H1 4869   2.295   0.806   3.702 -1.1772  1.1301 -0.5061
 1635TIP3    H2 4870   2.427   0.836   3.635  0.5177 -2.0385  1.1760
 1636TIP3   OH2 4871   4.374   4.187   5.739  0.3188 -0.0671 -0.6245
 1636TIP3    H1 4872   4.461   4.156   5.766  0.6433  1.2247 -0.1321
 1636TIP3    H2 4873   4.329   4.208   5.821  0.5621  1.9189 -0.9683
 1637TIP3   OH2 4874   3.516   0.845   4.766  0.1006 -0.0369 -0.6726
 1637TIP3    H1 4875   3.480   0.771   4.815  0.7600 -0.2152 -0.4538
 1637TIP3    H2 4876   3.441   0.904   4.754 -0.8999 -1.5806 -2.5126
 1638TIP3   OH2 4877   2.525   0.432   4.806 -0.2704 -0.0035  0.2470
 1638TIP3    H1 4878   2.552   0.342   4.785 -0.5591  0.1679 -0.9352
 1638TIP3    H2 4879   2.502   0.470   4.722  0.6368  1.4608  0.6218
 1639TIP3   OH2 4880   4.509   5.581   0.726 -0.3764 -0.6029 -0.1318
 1639TIP3    H1 4881   4.484   5.599   0.817 -0.2704  0.8117 -0.3618
 1639TIP3    H2 4882   4.541   5.491   0.728  1.9582  0.1634  1.7598
 1640TIP3   OH2 4883   4.849   0.339   4.987  0.3183 -0.4661 -0.6864
 1640TIP3    H1 4884   4.811   0.282   4.920  1.3490 -0.3936 -1.3661
 1640TIP3    H2 4885   4.782   0.405   5.003 -0.1983 -0.8537 -1.1815
 1641TIP3   OH2 4886   0.123   2.004   2.418 -0.1802  0.1304 -0.1485
 1641TIP3    H1 4887   0.193   1.959   2.369 -1.0338 -0.1865 -1.1196
 1641TIP3    H2 4888   0.169   2.050   2.488  0.6995 -2.8208  1.3807
 1642TIP3   OH2 4889   6.232   3.698   4.436  0.5271  0.0971  0.1491
 1642TIP3    H1 4890   6.322   3.676   4.458  0.7447  0.0471 -0.7560
 1642TIP3    H2 4891   6.209   3.639   4.365 -0.0713  0.4171  0.0660
 1643TIP3   OH2 4892   2.206   0.061   5.274  0.3932 -0.0782 -0.1839
 1643TIP3    H1 4893   2.265   0.136   5.281  1.0289 -0.6072  0.2565
 1643TIP3    H2 4894   2.157   0.077   5.193  0.5898  0.7600 -0.1442
 1644TIP3   OH2 4895   1.549   0.774   5.857 -0.2677 -0.6199  0.1498
 1644TIP3    H1 4896   1.486   0.710   5.823 -0.0584 -0.5554 -0.3741
 1644TIP3    H2 4897   1.522   0.789   5.947 -0.1639 -1.6499  0.3646
 1645TIP3   OH2 4898   6.263   3.888   4.758  0.2260  0.5624 -0.0512
 1645TIP3    H1 4899   6.252   3.940   4.838  0.1163 -1.5333  1.3521
 1645TIP3    H2 4900   6.348   3.846   4.769 -0.9138 -1.8021  0.2478
 1646TIP3   OH2 4901   3.524   1.160   0.682  0.6742  0.3105  0.0820
 1646TIP3    H1 4902   3.544   1.068   0.701 -1.2045 -0.3541 -0.8770
 1646TIP3    H2 4903   3.465   1.156   0.607 -1.8211  2.1130  1.8162
 1647TIP3   OH2 4904   6.691   2.898   0.016  0.0193  1.0014  0.2462
 1647TIP3    H1 4905   6.629   2.970   0.024  0.5544  1.6534 -1.2022
 1647TIP3    H2 4906   6.776   2.940  -0.000  0.4372  0.0712 -0.0640
 1648TIP3   OH2 4907   3.700   2.021   4.190  0.0775 -1.1815  0.5420
 1648TIP3    H1 4908   3.632   2.054   4.249 -0.6510 -1.7900  0.0603
 1648TIP3    H2 4909   3.767   1.986   4.248 -1.2286 -3.0065  1.0306
 1649TIP3   OH2 4910   2.979   1.253   1.503  0.0172  0.7270  0.1169
 1649TIP3    H1 4911   2.946   1.192   1.438 -0.5424  1.0921  0.0558
 1649TIP3    H2 4912   2.901   1.293   1.542  0.3318  0.4151  1.1099
 1650TIP3   OH2 4913   6.151   3.666   3.443  0.2362  0.1057  0.2279
 1650TIP3    H1 4914   6.123   3.601   3.508  0.5877  0.1120  0.3885
 1650TIP3    H2 4915   6.109   3.747   3.472 -1.2513 -0.3035 -0.6985
 1651TIP3   OH2 4916   2.807   1.553   5.818  0.5221 -0.6048  0.1140
 1651TIP3    H1 4917   2.779   1.594   5.737 -2.0172 -1.1028  0.6546
 1651TIP3    H2 4918   2.785   1.616   5.886  0.5829 -1.0845  0.5904
 1652TIP3   OH2 4919   2.793   1.591   2.852 -0.5954 -0.7213  0.1847
 1652TIP3    H1 4920   2.849   1.556   2.921  1.5886  1.3781 -0.3956
 1652TIP3    H2 4921   2.726   1.524   2.840  1.0780 -2.8424  1.7652
 1653TIP3   OH2 4922   0.516   4.881   1.959  0.1837  0.0322  0.4715
 1653TIP3    H1 4923   0.578   4.846   1.895 -0.7284  0.1634 -0.5101
 1653TIP3    H2 4924   0.473   4.954   1.915 -0.7660 -0.1374  1.0788
 1654TIP3   OH2 4925   5.884   2.851   2.414  0.1379  0.0306 -0.0806
 1654TIP3    H1 4926   5.902   2.761   2.440 -0.4845 -0.0039  0.2390
 1654TIP3    H2 4927   5.896   2.851   2.319 -2.9581 -1.1808 -0.5754
 1655TIP3   OH2 4928   1.246   5.013   1.135 -0.2815  0.1340 -0.3381
 1655TIP3    H1 4929   1.312   4.952   1.101  0.4820 -0.1537  1.5448
 1655TIP3    H2 4930   1.167   4.959   1.144 -0.2443 -0.0022 -0.8083
 1656TIP3   OH2 4931   6.199   3.032   3.954 -0.2660 -0.4474 -0.1633
 1656TIP3    H1 4932   6.149   2.992   3.882  0.3253 -1.1843 -0.1776
 1656TIP3    H2 4933   6.234   2.958   4.003 -0.5284  0.0551  0.8004
 1657TIP3   OH2 4934   4.319   4.841   5.007  0.4989  0.9586 -0.0314
 1657TIP3    H1 4935   4.323   4.780   4.934  1.0388  0.7113  0.2051
 1657TIP3    H2 4936   4.326   4.786   5.085  1.4110  1.3486  0.1749
 1658TIP3   OH2 4937   1.835   0.870   1.445  0.4534 -0.0839  0.4964
 1658TIP3    H1 4938   1.787   0.838   1.369  1.8805  1.5894 -1.1852
 1658TIP3    H2 4939   1.797   0.956   1.464  1.1743  0.2027  0.6685
 1659TIP3   OH2 4940   5.964   1.917   5.220  0.3953  0.5213 -0.2900
 1659TIP3    H1 4941   6.017   1.995   5.206  0.9812  0.2463  0.3452
 1659TIP3    H2 4942   6.007   1.871   5.293 -0.1972 -0.1620 -0.3589
 1660TIP3   OH2 4943   5.983   2.299   4.606  0.0682  0.0144 -0.6367
 1660TIP3    H1 4944   5.969   2.393   4.618  0.3693  0.0123 -0.2775
 1660TIP3    H2 4945   6.077   2.291   4.589  0.1062 -0.2628 -0.2953
 1661TIP3   OH2 4946   6.272   3.079   3.252  0.1583  0.4922  0.2322
 1661TIP3    H1 4947   6.331   3.101   3.324  0.1655  1.6006 -0.0821
 1661TIP3    H2 4948   6.184   3.097   3.287 -0.0585 -1.4029  0.7878
 1662TIP3   OH2 4949   3.348   2.510   4.900 -0.3830 -0.3531 -0.6092
 1662TIP3    H1 4950   3.406   2.469   4.965  0.1110 -0.3937 -1.0684
 1662TIP3    H2 4951   3.300   2.576   4.950  1.7452  1.3402 -0.6384
 1663TIP3   OH2 4952   1.110   0.844   3.400  0.3741  0.6490  0.1660
 1663TIP3    H1 4953   1.044   0.869   3.464 -2.0797 -0.4263 -1.7680
 1663TIP3    H2 4954   1.114   0.748   3.405 -0.0361  0.5249 -1.3812
 1664TIP3   OH2 4955   5.434   0.113   0.162 -0.8337 -0.3639 -0.5803
 1664TIP3    H1 4956   5.460   0.140   0.074 -1.4679 -0.3734 -0.7755
 1664TIP3    H2 4957   5.345   0.146   0.172 -0.2328  0.9856  0.6406
 1665TIP3   OH2 4958   3.351   6.817   0.626 -0.2312  0.3462  0.2597
 1665TIP3    H1 4959   3.273   6.766   0.609 -1.2029  2.1997 -1.2000
 1665TIP3    H2 4960   3.401   6.815   0.544  1.0082 -0.3542  0.9964
 1666TIP3   OH2 4961   3.983   5.443   2.353  0.2463  0.2680  0.4041
 1666TIP3    H1 4962   4.036   5.383   2.406  2.5321  1.4072 -0.4576
 1666TIP3    H2 4963   4.036   5.458   2.275 -1.2862  1.6679 -0.4119
 1667TIP3   OH2 4964   6.032   2.622   4.580 -0.2821 -0.2942  0.2462
 1667TIP3    H1 4965   5.951   2.584   4.614 -0.2672 -0.9722 -0.4514
 1667TIP3    H2 4966   6.044   2.702   4.632 -1.5956  0.0167  0.1133
 1668TIP3   OH2 4967   5.170   0.392   2.065  0.5868 -0.6533 -0.5208
 1668TIP3    H1 4968   5.261   0.364   2.057  1.2584  1.3627 -0.5567
 1668TIP3    H2 4969   5.142   0.407   1.975  0.5531 -0.3194 -0.4563
 1669TIP3   OH2 4970   5.275   5.739   4.880 -0.0377 -0.6352  0.1839
 1669TIP3    H1 4971   5.302   5.742   4.972  0.5975 -0.0466 -0.0094
 1669TIP3    H2 4972   5.187   5.703   4.882  0.2812 -1.3976  0.9552
 1670TIP3   OH2 4973   5.898   5.099   4.440 -0.1214  0.0319  0.3781
 1670TIP3    H1 4974   5.926   5.030   4.380  0.3867  0.1201  0.5097
 1670TIP3    H2 4975   5.945   5.177   4.410  0.7290 -0.0948  1.3539
 1671TIP3   OH2 4976   3.769   1.341   4.094  0.5665 -0.3543  0.0568
 1671TIP3    H1 4977   3.814   1.302   4.168 -1.4512 -0.5850  1.2416
 1671TIP3    H2 4978   3.678   1.312   4.103 -0.2336  1.5546 -1.1658
 1672TIP3   OH2 4979   3.323   4.838   0.959 -0.0585 -0.9099 -0.1702
 1672TIP3    H1 4980   3.228   4.831   0.952 -0.1471 -0.6526  0.6362
 1672TIP3    H2 4981   3.348   4.898   0.890 -0.9362  2.0924  1.9136
 1673TIP3   OH2 4982   3.604   6.636   0.818  0.5091 -0.4801 -0.4158
 1673TIP3    H1 4983   3.592   6.719   0.771 -0.5240 -0.4291 -0.0761
 1673TIP3    H2 4984   3.519   6.619   0.859  1.0364 -1.1553  0.4159
 1674TIP3   OH2 4985   4.412   5.160   0.903 -0.8099 -0.0586  0.1531
 1674TIP3    H1 4986   4.370   5.092   0.850 -1.4941 -0.2259  0.8911
 1674TIP3    H2 4987   4.361   5.162   0.984 -0.1989  0.6666  0.5302
 1675TIP3   OH2 4988   5.323   1.587   3.692  0.1947 -0.0642 -0.4052
 1675TIP3    H1 4989   5.408   1.614   3.657 -0.6671  0.8411 -1.9274
 1675TIP3    H2 4990   5.259   1.637   3.641 -1.2833 -1.1797  0.2732
 1676TIP3   OH2 4991   6.702   2.118   3.244  0.2115  0.4552  0.4781
 1676TIP3    H1 4992   6.728   2.209   3.232  1.1176  0.0697 -0.7117
 1676TIP3    H2 4993   6.630   2.105   3.182 -1.1942  0.8293  1.9615
 1677TIP3   OH2 4994   0.655   5.004   5.425 -0.2075 -0.3160 -0.2049
 1677TIP3    H1 4995   0.676   5.056   5.502 -0.1559 -0.3128 -0.2213
 1677TIP3    H2 4996   0.560   4.994   5.428 -0.2831  0.2586 -0.5099
 1678TIP3   OH2 4997   6.762   6.689   2.139 -0.5103  0.5202  0.1094
 1678TIP3    H1 4998   6.780   6.771   2.093  0.7662  0.6504  0.7966
 1678TIP3    H2 4999   6.694   6.712   2.203 -2.0742  0.4042 -1.4419
 1679TIP3   OH2 5000   6.430   6.660   3.809 -0.2862  0.7960 -0.8210
 1679TIP3    H1 5001   6.372   6.631   3.739 -0.0100 -1.1793 -0.2952
 1679TIP3    H2 5002   6.514   6.676   3.765  0.4423 -2.2524 -0.8162
 1680TIP3   OH2 5003   2.613   3.820   3.435  0.0328 -0.3841  0.6631
 1680TIP3    H1 5004   2.594   3.729   3.413  0.6171 -0.1910 -0.7716
 1680TIP3    H2 5005   2.534   3.851   3.478 -0.8536 -1.0827 -0.4014
 1681TIP3   OH2 5006   1.564   3.909   5.370 -0.0314 -0.4277  0.4380
 1681TIP3    H1 5007   1.501   3.885   5.437 -1.2901  0.3610 -0.4280
 1681TIP3    H2 5008   1.514   3.910   5.289  0.3962  2.8200  0.0770
 1682TIP3   OH2 5009   1.777   3.944   3.802  0.4799 -0.1521 -0.3948
 1682TIP3    H1 5010   1.740   3.894   3.729  1.8903 -3.2419  0.8305
 1682TIP3    H2 5011   1.853   3.893   3.830 -0.1143  0.7275  3.3707
 1683TIP3   OH2 5012   0.556   5.398   0.486 -0.2127  0.0318 -0.1177
 1683TIP3    H1 5013   0.557   5.416   0.392 -2.0289  0.3608 -0.1031
 1683TIP3    H2 5014   0.529   5.307   0.493  0.1144 -0.0532  0.0981
 1684TIP3   OH2 5015   1.325   5.325   4.317 -0.0877 -0.2698 -0.4587
 1684TIP3    H1 5016   1.363   5.261   4.258  0.9013  0.0239 -0.1608
 1684TIP3    H2 5017   1.383   5.326   4.393 -0.9499 -0.1434  0.2200
 1685TIP3   OH2 5018   5.609   3.655   5.015 -0.5590  0.4552 -0.1145
 1685TIP3    H1 5019   5.653   3.684   5.095 -1.4932  1.1032  0.1852
 1685TIP3    H2 5020   5.580   3.736   4.972 -2.2814  0.0482  0.1957
 1686TIP3   OH2 5021   5.456   4.298   1.393  0.6134 -0.0372 -0.2641
 1686TIP3    H1 5022   5.377   4.287   1.445 -0.1064 -0.6558 -1.4476
 1686TIP3    H2 5023   5.431   4.271   1.305  1.5549  1.7500 -1.1451
 1687TIP3   OH2 5024   3.135   5.911   4.222  0.1485 -0.2404 -0.4463
 1687TIP3    H1 5025   3.106   5.832   4.268 -0.7853  0.8531  0.9311
 1687TIP3    H2 5026   3.059   5.937   4.169  0.7208 -0.6641 -1.5204
 1688TIP3   OH2 5027   1.870   3.166   3.217 -0.0816  0.1091 -0.0638
 1688TIP3    H1 5028   1.896   3.074   3.206 -0.5722  0.1324 -1.6266
 1688TIP3    H2 5029   1.953   3.213   3.229  0.1508 -0.5592  1.2276
 1689TIP3   OH2 5030   5.502   2.267   5.066  0.4253 -0.2740 -0.0456
 1689TIP3    H1 5031   5.478   2.332   5.000 -0.5717  0.3246  0.8781
 1689TIP3    H2 5032   5.597   2.258   5.057  0.2127 -1.0380 -2.2915
 1690TIP3   OH2 5033   3.051   0.297   3.466  0.7205 -0.0042 -0.0793
 1690TIP3    H1 5034   2.999   0.241   3.408  0.8529 -0.4944  0.2691
 1690TIP3    H2 5035   3.045   0.255   3.552  0.8821  0.4795  0.1754
 1691TIP3   OH2 5036   4.435   6.701   3.501  0.0993 -0.3884  0.0073
 1691TIP3    H1 5037   4.358   6.646   3.516 -0.2285  0.3623  1.1352
 1691TIP3    H2 5038   4.437   6.762   3.574  0.5755  0.9831 -1.0952
 1692TIP3   OH2 5039   3.895   5.587   0.737  0.0890 -0.4238 -0.1589
 1692TIP3    H1 5040   3.817   5.635   0.765  0.3544  0.8532 -1.4792
 1692TIP3    H2 5041   3.967   5.629   0.785 -0.0051 -1.6675  1.1376
 1693TIP3   OH2 5042   1.143   1.384   0.308  0.7514 -1.1033 -0.0013
 1693TIP3    H1 5043   1.193   1.374   0.389  0.2395  1.5586  0.7571
 1693TIP3    H2 5044   1.131   1.295   0.275  0.8588 -2.2937  2.9113
 1694TIP3   OH2 5045   6.853   6.356   4.617  0.4037 -0.5994 -0.2275
 1694TIP3    H1 5046   6.912   6.336   4.544  1.1503  0.8942 -0.0814
 1694TIP3    H2 5047   6.911   6.387   4.687 -0.5800  2.6529 -0.6779
 1695TIP3   OH2 5048   6.160   0.775   2.663 -0.4283 -0.3514  0.1984
 1695TIP3    H1 5049   6.074   0.814   2.647 -0.6838 -1.1606 -0.4544
 1695TIP3    H2 5050   6.196   0.759   2.576  0.1803 -0.4765  0.4663
 1696TIP3   OH2 5051   0.434   4.508   3.529  0.0981 -0.2174 -0.1301
 1696TIP3    H1 5052   0.501   4.560   3.484 -1.6747  1.1134 -1.3515
 1696TIP3    H2 5053   0.373   4.483   3.460 -2.2349  1.1136  1.3473
 1697TIP3   OH2 5054   2.845   6.439   3.770 -0.0598 -0.3625  0.1509
 1697TIP3    H1 5055   2.835   6.525   3.731  2.6279  0.5466  1.2117
 1697TIP3    H2 5056   2.875   6.456   3.859  2.5815 -2.3181 -0.2224
 1698TIP3   OH2 5057   4.547   3.340   3.629 -0.4141 -0.8703 -0.2275
 1698TIP3    H1 5058   4.617   3.338   3.693  0.2126  0.8117 -0.7981
 1698TIP3    H2 5059   4.527   3.433   3.618 -0.9278 -1.1468 -2.0086
 1699TIP3   OH2 5060   6.332   5.208   1.443 -0.0456 -0.3339 -0.0210
 1699TIP3    H1 5061   6.340   5.188   1.536  2.5338 -0.2850 -0.1470
 1699TIP3    H2 5062   6.277   5.139   1.407  1.0932 -1.9118  1.1353
 1700TIP3   OH2 5063   6.599   2.911   3.460  0.4327  0.2678 -0.2051
 1700TIP3    H1 5064   6.608   2.977   3.529  0.3257  0.3584 -0.2770
 1700TIP3    H2 5065   6.645   2.950   3.385 -0.9401  0.9544 -0.7323
 1701TIP3   OH2 5066   2.883   0.556   2.512  0.1266  0.4494  0.0592
 1701TIP3    H1 5067   2.842   0.483   2.557  0.3982  1.3331  1.8171
 1701TIP3    H2 5068   2.835   0.564   2.430 -1.4011 -0.2571  0.8578
 1702TIP3   OH2 5069   0.844   1.965   2.352 -0.3289  0.1758 -0.0017
 1702TIP3    H1 5070   0.814   2.033   2.292  0.0582  0.2448 -0.1186
 1702TIP3    H2 5071   0.911   2.008   2.406  2.0514 -0.8216 -1.9758
 1703TIP3   OH2 5072   0.450   3.563   1.579 -0.0558 -0.2073 -0.4478
 1703TIP3    H1 5073   0.394   3.566   1.502  1.0305 -0.1429 -1.2684
 1703TIP3    H2 5074   0.487   3.651   1.585 -0.8594  0.0783  0.7369
 1704TIP3   OH2 5075   5.704   1.263   4.179  1.0143 -0.5053 -0.6964
 1704TIP3    H1 5076   5.648   1.320   4.231  0.0117 -1.0487 -1.1436
 1704TIP3    H2 5077   5.791   1.270   4.219  0.3801 -0.5279  0.7339
 1705TIP3   OH2 5078   2.565   3.587   0.535  0.0400  0.2016  0.8199
 1705TIP3    H1 5079   2.636   3.534   0.500  0.7343  1.4606  0.2649
 1705TIP3    H2 5080   2.563   3.565   0.629  0.4985 -0.5693  0.6576
 1706TIP3   OH2 5081   6.577   4.086   3.479  0.1024  0.2458 -0.4455
 1706TIP3    H1 5082   6.671   4.066   3.478  0.1207 -0.7585  3.7068
 1706TIP3    H2 5083   6.535   4.005   3.507 -1.8644  1.1153 -0.7133
 1707TIP3   OH2 5084   4.628   5.631   5.015  0.0600 -0.7660 -0.3355
 1707TIP3    H1 5085   4.533   5.624   5.018  0.1059 -1.3361  0.0588
 1707TIP3    H2 5086   4.659   5.565   5.078  0.6903 -0.0101  0.1735
 1708TIP3   OH2 5087   5.145   3.327   0.592  0.2468  0.4187 -0.2686
 1708TIP3    H1 5088   5.118   3.321   0.684 -0.6896  0.9308 -0.5005
 1708TIP3    H2 5089   5.235   3.294   0.592 -0.5907 -2.0681  0.4163
 1709TIP3   OH2 5090   6.827   6.611   2.710  0.1461  0.3543 -0.3623
 1709TIP3    H1 5091   6.866   6.651   2.788 -0.2660  0.5851 -0.2707
 1709TIP3    H2 5092   6.844   6.517   2.721 -0.1402  0.3529  0.1473
 1710TIP3   OH2 5093   2.737   4.655   2.531  0.0032  0.0081  0.5570
 1710TIP3    H1 5094   2.796   4.606   2.590  1.2413  1.5596  0.6704
 1710TIP3    H2 5095   2.791   4.725   2.496 -1.8398  1.6455  0.8165
 1711TIP3   OH2 5096   5.748   2.598   2.307  0.1825 -0.6392 -0.1736
 1711TIP3    H1 5097   5.785   2.596   2.219 -0.0663 -0.4376 -0.2835
 1711TIP3    H2 5098   5.783   2.519   2.349  0.3622 -0.6974 -0.4259
 1712TIP3   OH2 5099   4.994   2.788   1.034  0.0081 -0.7300 -0.2928
 1712TIP3    H1 5100   4.962   2.873   1.004  2.1690  0.2090 -0.1259
 1712TIP3    H2 5101   4.919   2.729   1.025 -1.1099  0.8465 -1.8540
 1713TIP3   OH2 5102   4.448   2.409   2.072  0.3836  0.1978 -0.2295
 1713TIP3    H1 5103   4.394   2.366   2.006  1.4256 -1.9313  0.2279
 1713TIP3    H2 5104   4.386   2.431   2.142 -0.2501 -0.1275 -0.6710
 1714TIP3   OH2 5105   5.644   2.146   1.309 -0.5543  0.3882 -0.2614
 1714TIP3    H1 5106   5.599   2.229   1.291  2.2346  1.8172 -1.2161
 1714TIP3    H2 5107   5.690   2.127   1.227  0.2422 -1.1937  0.5336
 1715TIP3   OH2 5108   0.166   6.367   1.227 -0.2328 -0.2280  0.0504
 1715TIP3    H1 5109   0.115   6.331   1.300 -0.7741  0.7833  0.2010
 1715TIP3    H2 5110   0.215   6.439   1.267 -1.1469  0.8509 -0.7232
 1716TIP3   OH2 5111   0.331   4.494   1.321  0.9851 -0.5081 -0.0220
 1716TIP3    H1 5112   0.348   4.536   1.237 -1.4944  1.4412  0.3400
 1716TIP3    H2 5113   0.243   4.457   1.312  0.9545 -0.8686  1.4907
 1717TIP3   OH2 5114   4.942   3.879   3.573  0.0555  0.4585  0.4682
 1717TIP3    H1 5115   4.993   3.953   3.605  0.7758  0.4546 -0.6209
 1717TIP3    H2 5116   4.858   3.917   3.546  0.2647  0.8151  0.3099
 1718TIP3   OH2 5117   3.526   5.972   5.471 -0.0710 -0.0942 -0.4879
 1718TIP3    H1 5118   3.609   5.939   5.438  0.2300  1.1126 -1.0208
 1718TIP3    H2 5119   3.463   5.903   5.452  0.9695 -1.5021  0.8966
 1719TIP3   OH2 5120   6.144   3.530   1.368  0.3281 -0.3199 -0.3431
 1719TIP3    H1 5121   6.162   3.504   1.458  0.9883 -2.3361 -1.0027
 1719TIP3    H2 5122   6.116   3.622   1.374 -2.0748 -1.1135  2.1652
 1720TIP3   OH2 5123   2.866   2.781   2.725 -0.0608 -0.2074  0.6021
 1720TIP3    H1 5124   2.783   2.770   2.679  0.2495 -0.9385  0.2075
 1720TIP3    H2 5125   2.856   2.864   2.772 -1.8962 -1.3460  2.4061
 1721TIP3   OH2 5126   5.250   4.709   3.614  0.1228  0.0949  0.3890
 1721TIP3    H1 5127   5.245   4.800   3.642 -1.0843  0.2965 -0.4348
 1721TIP3    H2 5128   5.180   4.699   3.550  1.2880 -0.9698 -0.7939
 1722TIP3   OH2 5129   0.105   5.697   0.834  0.6877 -0.1122  0.1632
 1722TIP3    H1 5130   0.011   5.712   0.847  0.6270 -0.1132 -0.2624
 1722TIP3    H2 5131   0.146   5.737   0.911  0.2127 -1.8687  1.4036
 1723TIP3   OH2 5132   1.276   4.971   5.106 -0.1963 -0.4363  0.8467
 1723TIP3    H1 5133   1.185   4.941   5.099 -0.2453 -0.3391  1.0541
 1723TIP3    H2 5134   1.290   4.985   5.200  0.0066 -0.3705  0.8073
 1724TIP3   OH2 5135   3.993   1.369   3.785 -0.0567 -0.5075  0.4187
 1724TIP3    H1 5136   3.911   1.388   3.740  0.9196 -2.1282 -2.2590
 1724TIP3    H2 5137   4.054   1.435   3.752  0.4892 -1.2355 -0.0284
 1725TIP3   OH2 5138   6.294   1.138   3.541 -0.6599  0.5484  0.0165
 1725TIP3    H1 5139   6.254   1.209   3.492  1.4138  0.8750 -1.2930
 1725TIP3    H2 5140   6.334   1.180   3.617  1.5047  1.0291 -1.3149
 1726TIP3   OH2 5141   0.982   0.031   5.091  0.3613  0.0830 -0.6029
 1726TIP3    H1 5142   1.019   0.118   5.077  1.2696  0.3505  2.5438
 1726TIP3    H2 5143   0.890   0.047   5.111  0.6307  0.4062  0.4286
 1727TIP3   OH2 5144   7.133   6.694   3.680 -0.2149  0.2402  0.1759
 1727TIP3    H1 5145   7.228   6.695   3.697 -0.0032  2.7270 -0.7700
 1727TIP3    H2 5146   7.120   6.616   3.626  1.1685 -0.5382  0.8943
 1728TIP3   OH2 5147   4.037   4.890   2.102  0.4905  0.5419  0.2079
 1728TIP3    H1 5148   3.941   4.886   2.101  0.4979 -0.0186  1.0262
 1728TIP3    H2 5149   4.059   4.922   2.189  1.0504  0.8099 -0.0242
 1729TIP3   OH2 5150   5.810   2.395   2.785  0.5425 -0.4661  0.8884
 1729TIP3    H1 5151   5.747   2.440   2.727  2.2806 -0.6674 -1.2797
 1729TIP3    H2 5152   5.836   2.462   2.848 -0.9611 -0.0582  1.1218
 1730TIP3   OH2 5153   1.818   1.021   0.536  0.2050 -0.1189  0.1301
 1730TIP3    H1 5154   1.754   0.965   0.491 -0.4190 -0.0664  0.9351
 1730TIP3    H2 5155   1.893   1.025   0.475 -0.5788 -0.1132 -0.8640
 1731TIP3   OH2 5156   7.123   2.633   3.010  0.2114  0.7770  0.4007
 1731TIP3    H1 5157   7.144   2.719   2.974 -2.5092  1.2960 -0.1123
 1731TIP3    H2 5158   7.148   2.571   2.941  1.3108  1.2031  0.4008
 1732TIP3   OH2 5159   6.697   5.039   3.404  0.0775 -0.5649 -0.8776
 1732TIP3    H1 5160   6.649   5.118   3.380 -1.0654 -1.0467 -0.2089
 1732TIP3    H2 5161   6.720   4.999   3.319  1.7426  1.0757 -1.2585
 1733TIP3   OH2 5162   6.313   5.362   4.253 -0.1674  0.0531 -0.7391
 1733TIP3    H1 5163   6.377   5.381   4.184  1.8727 -1.1324  0.6902
 1733TIP3    H2 5164   6.351   5.401   4.332 -1.1147 -0.8768  0.2057
 1734TIP3   OH2 5165   1.914   5.052   3.961  0.4098 -0.0334  0.1538
 1734TIP3    H1 5166   1.968   5.037   4.038 -0.4753 -1.0884  0.5981
 1734TIP3    H2 5167   1.964   5.013   3.889  0.9849  0.4703  0.2699
 1735TIP3   OH2 5168   5.892   1.628   5.074  0.2450  0.2559 -0.2402
 1735TIP3    H1 5169   5.822   1.678   5.032  0.9566  0.7496 -0.8725
 1735TIP3    H2 5170   5.972   1.676   5.052  0.7771 -0.2586  0.5271
 1736TIP3   OH2 5171   4.143   5.579   1.503 -0.5332 -0.3517  0.3564
 1736TIP3    H1 5172   4.206   5.606   1.570 -0.2038  1.7092 -0.7070
 1736TIP3    H2 5173   4.146   5.484   1.504  0.7688 -0.3362  2.0268
 1737TIP3   OH2 5174   5.042   2.502   2.175  0.4944  0.1897  0.6718
 1737TIP3    H1 5175   5.113   2.504   2.239  1.5330  2.2340 -0.4468
 1737TIP3    H2 5176   5.080   2.458   2.099 -0.0049 -0.2162  0.6511
 1738TIP3   OH2 5177   3.776   0.978   1.442  0.7944  0.0109  0.2155
 1738TIP3    H1 5178   3.852   0.923   1.461  1.0454 -0.0556 -0.8799
 1738TIP3    H2 5179   3.756   1.022   1.524  1.4296 -0.6994  0.7567
 1739TIP3   OH2 5180   6.252   5.569   0.520  0.0826  0.1409 -0.0622
 1739TIP3    H1 5181   6.244   5.568   0.425 -1.6468  1.6084  0.0168
 1739TIP3    H2 5182   6.192   5.501   0.550 -1.4191  1.4500  0.0272
 1740TIP3   OH2 5183   1.804   6.012   2.997 -0.1912  0.0472  0.3289
 1740TIP3    H1 5184   1.884   6.026   2.946 -1.1226  2.0721 -0.6803
 1740TIP3    H2 5185   1.835   5.976   3.080  1.6072 -0.7556 -0.6307
 1741TIP3   OH2 5186   0.445   1.047   4.732 -1.0140  0.0107 -0.4955
 1741TIP3    H1 5187   0.436   0.954   4.712 -1.2540  0.0820 -0.7238
 1741TIP3    H2 5188   0.360   1.073   4.767 -0.4954 -0.1885  0.9727
 1742TIP3   OH2 5189   4.908   2.263   0.512  0.0114  0.0718  0.0826
 1742TIP3    H1 5190   4.935   2.171   0.517 -0.8554 -0.2232 -0.5635
 1742TIP3    H2 5191   4.849   2.267   0.437 -0.5679  1.0009  0.5726
 1743TIP3   OH2 5192   2.405   3.435   5.054  0.2192  0.5656  0.4980
 1743TIP3    H1 5193   2.416   3.425   5.149 -0.7693  0.8538  0.6482
 1743TIP3    H2 5194   2.495   3.440   5.021  0.5773  1.5429  1.5294
 1744TIP3   OH2 5195   2.989   2.076   1.815 -0.3289 -0.3478 -0.1365
 1744TIP3    H1 5196   2.930   2.001   1.810 -0.1419 -0.3875 -2.4404
 1744TIP3    H2 5197   2.932   2.150   1.840 -0.8583 -0.8753  0.2413
 1745TIP3   OH2 5198   2.051   2.238   2.355 -0.2960  0.0607 -0.0897
 1745TIP3    H1 5199   2.011   2.244   2.268  1.8838 -1.9648 -1.3415
 1745TIP3    H2 5200   2.112   2.165   2.348  0.2494  0.1011  3.0657
 1746TIP3   OH2 5201   3.618   3.032   2.258  0.7533  0.1000 -0.0757
 1746TIP3    H1 5202   3.589   2.971   2.190  0.5055 -0.5219  0.5686
 1746TIP3    H2 5203   3.628   3.115   2.213  1.8349 -0.5721 -1.1445
 1747TIP3   OH2 5204   6.301   1.277   0.004 -0.4903  0.2603 -0.1883
 1747TIP3    H1 5205   6.392   1.306   0.007 -0.7505  1.0171  0.8414
 1747TIP3    H2 5206   6.257   1.327   0.073 -1.2051 -1.7308  0.8864
 1748TIP3   OH2 5207   0.613   3.700   3.569  0.0428 -0.6165  0.2428
 1748TIP3    H1 5208   0.555   3.742   3.632 -0.2201 -1.0993  0.3242
 1748TIP3    H2 5209   0.690   3.758   3.566 -0.5322  0.1440 -0.0447
 1749TIP3   OH2 5210   3.603   2.604   1.010  0.6687 -0.4636  0.0864
 1749TIP3    H1 5211   3.541   2.653   1.063 -0.2523 -0.5479 -0.8785
 1749TIP3    H2 5212   3.639   2.669   0.950 -1.3714 -1.0772 -1.9477
 1750TIP3   OH2 5213   0.414   0.587   0.119 -0.0062 -0.2187 -0.0713
 1750TIP3    H1 5214   0.387   0.555   0.033  2.0028  0.0969 -0.8559
 1750TIP3    H2 5215   0.428   0.681   0.106  1.0594 -0.3063  0.4004
 1751TIP3   OH2 5216   4.444   4.148   0.104  0.3381  0.2276  0.2565
 1751TIP3    H1 5217   4.458   4.127   0.196  1.4237  1.0808  0.3097
 1751TIP3    H2 5218   4.349   4.137   0.091  0.5180 -2.5209  0.7579
 1752TIP3   OH2 5219   3.948   2.333   1.316 -0.3223  0.4059  0.7564
 1752TIP3    H1 5220   4.042   2.323   1.330 -0.5171 -1.3023  1.0879
 1752TIP3    H2 5221   3.911   2.346   1.403 -0.7840 -3.2542  1.2800
 1753TIP3   OH2 5222   6.532   1.737   5.054  0.0381  0.5681 -0.9296
 1753TIP3    H1 5223   6.534   1.682   5.132 -0.0809  0.8353 -0.7352
 1753TIP3    H2 5224   6.576   1.818   5.080  1.1423  0.1751 -1.5227
 1754TIP3   OH2 5225   1.104   3.896   1.186  0.2800 -0.2807 -0.0177
 1754TIP3    H1 5226   1.058   3.814   1.205  0.8075 -0.9941 -1.6524
 1754TIP3    H2 5227   1.181   3.869   1.135  0.7513  1.1807 -0.1105
 1755TIP3   OH2 5228   5.240   3.329   1.349  0.7778 -0.0363  0.2380
 1755TIP3    H1 5229   5.150   3.353   1.371 -0.8739 -3.2785 -2.0636
 1755TIP3    H2 5230   5.292   3.405   1.373 -2.5665  2.0329  1.6182
 1756TIP3   OH2 5231   1.035   1.992   0.505  0.3218 -0.6338  0.5868
 1756TIP3    H1 5232   1.092   2.067   0.483  1.6448 -1.5663  0.7015
 1756TIP3    H2 5233   1.031   1.993   0.601  2.1693 -1.9425  0.7417
 1757TIP3   OH2 5234   4.942   2.791   2.803  0.3790  0.1167 -0.0424
 1757TIP3    H1 5235   4.966   2.700   2.820 -0.5821  0.2865  2.6622
 1757TIP3    H2 5236   4.930   2.830   2.890 -1.2884  2.2809 -1.1297
 1758TIP3   OH2 5237   2.723   1.670   4.999  0.1515  0.0458 -0.0624
 1758TIP3    H1 5238   2.654   1.734   5.017 -0.7043 -0.9746  0.4462
 1758TIP3    H2 5239   2.710   1.603   5.067  2.4318  0.4203  0.8257
 1759TIP3   OH2 5240   3.416   6.399   0.135 -0.1927 -0.0336  0.5727
 1759TIP3    H1 5241   3.435   6.359   0.050 -1.0119 -1.4582  1.0184
 1759TIP3    H2 5242   3.391   6.489   0.115 -2.9151 -1.0397 -0.9947
 1760TIP3   OH2 5243   0.143   5.558   3.045 -0.2951  0.0869 -0.2817
 1760TIP3    H1 5244   0.113   5.601   2.966 -0.6306  0.2123 -0.0866
 1760TIP3    H2 5245   0.064   5.520   3.084 -0.2355  0.5470  0.3081
 1761TIP3   OH2 5246   2.194   5.552   4.145 -0.0066  0.5215 -0.5011
 1761TIP3    H1 5247   2.258   5.482   4.156 -0.2302  0.3601 -0.2166
 1761TIP3    H2 5248   2.158   5.539   4.057 -2.2963 -1.6263  0.6493
 1762TIP3   OH2 5249   3.456   3.359   1.928 -0.3922 -0.7854  0.0904
 1762TIP3    H1 5250   3.386   3.413   1.966  0.2372  0.0798  0.0510
 1762TIP3    H2 5251   3.431   3.348   1.837  1.7678  3.6338 -1.3523
 1763TIP3   OH2 5252   4.103   1.710   4.172 -0.0743  0.7202  0.1004
 1763TIP3    H1 5253   4.015   1.678   4.193  0.1530 -0.0610 -0.1318
 1763TIP3    H2 5254   4.143   1.640   4.121  0.6221  1.1495  0.0454
 1764TIP3   OH2 5255   3.772   6.123   0.101  0.4675  0.0755 -0.0738
 1764TIP3    H1 5256   3.742   6.191   0.162 -2.7217  0.1737 -1.5632
 1764TIP3    H2 5257   3.785   6.046   0.157 -0.0364  0.7901  1.0832
 1765TIP3   OH2 5258   3.656   4.968   5.043 -0.0028  0.8231 -0.0589
 1765TIP3    H1 5259   3.597   4.953   4.969 -0.4298  1.9074  0.0465
 1765TIP3    H2 5260   3.696   5.053   5.025  2.1561 -0.2356 -0.5297
 1766TIP3   OH2 5261   2.900   4.729   4.272  0.2158 -0.2902 -0.2753
 1766TIP3    H1 5262   2.903   4.658   4.207  0.4664  1.3483 -2.1259
 1766TIP3    H2 5263   2.847   4.797   4.231 -1.2239  0.1003  2.0544
 1767TIP3   OH2 5264   6.906   4.571   0.929 -0.3957  0.0687  0.5608
 1767TIP3    H1 5265   6.935   4.645   0.877 -0.3925 -0.7348 -0.6209
 1767TIP3    H2 5266   6.917   4.599   1.020  1.7374  0.6700  0.1505
 1768TIP3   OH2 5267   0.908   5.575   2.166  0.0395 -0.3254 -0.0471
 1768TIP3    H1 5268   0.933   5.512   2.099  2.5316 -0.3415  0.7828
 1768TIP3    H2 5269   0.941   5.659   2.134 -1.5688  0.2602 -0.2606
 1769TIP3   OH2 5270   7.079   5.082   3.237  0.6120 -0.3084 -0.5478
 1769TIP3    H1 5271   7.093   5.068   3.331  0.4162  1.0472 -0.2923
 1769TIP3    H2 5272   7.028   5.164   3.233  1.8930  0.4629 -1.8882
 1770TIP3   OH2 5273   5.394   5.853   2.076  0.4658 -0.1668 -0.7529
 1770TIP3    H1 5274   5.488   5.838   2.075  0.9061  1.9343  1.2288
 1770TIP3    H2 5275   5.383   5.940   2.038 -0.7578 -0.5765 -1.4035
 1771TIP3   OH2 5276   0.720   4.821   1.783  0.2380  0.3820 -0.8767
 1771TIP3    H1 5277   0.811   4.798   1.761  0.5404  0.2546  0.4031
 1771TIP3    H2 5278   0.668   4.747   1.752  0.8868 -0.8002  0.7079
 1772TIP3   OH2 5279   1.864   1.865   0.100  0.0101  0.1230 -0.3692
 1772TIP3    H1 5280   1.867   1.859   0.196  2.5791 -0.8708 -0.4280
 1772TIP3    H2 5281   1.921   1.794   0.070  0.5502  1.4082 -2.5927
 1773TIP3   OH2 5282   6.929   6.172   3.764  0.1731 -0.0908  0.0750
 1773TIP3    H1 5283   6.960   6.086   3.735  3.7904  0.7733  0.9790
 1773TIP3    H2 5284   6.878   6.152   3.843  1.7987 -1.3968  0.8642
 1774TIP3   OH2 5285   7.040   6.074   2.922  1.0584  0.3229 -0.5760
 1774TIP3    H1 5286   6.951   6.045   2.904  0.7342  0.8269  0.1917
 1774TIP3    H2 5287   7.094   5.997   2.902  0.3388 -0.4002  0.1599
 1775TIP3   OH2 5288   6.900   6.055   5.756 -0.1035  0.2748  0.2195
 1775TIP3    H1 5289   6.858   6.102   5.828  0.8365 -0.6733  1.4171
 1775TIP3    H2 5290   6.963   6.117   5.720  1.1431 -0.0162  1.7956
 1776TIP3   OH2 5291   6.181   1.459   0.191 -0.4907 -0.8934 -0.0091
 1776TIP3    H1 5292   6.200   1.544   0.153  0.3187 -1.4228 -0.8510
 1776TIP3    H2 5293   6.091   1.439   0.164 -0.3341 -0.7391 -0.6493
 1777TIP3   OH2 5294   2.725   6.468   2.200 -0.2723 -0.3651 -0.2288
 1777TIP3    H1 5295   2.787   6.433   2.137 -0.1092 -1.5345  0.5448
 1777TIP3    H2 5296   2.749   6.561   2.210  1.3540 -0.7927  0.0581
 1778TIP3   OH2 5297   2.817   1.279   0.223 -0.0448  0.3335 -0.1299
 1778TIP3    H1 5298   2.852   1.367   0.237  1.4657 -0.0810 -1.0786
 1778TIP3    H2 5299   2.778   1.282   0.136  0.3723 -0.0318 -0.3345
 1779TIP3   OH2 5300   7.118   2.747   2.296 -0.2391 -0.4546 -0.0225
 1779TIP3    H1 5301   7.118   2.747   2.200  0.2754  0.8079 -0.0337
 1779TIP3    H2 5302   7.130   2.655   2.320  0.1736 -0.7104 -1.1689
 1780TIP3   OH2 5303   5.664   1.594   0.522  0.0116 -0.5665  0.4848
 1780TIP3    H1 5304   5.644   1.520   0.580  0.1033  0.0500  1.3172
 1780TIP3    H2 5305   5.759   1.607   0.532 -0.2076  0.5064  1.3869
 1781TIP3   OH2 5306   0.227   6.768   5.118  0.2259 -0.3073 -0.0319
 1781TIP3    H1 5307   0.182   6.852   5.106  0.6873 -0.2842 -2.0031
 1781TIP3    H2 5308   0.319   6.788   5.101  0.8398 -0.6689  2.4266
 1782TIP3   OH2 5309   4.017   2.849   0.549  0.1278  0.5283 -0.0413
 1782TIP3    H1 5310   4.003   2.809   0.463  2.2317  1.0681 -0.6836
 1782TIP3    H2 5311   3.992   2.780   0.611  1.9773 -1.2378 -1.1146
 1783TIP3   OH2 5312   5.260   2.099   2.808 -0.0545 -0.0452 -0.1913
 1783TIP3    H1 5313   5.354   2.086   2.818 -0.0788 -0.2333 -0.2007
 1783TIP3    H2 5314   5.231   2.024   2.755 -0.1728  0.1301 -0.3740
 1784TIP3   OH2 5315   3.601   0.714   2.769 -0.1929 -0.0874 -0.3175
 1784TIP3    H1 5316   3.534   0.738   2.832 -1.1567 -0.0734 -1.3064
 1784TIP3    H2 5317   3.582   0.622   2.748  0.6038 -0.3311 -0.0098
 1785TIP3   OH2 5318   3.061   2.594   2.707 -0.1713  0.0013 -0.1149
 1785TIP3    H1 5319   3.016   2.512   2.686 -1.6627  1.0564 -1.1988
 1785TIP3    H2 5320   2.991   2.654   2.734  0.7441  1.2694 -0.4655
 1786TIP3   OH2 5321   2.314   6.532   1.309 -0.4699 -0.2100  0.4742
 1786TIP3    H1 5322   2.273   6.616   1.329  0.0569 -0.5028  2.9869
 1786TIP3    H2 5323   2.240   6.472   1.295 -0.8434  0.2728  0.3490
 1787TIP3   OH2 5324   2.031   3.110   4.670  0.0191 -0.0020 -0.3390
 1787TIP3    H1 5325   1.981   3.110   4.588  1.2835  2.3460 -1.2281
 1787TIP3    H2 5326   2.069   3.198   4.673  0.5907 -0.2824  2.4453
 1788TIP3   OH2 5327   1.442   2.652   2.847  0.1940  0.0044 -0.1748
 1788TIP3    H1 5328   1.492   2.722   2.889  0.9495 -0.6009 -0.0497
 1788TIP3    H2 5329   1.409   2.599   2.919 -3.3870  2.1321 -0.0115
 1789TIP3   OH2 5330   1.460   5.970   0.831 -0.4486 -0.1248 -0.5980
 1789TIP3    H1 5331   1.514   5.892   0.849  0.3893  0.3202 -1.1374
 1789TIP3    H2 5332   1.409   5.947   0.754 -2.0681 -1.0438  0.6739
 1790TIP3   OH2 5333   1.604   3.889   2.524 -0.2629  0.4705 -0.3148
 1790TIP3    H1 5334   1.691   3.930   2.532  0.1382 -0.5354  0.7593
 1790TIP3    H2 5335   1.547   3.944   2.578  0.0103  0.3338  0.1200
 1791TIP3   OH2 5336   2.972   6.019   5.652  0.2312  0.6737  0.2370
 1791TIP3    H1 5337   2.884   6.043   5.681  0.4903  1.1762  0.6238
 1791TIP3    H2 5338   3.016   5.985   5.730  0.6191  1.1370  0.2312
 1792TIP3   OH2 5339   3.887   2.554   1.763  0.0908 -0.4074  0.4303
 1792TIP3    H1 5340   3.857   2.494   1.695  0.0736  0.0568  0.0270
 1792TIP3    H2 5341   3.977   2.526   1.781 -0.1430 -0.9821  0.7282
 1793TIP3   OH2 5342   4.015   5.444   5.071  0.3321  0.6601 -0.1579
 1793TIP3    H1 5343   3.998   5.427   5.164  0.5393  0.4674 -0.1542
 1793TIP3    H2 5344   4.111   5.451   5.066  0.3532  0.1492 -0.4463
 1794TIP3   OH2 5345   1.492   6.632   1.269  0.4443 -0.4690 -0.4366
 1794TIP3    H1 5346   1.544   6.636   1.189  0.9020 -2.3651 -0.3010
 1794TIP3    H2 5347   1.509   6.715   1.314  3.6127 -1.0770 -0.2943
 1795TIP3   OH2 5348   2.351   5.327   5.111  0.2467 -0.6830 -0.3147
 1795TIP3    H1 5349   2.368   5.420   5.101  1.2202 -0.8040  0.0800
 1795TIP3    H2 5350   2.393   5.286   5.036  2.2292 -1.0272  0.9039
 1796TIP3   OH2 5351   2.840   0.724   5.263 -0.5631 -0.3580  0.4757
 1796TIP3    H1 5352   2.756   0.771   5.268 -1.2525 -1.4378 -0.5621
 1796TIP3    H2 5353   2.905   0.793   5.251 -1.3523  0.4619  0.7956
 1797TIP3   OH2 5354   3.326   4.126   0.764 -0.0528  0.5663  0.1520
 1797TIP3    H1 5355   3.289   4.068   0.697  1.5380 -0.3827  0.0600
 1797TIP3    H2 5356   3.282   4.099   0.845 -0.9562  0.7642 -0.2603
 1798TIP3   OH2 5357   2.739   1.063   3.544 -0.4915  0.5067  0.0028
 1798TIP3    H1 5358   2.804   1.002   3.508 -0.4630 -0.7801  2.0757
 1798TIP3    H2 5359   2.677   1.076   3.471  1.6152  1.2068 -1.7785
 1799TIP3   OH2 5360   4.585   3.265   1.733 -0.3870  0.2545  0.1900
 1799TIP3    H1 5361   4.651   3.296   1.795  1.1429 -1.2658 -0.6178
 1799TIP3    H2 5362   4.502   3.291   1.773  0.5652 -0.0740  2.5661
 1800TIP3   OH2 5363   1.407   6.703   4.725  0.2482 -0.7943 -0.3955
 1800TIP3    H1 5364   1.331   6.645   4.724  0.7774 -1.5345  0.5403
 1800TIP3    H2 5365   1.454   6.681   4.645  0.4139 -1.6370 -0.0829
 1801TIP3   OH2 5366   1.176   5.607   0.855  0.0083  0.7777 -0.3287
 1801TIP3    H1 5367   1.098   5.657   0.877 -0.5495 -0.8213  1.6814
 1801TIP3    H2 5368   1.144   5.519   0.834  1.2017  0.2172  0.0571
 1802TIP3   OH2 5369   1.871   4.484   2.234  0.0976  0.4997 -0.2601
 1802TIP3    H1 5370   1.899   4.559   2.287  0.6296 -0.1285  0.3837
 1802TIP3    H2 5371   1.830   4.425   2.297  1.3405 -0.5626 -0.4030
 1803TIP3   OH2 5372   7.078   1.179   0.870  0.2829  0.0247 -0.0023
 1803TIP3    H1 5373   7.167   1.202   0.894  0.7478  0.9127 -2.3838
 1803TIP3    H2 5374   7.076   1.181   0.775 -2.3890  0.4839 -0.0408
 1804TIP3   OH2 5375   3.965   4.633   3.421 -0.7778 -0.0650  0.0617
 1804TIP3    H1 5376   3.965   4.725   3.447 -1.1633  0.2679 -1.0574
 1804TIP3    H2 5377   4.025   4.590   3.483 -0.4656  0.9650  0.4880
 1805TIP3   OH2 5378   4.894   4.264   1.644  0.1295  0.6340  0.3644
 1805TIP3    H1 5379   4.849   4.305   1.571 -0.7197 -2.9496 -1.3671
 1805TIP3    H2 5380   4.985   4.257   1.616 -0.4653 -2.1539 -1.2640
 1806TIP3   OH2 5381   3.696   4.028   1.100  0.3755  0.1356  0.5034
 1806TIP3    H1 5382   3.607   4.030   1.064 -0.7056  3.2193  2.9038
 1806TIP3    H2 5383   3.719   3.935   1.101 -2.2830 -0.6708 -1.3649
 1807TIP3   OH2 5384   3.190   4.080   1.005 -0.0739  0.0506 -0.3385
 1807TIP3    H1 5385   3.136   4.152   1.037 -1.0639  1.3193 -4.2841
 1807TIP3    H2 5386   3.128   4.013   0.977  0.6746 -0.7412 -0.1732
 1808TIP3   OH2 5387   1.466   2.288   1.196  0.1545  0.1339  0.3149
 1808TIP3    H1 5388   1.391   2.305   1.139  0.2653 -0.0066  0.1248
 1808TIP3    H2 5389   1.536   2.343   1.161  0.4047 -0.4105 -0.0717
 1809TIP3   OH2 5390   6.478   1.922   5.604 -0.2725 -0.1511 -0.5569
 1809TIP3    H1 5391   6.442   2.010   5.591 -1.4682 -0.6218 -0.5236
 1809TIP3    H2 5392   6.417   1.864   5.558 -0.8290 -1.1904  1.3957
 1810TIP3   OH2 5393   3.332   6.439   4.541 -0.4107  0.0389 -0.3162
 1810TIP3    H1 5394   3.309   6.470   4.628  1.0076  2.1268 -0.6090
 1810TIP3    H2 5395   3.308   6.346   4.541 -2.9524  0.6079  1.3427
 1811TIP3   OH2 5396   0.093   5.893   5.237  0.3628 -0.6257  0.0137
 1811TIP3    H1 5397   0.098   5.798   5.227  0.0704 -0.5449 -0.9698
 1811TIP3    H2 5398   0.088   5.906   5.331  0.5189 -1.5810  0.1694
 1812TIP3   OH2 5399   4.763   5.696   2.630  0.7741 -0.4378 -0.1116
 1812TIP3    H1 5400   4.750   5.788   2.655  2.3587 -0.1728 -0.1460
 1812TIP3    H2 5401   4.808   5.701   2.546  0.1290 -1.2715 -0.5183
 1813TIP3   OH2 5402   0.724   1.909   3.971 -0.5362  0.0318  0.3819
 1813TIP3    H1 5403   0.790   1.887   4.037 -2.8837  0.8767  3.2308
 1813TIP3    H2 5404   0.718   2.004   3.975  0.4548  0.3186 -2.4601
 1814TIP3   OH2 5405   0.264   5.503   2.090  0.4955  0.6287 -0.2473
 1814TIP3    H1 5406   0.303   5.439   2.032 -0.6348  0.3770 -0.7580
 1814TIP3    H2 5407   0.203   5.552   2.035  0.7576  1.6223  0.3126
 1815TIP3   OH2 5408   3.676   1.864   2.034  0.3797 -0.0448 -0.0844
 1815TIP3    H1 5409   3.594   1.814   2.038  0.2671  0.1469 -0.0128
 1815TIP3    H2 5410   3.660   1.931   1.968  0.5712 -0.1723 -0.2638
 1816TIP3   OH2 5411   2.459   2.510   2.762 -0.2914  0.2393  0.8968
 1816TIP3    H1 5412   2.502   2.594   2.774  0.4454 -0.1681  1.1098
 1816TIP3    H2 5413   2.465   2.466   2.847  0.5543 -0.5932  0.4216
 1817TIP3   OH2 5414   1.119   5.982   1.262 -0.4279 -0.3744 -0.5580
 1817TIP3    H1 5415   1.138   5.921   1.333  0.2474  0.3672 -0.0772
 1817TIP3    H2 5416   1.085   5.927   1.192 -0.8352 -1.1604  0.2328
 1818TIP3   OH2 5417   6.353   6.048   0.284  0.0441 -0.3665 -0.0693
 1818TIP3    H1 5418   6.331   6.141   0.274  0.6243 -0.2522 -0.2962
 1818TIP3    H2 5419   6.436   6.048   0.331  0.3415 -0.7553 -0.5969
 1819TIP3   OH2 5420   7.187   5.224   4.884 -0.0708  0.1179 -0.0393
 1819TIP3    H1 5421   7.167   5.278   4.961 -3.8074 -1.0972  0.0301
 1819TIP3    H2 5422   7.150   5.273   4.811 -1.3624 -1.1919 -0.2909
 1820TIP3   OH2 5423   1.719   2.690   3.746  0.7634 -0.0187 -0.5496
 1820TIP3    H1 5424   1.680   2.737   3.819  1.7542  1.8974 -1.1800
 1820TIP3    H2 5425   1.742   2.604   3.782 -0.2413  0.2955  0.9155
 1821TIP3   OH2 5426   3.185   5.670   4.957 -0.1200 -0.4616 -0.0054
 1821TIP3    H1 5427   3.111   5.630   5.004  0.3263 -0.4082  0.7570
 1821TIP3    H2 5428   3.245   5.697   5.026  0.7311 -0.7310 -0.6255
 1822TIP3   OH2 5429   4.600   4.042   5.859 -0.3099 -0.7106 -0.1116
 1822TIP3    H1 5430   4.671   3.980   5.872  0.3737  0.5458  2.9922
 1822TIP3    H2 5431   4.557   4.047   5.944 -1.9370  1.1725 -0.9654
 1823TIP3   OH2 5432   6.363   5.223   2.495  0.4374 -0.6342 -0.1242
 1823TIP3    H1 5433   6.316   5.301   2.465  0.5588 -0.0068  1.2164
 1823TIP3    H2 5434   6.435   5.212   2.433 -0.0200 -0.1230 -0.7565
 1824TIP3   OH2 5435   2.028   5.020   4.690 -0.7469 -0.0298  0.0133
 1824TIP3    H1 5436   2.091   4.976   4.747 -0.3750 -0.6830 -0.8813
 1824TIP3    H2 5437   2.040   4.979   4.605 -0.7824  1.4369 -0.7285
 1825TIP3   OH2 5438   3.260   0.777   5.295 -0.3967 -0.1235 -0.3237
 1825TIP3    H1 5439   3.284   0.726   5.373  0.2705  1.2420  0.4102
 1825TIP3    H2 5440   3.247   0.712   5.227  1.3461 -1.2364  0.3348
 1826TIP3   OH2 5441   6.780   5.202   5.043  0.0657  0.5715 -0.4802
 1826TIP3    H1 5442   6.726   5.252   4.981  0.4477  0.3698 -0.9880
 1826TIP3    H2 5443   6.786   5.115   5.004 -0.1333  0.2856  0.1190
 1827TIP3   OH2 5444   4.245   2.778  -0.008 -0.4941 -0.2870 -0.3134
 1827TIP3    H1 5445   4.175   2.826   0.035  0.0666  1.3715 -1.1516
 1827TIP3    H2 5446   4.210   2.690  -0.021 -2.2873  0.4032 -0.4208
 1828TIP3   OH2 5447   2.080   5.823   4.819  0.1911 -0.3637  0.2888
 1828TIP3    H1 5448   2.098   5.817   4.725 -1.5094 -0.3360 -0.0733
 1828TIP3    H2 5449   2.117   5.742   4.855  1.9074  0.1744 -0.1890
 1829TIP3   OH2 5450   3.149   4.185   5.764 -0.4066 -0.0123  0.1582
 1829TIP3    H1 5451   3.121   4.135   5.687  1.5301 -1.4230  0.2895
 1829TIP3    H2 5452   3.140   4.124   5.837  1.7294 -0.1591  0.3703
 1830TIP3   OH2 5453   7.142   0.733   4.580  0.1144  0.1550  0.1327
 1830TIP3    H1 5454   7.163   0.813   4.533 -1.1305  0.1845 -0.4203
 1830TIP3    H2 5455   7.212   0.672   4.555 -0.3086  0.2873 -1.4820
 1831TIP3   OH2 5456   3.795   6.017   3.691 -0.1167  0.0553 -0.4473
 1831TIP3    H1 5457   3.747   6.074   3.632 -1.5202 -1.6184 -1.0019
 1831TIP3    H2 5458   3.748   5.934   3.689  2.5485 -1.6015 -0.7069
 1832TIP3   OH2 5459   0.328   0.035   4.250  0.4345 -0.1883  0.5642
 1832TIP3    H1 5460   0.306   0.125   4.275  1.0715 -0.4071  1.9447
 1832TIP3    H2 5461   0.398   0.045   4.185 -0.7502  0.3503 -0.6900
 1833TIP3   OH2 5462   4.358   4.693   2.193  0.1782  0.5038 -0.1648
 1833TIP3    H1 5463   4.435   4.683   2.137  0.0849 -1.6385  0.0088
 1833TIP3    H2 5464   4.297   4.744   2.140  1.1847  1.0237 -0.8575
 1834TIP3   OH2 5465   1.452   0.981   5.146 -0.6448  0.1968  0.4797
 1834TIP3    H1 5466   1.545   0.957   5.147 -0.8781 -0.7511  0.5844
 1834TIP3    H2 5467   1.412   0.916   5.088 -1.3423  0.2075  0.9454
 1835TIP3   OH2 5468   3.706   1.499   3.868 -0.5522 -0.7465  0.2428
 1835TIP3    H1 5469   3.617   1.518   3.898 -1.2305 -1.5021 -1.1885
 1835TIP3    H2 5470   3.735   1.427   3.923  0.0764  0.9490  2.2430
 1836TIP3   OH2 5471   4.374   6.637   4.345 -0.4566 -0.0739  0.2865
 1836TIP3    H1 5472   4.283   6.608   4.345 -0.1351 -1.1231  0.2723
 1836TIP3    H2 5473   4.394   6.656   4.254 -0.3523 -0.8922  0.1302
 1837TIP3   OH2 5474   5.718   4.272   0.646  0.0630 -0.3409 -0.1804
 1837TIP3    H1 5475   5.772   4.235   0.715 -0.4420  0.3200  0.5796
 1837TIP3    H2 5476   5.775   4.338   0.605  0.0364 -0.0485  0.2453
 1838TIP3   OH2 5477   2.510   2.170   4.272 -0.3700  0.0255  0.1329
 1838TIP3    H1 5478   2.447   2.242   4.267  2.6500  2.8818  0.2063
 1838TIP3    H2 5479   2.543   2.161   4.183 -2.8105 -3.5972 -0.6509
 1839TIP3   OH2 5480   4.335   6.566   2.941  0.4644 -0.8636  0.2352
 1839TIP3    H1 5481   4.364   6.648   2.981  0.7062 -1.4532  1.3004
 1839TIP3    H2 5482   4.321   6.588   2.849 -0.2850  0.5696  0.6672
 1840TIP3   OH2 5483   0.390   4.217   3.695 -0.2737  0.2946 -0.1246
 1840TIP3    H1 5484   0.322   4.179   3.640  0.0203  0.8440 -0.8784
 1840TIP3    H2 5485   0.399   4.156   3.768 -2.2620  0.6844  0.5045
 1841TIP3   OH2 5486   4.111   4.155   5.366  0.1342 -0.3278  0.0040
 1841TIP3    H1 5487   4.031   4.191   5.405  0.0982 -1.1102  0.6814
 1841TIP3    H2 5488   4.150   4.102   5.436  1.3250  0.1487 -0.2666
 1842TIP3   OH2 5489   5.662   1.312   0.569  0.9001 -0.2362  0.6557
 1842TIP3    H1 5490   5.613   1.295   0.489  0.7252  0.4356  0.6117
 1842TIP3    H2 5491   5.631   1.246   0.631  2.6932 -2.2646 -0.4884
 1843TIP3   OH2 5492   2.445   3.460   1.882  0.1996 -0.1817 -0.1432
 1843TIP3    H1 5493   2.459   3.554   1.867 -1.2426  0.1381  0.3424
 1843TIP3    H2 5494   2.412   3.427   1.799 -0.6659  0.0523  0.0971
 1844TIP3   OH2 5495   0.644   4.552   5.318  0.0039 -0.0934 -0.5847
 1844TIP3    H1 5496   0.684   4.616   5.377 -0.9149 -0.3475  0.3387
 1844TIP3    H2 5497   0.581   4.603   5.267  0.3619  0.0112 -0.9290
 1845TIP3   OH2 5498   4.557   4.489   3.087 -0.2272  0.5112 -0.0321
 1845TIP3    H1 5499   4.491   4.437   3.041  2.0108 -0.9116 -1.8779
 1845TIP3    H2 5500   4.574   4.442   3.168  0.1221 -0.4232 -0.6280
 1846TIP3   OH2 5501   5.295   0.656   3.737  0.2070  0.4165  0.0754
 1846TIP3    H1 5502   5.371   0.706   3.766 -0.6861  0.7047  2.1052
 1846TIP3    H2 5503   5.301   0.573   3.784  0.5742 -0.5934 -1.6873
 1847TIP3   OH2 5504   4.635   3.553   2.379  0.0735  0.0448 -0.0652
 1847TIP3    H1 5505   4.566   3.554   2.313 -1.2251  0.7730  1.2465
 1847TIP3    H2 5506   4.692   3.480   2.355 -0.4856  0.1674 -1.8380
 1848TIP3   OH2 5507   0.087   3.866   5.481  0.4921  0.4363 -0.2538
 1848TIP3    H1 5508   0.052   3.820   5.558 -0.7832  0.6929 -0.6684
 1848TIP3    H2 5509   0.126   3.796   5.428 -1.0919 -0.1610 -0.6944
 1849TIP3   OH2 5510   5.806   2.150   0.818  0.4887  0.2339 -0.0068
 1849TIP3    H1 5511   5.738   2.191   0.871 -1.0899 -2.2077  0.0257
 1849TIP3    H2 5512   5.852   2.224   0.777 -2.1425  2.0181 -0.0099
 1850TIP3   OH2 5513   2.041   6.576   3.260 -0.1522 -0.0762  0.5139
 1850TIP3    H1 5514   2.078   6.648   3.310 -0.8586  0.7562 -0.1336
 1850TIP3    H2 5515   2.058   6.598   3.168  1.6522 -1.8651  0.3349
 1851TIP3   OH2 5516   0.524   2.238   0.950 -0.3712 -0.4959 -0.2625
 1851TIP3    H1 5517   0.544   2.145   0.940 -1.7454 -0.8112 -0.3695
 1851TIP3    H2 5518   0.508   2.268   0.860 -0.9822 -0.4251 -0.1347
 1852TIP3   OH2 5519   3.836   1.270   5.434  0.3545  0.0718  0.4763
 1852TIP3    H1 5520   3.790   1.322   5.500 -0.5445 -0.0434 -0.0386
 1852TIP3    H2 5521   3.828   1.180   5.464 -0.5711 -0.0413 -0.0746
 1853TIP3   OH2 5522   5.689   6.412   0.152 -0.6567 -0.2151 -0.2197
 1853TIP3    H1 5523   5.712   6.319   0.145 -0.5293 -0.3023  1.0919
 1853TIP3    H2 5524   5.675   6.440   0.062  0.0381 -1.3239 -0.6985
 1854TIP3   OH2 5525   5.139   4.389   0.455  0.5154 -0.3644  0.0782
 1854TIP3    H1 5526   5.216   4.443   0.437 -1.5267  2.6249 -0.5296
 1854TIP3    H2 5527   5.144   4.370   0.549  1.8515 -0.0433  0.0857
 1855TIP3   OH2 5528   3.219   6.410   2.780  0.0102  0.0228 -0.0908
 1855TIP3    H1 5529   3.151   6.350   2.812 -0.1231  0.8896  1.3533
 1855TIP3    H2 5530   3.204   6.415   2.686 -1.3275 -0.5548  0.0622
 1856TIP3   OH2 5531   5.858   5.584   0.262 -0.1525 -0.0486  0.3129
 1856TIP3    H1 5532   5.926   5.652   0.269  2.8890 -2.2941 -3.4024
 1856TIP3    H2 5533   5.888   5.515   0.321 -1.1461  0.2071  1.1585
 1857TIP3   OH2 5534   6.849   3.016   0.857 -0.0583 -0.8277  0.7816
 1857TIP3    H1 5535   6.785   2.984   0.794  0.3235  0.7201 -0.4680
 1857TIP3    H2 5536   6.931   3.018   0.808  0.0553  1.3577  0.9546
 1858TIP3   OH2 5537   0.097   2.159   3.743  0.1904 -0.4565 -0.0778
 1858TIP3    H1 5538   0.037   2.134   3.813 -0.1304 -1.1083 -0.5727
 1858TIP3    H2 5539   0.103   2.254   3.749 -0.4246 -0.4424  0.3556
 1859TIP3   OH2 5540   3.675   3.891   4.954  0.2058  0.1516  0.4681
 1859TIP3    H1 5541   3.766   3.861   4.959  0.2504 -0.0156 -0.8740
 1859TIP3    H2 5542   3.642   3.885   5.043  1.1253 -1.0462  0.7509
 1860TIP3   OH2 5543   4.746   3.488   5.752 -0.0733 -0.0389  0.4101
 1860TIP3    H1 5544   4.751   3.498   5.657 -1.3947  2.8950  0.5356
 1860TIP3    H2 5545   4.653   3.501   5.772  0.0703 -1.3032  2.0547
 1861TIP3   OH2 5546   1.974   5.984   5.901 -0.1192 -0.8262 -0.3572
 1861TIP3    H1 5547   1.897   6.020   5.945 -0.1363 -0.8182 -0.3941
 1861TIP3    H2 5548   1.943   5.956   5.815 -0.1400 -1.0812 -0.2662
 1862TIP3   OH2 5549   5.458   1.877   1.655  0.3785 -0.1709 -0.6272
 1862TIP3    H1 5550   5.531   1.834   1.609  1.3779  1.9380 -1.1742
 1862TIP3    H2 5551   5.470   1.853   1.746 -0.2451 -2.5328 -1.1057
 1863TIP3   OH2 5552   2.405   3.768   2.636  0.1129  0.3821 -0.1958
 1863TIP3    H1 5553   2.464   3.696   2.656 -0.3124  0.2351  0.5418
 1863TIP3    H2 5554   2.463   3.840   2.610  0.6370  0.3219  0.7659
 1864TIP3   OH2 5555   4.067   0.669   4.732  0.2448  0.4770  0.0225
 1864TIP3    H1 5556   4.045   0.746   4.785  0.6008  0.0834  0.7680
 1864TIP3    H2 5557   3.994   0.609   4.745 -0.1128  0.7590 -0.6956
 1865TIP3   OH2 5558   5.370   5.212   1.147  0.0715  0.2032  0.5198
 1865TIP3    H1 5559   5.417   5.130   1.157  1.3930  1.1772  3.4679
 1865TIP3    H2 5560   5.280   5.192   1.173  0.3028 -0.3678  0.8901
 1866TIP3   OH2 5561   2.559   3.719   1.725 -0.0351 -0.3497 -0.2234
 1866TIP3    H1 5562   2.613   3.767   1.788  1.1980 -1.2851 -0.5462
 1866TIP3    H2 5563   2.608   3.723   1.643  0.7168 -3.1314  0.0129
 1867TIP3   OH2 5564   4.160   2.084   1.902  0.6687  0.0341 -0.0514
 1867TIP3    H1 5565   4.109   2.062   1.824  1.6358  1.2927 -1.0773
 1867TIP3    H2 5566   4.099   2.069   1.975 -0.7868  0.3182 -1.1463
 1868TIP3   OH2 5567   1.009   0.329   4.013  0.3630 -0.9593 -0.0955
 1868TIP3    H1 5568   1.073   0.320   4.084 -0.1330 -0.0675  0.4830
 1868TIP3    H2 5569   1.015   0.421   3.988 -0.9182 -0.7869  0.1820
 1869TIP3   OH2 5570   1.315   1.565   4.053 -0.3147 -0.0940 -0.2550
 1869TIP3    H1 5571   1.302   1.486   4.105  0.0906 -0.0818 -0.1291
 1869TIP3    H2 5572   1.233   1.576   4.004 -1.1840  0.5759  1.2925
 1870TIP3   OH2 5573   0.203   4.535   1.977 -0.1922 -0.2393  0.5183
 1870TIP3    H1 5574   0.168   4.476   2.044 -0.3668 -1.1535 -0.3502
 1870TIP3    H2 5575   0.151   4.516   1.898  0.5847  0.1840 -0.1143
 1871TIP3   OH2 5576   5.602   2.172   2.615 -0.3063  0.0148  0.0592
 1871TIP3    H1 5577   5.541   2.176   2.541 -0.6671  0.4087  0.3740
 1871TIP3    H2 5578   5.689   2.173   2.574 -0.5045 -0.4965 -0.3888
 1872TIP3   OH2 5579   1.298   5.283   4.819  0.1557 -0.2686  0.2035
 1872TIP3    H1 5580   1.209   5.253   4.838 -0.2825 -0.7956 -2.2139
 1872TIP3    H2 5581   1.354   5.235   4.880 -1.2118  0.2980  1.9644
 1873TIP3   OH2 5582   0.481   6.626   3.699  0.2065 -0.1001 -0.2928
 1873TIP3    H1 5583   0.518   6.702   3.743  0.2129 -0.3339  0.1071
 1873TIP3    H2 5584   0.508   6.552   3.752  0.7827 -0.4532 -1.0684
 1874TIP3   OH2 5585   2.428   6.646   5.165  0.4529  0.3182  0.1213
 1874TIP3    H1 5586   2.367   6.642   5.092 -0.0316 -0.6260  0.5544
 1874TIP3    H2 5587   2.510   6.610   5.130 -0.3924 -2.3225  0.5810
 1875TIP3   OH2 5588   4.832   0.053   3.742  0.0993  0.0397 -0.3488
 1875TIP3    H1 5589   4.875  -0.016   3.792  0.7438  1.1590  0.7076
 1875TIP3    H2 5590   4.817   0.014   3.656  0.9831 -1.2099  0.0267
 1876TIP3   OH2 5591   6.617   4.221   5.723 -0.1790  0.1831 -0.3778
 1876TIP3    H1 5592   6.676   4.293   5.744 -0.2936  0.1357  0.1359
 1876TIP3    H2 5593   6.675   4.151   5.692  0.3217 -0.5938  2.0424
 1877TIP3   OH2 5594   1.561   2.520   0.329 -0.1030 -0.1976  0.2566
 1877TIP3    H1 5595   1.489   2.465   0.299 -0.3260 -0.2075  0.7980
 1877TIP3    H2 5596   1.556   2.599   0.276 -0.1864 -0.4221 -0.0685
 1878TIP3   OH2 5597   0.458   0.884   0.091 -0.3184 -0.4141  0.8777
 1878TIP3    H1 5598   0.397   0.912   0.022  2.2701 -1.6598 -2.1473
 1878TIP3    H2 5599   0.461   0.959   0.151  0.4576  2.7446 -2.6816
 1879TIP3   OH2 5600   2.093   0.842   1.064 -0.1534 -0.2665 -0.3375
 1879TIP3    H1 5601   2.181   0.846   1.027 -0.5162 -0.3242 -1.2183
 1879TIP3    H2 5602   2.107   0.813   1.154  0.7228 -0.3498 -0.4880
 1880TIP3   OH2 5603   1.265   5.460   0.114  0.0601 -0.4287  0.2966
 1880TIP3    H1 5604   1.323   5.448   0.038 -1.0437 -1.5197 -0.4204
 1880TIP3    H2 5605   1.194   5.397   0.100 -1.7680  1.4191  0.6895
 1881TIP3   OH2 5606   6.507   3.791   4.819  0.1072  0.0742 -0.6378
 1881TIP3    H1 5607   6.515   3.698   4.838 -1.4260  0.1902  0.8234
 1881TIP3    H2 5608   6.558   3.804   4.739 -1.3434 -2.4084 -2.1056
 1882TIP3   OH2 5609   6.394   5.119   2.897 -0.1832 -0.3454  0.1691
 1882TIP3    H1 5610   6.303   5.144   2.915 -0.2012 -0.5926  0.4333
 1882TIP3    H2 5611   6.422   5.177   2.827 -0.3728  0.0987  0.4623
 1883TIP3   OH2 5612   2.038   6.125   2.856  0.2168 -0.0407 -0.1172
 1883TIP3    H1 5613   2.122   6.087   2.883 -0.2516  0.1459  1.7036
 1883TIP3    H2 5614   2.061   6.212   2.823  1.0217 -0.9733 -2.1842
 1884TIP3   OH2 5615   6.462   0.927   1.632  0.5635  0.5664  0.0776
 1884TIP3    H1 5616   6.452   0.956   1.541  3.1565  1.9867  0.1277
 1884TIP3    H2 5617   6.403   0.983   1.682  0.2806  0.8549 -0.5718
 1885TIP3   OH2 5618   3.059   5.506   5.123  0.0157 -0.5178 -0.2494
 1885TIP3    H1 5619   2.968   5.484   5.102  0.3145 -1.4731 -0.6250
 1885TIP3    H2 5620   3.065   5.499   5.218 -0.0376 -1.5600 -0.3174
 1886TIP3   OH2 5621   4.175   4.330   2.987  0.2547  0.5694  0.4950
 1886TIP3    H1 5622   4.251   4.341   2.930 -0.5923  0.2679 -0.7243
 1886TIP3    H2 5623   4.135   4.417   2.992 -0.6075  0.2822 -0.7694
 1887TIP3   OH2 5624   5.344   4.885   1.484  0.2039  0.2447 -0.5248
 1887TIP3    H1 5625   5.335   4.924   1.571  1.9170 -1.2156  0.3649
 1887TIP3    H2 5626   5.269   4.918   1.435 -3.2358 -2.0904  2.6668
 1888TIP3   OH2 5627   3.314   3.211   1.211  0.2621  0.7083 -0.3956
 1888TIP3    H1 5628   3.387   3.164   1.171  0.0146  0.2288 -0.2885
 1888TIP3    H2 5629   3.349   3.245   1.293  0.5151  0.9349 -0.5964
 1889TIP3   OH2 5630   2.868   5.774   4.427 -0.3345 -0.0403  0.1276
 1889TIP3    H1 5631   2.900   5.819   4.505 -1.1556 -0.6918  0.8543
 1889TIP3    H2 5632   2.813   5.838   4.382  0.8822  0.6439 -0.4287
 1890TIP3   OH2 5633   6.973   4.566   4.620  0.3007  0.1595 -0.8583
 1890TIP3    H1 5634   7.049   4.530   4.666 -0.2299 -0.7120 -0.6440
 1890TIP3    H2 5635   6.968   4.514   4.540 -1.3445 -1.2942  0.1262
 1891TIP3   OH2 5636   6.427   6.743   0.277 -0.0789  0.4113  0.2008
 1891TIP3    H1 5637   6.420   6.785   0.191 -0.6415  0.1596  0.1211
 1891TIP3    H2 5638   6.361   6.674   0.275 -1.2470  1.4491  1.4295
 1892TIP3   OH2 5639   5.713   4.610   4.293  0.5332  0.2770 -0.1635
 1892TIP3    H1 5640   5.728   4.662   4.214  1.4707  0.4083  0.0952
 1892TIP3    H2 5641   5.799   4.601   4.333  0.2987 -0.9541  0.1251
 1893TIP3   OH2 5642   0.891   5.008   3.939 -0.1394 -0.0124  0.3716
 1893TIP3    H1 5643   0.918   4.919   3.914 -2.1996 -0.0648 -2.0496
 1893TIP3    H2 5644   0.819   4.994   4.000 -0.0663  0.0154  0.4649
 1894TIP3   OH2 5645   6.156   3.072   4.356 -0.8664  0.4739 -0.3940
 1894TIP3    H1 5646   6.096   2.998   4.346  0.4257 -0.7180  0.4039
 1894TIP3    H2 5647   6.105   3.137   4.405 -1.5003 -0.5400  0.3412
 1895TIP3   OH2 5648   3.388   0.532   4.188  0.1336  0.1891 -0.3628
 1895TIP3    H1 5649   3.361   0.620   4.213  1.9274  0.5282  0.5316
 1895TIP3    H2 5650   3.472   0.544   4.144  2.4415 -1.2531  3.1392
 1896TIP3   OH2 5651   5.934   2.530   0.078  0.0223 -0.2148 -0.1003
 1896TIP3    H1 5652   5.852   2.492   0.109 -0.3637  0.5384 -0.1541
 1896TIP3    H2 5653   5.998   2.459   0.083 -0.5449 -0.7034  0.3114
 1897TIP3   OH2 5654   0.455   6.034   1.912  0.6435  0.1387 -0.2131
 1897TIP3    H1 5655   0.362   6.032   1.934  0.9835  0.0830  1.3912
 1897TIP3    H2 5656   0.475   6.127   1.901  0.6264  0.2517  0.6180
 1898TIP3   OH2 5657   0.344   2.024   4.883  0.3223 -0.7786  0.6933
 1898TIP3    H1 5658   0.303   1.978   4.957 -0.4674 -0.5190  0.4342
 1898TIP3    H2 5659   0.270   2.049   4.827  0.8159  0.0271  0.3879
 1899TIP3   OH2 5660   0.459   2.899   4.051 -0.1570 -0.2603  0.1460
 1899TIP3    H1 5661   0.432   2.868   3.964  2.0320  1.7927 -1.4112
 1899TIP3    H2 5662   0.425   2.989   4.056 -0.5038 -0.4521  1.5525
 1900TIP3   OH2 5663   5.859   4.584   4.612 -0.3906  0.7146 -0.3395
 1900TIP3    H1 5664   5.806   4.510   4.583 -0.2125 -0.2166  1.5568
 1900TIP3    H2 5665   5.941   4.577   4.562 -1.4915  1.4219 -2.3475
 1901TIP3   OH2 5666   6.409   4.118   4.184 -0.3316  0.4107  0.4454
 1901TIP3    H1 5667   6.336   4.056   4.186 -0.0157  0.0323  0.3413
 1901TIP3    H2 5668   6.373   4.199   4.220 -0.9071  0.3394  0.0349
 1902TIP3   OH2 5669   3.373   3.554   5.495 -0.2686  0.7778  0.0287
 1902TIP3    H1 5670   3.315   3.511   5.432  1.3451 -1.3317 -0.1332
 1902TIP3    H2 5671   3.328   3.544   5.579 -0.1983 -0.7796 -0.0954
 1903TIP3   OH2 5672   2.424   4.973   3.376 -0.0910  0.3088 -0.3163
 1903TIP3    H1 5673   2.435   4.967   3.281  1.2065  0.0441 -0.1647
 1903TIP3    H2 5674   2.464   4.894   3.411 -0.1245  0.6287  0.4806
 1904TIP3   OH2 5675   2.538   6.352   4.301  0.3011 -0.2154 -0.4946
 1904TIP3    H1 5676   2.447   6.347   4.331  0.2921  0.5129 -0.3965
 1904TIP3    H2 5677   2.582   6.283   4.351  0.2303  0.7984  1.0520
 1905TIP3   OH2 5678   3.158   1.902   5.438 -0.4101 -0.4909  0.1966
 1905TIP3    H1 5679   3.090   1.876   5.501 -0.5376  0.3273  0.4121
 1905TIP3    H2 5680   3.109   1.939   5.364 -0.1922  0.8460  0.6950
 1906TIP3   OH2 5681   1.222   5.114   1.418 -0.1111 -0.0558  0.0065
 1906TIP3    H1 5682   1.213   5.024   1.388 -1.4059  1.3353 -4.5629
 1906TIP3    H2 5683   1.316   5.132   1.412  0.0273 -0.7764 -0.0760
 1907TIP3   OH2 5684   5.436   2.867   2.425  0.5085 -0.0856 -0.6110
 1907TIP3    H1 5685   5.341   2.857   2.435  0.6624  0.0922  1.4580
 1907TIP3    H2 5686   5.472   2.838   2.509  2.2780  0.1048 -1.2628
 1908TIP3   OH2 5687   5.935   5.420   4.651  0.3748  0.1649 -0.0412
 1908TIP3    H1 5688   5.999   5.368   4.699  0.9709  0.9252  0.0111
 1908TIP3    H2 5689   5.852   5.404   4.696  0.5188 -0.8362 -0.1147
 1909TIP3   OH2 5690   0.243   3.957   2.573 -0.2562 -0.7374 -0.1129
 1909TIP3    H1 5691   0.233   3.997   2.486 -0.5402 -0.6913 -0.0601
 1909TIP3    H2 5692   0.235   3.863   2.557 -2.5856 -0.6321  0.1555
 1910TIP3   OH2 5693   0.647   2.274   1.238  0.1609  0.3298  0.6062
 1910TIP3    H1 5694   0.551   2.282   1.236  0.1675  0.3676  0.4301
 1910TIP3    H2 5695   0.664   2.186   1.205  0.2483  0.7856 -0.6199
 1911TIP3   OH2 5696   4.253   3.742   0.312  0.1978 -0.4664 -0.0356
 1911TIP3    H1 5697   4.166   3.719   0.278 -0.5498  0.4315  1.1866
 1911TIP3    H2 5698   4.278   3.819   0.261  0.0658 -0.4455 -0.0715
 1912TIP3   OH2 5699   1.368   0.862   0.104  0.5934 -0.0095  0.0746
 1912TIP3    H1 5700   1.357   0.812   0.185  0.9063 -0.4875 -0.1701
 1912TIP3    H2 5701   1.406   0.946   0.132  2.3796 -0.8343  0.2703
 1913TIP3   OH2 5702   5.040   4.803   5.268  0.4001  0.2646 -0.0160
 1913TIP3    H1 5703   4.987   4.849   5.203  0.5784  2.0065  0.9992
 1913TIP3    H2 5704   5.102   4.870   5.300  2.7103 -1.4584 -0.5944
 1914TIP3   OH2 5705   0.194   1.407   3.060  0.7988 -0.0994  0.0744
 1914TIP3    H1 5706   0.190   1.405   2.964  0.8083 -1.2550  0.0882
 1914TIP3    H2 5707   0.256   1.477   3.080 -0.5409  1.3820 -0.7112
 1915TIP3   OH2 5708   3.054   0.264   3.067  0.0132 -0.5631  0.1016
 1915TIP3    H1 5709   3.086   0.250   3.156  0.7187 -0.8500 -0.1905
 1915TIP3    H2 5710   3.120   0.223   3.011 -0.1457  0.0881 -0.5772
 1916TIP3   OH2 5711   0.037   1.722   2.331 -0.4593 -0.4517 -0.5844
 1916TIP3    H1 5712   0.091   1.698   2.255 -1.0533 -1.3365 -0.7389
 1916TIP3    H2 5713   0.074   1.671   2.403  0.6311  0.9944 -0.0476
 1917TIP3   OH2 5714   1.900   4.515   5.691  0.0883  0.0081 -0.4090
 1917TIP3    H1 5715   1.832   4.566   5.648  1.5189  1.3267 -1.2055
 1917TIP3    H2 5716   1.961   4.491   5.621  1.5192  0.6494  0.5470
 1918TIP3   OH2 5717   3.959   5.021   0.751  0.2535 -0.0289 -0.3262
 1918TIP3    H1 5718   3.985   5.113   0.764  0.8466 -0.3396  0.8704
 1918TIP3    H2 5719   3.864   5.022   0.761  0.2925  0.4122  0.0487
 1919TIP3   OH2 5720   2.250   6.348   4.282 -0.1926  0.3198  0.2402
 1919TIP3    H1 5721   2.283   6.413   4.343  0.4029 -0.0933  0.3711
 1919TIP3    H2 5722   2.175   6.308   4.327 -0.6243  0.9731  0.1138
 1920TIP3   OH2 5723   3.657   0.682   0.502  0.1535  0.1089 -0.1846
 1920TIP3    H1 5724   3.616   0.759   0.463 -1.5561  0.4533  2.1344
 1920TIP3    H2 5725   3.611   0.608   0.462 -0.6599  0.4087  0.1752
 1921TIP3   OH2 5726   0.741   1.052   3.380 -0.2269  0.2578 -0.2277
 1921TIP3    H1 5727   0.765   0.973   3.331 -0.4231 -0.7797  1.2645
 1921TIP3    H2 5728   0.706   1.019   3.463  0.3963  1.9434  0.7596
 1922TIP3   OH2 5729   1.055   0.556   1.969 -0.3274  1.0247 -0.1458
 1922TIP3    H1 5730   1.035   0.471   2.009  0.2382  1.8076  1.9523
 1922TIP3    H2 5731   1.096   0.534   1.885 -0.6772 -0.7546  0.1021
 1923TIP3   OH2 5732   1.775   5.066   1.773 -0.0240 -0.1707  0.0870
 1923TIP3    H1 5733   1.847   5.064   1.709  0.8906 -1.6628  1.1031
 1923TIP3    H2 5734   1.792   4.992   1.831 -0.5685  1.3876  2.3603
 1924TIP3   OH2 5735   3.983   5.694   2.069 -0.0080  0.4099 -0.4402
 1924TIP3    H1 5736   3.899   5.647   2.062 -0.1886  0.8013 -0.9557
 1924TIP3    H2 5737   4.028   5.674   1.987  1.0046 -0.9214  0.4042
 1925TIP3   OH2 5738   3.780   5.606   5.196 -0.5836  0.0186 -0.2608
 1925TIP3    H1 5739   3.848   5.566   5.251  0.2066  0.3429 -0.9760
 1925TIP3    H2 5740   3.718   5.534   5.180 -0.2215 -0.3844  0.1021
 1926TIP3   OH2 5741   5.513   0.228   4.944 -0.3633 -0.0682 -0.1728
 1926TIP3    H1 5742   5.503   0.170   5.020  0.6193  1.9282  1.5912
 1926TIP3    H2 5743   5.599   0.206   4.909 -1.2452 -1.7360 -1.4725
 1927TIP3   OH2 5744   3.702   0.549   5.746 -0.0179 -0.1549  0.0134
 1927TIP3    H1 5745   3.658   0.506   5.820  0.0224 -1.2050 -0.5550
 1927TIP3    H2 5746   3.631   0.575   5.688 -0.0854  1.1239  0.6330
 1928TIP3   OH2 5747   2.424   2.701   0.741 -0.2164 -0.2949  0.2268
 1928TIP3    H1 5748   2.360   2.630   0.744 -1.1612  0.5641  1.1984
 1928TIP3    H2 5749   2.504   2.663   0.775 -0.4151 -1.1726 -0.2538
 1929TIP3   OH2 5750   1.260   3.720   2.375  0.3142  0.2101 -0.2667
 1929TIP3    H1 5751   1.249   3.653   2.306  2.5253  1.7477 -2.2791
 1929TIP3    H2 5752   1.352   3.712   2.401 -0.2007  0.4379  1.7433
 1930TIP3   OH2 5753   4.537   5.745   4.151  0.4013  0.1480  0.2157
 1930TIP3    H1 5754   4.467   5.709   4.206 -1.2948 -0.6140 -2.2527
 1930TIP3    H2 5755   4.589   5.668   4.126 -0.6549 -0.0314 -1.5961
 1931TIP3   OH2 5756   2.557   5.190   0.665  0.2365  0.0477  0.2599
 1931TIP3    H1 5757   2.507   5.142   0.599  0.7618  1.3162 -1.1144
 1931TIP3    H2 5758   2.510   5.273   0.675 -0.0310 -0.2574  1.7645
 1932TIP3   OH2 5759   2.390   0.343   4.159  0.1234 -0.0307 -0.4838
 1932TIP3    H1 5760   2.312   0.288   4.162 -0.1216  0.2978 -0.8018
 1932TIP3    H2 5761   2.407   0.355   4.065 -1.0824  2.2079 -0.4816
 1933TIP3   OH2 5762   1.792   2.835   4.186  0.4795 -0.4571 -0.0140
 1933TIP3    H1 5763   1.868   2.881   4.221  0.8367 -1.1200  0.0915
 1933TIP3    H2 5764   1.780   2.760   4.244  0.3054 -0.8644 -0.5662
 1934TIP3   OH2 5765   3.809   3.290   2.850  0.2232  0.3257  0.0177
 1934TIP3    H1 5766   3.748   3.324   2.784  0.6789 -0.4379 -0.8127
 1934TIP3    H2 5767   3.794   3.195   2.851 -3.4342  0.5660  4.6553
 1935TIP3   OH2 5768   5.427   2.929   2.129 -0.1481  0.2124  0.0544
 1935TIP3    H1 5769   5.435   2.954   2.221 -0.0078  1.1174 -0.1969
 1935TIP3    H2 5770   5.517   2.917   2.099 -0.2406 -1.6608  0.4436
 1936TIP3   OH2 5771   3.803   0.086   2.847 -0.2962 -0.6871 -0.6924
 1936TIP3    H1 5772   3.834   0.171   2.817 -1.0719  0.0832  0.6056
 1936TIP3    H2 5773   3.848   0.023   2.790  0.9709  0.5316 -1.1055
 1937TIP3   OH2 5774   5.060   4.782   0.707 -0.5894  0.1470  0.1175
 1937TIP3    H1 5775   4.988   4.840   0.683 -1.5526  0.2209  2.7893
 1937TIP3    H2 5776   5.135   4.841   0.719 -0.4567  0.2647 -1.1886
 1938TIP3   OH2 5777   5.186   1.243   5.781  0.4676  0.2970 -0.0686
 1938TIP3    H1 5778   5.140   1.321   5.813 -1.8324 -1.1273  0.3472
 1938TIP3    H2 5779   5.132   1.212   5.708  0.1981 -1.9994  1.0341
 1939TIP3   OH2 5780   1.456   5.092   3.711 -0.6241 -0.2167  0.2026
 1939TIP3    H1 5781   1.539   5.111   3.754 -1.7456  1.0897  1.9205
 1939TIP3    H2 5782   1.481   5.067   3.622  1.7587 -2.3156  1.3016
 1940TIP3   OH2 5783   0.004   6.588   1.243 -0.3416 -0.0538  0.2420
 1940TIP3    H1 5784   0.058   6.632   1.177 -3.1318  1.7414 -1.0696
 1940TIP3    H2 5785   0.009   6.496   1.220  2.1131  0.0214  0.2188
 1941TIP3   OH2 5786   2.493   6.624   1.122 -0.4136 -0.1763 -0.5911
 1941TIP3    H1 5787   2.438   6.593   1.194 -0.4247 -1.5811 -1.1649
 1941TIP3    H2 5788   2.439   6.611   1.044 -0.3270  1.1446 -0.8913
 1942TIP3   OH2 5789   0.155   4.824   5.329 -0.4357  0.1435 -0.8209
 1942TIP3    H1 5790   0.093   4.897   5.329 -0.0901  0.4381 -0.6209
 1942TIP3    H2 5791   0.113   4.757   5.383  0.4975  1.2680  1.4387
 1943TIP3   OH2 5792   3.898   1.989   5.068  0.9045 -0.6725  0.2926
 1943TIP3    H1 5793   3.858   1.985   4.981  1.0966 -0.0709  0.1683
 1943TIP3    H2 5794   3.826   1.971   5.128  0.7654 -1.0736  0.0102
 1944TIP3   OH2 5795   5.747   3.971   4.942 -0.3932 -0.0658 -0.0504
 1944TIP3    H1 5796   5.756   4.066   4.947 -2.0201  0.0664  2.0282
 1944TIP3    H2 5797   5.820   3.936   4.993  0.7104 -0.0201 -1.5349
 1945TIP3   OH2 5798   5.006   1.147   1.273 -0.0813 -0.6190 -0.4133
 1945TIP3    H1 5799   4.920   1.141   1.230 -0.6821 -2.0914  0.8950
 1945TIP3    H2 5800   4.987   1.175   1.362  0.8583 -0.5409 -0.2251
 1946TIP3   OH2 5801   0.241   0.930   3.322 -0.5031 -0.8776  0.8468
 1946TIP3    H1 5802   0.301   1.004   3.334 -2.3531  1.2844 -1.8835
 1946TIP3    H2 5803   0.298   0.855   3.306  1.5080  0.6865  0.2657
 1947TIP3   OH2 5804   1.898   2.280   2.098  0.0230 -0.6392  0.2297
 1947TIP3    H1 5805   1.919   2.368   2.129  0.5512 -0.0947 -1.5550
 1947TIP3    H2 5806   1.806   2.285   2.071 -0.7373 -1.3784  2.4748
 1948TIP3   OH2 5807   3.776   5.228   5.806  0.1518  0.1297 -0.2448
 1948TIP3    H1 5808   3.738   5.161   5.862 -1.3702 -1.3373 -2.8199
 1948TIP3    H2 5809   3.868   5.203   5.798  0.3087  0.1705  1.2589
 1949TIP3   OH2 5810   6.420   6.217   1.157 -0.0221 -0.0158  0.4133
 1949TIP3    H1 5811   6.408   6.304   1.117  1.9655  0.0689 -0.0634
 1949TIP3    H2 5812   6.336   6.173   1.142 -0.7367  1.4604 -0.1989
 1950TIP3   OH2 5813   4.386   2.241   2.305 -0.3038  0.0852  0.2129
 1950TIP3    H1 5814   4.290   2.241   2.304 -0.3229  1.0410  0.7362
 1950TIP3    H2 5815   4.410   2.204   2.390 -0.2115  0.0826  0.1862
 1951TIP3   OH2 5816   6.501   3.060   4.677  0.2458 -0.4272 -0.0279
 1951TIP3    H1 5817   6.563   3.069   4.749  0.7909 -1.5452 -0.3261
 1951TIP3    H2 5818   6.507   3.142   4.629 -1.2766  0.9780  2.0541
 1952TIP3   OH2 5819   0.416   2.710   3.085 -0.5235 -0.2769 -0.0283
 1952TIP3    H1 5820   0.431   2.624   3.123 -2.2932 -0.3899  0.4597
 1952TIP3    H2 5821   0.351   2.695   3.017 -0.2841  0.5656 -0.4557
 1953TIP3   OH2 5822   0.987   5.473   1.920 -0.1200 -0.0338  0.1286
 1953TIP3    H1 5823   1.051   5.521   1.867  1.0575 -0.4402  1.1102
 1953TIP3    H2 5824   1.012   5.381   1.909  0.8268 -0.0665  2.1487
 1954TIP3   OH2 5825   6.925   1.760   3.289  0.3694 -0.1550  0.2929
 1954TIP3    H1 5826   6.869   1.784   3.215 -0.5616  0.3701  1.1509
 1954TIP3    H2 5827   7.014   1.783   3.259 -0.0889  0.9277 -0.3187
 1955TIP3   OH2 5828   1.547   2.248   0.845  0.4867 -0.2858  0.0750
 1955TIP3    H1 5829   1.536   2.170   0.899 -0.9868 -2.7108 -3.3569
 1955TIP3    H2 5830   1.620   2.227   0.787 -0.5025  0.4888 -1.5163
 1956TIP3   OH2 5831   2.601   4.759   1.411 -0.3825  0.4818  0.0135
 1956TIP3    H1 5832   2.670   4.809   1.455  1.3452 -1.9117  0.2328
 1956TIP3    H2 5833   2.520   4.795   1.445  0.8361  0.6992  2.9652
 1957TIP3   OH2 5834   2.063   2.244   0.561 -0.1177  0.2175 -0.1890
 1957TIP3    H1 5835   2.014   2.224   0.481 -2.0517 -0.5939  1.1177
 1957TIP3    H2 5836   2.020   2.322   0.597  1.4028  1.2137 -0.4225
 1958TIP3   OH2 5837   4.775   3.121   2.219  0.0198  0.1353  0.6225
 1958TIP3    H1 5838   4.828   3.061   2.167 -0.6909  0.1464 -0.1416
 1958TIP3    H2 5839   4.685   3.096   2.200 -0.2941  1.4756  0.2568
 1959TIP3   OH2 5840   5.035   1.651   4.974 -0.1153  0.1104 -0.7782
 1959TIP3    H1 5841   5.109   1.627   5.028  0.5073 -0.6255 -1.9236
 1959TIP3    H2 5842   4.972   1.689   5.035  0.9310  0.1615  0.3047
 1960TIP3   OH2 5843   6.993   3.869   4.611  0.2755 -0.4031  0.5958
 1960TIP3    H1 5844   7.087   3.876   4.626  0.2031 -1.6210  1.8662
 1960TIP3    H2 5845   6.973   3.937   4.547  2.3095 -1.2435 -1.0312
 1961TIP3   OH2 5846   2.205   4.264   3.242 -0.0394 -0.1258 -0.4973
 1961TIP3    H1 5847   2.141   4.284   3.173 -1.8197 -1.2881  0.7131
 1961TIP3    H2 5848   2.160   4.287   3.323  0.7352 -1.7632  0.4491
 1962TIP3   OH2 5849   6.137   3.979   2.140  0.2562  0.4682 -0.2948
 1962TIP3    H1 5850   6.067   3.994   2.076 -0.0177 -0.4799 -0.2429
 1962TIP3    H2 5851   6.178   4.064   2.152 -1.5040  1.2851  0.3756
 1963TIP3   OH2 5852   2.714   3.760   1.504 -0.0583 -0.1354  0.1110
 1963TIP3    H1 5853   2.688   3.749   1.412  0.6328 -0.6892 -0.0346
 1963TIP3    H2 5854   2.727   3.854   1.515 -0.8878  0.0194 -0.1407
 1964TIP3   OH2 5855   5.591   4.057   3.338 -0.3929 -0.3685 -0.0028
 1964TIP3    H1 5856   5.527   3.986   3.340 -0.9203  0.1127  0.7252
 1964TIP3    H2 5857   5.538   4.137   3.339  0.1502  0.0759 -2.0647
 1965TIP3   OH2 5858   3.644   1.473   1.203 -0.1295 -0.0451 -0.8721
 1965TIP3    H1 5859   3.702   1.408   1.163  2.2827  0.7148  1.1322
 1965TIP3    H2 5860   3.605   1.428   1.279 -3.2865 -0.9242 -2.8119
 1966TIP3   OH2 5861   1.897   2.754   0.190  0.1748 -0.0919 -0.9444
 1966TIP3    H1 5862   1.959   2.682   0.184 -1.1186 -1.1598 -2.1358
 1966TIP3    H2 5863   1.873   2.758   0.282  0.5233 -0.9526 -0.8102
 1967TIP3   OH2 5864   0.431   5.619   4.995  0.1100 -0.1462  0.6545
 1967TIP3    H1 5865   0.438   5.714   4.981  1.5442 -0.3462 -0.1813
 1967TIP3    H2 5866   0.430   5.608   5.090  1.1360  0.6457  0.7694
 1968TIP3   OH2 5867   0.086   4.287   5.547 -0.2373 -0.3850  0.1186
 1968TIP3    H1 5868  -0.000   4.317   5.577 -0.4024  0.1832 -0.8800
 1968TIP3    H2 5869   0.127   4.250   5.625 -1.2095 -0.2555  0.7100
 1969TIP3   OH2 5870   4.807   2.030   2.610  0.4138 -0.1953  0.0350
 1969TIP3    H1 5871   4.719   2.064   2.626 -0.3379 -0.8403 -2.3414
 1969TIP3    H2 5872   4.803   1.939   2.640  0.5794  0.0406  0.7953
 1970TIP3   OH2 5873   3.705   1.424   1.696 -0.4492 -0.3955  0.3116
 1970TIP3    H1 5874   3.786   1.372   1.698  0.4718  0.6778 -3.0083
 1970TIP3    H2 5875   3.641   1.366   1.655  0.1177  0.3745 -1.8002
 1971TIP3   OH2 5876   4.312   0.116   2.923  0.5462  0.3010  0.2956
 1971TIP3    H1 5877   4.286   0.086   3.010 -1.3489 -1.1030 -0.6511
 1971TIP3    H2 5878   4.357   0.199   2.938  1.2675 -0.4493  2.6723
 1972TIP3   OH2 5879   3.357   5.002   0.180 -0.1393 -0.0924 -0.4538
 1972TIP3    H1 5880   3.312   4.918   0.179  0.2661 -0.3106 -1.7415
 1972TIP3    H2 5881   3.292   5.065   0.147  0.3831 -0.3702 -2.0941
 1973TIP3   OH2 5882   5.268   2.370   5.314  0.3028 -0.6093 -0.7695
 1973TIP3    H1 5883   5.280   2.279   5.286  0.5058 -0.5534 -0.8705
 1973TIP3    H2 5884   5.334   2.419   5.264 -1.6455  0.0182 -2.8855
 1974TIP3   OH2 5885   0.730   3.380   2.911 -0.4297  0.0695  0.0685
 1974TIP3    H1 5886   0.678   3.323   2.855 -0.1897 -0.1687  0.0868
 1974TIP3    H2 5887   0.669   3.450   2.937 -0.8000 -0.3214  0.2647
 1975TIP3   OH2 5888   5.665   0.025   3.694  0.1710 -0.6221 -0.8992
 1975TIP3    H1 5889   5.618   0.029   3.611  1.5734 -0.3183 -1.7152
 1975TIP3    H2 5890   5.741   0.083   3.682 -0.2045  0.3639  1.0155
 1976TIP3   OH2 5891   0.620   1.285   4.551 -0.0607  0.7752  0.2303
 1976TIP3    H1 5892   0.583   1.217   4.607  2.1645  0.6088  1.6390
 1976TIP3    H2 5893   0.652   1.352   4.612  3.1444  0.2472 -0.6631
 1977TIP3   OH2 5894   4.952   1.063   2.758 -0.0992  0.5008 -0.3339
 1977TIP3    H1 5895   5.035   1.017   2.771 -0.0877  1.0895  2.0112
 1977TIP3    H2 5896   4.974   1.135   2.698  1.3633  1.3072  1.1030
 1978TIP3   OH2 5897   4.891   3.796   1.658  0.0463  0.2543 -0.2831
 1978TIP3    H1 5898   4.838   3.777   1.581 -0.0955 -0.4029 -0.0240
 1978TIP3    H2 5899   4.981   3.804   1.624 -0.0405  0.1371 -0.5378
 1979TIP3   OH2 5900   2.885   6.712   3.093  0.1608 -0.1978  0.4246
 1979TIP3    H1 5901   2.956   6.676   3.147  0.2082 -1.2287 -0.2990
 1979TIP3    H2 5902   2.931   6.759   3.023  0.0992  0.9153  1.1008
 1980TIP3   OH2 5903   3.376   3.300   4.258 -0.3582 -0.4207 -0.0767
 1980TIP3    H1 5904   3.363   3.208   4.237 -0.5750 -0.7360  1.3361
 1980TIP3    H2 5905   3.389   3.302   4.353  1.5111  0.8138 -0.3000
 1981TIP3   OH2 5906   5.136   2.262   2.371  0.0281  0.4520 -0.5641
 1981TIP3    H1 5907   5.137   2.357   2.361 -0.3377  0.2370 -3.8780
 1981TIP3    H2 5908   5.077   2.246   2.445  0.3530  2.7604  0.2815
 1982TIP3   OH2 5909   4.779   2.267   1.692  0.3096 -0.4489 -0.6436
 1982TIP3    H1 5910   4.871   2.240   1.694  0.0232 -1.6714 -1.9502
 1982TIP3    H2 5911   4.733   2.199   1.739 -0.0064 -0.2219 -0.6242
 1983TIP3   OH2 5912   5.739   3.616   0.841  0.7473  0.2445  0.6657
 1983TIP3    H1 5913   5.659   3.568   0.819 -0.8332  2.3198  1.5957
 1983TIP3    H2 5914   5.709   3.691   0.892  3.0983  2.1457 -0.5418
 1984TIP3   OH2 5915   3.202   2.972   1.858  0.2896 -0.0634 -0.3052
 1984TIP3    H1 5916   3.272   2.907   1.853 -0.0598 -0.6510  1.6113
 1984TIP3    H2 5917   3.222   3.024   1.936 -2.0117 -1.0702  1.0712
 1985TIP3   OH2 5918   4.949   1.581   5.326  0.0800 -0.0501  0.3113
 1985TIP3    H1 5919   4.972   1.671   5.302  0.1919 -0.5894 -1.7028
 1985TIP3    H2 5920   4.878   1.591   5.390 -2.5605  1.4978 -2.5873
 1986TIP3   OH2 5921   0.317   1.317   0.045 -0.4381  0.5504  0.3747
 1986TIP3    H1 5922   0.366   1.277  -0.027 -1.0861  0.8164 -0.2191
 1986TIP3    H2 5923   0.359   1.283   0.124 -0.6779 -0.9362 -0.1139
 1987TIP3   OH2 5924   0.479   0.099   3.102  0.2138  0.1068 -0.3428
 1987TIP3    H1 5925   0.484   0.096   3.006  1.4517  1.3767 -0.3561
 1987TIP3    H2 5926   0.412   0.034   3.124 -0.4257  0.0928 -2.0883
 1988TIP3   OH2 5927   0.652   6.504   3.895 -0.1576  0.2400 -0.1870
 1988TIP3    H1 5928   0.662   6.432   3.833 -1.1630  1.5573 -1.9769
 1988TIP3    H2 5929   0.736   6.509   3.940  0.3749 -1.2000 -0.9508
 1989TIP3   OH2 5930   6.225   4.908   5.102  0.2839 -0.2374  0.4742
 1989TIP3    H1 5931   6.288   4.978   5.085  0.4368 -0.6266 -0.6850
 1989TIP3    H2 5932   6.237   4.846   5.029 -1.6036 -0.2002  0.0623
 1990TIP3   OH2 5933   6.499   4.192   2.378  0.2465  0.0411  0.1207
 1990TIP3    H1 5934   6.589   4.160   2.370  0.4168  0.5205  0.1328
 1990TIP3    H2 5935   6.495   4.232   2.465  0.1107  0.3011 -0.0043
 1991TIP3   OH2 5936   2.093   4.333   3.750  0.0095  0.1573  0.0212
 1991TIP3    H1 5937   2.086   4.428   3.750 -0.4224  0.1405 -0.9020
 1991TIP3    H2 5938   2.185   4.315   3.734  0.3633  0.4045  1.6121
 1992TIP3   OH2 5939   1.620   2.189   4.392  0.2774  0.5064  0.2273
 1992TIP3    H1 5940   1.579   2.146   4.317  1.4508 -0.9735  0.3943
 1992TIP3    H2 5941   1.713   2.190   4.371  0.3604  2.7815  0.3622
 1993TIP3   OH2 5942   3.895   5.907   4.598  0.0447  0.7231  0.5181
 1993TIP3    H1 5943   3.818   5.957   4.572  1.0913  3.2290  1.8185
 1993TIP3    H2 5944   3.881   5.889   4.691  1.0362  1.3121  0.7966
 1994TIP3   OH2 5945   0.213   2.473   1.994  0.1513 -0.0054  0.6252
 1994TIP3    H1 5946   0.210   2.553   1.942 -0.4863  0.5597  1.4963
 1994TIP3    H2 5947   0.283   2.487   2.057  0.7879 -0.6054  0.0689
 1995TIP3   OH2 5948   4.053   4.429   3.242 -0.1212  0.0484  0.1858
 1995TIP3    H1 5949   4.077   4.485   3.167  0.4851  1.0919  1.1295
 1995TIP3    H2 5950   3.996   4.484   3.295 -0.1532 -0.5204  0.7463
 1996TIP3   OH2 5951   1.499   2.853   4.564 -0.2297  0.0801  0.1316
 1996TIP3    H1 5952   1.437   2.859   4.636  1.2028  3.1006  1.2672
 1996TIP3    H2 5953   1.457   2.900   4.492 -0.7673 -1.1295 -0.3792
 1997TIP3   OH2 5954   1.273   1.804   2.988 -0.2760 -0.3510  0.0237
 1997TIP3    H1 5955   1.274   1.827   3.081 -3.5377 -0.8617  0.3269
 1997TIP3    H2 5956   1.360   1.768   2.971  1.8454  3.3929  1.7912
 1998TIP3   OH2 5957   1.544   6.642   2.156 -0.4696  0.0837  0.0902
 1998TIP3    H1 5958   1.467   6.631   2.101 -1.0227  0.8764  0.6806
 1998TIP3    H2 5959   1.579   6.554   2.167  0.3512 -0.0113 -2.4831
 1999TIP3   OH2 5960   2.061   5.021   0.415  0.2914  0.2284  0.2170
 1999TIP3    H1 5961   2.097   5.110   0.409 -0.9982  0.7027 -0.6741
 1999TIP3    H2 5962   1.970   5.034   0.442 -0.1344 -0.7726 -0.6903
 2000TIP3   OH2 5963   4.507   6.768   5.196 -0.7011 -0.0569 -0.1767
 2000TIP3    H1 5964   4.579   6.820   5.161  0.0036  0.3557  1.7225
 2000TIP3    H2 5965   4.518   6.682   5.158  0.8080  0.0122  0.0645
 2001TIP3   OH2 5966   5.806   0.709   0.178  0.3067 -1.0610 -0.5765
 2001TIP3    H1 5967   5.854   0.659   0.243 -0.1430 -0.9993 -0.1908
 2001TIP3    H2 5968   5.865   0.781   0.154  0.4673 -1.0763 -0.2252
 2002TIP3   OH2 5969   6.570   5.862   5.887 -0.2625 -0.0717  0.6247
 2002TIP3    H1 5970   6.482   5.899   5.877 -0.9853 -1.4581  1.5390
 2002TIP3    H2 5971   6.618   5.895   5.812 -1.8405 -0.0665 -0.4380
 2003TIP3   OH2 5972   4.159   1.574   5.127 -0.2920 -0.1548  0.3808
 2003TIP3    H1 5973   4.193   1.551   5.040  0.1143  1.8803 -0.0625
 2003TIP3    H2 5974   4.237   1.598   5.177 -0.6752  0.2774  0.7785
 2004TIP3   OH2 5975   4.635   4.015   5.583  0.3615  0.6088  0.9649
 2004TIP3    H1 5976   4.702   4.075   5.550  0.2233  0.5474  0.5664
 2004TIP3    H2 5977   4.629   4.035   5.676 -0.1214  1.6527  0.7290
 2005TIP3   OH2 5978   1.310   4.716   5.707  0.0477  0.4449  0.5159
 2005TIP3    H1 5979   1.345   4.713   5.617 -1.2422  1.1416 -0.0309
 2005TIP3    H2 5980   1.388   4.710   5.763  1.1261  2.4627 -0.6533
 2006TIP3   OH2 5981   1.845   1.215   2.952 -0.3633 -0.3317 -0.8800
 2006TIP3    H1 5982   1.928   1.208   2.905 -0.1358 -0.1594 -0.5038
 2006TIP3    H2 5983   1.779   1.210   2.883 -0.0078  3.5607 -1.7674
 2007TIP3   OH2 5984   4.664   5.412   5.172 -0.3795  0.0703 -0.2016
 2007TIP3    H1 5985   4.620   5.335   5.135  0.1092 -0.6120  0.5899
 2007TIP3    H2 5986   4.755   5.385   5.183 -0.1738  0.8099 -0.0222
 2008TIP3   OH2 5987   4.542   2.114   1.044  0.2212 -0.3719 -0.3041
 2008TIP3    H1 5988   4.635   2.102   1.063  0.6558  0.7370 -1.6047
 2008TIP3    H2 5989   4.528   2.070   0.961 -0.5138 -0.8533  0.0640
 2009TIP3   OH2 5990   0.378   4.906   1.504  0.3358  0.0800 -0.2134
 2009TIP3    H1 5991   0.352   4.998   1.507  0.5425  0.1352 -0.1161
 2009TIP3    H2 5992   0.382   4.885   1.411 -1.4515 -0.3218 -0.2483
 2010TIP3   OH2 5993   5.983   0.199   1.517  0.0288 -0.7664 -0.1190
 2010TIP3    H1 5994   5.901   0.237   1.485  0.2797  0.0405  0.1511
 2010TIP3    H2 5995   5.973   0.105   1.506 -1.6656 -0.8458  1.5651
 2011TIP3   OH2 5996   0.418   4.565   2.148 -0.1683 -0.2801  0.3078
 2011TIP3    H1 5997   0.356   4.555   2.076 -0.1706 -1.0512  0.4077
 2011TIP3    H2 5998   0.503   4.542   2.109 -0.1874 -0.8252  0.5757
 2012TIP3   OH2 5999   2.279   5.910   5.741  0.0494 -0.0504  0.2859
 2012TIP3    H1 6000   2.318   5.903   5.654  0.5849 -0.3268  0.5460
 2012TIP3    H2 6001   2.185   5.909   5.725  0.1413  0.4286 -0.3325
 2013TIP3   OH2 6002   6.714   2.578   0.514  0.0191 -0.3354  0.0610
 2013TIP3    H1 6003   6.785   2.599   0.453  0.3025 -1.2135  0.0721
 2013TIP3    H2 6004   6.647   2.536   0.460 -1.2894  2.0507 -0.2734
 2014TIP3   OH2 6005   0.746   4.135   0.357 -0.9072 -0.1697  0.3356
 2014TIP3    H1 6006   0.810   4.101   0.420 -0.0684  0.2649 -0.2722
 2014TIP3    H2 6007   0.703   4.206   0.404 -0.1711  0.2585  0.3827
 2015TIP3   OH2 6008   0.763   3.896   3.754 -0.9827 -0.7010  0.1267
 2015TIP3    H1 6009   0.735   3.984   3.728 -0.3618  0.2094  2.3269
 2015TIP3    H2 6010   0.847   3.884   3.711 -0.4666  0.3215  0.8193
 2016TIP3   OH2 6011   3.873   3.091   4.584 -0.1212 -0.1233  0.3465
 2016TIP3    H1 6012   3.831   3.133   4.509  0.5704 -0.7318 -0.4004
 2016TIP3    H2 6013   3.911   3.163   4.635  2.6249  0.1550 -1.8482
 2017TIP3   OH2 6014   6.592   4.405   0.038  0.1840  0.0639 -0.1471
 2017TIP3    H1 6015   6.621   4.425  -0.051  0.6411  2.3316  0.4351
 2017TIP3    H2 6016   6.635   4.471   0.092 -3.7608  1.8860  1.1426
 2018TIP3   OH2 6017   0.494   2.743   5.650  0.2630  0.3618  0.2630
 2018TIP3    H1 6018   0.561   2.811   5.645  0.2211  0.3982  0.2110
 2018TIP3    H2 6019   0.484   2.712   5.561  0.1810  0.3840  0.2649
 2019TIP3   OH2 6020   5.470   5.857   1.710  0.8998 -0.0816 -0.4075
 2019TIP3    H1 6021   5.486   5.777   1.659  0.6811 -0.1022 -0.4440
 2019TIP3    H2 6022   5.377   5.853   1.732  1.0179 -0.1261  0.0922
 2020TIP3   OH2 6023   0.872   6.716   5.639 -0.2776  0.0729 -0.0028
 2020TIP3    H1 6024   0.854   6.625   5.665 -0.7553  0.7007  2.0296
 2020TIP3    H2 6025   0.814   6.769   5.694  0.2521  1.6375 -0.8947
 2021TIP3   OH2 6026   6.722   3.070   5.611 -0.0821  0.2280  0.6939
 2021TIP3    H1 6027   6.741   2.991   5.661 -1.4171  0.2232  1.2437
 2021TIP3    H2 6028   6.657   3.117   5.664 -1.0431  0.5454 -0.7119
 2022TIP3   OH2 6029   4.681   4.846   0.659  0.5017  0.1914  0.0148
 2022TIP3    H1 6030   4.738   4.869   0.731 -0.9650  0.8395  1.0196
 2022TIP3    H2 6031   4.600   4.815   0.701 -0.6084  1.1436 -1.3028
 2023TIP3   OH2 6032   3.578   2.790   5.638 -0.2320 -0.2325  0.0259
 2023TIP3    H1 6033   3.593   2.745   5.721 -1.8888 -0.8362  0.0346
 2023TIP3    H2 6034   3.605   2.728   5.571  2.0968  0.6373  0.0691
 2024TIP3   OH2 6035   5.369   6.749   4.455  0.1838 -0.0797 -0.1917
 2024TIP3    H1 6036   5.296   6.807   4.475  0.2025 -0.0795 -0.1256
 2024TIP3    H2 6037   5.330   6.662   4.452 -0.3707  0.1747 -2.8552
 2025TIP3   OH2 6038   3.140   1.226   4.036  0.1988  0.2076 -0.5783
 2025TIP3    H1 6039   3.051   1.220   4.000  0.1396  0.3906 -0.4639
 2025TIP3    H2 6040   3.167   1.316   4.017 -0.3692  0.7560  1.0734
 2026TIP3   OH2 6041   4.551   4.135   2.200  0.6752  0.4029  0.1324
 2026TIP3    H1 6042   4.586   4.168   2.118  0.5188  0.0455 -0.0824
 2026TIP3    H2 6043   4.502   4.056   2.175 -0.7061  1.1652  0.3472
 2027TIP3   OH2 6044   1.575   2.373   0.035  0.4857 -0.1287  0.8988
 2027TIP3    H1 6045   1.521   2.452   0.037  1.2591  0.4070  0.8643
 2027TIP3    H2 6046   1.664   2.405   0.018  0.6529 -1.0899 -0.1054
 2028TIP3   OH2 6047   4.010   0.605   2.767 -0.0081  0.9032  0.5667
 2028TIP3    H1 6048   4.019   0.687   2.816  2.4869  1.3075 -0.4077
 2028TIP3    H2 6049   3.942   0.557   2.814 -2.0742  3.7688  0.7799
 2029TIP3   OH2 6050   5.991   6.105   5.668  0.1995  0.0572  0.1086
 2029TIP3    H1 6051   6.016   6.035   5.729  0.8211  0.0073 -0.2078
 2029TIP3    H2 6052   6.026   6.078   5.584 -0.4231  0.2664 -0.2233
 2030TIP3   OH2 6053   0.186   5.869   0.082  0.2285 -0.3846 -0.1799
 2030TIP3    H1 6054   0.201   5.907  -0.004  0.6807 -0.8555 -0.3206
 2030TIP3    H2 6055   0.103   5.906   0.112  2.1518  3.3747  1.1610
 2031TIP3   OH2 6056   6.734   6.496   4.391 -0.4324  0.1031  0.1355
 2031TIP3    H1 6057   6.797   6.565   4.410  2.2905 -1.1926 -3.1284
 2031TIP3    H2 6058   6.677   6.533   4.324  0.1568 -0.3439 -0.6223
 2032TIP3   OH2 6059   5.361   1.478   1.247  0.4105  1.1446  0.0793
 2032TIP3    H1 6060   5.302   1.551   1.226 -1.7430  0.1780  2.2452
 2032TIP3    H2 6061   5.325   1.441   1.327  2.1520 -1.5763 -0.2721
 2033TIP3   OH2 6062   3.647   2.514   1.337 -0.7392 -0.0797 -0.2287
 2033TIP3    H1 6063   3.577   2.556   1.387 -1.3302  0.5215 -1.5092
 2033TIP3    H2 6064   3.647   2.424   1.368 -0.3956  0.5028  1.5657
 2034TIP3   OH2 6065   3.563   0.441   1.821  0.1821 -0.6168 -0.2578
 2034TIP3    H1 6066   3.520   0.401   1.746  0.6602 -0.2933 -0.7091
 2034TIP3    H2 6067   3.502   0.428   1.894  0.1421 -1.7975 -0.4847
 2035TIP3   OH2 6068   3.397   5.183   2.270 -0.2801 -0.0123  0.0139
 2035TIP3    H1 6069   3.354   5.263   2.301  0.6171  1.1881 -1.6570
 2035TIP3    H2 6070   3.484   5.185   2.310 -0.2623 -0.1719 -0.0150
 2036TIP3   OH2 6071   4.694   0.318   5.433 -0.2264 -0.1615 -0.3257
 2036TIP3    H1 6072   4.749   0.240   5.433  0.8640  0.5821 -0.6688
 2036TIP3    H2 6073   4.733   0.375   5.500 -2.0158 -0.5729  1.1345
 2037TIP3   OH2 6074   7.186   5.388   1.043  0.2262  0.0311  0.0440
 2037TIP3    H1 6075   7.113   5.448   1.057 -0.4328 -0.1782 -2.0590
 2037TIP3    H2 6076   7.264   5.437   1.068 -0.3434  1.6349 -1.1938
 2038TIP3   OH2 6077   6.563   1.651   3.537 -0.0634  0.5588 -0.0581
 2038TIP3    H1 6078   6.475   1.688   3.533  0.5574  2.0622 -0.5510
 2038TIP3    H2 6079   6.621   1.728   3.545  1.2405 -0.3510 -0.4089
 2039TIP3   OH2 6080   1.571   1.473   2.537 -0.0522 -0.1712 -0.0678
 2039TIP3    H1 6081   1.572   1.426   2.454  1.3009 -1.0806  0.4423
 2039TIP3    H2 6082   1.611   1.558   2.517  0.8809 -0.6382 -0.2139
 2040TIP3   OH2 6083   1.372   0.818   1.529 -0.1527  0.2206  0.0671
 2040TIP3    H1 6084   1.454   0.771   1.542  0.3353  1.1315  0.4411
 2040TIP3    H2 6085   1.329   0.774   1.456  0.0444 -1.0822  0.7100
 2041TIP3   OH2 6086   6.524   0.050   5.821 -0.3243 -0.0083 -0.3762
 2041TIP3    H1 6087   6.614   0.066   5.849 -0.1405 -0.1124 -0.8967
 2041TIP3    H2 6088   6.475   0.038   5.902  0.2628 -0.6630 -0.1076
 2042TIP3   OH2 6089   1.582   3.448   4.588 -0.0002  0.1112 -0.2644
 2042TIP3    H1 6090   1.645   3.504   4.543 -1.4890  1.1507 -1.1303
 2042TIP3    H2 6091   1.528   3.509   4.639 -1.1620 -0.6084 -0.6055
 2043TIP3   OH2 6092   6.483   4.926   1.756  0.0503  0.4980 -0.1952
 2043TIP3    H1 6093   6.529   4.933   1.839 -0.2231  0.2686 -0.0212
 2043TIP3    H2 6094   6.551   4.934   1.689  0.6013 -1.5209  0.0668
 2044TIP3   OH2 6095   7.099   1.878   0.464 -0.0837 -0.0268  0.3606
 2044TIP3    H1 6096   7.122   1.922   0.546  0.2126 -0.5223  0.5492
 2044TIP3    H2 6097   7.123   1.939   0.396 -0.2252  0.3447  0.6402
 2045TIP3   OH2 6098   2.881   0.536   4.460 -0.7093  0.2888 -0.2616
 2045TIP3    H1 6099   2.885   0.554   4.554  0.9479 -0.6607 -0.0993
 2045TIP3    H2 6100   2.896   0.621   4.419  0.3628  0.4337  0.3765
 2046TIP3   OH2 6101   5.749   5.861   3.268  0.4764  0.1636 -0.3797
 2046TIP3    H1 6102   5.793   5.777   3.257 -0.3937 -0.4319  0.5720
 2046TIP3    H2 6103   5.775   5.891   3.355 -0.0892  0.3539 -0.2740
 2047TIP3   OH2 6104   0.680   0.926   1.631 -0.0036  0.4520 -0.0018
 2047TIP3    H1 6105   0.683   0.971   1.715  0.5887  0.0659  0.1929
 2047TIP3    H2 6106   0.589   0.899   1.621 -0.1760  0.9272  0.2847
 2048TIP3   OH2 6107   2.845   3.964   0.647 -0.4026 -0.4918  0.0902
 2048TIP3    H1 6108   2.757   3.939   0.620  0.3685 -0.9100 -2.2684
 2048TIP3    H2 6109   2.903   3.923   0.583  1.6395 -1.2767  2.2849
 2049TIP3   OH2 6110   5.320   6.206   1.346 -0.3204 -0.2555 -0.1251
 2049TIP3    H1 6111   5.293   6.200   1.254  0.1312  1.3922 -0.3943
 2049TIP3    H2 6112   5.414   6.223   1.342 -0.3626  0.1869  0.6297
 2050TIP3   OH2 6113   4.132   4.993   1.614  0.6448 -0.7452 -0.7098
 2050TIP3    H1 6114   4.108   4.934   1.685 -1.6869  2.0438  1.0583
 2050TIP3    H2 6115   4.082   4.962   1.538 -1.6551 -0.3107  0.5511
 2051TIP3   OH2 6116   7.136   5.933   0.097 -0.2983 -0.3389  0.0423
 2051TIP3    H1 6117   7.160   6.009   0.043  0.4459  1.5764  2.8525
 2051TIP3    H2 6118   7.044   5.947   0.120  0.0488  0.1580  1.1839
 2052TIP3   OH2 6119   0.937   1.784   3.158  0.1802 -0.8906 -0.3595
 2052TIP3    H1 6120   0.882   1.710   3.183 -2.3658  1.7362  2.7397
 2052TIP3    H2 6121   0.931   1.789   3.063 -4.0715 -1.5455 -0.2967
 2053TIP3   OH2 6122   1.736   5.342   1.006 -0.6060 -0.3403 -0.0494
 2053TIP3    H1 6123   1.789   5.301   1.073  0.5746 -1.9902 -1.8750
 2053TIP3    H2 6124   1.751   5.289   0.927 -0.4319  2.5107 -2.1199
 2054TIP3   OH2 6125   3.606   4.316   2.136  0.1218  0.1384  0.2403
 2054TIP3    H1 6126   3.698   4.300   2.117  0.1134 -1.0639  1.1618
 2054TIP3    H2 6127   3.606   4.386   2.201  0.3607  0.3355  0.0313
 2055TIP3   OH2 6128   2.294   4.055   4.248 -0.4173  0.4275  0.0209
 2055TIP3    H1 6129   2.356   3.990   4.214 -0.2041  1.3640 -1.4521
 2055TIP3    H2 6130   2.342   4.101   4.316  0.7085  1.4478 -1.4117
 2056TIP3   OH2 6131   1.002   2.065   1.450 -0.2645 -0.1744  0.8494
 2056TIP3    H1 6132   0.911   2.039   1.461  0.5000 -2.5445  2.3897
 2056TIP3    H2 6133   1.020   2.054   1.357 -2.1893  2.9690 -0.0359
 2057TIP3   OH2 6134   2.955   3.926   1.813  0.1775 -0.5574 -0.0630
 2057TIP3    H1 6135   2.871   3.926   1.859 -1.0696 -2.8749 -2.1019
 2057TIP3    H2 6136   2.938   3.976   1.733  0.0226 -2.7410 -1.4775
 2058TIP3   OH2 6137   5.043   0.134   5.734 -0.0445 -0.6732  0.8209
 2058TIP3    H1 6138   4.954   0.161   5.713  0.4293  0.2257 -0.1190
 2058TIP3    H2 6139   5.063   0.066   5.669  1.5496  2.3570 -2.1187
 2059TIP3   OH2 6140   5.375   2.775   1.452 -0.2496 -0.4278 -0.2724
 2059TIP3    H1 6141   5.293   2.778   1.401  0.2988  2.3565 -1.2076
 2059TIP3    H2 6142   5.347   2.794   1.542 -1.0059 -3.4744  0.2357
 2060TIP3   OH2 6143   6.360   2.216   5.831 -0.3029  0.3162 -0.5282
 2060TIP3    H1 6144   6.410   2.213   5.912 -0.1788 -0.4401 -0.6242
 2060TIP3    H2 6145   6.368   2.306   5.801  2.4479 -0.1140 -1.4264
 2061TIP3   OH2 6146   4.837   1.079   5.458 -0.0657 -0.5329  0.0332
 2061TIP3    H1 6147   4.786   1.065   5.538  0.5896  0.5588  0.6902
 2061TIP3    H2 6148   4.792   1.150   5.413  1.0354  0.7329  0.8292
 2062TIP3   OH2 6149   6.089   5.133   5.151 -0.2639 -0.4893 -0.6381
 2062TIP3    H1 6150   6.110   5.041   5.135 -0.7887 -0.6891 -0.2226
 2062TIP3    H2 6151   6.006   5.131   5.200  0.7783  0.1205  1.2534
 2063TIP3   OH2 6152   4.696   4.001   3.493 -0.5458  0.2672 -0.2432
 2063TIP3    H1 6153   4.647   3.951   3.428  0.7596 -0.1301 -0.9469
 2063TIP3    H2 6154   4.671   3.962   3.577 -0.9823 -0.2998 -0.6297
 2064TIP3   OH2 6155   6.918   2.362   2.618 -0.3152 -0.3365 -0.1104
 2064TIP3    H1 6156   6.846   2.331   2.563  0.1161  0.3574 -1.1105
 2064TIP3    H2 6157   6.996   2.316   2.585  0.1251  0.8603 -0.8162
 2065TIP3   OH2 6158   3.003   5.107   4.780  0.2708  0.2255 -0.4534
 2065TIP3    H1 6159   2.912   5.110   4.750  0.2424 -0.6465 -0.4821
 2065TIP3    H2 6160   3.005   5.036   4.844  0.8564  0.4762 -0.1907
 2066TIP3   OH2 6161   3.768   1.227   1.131 -0.3230  0.2587 -0.2212
 2066TIP3    H1 6162   3.855   1.192   1.151 -0.3543  0.3401  0.0543
 2066TIP3    H2 6163   3.770   1.243   1.036 -0.0269  0.2956 -0.2084
 2067TIP3   OH2 6164   6.100   5.783   2.501  0.1113 -0.2400 -0.1299
 2067TIP3    H1 6165   6.079   5.876   2.504 -1.5927 -0.5556 -1.2828
 2067TIP3    H2 6166   6.035   5.741   2.557  1.4357 -0.7027  1.1513
 2068TIP3   OH2 6167   6.644   4.174   4.046 -0.3727 -0.1326 -0.3444
 2068TIP3    H1 6168   6.560   4.130   4.057 -1.3018  1.2106 -1.5826
 2068TIP3    H2 6169   6.684   4.130   3.971 -1.5417  1.3357 -1.9306
 2069TIP3   OH2 6170   5.966   0.281   3.168 -1.0369 -0.2418 -0.1127
 2069TIP3    H1 6171   5.961   0.320   3.081 -1.2886 -1.1266 -0.5064
 2069TIP3    H2 6172   5.884   0.234   3.178 -0.0444 -2.1275 -0.3718
 2070TIP3   OH2 6173   0.036   4.973   5.017  0.3421  0.3434  0.1158
 2070TIP3    H1 6174   0.011   5.058   4.980 -0.4468 -0.2654 -0.8178
 2070TIP3    H2 6175  -0.029   4.957   5.085  0.4754  0.4638  0.2741
 2071TIP3   OH2 6176   6.796   4.503   4.844  0.5408 -0.4285  0.2885
 2071TIP3    H1 6177   6.869   4.534   4.790 -0.2324  0.1887 -0.4335
 2071TIP3    H2 6178   6.825   4.419   4.878  1.5706 -0.2058 -0.0259
 2072TIP3   OH2 6179   7.184   3.989   2.617  0.1392 -0.2215 -0.0544
 2072TIP3    H1 6180   7.193   4.046   2.694 -0.6587  0.2108 -0.2783
 2072TIP3    H2 6181   7.271   3.951   2.606  0.1620 -0.6215  1.3255
 2073TIP3   OH2 6182   6.271   2.511   2.654  0.3099  0.1775 -0.1118
 2073TIP3    H1 6183   6.311   2.429   2.684  0.9127  1.2150  2.1079
 2073TIP3    H2 6184   6.237   2.552   2.734  1.1233  2.6762 -0.9460
 2074TIP3   OH2 6185   5.858   1.135   3.206 -0.4111 -0.0474 -0.1744
 2074TIP3    H1 6186   5.796   1.110   3.275 -0.4624  0.7342  0.0643
 2074TIP3    H2 6187   5.903   1.212   3.239  0.1071 -0.1135 -0.7000
 2075TIP3   OH2 6188   3.807   4.032   3.263  0.2345 -0.0062 -0.0658
 2075TIP3    H1 6189   3.831   3.944   3.291 -2.3813 -1.4296 -1.8155
 2075TIP3    H2 6190   3.789   4.079   3.344  1.1978 -1.2286  0.8958
 2076TIP3   OH2 6191   2.956   6.749   3.748  0.1543 -0.1345 -0.9055
 2076TIP3    H1 6192   2.898   6.825   3.760  0.3695 -0.1066  0.0752
 2076TIP3    H2 6193   2.977   6.749   3.655 -2.6983 -1.0972 -1.6309
 2077TIP3   OH2 6194   0.557   5.442   3.294 -0.3180  0.3101 -0.8269
 2077TIP3    H1 6195   0.519   5.517   3.340 -1.3111 -1.3045  1.1454
 2077TIP3    H2 6196   0.485   5.407   3.241  0.2064  0.8151 -1.9272
 2078TIP3   OH2 6197   2.853   5.283   3.088 -0.2202 -0.3625  0.0344
 2078TIP3    H1 6198   2.900   5.352   3.041  0.1981 -0.1675  0.7204
 2078TIP3    H2 6199   2.782   5.329   3.133 -1.2245 -0.6833 -1.1635
 2079TIP3   OH2 6200   5.676   1.066   0.174 -0.5127  0.0712 -0.4022
 2079TIP3    H1 6201   5.760   1.072   0.127  0.2233  2.4286  1.0362
 2079TIP3    H2 6202   5.696   1.015   0.252 -0.5614  0.0825 -0.3825
 2080TIP3   OH2 6203   2.678   0.212   4.115  0.1859  0.6959 -0.2621
 2080TIP3    H1 6204   2.633   0.161   4.047  1.2220 -1.3106  0.4780
 2080TIP3    H2 6205   2.620   0.286   4.132 -1.3942 -0.2255 -1.3989
 2081TIP3   OH2 6206   5.082   5.309   1.206 -0.1186 -0.3265 -0.0577
 2081TIP3    H1 6207   4.988   5.306   1.194 -0.0925 -1.5182 -0.0928
 2081TIP3    H2 6208   5.108   5.396   1.175 -0.8225 -1.0255 -2.9633
 2082TIP3   OH2 6209   1.011   0.246   2.573  0.7772  0.3072  0.1343
 2082TIP3    H1 6210   0.939   0.301   2.543 -1.8683 -2.6198  0.6294
 2082TIP3    H2 6211   1.001   0.245   2.669  1.3180 -0.3606  0.1874
 2083TIP3   OH2 6212   4.411   6.153   3.313  0.3744 -0.0345  0.2253
 2083TIP3    H1 6213   4.365   6.074   3.342 -2.0528  1.1757 -0.1013
 2083TIP3    H2 6214   4.396   6.157   3.219  2.2756 -0.2316 -0.1384
 2084TIP3   OH2 6215   0.194   2.246   3.159  0.3778 -0.1344  0.2260
 2084TIP3    H1 6216   0.180   2.341   3.157 -1.4733 -0.3239  1.4247
 2084TIP3    H2 6217   0.285   2.236   3.187  0.8200  1.2737 -0.6064
 2085TIP3   OH2 6218   0.451   0.847   0.488  0.0755 -0.1137  0.8436
 2085TIP3    H1 6219   0.508   0.883   0.420 -0.5615 -1.0253 -0.2039
 2085TIP3    H2 6220   0.499   0.860   0.570  1.6906 -0.6793  0.0182
 2086TIP3   OH2 6221   1.265   5.099   2.397 -0.0285 -0.6935 -0.7442
 2086TIP3    H1 6222   1.268   5.194   2.406  0.9520 -0.9396  2.8938
 2086TIP3    H2 6223   1.180   5.083   2.355 -1.5653  1.7126  1.1178
 2087TIP3   OH2 6224   2.230   0.771   4.710 -0.2970 -0.5674 -0.3629
 2087TIP3    H1 6225   2.316   0.798   4.741 -0.7192 -1.1752  1.4429
 2087TIP3    H2 6226   2.224   0.678   4.734 -2.1974 -0.0712  1.3849
 2088TIP3   OH2 6227   3.331   1.258   4.876 -0.2990 -0.0638  0.1481
 2088TIP3    H1 6228   3.278   1.306   4.813 -1.0452  0.1858  0.9458
 2088TIP3    H2 6229   3.421   1.286   4.857 -0.6505  1.1861  0.1838
 2089TIP3   OH2 6230   4.559   6.821   2.103 -0.4076 -0.4178 -0.4055
 2089TIP3    H1 6231   4.508   6.757   2.053  0.1337 -0.7751 -0.5012
 2089TIP3    H2 6232   4.650   6.795   2.090 -0.2528 -0.4801  0.7137
 2090TIP3   OH2 6233   0.791   6.489   5.284 -0.0836  0.2166 -0.0496
 2090TIP3    H1 6234   0.739   6.460   5.359  1.1974  1.0916  1.2376
 2090TIP3    H2 6235   0.741   6.461   5.207  0.1455 -3.7106  1.0403
 2091TIP3   OH2 6236   3.771   2.445   0.827  0.4733 -0.3455  0.1912
 2091TIP3    H1 6237   3.797   2.364   0.871 -0.6758 -0.4481  0.7432
 2091TIP3    H2 6238   3.712   2.488   0.890 -1.3851 -0.5801 -1.2973
 2092TIP3   OH2 6239   5.261   1.102   0.560  0.2799 -0.0748  0.5736
 2092TIP3    H1 6240   5.308   1.060   0.488 -0.7694  1.8312 -1.3271
 2092TIP3    H2 6241   5.315   1.084   0.637  1.7926 -1.6471 -0.7727
 2093TIP3   OH2 6242   3.611   0.451   2.651  0.2932 -0.2997 -0.1215
 2093TIP3    H1 6243   3.600   0.383   2.584 -0.5161 -1.8581  1.4928
 2093TIP3    H2 6244   3.682   0.506   2.618 -0.2188 -0.8503 -2.3417
 2094TIP3   OH2 6245   3.149   0.164   5.347  0.4837 -0.3615  0.0533
 2094TIP3    H1 6246   3.058   0.176   5.320  0.2849 -2.3804 -0.3618
 2094TIP3    H2 6247   3.154   0.203   5.434 -0.5492  0.4958 -0.2467
 2095TIP3   OH2 6248   6.633   5.454   0.533  0.0650  0.2278  0.4707
 2095TIP3    H1 6249   6.599   5.440   0.621  0.6233  0.4007  0.7167
 2095TIP3    H2 6250   6.691   5.530   0.540 -0.5565  0.7828 -0.2259
 2096TIP3   OH2 6251   0.078   2.320   4.949 -0.2742  0.2304  0.1210
 2096TIP3    H1 6252   0.011   2.304   4.882 -0.8826  2.1456  0.2021
 2096TIP3    H2 6253   0.146   2.368   4.902 -0.0612  0.3598  0.5688
 2097TIP3   OH2 6254   6.346   5.597   3.070  0.5830  0.2406  0.2619
 2097TIP3    H1 6255   6.265   5.590   3.020  1.2946 -0.4958 -0.8170
 2097TIP3    H2 6256   6.326   5.661   3.139 -0.8222  0.2652 -0.1409
 2098TIP3   OH2 6257   3.214   5.955   3.230 -0.3080  0.4572 -0.1857
 2098TIP3    H1 6258   3.184   6.032   3.279 -0.8899  0.9132 -1.2318
 2098TIP3    H2 6259   3.142   5.892   3.239 -0.0712  0.2383  0.2031
 2099TIP3   OH2 6260   1.803   4.924   5.372 -0.1910  0.5046  0.1047
 2099TIP3    H1 6261   1.880   4.875   5.344  1.0594  1.6275  1.3982
 2099TIP3    H2 6262   1.811   5.009   5.328  0.2371  1.2247  1.4950
 2100TIP3   OH2 6263   6.430   0.670   1.520  0.3878 -0.2576 -0.1169
 2100TIP3    H1 6264   6.475   0.602   1.570  1.6596  0.4594 -0.2451
 2100TIP3    H2 6265   6.440   0.749   1.573  0.4538  0.1957 -0.7930
 2101TIP3   OH2 6266   6.327   3.005   5.589 -0.3533 -0.3836 -0.0970
 2101TIP3    H1 6267   6.417   3.036   5.585 -1.1013  1.8838 -1.7224
 2101TIP3    H2 6268   6.282   3.068   5.645 -0.7786 -2.1382  1.6604
 2102TIP3   OH2 6269   5.665   2.390   5.618 -0.4730  0.1676 -0.1754
 2102TIP3    H1 6270   5.579   2.426   5.638 -0.1800  1.9363 -1.8176
 2102TIP3    H2 6271   5.719   2.466   5.599  0.5322 -1.0191 -2.5287
 2103TIP3   OH2 6272   6.765   4.636   2.558  0.3812  0.7698 -0.1345
 2103TIP3    H1 6273   6.782   4.676   2.643 -0.4150  0.0989  0.3595
 2103TIP3    H2 6274   6.782   4.542   2.572 -0.7862  0.5041 -0.4117
 2104TIP3   OH2 6275   7.168   3.778   0.869  0.3199  0.7333 -1.0717
 2104TIP3    H1 6276   7.235   3.714   0.891 -0.4136  0.1890 -0.3149
 2104TIP3    H2 6277   7.151   3.766   0.776  0.5376  0.1535 -1.0395
 2105TIP3   OH2 6278   4.909   1.588   2.217  0.7990 -0.4125 -0.1116
 2105TIP3    H1 6279   4.956   1.671   2.214  1.5238 -0.8383 -0.8684
 2105TIP3    H2 6280   4.826   1.606   2.174  1.0606 -0.1459 -0.5138
 2106TIP3   OH2 6281   4.957   3.617   1.857 -0.1719  0.0205  0.2933
 2106TIP3    H1 6282   4.903   3.666   1.795  1.9742  0.3406 -1.4535
 2106TIP3    H2 6283   4.958   3.671   1.936 -1.7807  0.3344  0.1366
 2107TIP3   OH2 6284   6.709   0.995   4.324 -0.0482 -0.1259  0.3451
 2107TIP3    H1 6285   6.760   0.930   4.372  0.9582  0.5424  0.2166
 2107TIP3    H2 6286   6.772   1.035   4.263 -0.6751  0.8471  0.3089
 2108TIP3   OH2 6287   1.066   4.346   1.679 -0.2285  0.0701 -0.0692
 2108TIP3    H1 6288   1.007   4.381   1.746 -2.7580 -0.0900 -2.0421
 2108TIP3    H2 6289   1.020   4.268   1.646  1.0384 -0.0042 -1.7883
 2109TIP3   OH2 6290   3.493   1.028   5.488  0.6544  0.0611  0.1426
 2109TIP3    H1 6291   3.423   0.993   5.543  0.9693 -2.1632 -0.7774
 2109TIP3    H2 6292   3.507   1.117   5.522 -0.8169 -0.3464  2.0283
 2110TIP3   OH2 6293   3.058   4.810   1.426 -0.3629  0.0709 -0.6278
 2110TIP3    H1 6294   2.977   4.769   1.457 -0.4217  0.2910 -0.4936
 2110TIP3    H2 6295   3.123   4.739   1.429 -0.9313 -0.5707 -2.3605
 2111TIP3   OH2 6296   0.176   2.603   5.725 -0.2065  0.0499 -0.8560
 2111TIP3    H1 6297   0.113   2.582   5.795 -0.4688 -0.9805 -1.3835
 2111TIP3    H2 6298   0.261   2.578   5.761  0.1123  2.4678  0.2899
 2112TIP3   OH2 6299   5.478   2.403   3.306 -0.2702 -0.3887  0.1548
 2112TIP3    H1 6300   5.572   2.386   3.305 -0.3085 -0.7417  1.2933
 2112TIP3    H2 6301   5.438   2.317   3.298 -0.5358 -0.1040 -2.1471
 2113TIP3   OH2 6302   2.135   0.356   0.127  0.6886 -0.5613  0.2663
 2113TIP3    H1 6303   2.096   0.319   0.206  1.5138 -1.1376  0.4134
 2113TIP3    H2 6304   2.229   0.349   0.140  1.1145  4.0836  1.5279
 2114TIP3   OH2 6305   2.055   1.953   0.465  0.3560  0.9235  0.6793
 2114TIP3    H1 6306   2.091   1.880   0.515  1.3040 -0.8824 -2.4087
 2114TIP3    H2 6307   2.118   2.024   0.478  0.2028  0.7675  2.5295
 2115TIP3   OH2 6308   2.907   5.961   4.992 -0.2294 -0.5226 -0.6847
 2115TIP3    H1 6309   2.858   5.887   4.955 -0.4547  0.0064 -1.4738
 2115TIP3    H2 6310   2.997   5.946   4.964 -0.0056 -1.2344  0.3519
 2116TIP3   OH2 6311   5.917   0.586   5.866 -0.0055  0.2480 -0.1135
 2116TIP3    H1 6312   6.005   0.563   5.835  0.1726  2.1908 -1.2095
 2116TIP3    H2 6313   5.860   0.520   5.826  1.0008 -1.6494  1.4288
 2117TIP3   OH2 6314   0.812   4.313   5.342 -0.3473  0.1541 -0.4834
 2117TIP3    H1 6315   0.886   4.309   5.281 -1.1633 -0.4153 -1.4613
 2117TIP3    H2 6316   0.768   4.395   5.323  2.0509  2.3975  2.5960
 2118TIP3   OH2 6317   3.864   2.391   0.327 -0.1061  0.4747  0.1215
 2118TIP3    H1 6318   3.836   2.324   0.265  2.0412  0.0674 -0.4835
 2118TIP3    H2 6319   3.951   2.416   0.298 -0.2540  2.5027  1.2066
 2119TIP3   OH2 6320   2.229   0.575   5.807 -0.0935  0.0279 -0.4593
 2119TIP3    H1 6321   2.135   0.591   5.810 -0.1458  0.1974 -2.2463
 2119TIP3    H2 6322   2.239   0.484   5.834 -0.9734 -0.5762 -2.0191
 2120TIP3   OH2 6323   1.233   4.207   0.558 -0.2065 -0.5847 -0.0852
 2120TIP3    H1 6324   1.230   4.112   0.573  3.1024 -0.7850  0.1388
 2120TIP3    H2 6325   1.267   4.217   0.469  1.4112  0.3103  0.5894
 2121TIP3   OH2 6326   4.171   2.119   3.032  0.5952 -0.5850  0.2867
 2121TIP3    H1 6327   4.239   2.053   3.017  0.0893 -1.3642  1.2587
 2121TIP3    H2 6328   4.193   2.158   3.116  0.5779  0.1114 -0.0238
 2122TIP3   OH2 6329   2.533   5.676   3.034 -0.4106  0.7462  0.7801
 2122TIP3    H1 6330   2.558   5.646   3.121 -0.0771  0.5156  0.6087
 2122TIP3    H2 6331   2.601   5.641   2.976  1.9347  4.5054  0.9405
 2123TIP3   OH2 6332   6.071   4.001   3.612 -0.4268 -0.1944  0.0975
 2123TIP3    H1 6333   6.092   4.024   3.703  1.7271 -1.2278 -0.0828
 2123TIP3    H2 6334   6.079   4.083   3.564  0.4916 -0.0156  0.5275
 2124TIP3   OH2 6335   5.792   1.388   3.959  0.1737  0.4831 -0.2495
 2124TIP3    H1 6336   5.727   1.340   3.907  0.4069 -1.1361  0.8510
 2124TIP3    H2 6337   5.772   1.363   4.050  1.9318  0.4547  0.1565
 2125TIP3   OH2 6338   1.157   0.770   1.255  0.1299 -0.2134  0.0606
 2125TIP3    H1 6339   1.086   0.828   1.283  1.3921  0.4174  2.1698
 2125TIP3    H2 6340   1.113   0.700   1.207 -1.5337  2.0050 -1.8593
 2126TIP3   OH2 6341   1.720   2.669   5.150  0.1570 -0.4290  0.1260
 2126TIP3    H1 6342   1.707   2.621   5.068 -1.8052  0.2046  0.0015
 2126TIP3    H2 6343   1.722   2.602   5.218 -1.0765 -0.8162 -0.1889
 2127TIP3   OH2 6344   0.311   3.654   5.782  0.2343  0.0869 -0.7134
 2127TIP3    H1 6345   0.359   3.630   5.862  1.7028  0.7372 -1.3518
 2127TIP3    H2 6346   0.282   3.744   5.797 -0.5824 -0.2127 -0.4379
 2128TIP3   OH2 6347   1.631   0.138   0.848 -0.2289  0.0451 -0.4856
 2128TIP3    H1 6348   1.675   0.222   0.837 -0.9687  0.6995  1.1563
 2128TIP3    H2 6349   1.656   0.087   0.771  0.9968  1.4263 -1.0478
 2129TIP3   OH2 6350   5.676   1.066   3.427  0.1429 -0.4840 -0.6493
 2129TIP3    H1 6351   5.751   1.058   3.485  0.4482  0.6537 -0.8625
 2129TIP3    H2 6352   5.601   1.040   3.481  0.6370 -1.2692 -0.3292
 2130TIP3   OH2 6353   3.954   2.007   3.346  0.3691 -0.4712 -0.5518
 2130TIP3    H1 6354   3.967   1.928   3.399 -1.4209  0.0332  0.7613
 2130TIP3    H2 6355   4.022   2.067   3.375 -0.2633 -0.3920  0.8459
 2131TIP3   OH2 6356   5.642   6.077   3.429  0.0386 -0.4341 -0.1645
 2131TIP3    H1 6357   5.622   6.061   3.337 -0.4629 -3.1612  0.3321
 2131TIP3    H2 6358   5.568   6.128   3.462 -0.9487 -1.4421 -0.7638
 2132TIP3   OH2 6359   2.406   0.246   0.196  0.4963 -0.1509  0.7645
 2132TIP3    H1 6360   2.497   0.242   0.227  0.3836 -0.3707  1.0691
 2132TIP3    H2 6361   2.381   0.155   0.184  0.2849 -0.0931  0.7650
 2133TIP3   OH2 6362   2.275   2.087   0.342  1.2759 -0.6334 -0.2615
 2133TIP3    H1 6363   2.242   2.005   0.305  0.0066 -0.6305  0.7952
 2133TIP3    H2 6364   2.367   2.089   0.317  1.3125 -2.3427 -0.3823
 2134TIP3   OH2 6365   1.917   0.941   4.218  0.0610  0.1469 -0.0440
 2134TIP3    H1 6366   1.953   0.854   4.233 -3.0341 -1.2423  0.0218
 2134TIP3    H2 6367   1.940   0.962   4.128  0.8702 -0.6806 -0.0465
 2135TIP3   OH2 6368   6.212   1.367   3.445 -0.5109 -0.0961  0.4032
 2135TIP3    H1 6369   6.178   1.426   3.377  0.1511  0.6751  0.7225
 2135TIP3    H2 6370   6.186   1.408   3.527 -0.2359 -0.3788  0.6327
 2136TIP3   OH2 6371   3.560   0.263   4.954 -0.2987  0.9465 -0.6821
 2136TIP3    H1 6372   3.494   0.196   4.971  0.2849  0.8120  1.4426
 2136TIP3    H2 6373   3.637   0.215   4.926 -0.4447  0.9014 -1.0060
 2137TIP3   OH2 6374   2.413   4.845   4.227 -0.8194 -0.2878  0.1458
 2137TIP3    H1 6375   2.438   4.874   4.140 -1.3837 -2.6427 -0.8693
 2137TIP3    H2 6376   2.497   4.827   4.271 -0.5585  0.0758 -0.1961
 2138TIP3   OH2 6377   3.740   5.577   2.019  0.4106 -0.2693  0.0830
 2138TIP3    H1 6378   3.704   5.511   1.959 -0.9828  0.1546  0.4248
 2138TIP3    H2 6379   3.723   5.660   1.975  1.7189 -0.0804 -0.1122
 2139TIP3   OH2 6380   1.748   5.666   2.213 -0.3825  0.0586 -0.4251
 2139TIP3    H1 6381   1.725   5.662   2.306  1.4097  2.7474  0.2435
 2139TIP3    H2 6382   1.701   5.741   2.179  0.9877  0.6967 -1.0076
 2140TIP3   OH2 6383   1.346   1.437   3.074 -0.0747 -0.0438 -0.0003
 2140TIP3    H1 6384   1.419   1.479   3.119 -1.1061  3.8507 -1.5995
 2140TIP3    H2 6385   1.373   1.434   2.982 -0.9175 -1.1052 -0.2372
 2141TIP3   OH2 6386   2.313   1.254   5.846  0.0057 -0.0808  0.4257
 2141TIP3    H1 6387   2.225   1.289   5.832  0.5982  0.7542 -1.6646
 2141TIP3    H2 6388   2.367   1.332   5.862  0.8219 -0.2465 -1.2363
 2142TIP3   OH2 6389   0.108   4.981   5.732  0.1140 -0.3955  0.1031
 2142TIP3    H1 6390   0.037   4.919   5.718 -0.4077  0.3687 -0.7376
 2142TIP3    H2 6391   0.123   5.021   5.647 -1.5649  2.7185  1.0931
 2143TIP3   OH2 6392   5.642   1.696   3.180 -0.2257 -0.1556 -0.7751
 2143TIP3    H1 6393   5.629   1.791   3.175  1.5057  0.1241 -0.5275
 2143TIP3    H2 6394   5.692   1.675   3.100 -1.0465 -0.9542 -1.0950
 2144TIP3   OH2 6395   4.072   0.667   3.765 -0.2527 -0.1626  0.1169
 2144TIP3    H1 6396   4.053   0.598   3.829 -3.0059  0.8074  0.5146
 2144TIP3    H2 6397   4.112   0.737   3.816 -1.1795  0.0651  0.5633
 2145TIP3   OH2 6398   4.713   5.991   5.800 -0.0184 -0.0563 -0.0817
 2145TIP3    H1 6399   4.655   5.928   5.758  0.1729 -0.0221 -0.3944
 2145TIP3    H2 6400   4.695   6.074   5.756 -0.9680  0.3366  0.9645
 2146TIP3   OH2 6401   3.284   5.257   5.501 -0.5890 -0.2997  0.0298
 2146TIP3    H1 6402   3.255   5.346   5.486  0.3463  0.2211  1.1395
 2146TIP3    H2 6403   3.215   5.217   5.553 -0.9540 -0.1928 -0.3680
 2147TIP3   OH2 6404   6.782   2.291   4.075  0.0002 -0.4347 -0.2043
 2147TIP3    H1 6405   6.712   2.238   4.037  1.8680 -2.1964 -1.3724
 2147TIP3    H2 6406   6.750   2.381   4.067 -2.4552 -1.2025  0.0653
 2148TIP3   OH2 6407   4.139   5.131   5.572 -0.0417  0.3186  0.8476
 2148TIP3    H1 6408   4.052   5.100   5.546 -0.1151  0.8297  0.4545
 2148TIP3    H2 6409   4.199   5.083   5.515  0.0160 -0.7353  1.7598
 2149TIP3   OH2 6410   0.287   6.097   2.521 -0.2541 -0.0185  0.0663
 2149TIP3    H1 6411   0.381   6.096   2.537 -0.3339  0.0378  0.5514
 2149TIP3    H2 6412   0.266   6.008   2.494  0.1419  0.2696 -1.2706
 2150TIP3   OH2 6413   4.525   2.172   0.003  0.3352 -0.1120 -0.8329
 2150TIP3    H1 6414   4.500   2.230   0.075 -0.8037 -2.1119  0.4530
 2150TIP3    H2 6415   4.513   2.226  -0.076 -2.0543  0.9958  0.1857
 2151TIP3   OH2 6416   7.042   4.890   2.703  0.6433 -0.1624  0.2402
 2151TIP3    H1 6417   6.961   4.854   2.740 -0.1116  0.7687 -0.4448
 2151TIP3    H2 6418   7.012   4.950   2.634  1.8923  0.7765  0.4832
 2152TIP3   OH2 6419   6.665   1.221   5.609  0.2612  0.1821 -0.4108
 2152TIP3    H1 6420   6.590   1.192   5.661 -0.1794  0.4567 -0.8841
 2152TIP3    H2 6421   6.627   1.277   5.541  0.5491 -1.9898 -2.4724
 2153TIP3   OH2 6422   3.191   1.389   5.477 -0.0089 -0.1459 -0.2438
 2153TIP3    H1 6423   3.133   1.385   5.553 -0.8374 -1.1473 -0.8910
 2153TIP3    H2 6424   3.206   1.482   5.463  0.6652  0.0368  1.5076
 2154TIP3   OH2 6425   4.590   3.100   0.977  0.3807 -0.7024  0.8090
 2154TIP3    H1 6426   4.565   3.154   1.052 -1.3769 -0.4006  0.0428
 2154TIP3    H2 6427   4.654   3.154   0.930 -0.3633  0.1834  0.7740
 2155TIP3   OH2 6428   3.339   4.594   0.454 -0.1476 -0.2537  0.8625
 2155TIP3    H1 6429   3.418   4.545   0.431 -0.6983 -0.9955  0.5235
 2155TIP3    H2 6430   3.315   4.561   0.541  0.3839  0.5877  1.3460
 2156TIP3   OH2 6431   3.718   5.966   1.512  0.0709  0.2319 -0.2252
 2156TIP3    H1 6432   3.748   5.966   1.603  0.0519 -2.4109 -0.1376
 2156TIP3    H2 6433   3.799   5.963   1.461  0.0833 -0.5506 -0.1830
 2157TIP3   OH2 6434   3.364   1.734   4.704 -0.1180 -0.0363 -0.2392
 2157TIP3    H1 6435   3.301   1.700   4.768 -2.4043 -1.5776 -3.0941
 2157TIP3    H2 6436   3.334   1.824   4.686 -0.6024 -0.2467 -0.4936
 2158TIP3   OH2 6437   6.009   6.683   2.675  0.0828  0.5175 -0.2068
 2158TIP3    H1 6438   6.065   6.759   2.664 -0.6677  1.0030 -0.7347
 2158TIP3    H2 6439   6.043   6.618   2.614 -0.8160  1.3288 -1.6084
 2159TIP3   OH2 6440   1.013   5.149   3.671 -0.1828  0.4412 -0.0915
 2159TIP3    H1 6441   0.999   5.116   3.760 -2.5689  1.4792 -0.0015
 2159TIP3    H2 6442   0.993   5.074   3.614  4.3081 -1.2045  0.1230
 2160TIP3   OH2 6443   0.635   5.232   1.147 -0.0947 -0.0471 -0.2298
 2160TIP3    H1 6444   0.716   5.233   1.198 -1.2843  0.9585  1.8022
 2160TIP3    H2 6445   0.618   5.140   1.131 -0.2081 -0.5280  2.2417
 2161TIP3   OH2 6446   4.413   2.549   3.747  0.2050  0.6193 -0.1110
 2161TIP3    H1 6447   4.436   2.466   3.704  1.4811  0.6438  0.4766
 2161TIP3    H2 6448   4.359   2.522   3.822  1.5130  0.1979  0.7103
 2162TIP3   OH2 6449   4.319   1.010   0.282 -0.0982 -0.3415 -0.0371
 2162TIP3    H1 6450   4.225   1.020   0.264 -0.3037 -1.2851  0.4089
 2162TIP3    H2 6451   4.345   1.094   0.321 -0.3600  0.5426 -1.6728
 2163TIP3   OH2 6452   5.388   3.544   1.575 -0.3642  0.6008 -0.2099
 2163TIP3    H1 6453   5.409   3.607   1.506  0.8948  1.0152  0.5244
 2163TIP3    H2 6454   5.472   3.509   1.603 -0.8741  0.2212  0.9202
 2164TIP3   OH2 6455   2.370   4.893   3.116 -0.2211  0.0118 -0.2506
 2164TIP3    H1 6456   2.298   4.835   3.141  0.2607 -0.7269 -0.5565
 2164TIP3    H2 6457   2.331   4.953   3.052 -0.8898  0.4620  0.5542
 2165TIP3   OH2 6458   0.233   2.872   5.744 -0.4814  0.0824  0.1492
 2165TIP3    H1 6459   0.310   2.876   5.688 -0.0413  1.6910  0.8074
 2165TIP3    H2 6460   0.192   2.788   5.723  0.9668 -0.4143 -0.8312
 2166TIP3   OH2 6461   2.432   3.855   2.087 -0.1243 -0.2519 -0.2046
 2166TIP3    H1 6462   2.350   3.829   2.046  0.2088 -1.8301  0.0610
 2166TIP3    H2 6463   2.484   3.892   2.016 -1.0744  0.8439 -0.3568
 2167TIP3   OH2 6464   2.036   0.633   2.718 -0.3310  0.1721  0.6231
 2167TIP3    H1 6465   2.074   0.570   2.779  0.1302  1.1017  1.3213
 2167TIP3    H2 6466   1.941   0.620   2.726 -0.2426 -2.1275 -1.1045
 2168TIP3   OH2 6467   0.894   4.667   3.954  0.1274 -0.0716  0.2003
 2168TIP3    H1 6468   0.831   4.610   3.998 -0.0117 -0.8755 -0.9875
 2168TIP3    H2 6469   0.872   4.660   3.862 -0.5444  2.7418  0.0655
 2169TIP3   OH2 6470   5.793   2.846   1.927  0.1371 -0.5739 -0.5393
 2169TIP3    H1 6471   5.737   2.861   1.851  0.1383 -0.1733 -0.4661
 2169TIP3    H2 6472   5.862   2.788   1.895 -0.5947 -1.4802 -0.4990
 2170TIP3   OH2 6473   0.849   6.230   2.962  0.1169  0.0577 -0.1613
 2170TIP3    H1 6474   0.789   6.237   2.887 -1.0043  2.3644  0.8464
 2170TIP3    H2 6475   0.791   6.215   3.036  1.0020  0.1155  0.5467
 2171TIP3   OH2 6476   0.511   3.393   1.842  0.3416 -0.1323  0.1141
 2171TIP3    H1 6477   0.603   3.413   1.826  0.5114 -0.4306  0.6895
 2171TIP3    H2 6478   0.464   3.438   1.772  0.9151  0.1114 -0.1198
 2172TIP3   OH2 6479   6.696   5.704   0.637  0.3601  0.3234 -0.1319
 2172TIP3    H1 6480   6.609   5.690   0.674  0.6844  1.3451  1.0763
 2172TIP3    H2 6481   6.699   5.798   0.617  0.4155 -0.0779 -2.2592
 2173TIP3   OH2 6482   1.290   5.186   3.365 -0.0102 -0.0539 -0.4435
 2173TIP3    H1 6483   1.228   5.213   3.296 -1.8458  2.5847  1.9740
 2173TIP3    H2 6484   1.242   5.120   3.415 -0.3207  0.8418  0.4928
 2174TIP3   OH2 6485   5.667   4.661   1.141  0.6118 -0.2960  0.1641
 2174TIP3    H1 6486   5.756   4.693   1.153  0.0579  1.6977 -0.6974
 2174TIP3    H2 6487   5.624   4.679   1.225  0.6561  0.0352  0.1175
 2175TIP3   OH2 6488   6.366   0.282   4.579  0.0201  0.0043  0.1702
 2175TIP3    H1 6489   6.329   0.229   4.649  2.5854  0.7466  2.2456
 2175TIP3    H2 6490   6.316   0.364   4.582 -0.9032 -0.5405  0.0615
 2176TIP3   OH2 6491   5.374   6.230   2.290  0.3026 -0.0992 -0.1885
 2176TIP3    H1 6492   5.366   6.309   2.237 -1.6885 -0.5331 -0.6149
 2176TIP3    H2 6493   5.452   6.186   2.255  1.4125  1.5876  0.0134
 2177TIP3   OH2 6494   3.805   2.612   2.023  0.4051  0.3085  0.2763
 2177TIP3    H1 6495   3.825   2.606   1.929 -2.8353  2.6135 -0.7569
 2177TIP3    H2 6496   3.734   2.549   2.036  0.5467  0.3093  1.0774
 2178TIP3   OH2 6497   0.977   1.492   2.204 -0.1494  0.2958  0.5957
 2178TIP3    H1 6498   0.963   1.405   2.167 -2.2318  0.9937 -0.4017
 2178TIP3    H2 6499   1.067   1.490   2.237  0.9705 -1.1912 -2.2290
 2179TIP3   OH2 6500   4.199   0.348   5.745  0.6871 -0.0440 -0.3248
 2179TIP3    H1 6501   4.286   0.386   5.747  0.4745  0.5994 -1.7051
 2179TIP3    H2 6502   4.148   0.400   5.807  1.4686 -1.0103  1.1863
 2180TIP3   OH2 6503   3.619   4.923   2.741 -0.1124  0.1607 -0.0936
 2180TIP3    H1 6504   3.642   4.896   2.830  1.2482  0.1118 -0.4399
 2180TIP3    H2 6505   3.698   4.964   2.707 -1.1037  1.6841 -0.7248
 2181TIP3   OH2 6506   0.966   2.307   3.318  0.1315  0.5713  0.2794
 2181TIP3    H1 6507   0.911   2.375   3.357 -0.1924 -0.2988  1.3992
 2181TIP3    H2 6508   1.009   2.265   3.393 -0.0645 -0.7905 -0.3460
 2182TIP3   OH2 6509   6.033   5.186   3.468  0.3992  0.2565  0.7173
 2182TIP3    H1 6510   6.068   5.101   3.441 -0.8640  0.0656 -0.4542
 2182TIP3    H2 6511   5.992   5.169   3.553  0.8861 -0.1028  0.8864
 2183TIP3   OH2 6512   0.456   2.196   2.982  0.1336 -0.0174 -0.0994
 2183TIP3    H1 6513   0.458   2.264   2.915 -1.0729  1.0506  0.9065
 2183TIP3    H2 6514   0.443   2.243   3.064 -3.8691 -1.5692  0.3664
 2184TIP3   OH2 6515   6.424   0.696   1.878 -0.4381 -0.4163 -0.2236
 2184TIP3    H1 6516   6.394   0.713   1.968 -0.9639 -1.8826 -0.1088
 2184TIP3    H2 6517   6.456   0.782   1.848 -0.1670  0.0921  1.3809
 2185TIP3   OH2 6518   1.109   1.580   3.825 -0.3107 -0.5508 -0.4532
 2185TIP3    H1 6519   1.060   1.612   3.750 -1.0472  0.4096  0.3987
 2185TIP3    H2 6520   1.042   1.551   3.887  0.2420 -0.3688  0.2429
 2186TIP3   OH2 6521   6.770   4.617   4.320 -0.6790 -0.7722 -0.1795
 2186TIP3    H1 6522   6.727   4.557   4.259 -0.2404 -0.6179 -0.6422
 2186TIP3    H2 6523   6.847   4.569   4.351  0.2127 -0.1098 -1.2853
 2187TIP3   OH2 6524   4.544   1.406   1.023 -0.3738  0.3032  0.2520
 2187TIP3    H1 6525   4.501   1.350   1.087  0.5469 -0.1910  0.4528
 2187TIP3    H2 6526   4.513   1.373   0.938 -0.7815  0.2908  0.4015
 2188TIP3   OH2 6527   2.453   1.205   0.525  0.1810  0.1801 -0.3467
 2188TIP3    H1 6528   2.505   1.145   0.472  0.9676  1.4492 -1.0370
 2188TIP3    H2 6529   2.510   1.280   0.542 -0.7455  0.7147  0.5843
 2189TIP3   OH2 6530   5.823   2.096   4.693 -0.3411  0.3180 -0.0209
 2189TIP3    H1 6531   5.786   2.122   4.778 -0.4852 -0.0176  0.0183
 2189TIP3    H2 6532   5.890   2.163   4.675 -1.5818  1.4680 -0.5329
 2190TIP3   OH2 6533   1.050   2.393   4.123  0.2048 -0.5014 -0.1663
 2190TIP3    H1 6534   0.997   2.364   4.049 -1.9521  1.5786  0.4041
 2190TIP3    H2 6535   1.062   2.314   4.176 -0.2424 -1.5350 -1.5368
 2191TIP3   OH2 6536   1.152   1.450   4.533 -0.2002 -0.3207  0.4352
 2191TIP3    H1 6537   1.174   1.393   4.606  0.4762  0.0207  0.5149
 2191TIP3    H2 6538   1.117   1.529   4.574  1.4670  0.4356  0.4981
 2192TIP3   OH2 6539   1.015   4.910   5.127 -0.3650 -0.0915 -0.0826
 2192TIP3    H1 6540   0.979   4.933   5.213 -0.3064 -3.6664  1.0741
 2192TIP3    H2 6541   0.964   4.963   5.065 -1.3093  1.6480  2.0330
 2193TIP3   OH2 6542   1.750   4.728   2.637 -0.0256  0.2844  0.5740
 2193TIP3    H1 6543   1.717   4.816   2.656 -0.3510  0.2857  0.0373
 2193TIP3    H2 6544   1.792   4.700   2.718  1.8242  1.7021  0.1650
 2194TIP3   OH2 6545   1.948   5.351   5.341  0.4398  0.3518 -0.0099
 2194TIP3    H1 6546   2.037   5.319   5.330  0.7360  1.0430  0.3293
 2194TIP3    H2 6547   1.935   5.411   5.268 -0.3471 -0.9898 -1.0342
 2195TIP3   OH2 6548   3.147   3.749   5.804 -0.1420  0.2783  0.0654
 2195TIP3    H1 6549   3.237   3.774   5.786 -0.1379  0.2559  0.0557
 2195TIP3    H2 6550   3.144   3.655   5.788  0.2708 -0.0649  1.7273
 2196TIP3   OH2 6551   0.338   0.498   1.713  0.4253 -0.7627 -0.8549
 2196TIP3    H1 6552   0.349   0.404   1.725  1.5293 -0.6462 -0.7983
 2196TIP3    H2 6553   0.382   0.517   1.630  1.5450 -0.0942 -0.1368
 2197TIP3   OH2 6554   0.089   5.280   3.338  0.0720  0.3036 -0.4393
 2197TIP3    H1 6555   0.022   5.339   3.306  0.7227  0.4621 -1.5897
 2197TIP3    H2 6556   0.134   5.329   3.406 -0.5648  0.4359 -0.1114
 2198TIP3   OH2 6557   1.717   4.094   3.046  0.0824 -0.3407  0.2975
 2198TIP3    H1 6558   1.765   4.143   2.979  0.9574  0.7591  1.6748
 2198TIP3    H2 6559   1.629   4.084   3.010  0.0767  1.6437 -0.3555
 2199TIP3   OH2 6560   2.620   3.943   4.990 -0.2952  0.2517 -0.2703
 2199TIP3    H1 6561   2.532   3.940   5.028  0.2805 -0.1779  1.0904
 2199TIP3    H2 6562   2.619   3.876   4.921 -0.9820  0.1537 -0.1728
 2200TIP3   OH2 6563   5.445   5.445   0.600  0.0091  0.2619  0.2160
 2200TIP3    H1 6564   5.357   5.469   0.627 -0.2142  0.2610 -0.4992
 2200TIP3    H2 6565   5.500   5.518   0.628 -0.5423  1.2790 -1.2269
 2201TIP3   OH2 6566   4.917   5.726   1.410 -0.2144 -0.0611  0.4230
 2201TIP3    H1 6567   4.872   5.746   1.328  0.1074 -0.4698  0.1416
 2201TIP3    H2 6568   4.876   5.783   1.475  0.4341  1.2358 -0.2766
 2202TIP3   OH2 6569   6.798   1.876   1.815  0.7593 -0.2163 -0.1328
 2202TIP3    H1 6570   6.864   1.921   1.868  1.7536 -3.2326  1.4262
 2202TIP3    H2 6571   6.848   1.828   1.749  0.1821 -2.1006  0.7132
 2203TIP3   OH2 6572   2.433   1.761   0.441 -0.1470  0.2990 -0.5451
 2203TIP3    H1 6573   2.373   1.756   0.367 -1.4326  1.0227  0.3921
 2203TIP3    H2 6574   2.514   1.794   0.405 -0.4469 -0.2665 -1.7809
 2204TIP3   OH2 6575   6.880   4.249   4.220  0.8246  0.3941 -0.8822
 2204TIP3    H1 6576   6.948   4.213   4.162  0.7945 -1.1551 -0.0075
 2204TIP3    H2 6577   6.799   4.238   4.170  0.6335 -2.0152 -0.1910
 2205TIP3   OH2 6578   3.935   4.038   1.647 -0.0005 -0.2457  0.5776
 2205TIP3    H1 6579   3.948   3.947   1.674 -0.7064 -0.4530  0.2365
 2205TIP3    H2 6580   3.932   4.035   1.551  0.1488  0.1658  0.5553
 2206TIP3   OH2 6581   4.972   3.358   3.711  0.5475 -0.2264 -0.1456
 2206TIP3    H1 6582   5.009   3.327   3.794 -1.0145 -1.7917  0.0075
 2206TIP3    H2 6583   4.941   3.279   3.668 -1.0132  0.8426 -1.0561
 2207TIP3   OH2 6584   1.543   4.925   1.102  0.0824 -0.0373  0.4588
 2207TIP3    H1 6585   1.627   4.884   1.121  0.7262  0.3746 -1.3055
 2207TIP3    H2 6586   1.478   4.856   1.114  0.7350 -0.5304  1.1828
 2208TIP3   OH2 6587   4.541   6.747   1.287  0.3213 -0.6199 -0.1329
 2208TIP3    H1 6588   4.480   6.813   1.257 -0.0289 -0.3205  1.1793
 2208TIP3    H2 6589   4.534   6.676   1.222 -0.7734 -0.2294 -0.4566
 2209TIP3   OH2 6590   5.077   6.098   3.969  0.2675 -0.4498  0.0283
 2209TIP3    H1 6591   5.169   6.099   3.940 -0.2585 -0.6846 -1.7560
 2209TIP3    H2 6592   5.029   6.141   3.898 -1.2115 -1.8024  0.1674
 2210TIP3   OH2 6593   6.251   5.824   2.105  0.2696  0.2352 -0.5423
 2210TIP3    H1 6594   6.344   5.838   2.124  0.0282  1.3961 -0.1392
 2210TIP3    H2 6595   6.205   5.880   2.168 -0.7647 -1.5351  0.3539
 2211TIP3   OH2 6596   6.384   2.145   3.902  0.7224 -0.7665  0.1101
 2211TIP3    H1 6597   6.470   2.163   3.866  1.3070 -3.0975  0.1741
 2211TIP3    H2 6598   6.336   2.103   3.831 -1.3451  2.6537 -0.7647
 2212TIP3   OH2 6599   1.315   1.529   1.681 -0.0027 -0.3930 -0.4972
 2212TIP3    H1 6600   1.227   1.565   1.687  0.5295  0.7783  0.8241
 2212TIP3    H2 6601   1.334   1.527   1.587 -1.5066 -0.9167 -0.8209
 2213TIP3   OH2 6602   4.455   4.031   1.802 -0.7326  0.1441 -0.6916
 2213TIP3    H1 6603   4.511   3.984   1.740 -0.2963  0.5376 -0.5951
 2213TIP3    H2 6604   4.373   4.044   1.755 -0.8817 -0.7653 -0.7020
 2214TIP3   OH2 6605   6.715   0.556   2.736 -0.5555 -0.3279  0.2182
 2214TIP3    H1 6606   6.771   0.632   2.723  1.7604 -2.0349 -0.4029
 2214TIP3    H2 6607   6.626   0.590   2.726  0.4299  1.9052 -2.2447
 2215TIP3   OH2 6608   1.631   0.395   5.883 -0.3859  0.2458 -0.0538
 2215TIP3    H1 6609   1.614   0.308   5.919 -0.7459  0.7692  1.0978
 2215TIP3    H2 6610   1.545   0.430   5.863 -0.2142  0.1536 -1.0102
 2216TIP3   OH2 6611   3.411   6.172   4.588 -0.2472  0.2622  0.2249
 2216TIP3    H1 6612   3.404   6.138   4.499  1.4581  0.5024 -0.0370
 2216TIP3    H2 6613   3.404   6.095   4.644 -0.6995  0.0310 -0.1413
 2217TIP3   OH2 6614   6.519   6.086   3.598 -0.4352 -0.4045 -0.6295
 2217TIP3    H1 6615   6.482   6.001   3.621  0.1181 -0.1358  1.4748
 2217TIP3    H2 6616   6.605   6.066   3.560 -0.0485 -0.7918  0.4170
 2218TIP3   OH2 6617   2.474   2.551   2.067  0.1862  0.1758  0.2968
 2218TIP3    H1 6618   2.538   2.621   2.063  0.3961  0.0454  1.1834
 2218TIP3    H2 6619   2.509   2.490   2.132 -1.1651  0.4454  1.3227
 2219TIP3   OH2 6620   5.025   4.391   2.866 -0.2206  0.0896  0.2449
 2219TIP3    H1 6621   4.985   4.312   2.902  1.2878 -0.6707  0.3067
 2219TIP3    H2 6622   5.002   4.460   2.929  0.2307 -0.7184  1.3337
 2220TIP3   OH2 6623   5.793   3.731   3.891  0.0014  0.0338 -0.7467
 2220TIP3    H1 6624   5.828   3.733   3.980 -1.1288  0.7404 -0.2873
 2220TIP3    H2 6625   5.700   3.711   3.903 -0.0335 -0.5042 -1.8254
 2221TIP3   OH2 6626   0.392   4.211   1.384 -0.1308 -0.2400  0.3795
 2221TIP3    H1 6627   0.326   4.224   1.316 -0.3507 -0.5364  0.5369
 2221TIP3    H2 6628   0.458   4.279   1.366  1.7736 -2.5889 -2.4758
 2222TIP3   OH2 6629   1.613   0.646   0.445  0.0333  0.1733 -0.4064
 2222TIP3    H1 6630   1.703   0.645   0.414 -0.0764 -0.1693 -0.7294
 2222TIP3    H2 6631   1.618   0.621   0.537  0.2553  0.0506 -0.4519
 2223TIP3   OH2 6632   0.607   5.668   4.699 -0.3635 -0.1692 -0.1678
 2223TIP3    H1 6633   0.549   5.744   4.706  0.2148  0.1251  1.9817
 2223TIP3    H2 6634   0.631   5.647   4.789 -1.5485 -3.7682 -0.5206
 2224TIP3   OH2 6635   0.277   3.040   4.974 -0.1278  0.5768  0.2237
 2224TIP3    H1 6636   0.245   3.114   5.025  0.9513  1.1727  0.0655
 2224TIP3    H2 6637   0.346   3.001   5.028 -0.4133 -0.0832  0.1292
 2225TIP3   OH2 6638   4.425   5.523   0.282 -0.1597 -0.3244 -0.6551
 2225TIP3    H1 6639   4.399   5.470   0.357 -0.9831 -1.1294 -1.4940
 2225TIP3    H2 6640   4.391   5.610   0.302 -0.0409 -0.4392  0.0771
 2226TIP3   OH2 6641   6.297   5.745   2.725  0.5363  0.0269 -0.6666
 2226TIP3    H1 6642   6.220   5.739   2.781  1.3574  2.3587  0.8465
 2226TIP3    H2 6643   6.263   5.771   2.640 -0.6075 -2.3687 -1.0376
 2227TIP3   OH2 6644   3.522   0.785   1.416 -0.5226 -0.0428  0.2081
 2227TIP3    H1 6645   3.481   0.867   1.444 -0.0247  0.6969 -1.1197
 2227TIP3    H2 6646   3.612   0.792   1.445 -0.6991 -0.5329  0.8876
 2228TIP3   OH2 6647   5.877   0.075   2.406  0.1422  0.2144  0.1853
 2228TIP3    H1 6648   5.871   0.084   2.310  2.0313 -0.4143 -0.0339
 2228TIP3    H2 6649   5.837  -0.010   2.425  0.0782  0.1828 -0.0859
 2229TIP3   OH2 6650   4.440   0.300   1.386 -0.6264 -0.2218  0.0147
 2229TIP3    H1 6651   4.522   0.270   1.425 -0.4990 -0.0422 -0.1136
 2229TIP3    H2 6652   4.436   0.254   1.302 -0.4007  0.1603 -0.2096
 2230TIP3   OH2 6653   5.911   0.303   4.619  0.5258  0.2387 -0.6010
 2230TIP3    H1 6654   5.908   0.398   4.627 -0.5766  0.2639 -1.1403
 2230TIP3    H2 6655   5.953   0.287   4.535 -0.2809  0.2805 -1.0179
 2231TIP3   OH2 6656   3.815   1.997   4.821 -0.5825 -0.2825 -0.6498
 2231TIP3    H1 6657   3.791   1.921   4.768  0.2440  0.3904 -2.0224
 2231TIP3    H2 6658   3.853   2.060   4.759 -0.5299  0.9495  0.5711
 2232TIP3   OH2 6659   0.377   4.677   3.067 -0.7665 -0.5852  0.0631
 2232TIP3    H1 6660   0.337   4.590   3.058  0.1763 -1.0534  0.2491
 2232TIP3    H2 6661   0.341   4.728   2.994 -0.9068 -1.2991 -0.3780
 2233TIP3   OH2 6662   1.677   5.750   1.523  0.5020 -0.2374 -0.0393
 2233TIP3    H1 6663   1.772   5.762   1.517  0.2715  1.2016 -1.2201
 2233TIP3    H2 6664   1.664   5.656   1.506  1.8483 -0.9960  2.5297
 2234TIP3   OH2 6665   2.399   5.470   5.388 -0.3134  0.8209 -0.1992
 2234TIP3    H1 6666   2.398   5.457   5.293  0.7766  1.1846 -0.2711
 2234TIP3    H2 6667   2.311   5.444   5.417 -1.0411  1.7621 -1.4524
 2235TIP3   OH2 6668   5.256   5.002   3.671 -0.0670  0.1992 -0.3741
 2235TIP3    H1 6669   5.246   5.052   3.752  0.2480 -0.1044 -0.1494
 2235TIP3    H2 6670   5.167   4.974   3.649 -0.2134  0.6527 -0.3735
 2236TIP3   OH2 6671   1.595   2.014   5.583 -0.1670  0.2500  0.0060
 2236TIP3    H1 6672   1.541   1.968   5.647 -0.9869  2.1939  0.7791
 2236TIP3    H2 6673   1.659   2.062   5.635 -0.3355  1.2240 -0.6499
 2237TIP3   OH2 6674   0.442   1.266   1.477 -0.6777 -0.0683  0.0399
 2237TIP3    H1 6675   0.363   1.309   1.509 -0.9964 -1.1640  0.7995
 2237TIP3    H2 6676   0.448   1.291   1.385 -1.8417  0.1188  0.0036
 2238TIP3   OH2 6677   6.158   2.070   4.774  0.2483  0.2856 -0.1770
 2238TIP3    H1 6678   6.144   2.036   4.685 -1.5107 -0.2747  0.2657
 2238TIP3    H2 6679   6.227   2.016   4.811  0.3135 -0.1254 -0.8817
 2239TIP3   OH2 6680   0.221   1.469   1.567 -0.0436  0.1497 -0.5797
 2239TIP3    H1 6681   0.162   1.430   1.503 -0.8017  0.2363  0.0593
 2239TIP3    H2 6682   0.206   1.564   1.559 -0.2672  0.1520 -0.1582
 2240TIP3   OH2 6683   2.762   2.123   1.607  0.2411  0.2903  0.2737
 2240TIP3    H1 6684   2.668   2.111   1.594  0.4257 -1.6555  0.3808
 2240TIP3    H2 6685   2.769   2.177   1.685 -0.7839  1.0187 -0.1139
 2241TIP3   OH2 6686   0.971   1.224   4.436 -0.0640 -0.3428  0.1451
 2241TIP3    H1 6687   1.051   1.269   4.409 -0.3628 -0.5364 -1.0885
 2241TIP3    H2 6688   1.002   1.144   4.479  0.4200  0.2010  0.8520
 2242TIP3   OH2 6689   0.344   3.191   0.252  0.1492  0.7101 -0.7964
 2242TIP3    H1 6690   0.288   3.114   0.259  0.5586  0.5285  2.7173
 2242TIP3    H2 6691   0.404   3.171   0.180  0.2368 -2.3090 -0.0373
 2243TIP3   OH2 6692   3.149   2.485   5.845 -0.6254  0.2910  0.5374
 2243TIP3    H1 6693   3.227   2.494   5.789 -1.0440  2.3612  0.1936
 2243TIP3    H2 6694   3.157   2.398   5.883  0.9017 -0.2705 -0.9268
 2244TIP3   OH2 6695   0.747   1.885   0.448 -0.1452 -0.2208  0.0830
 2244TIP3    H1 6696   0.720   1.846   0.531 -0.8067  0.5752  0.2594
 2244TIP3    H2 6697   0.840   1.906   0.460  0.4659 -2.4514 -0.3170
 2245TIP3   OH2 6698   6.241   6.360   5.294  0.3412 -0.1878  0.5656
 2245TIP3    H1 6699   6.152   6.377   5.325  0.3861  2.5154 -0.5189
 2245TIP3    H2 6700   6.231   6.291   5.229 -0.9712  0.1163  0.4152
 2246TIP3   OH2 6701   2.606   0.865   4.377 -0.4808 -0.0132  0.4177
 2246TIP3    H1 6702   2.635   0.949   4.413  0.2222 -0.0742  0.0052
 2246TIP3    H2 6703   2.512   0.876   4.365 -0.2183  1.1460 -0.7426
 2247TIP3   OH2 6704   5.293   5.429   2.002 -0.2208  0.7128 -0.1283
 2247TIP3    H1 6705   5.365   5.413   2.064 -1.5712  1.9661  1.8821
 2247TIP3    H2 6706   5.238   5.351   2.009  0.0337  0.5042 -0.3881
 2248TIP3   OH2 6707   2.433   1.682   1.946 -0.0576  0.1384 -0.0137
 2248TIP3    H1 6708   2.358   1.701   2.002 -0.4831 -0.4548 -0.3688
 2248TIP3    H2 6709   2.505   1.733   1.984 -0.9991  2.0011 -0.5934
 2249TIP3   OH2 6710   0.348   3.567   5.534  0.2395 -0.1208 -0.3704
 2249TIP3    H1 6711   0.264   3.522   5.522 -0.3340  1.1299 -1.1912
 2249TIP3    H2 6712   0.351   3.587   5.627 -0.5402  0.1441 -0.3978
 2250TIP3   OH2 6713   6.855   5.650   0.378  0.3271  0.4494  0.0418
 2250TIP3    H1 6714   6.917   5.656   0.451  3.2719  0.1160 -2.2236
 2250TIP3    H2 6715   6.857   5.558   0.352 -1.4335  0.3681  0.1081
 2251TIP3   OH2 6716   6.275   5.464   2.148  0.2433  0.4431  0.3816
 2251TIP3    H1 6717   6.283   5.546   2.098 -2.7786  0.8329  0.3680
 2251TIP3    H2 6718   6.255   5.492   2.237  0.4032 -0.2816  0.6487
 2252TIP3   OH2 6719   5.258   4.606   5.563 -0.1328  0.4541 -0.3111
 2252TIP3    H1 6720   5.288   4.516   5.546 -0.1383  0.4409 -0.2497
 2252TIP3    H2 6721   5.331   4.647   5.609  0.3417  0.8291 -1.3589
 2253TIP3   OH2 6722   5.639   2.760   1.130 -0.2548 -0.0219  0.1149
 2253TIP3    H1 6723   5.648   2.845   1.086 -0.2218  0.7748  1.5799
 2253TIP3    H2 6724   5.712   2.708   1.097  0.5770  1.0251  0.2252
 2254TIP3   OH2 6725   1.495   1.721   2.408  0.4830  0.0362  0.5690
 2254TIP3    H1 6726   1.473   1.674   2.328  0.9166 -0.2494  0.6173
 2254TIP3    H2 6727   1.419   1.708   2.465  0.7614 -0.9344  0.7246
 2255TIP3   OH2 6728   5.282   2.512   0.733 -0.0296 -0.1250 -0.2827
 2255TIP3    H1 6729   5.219   2.512   0.805 -1.0693  2.8740 -1.0525
 2255TIP3    H2 6730   5.360   2.553   0.770 -0.3721  0.9123 -0.6891
 2256TIP3   OH2 6731   3.317   2.131   1.515 -0.3200 -0.1658 -0.3324
 2256TIP3    H1 6732   3.396   2.093   1.555 -0.6893 -2.2635 -1.4236
 2256TIP3    H2 6733   3.333   2.126   1.421 -1.2384  0.5873 -0.5422
 2257TIP3   OH2 6734   0.058   0.714   5.809  0.2249  0.4414 -0.3046
 2257TIP3    H1 6735  -0.021   0.662   5.821  1.1899 -0.9893  0.1847
 2257TIP3    H2 6736   0.046   0.757   5.724 -0.1359 -1.5548 -1.3390
 2258TIP3   OH2 6737   1.891   0.329   1.982  0.5189 -0.3293  0.1784
 2258TIP3    H1 6738   1.899   0.255   1.923 -0.1960  1.1503 -1.8898
 2258TIP3    H2 6739   1.828   0.301   2.048 -0.8195 -1.0898 -1.3655
 2259TIP3   OH2 6740   5.905   5.944   2.865 -0.2592  0.2009 -0.1246
 2259TIP3    H1 6741   5.903   5.856   2.826  0.5561  0.5950 -1.0858
 2259TIP3    H2 6742   5.940   5.930   2.953  1.4467 -0.2599 -0.8372
 2260TIP3   OH2 6743   5.437   6.045   0.918 -0.0402 -0.3447  0.0633
 2260TIP3    H1 6744   5.466   6.136   0.909 -1.3087  0.0812  0.1060
 2260TIP3    H2 6745   5.461   6.003   0.835  2.5911 -0.6043  0.8644
 2261TIP3   OH2 6746   3.545   5.690   1.396 -0.3567  0.0050  0.5515
 2261TIP3    H1 6747   3.506   5.775   1.412 -0.9082  0.1547 -1.3946
 2261TIP3    H2 6748   3.477   5.627   1.418 -1.1459  0.2083 -1.2008
 2262TIP3   OH2 6749   5.060   4.377   5.504 -0.2626 -0.3073  0.1022
 2262TIP3    H1 6750   5.105   4.415   5.428 -0.2889 -0.7683 -0.1414
 2262TIP3    H2 6751   5.131   4.354   5.564 -0.2531  0.2816  0.3315
 2263TIP3   OH2 6752   4.508   1.129   3.711  0.0293 -0.2962  0.1088
 2263TIP3    H1 6753   4.536   1.183   3.637 -0.7899 -0.1200 -0.0859
 2263TIP3    H2 6754   4.445   1.067   3.673 -1.3632  0.6159  0.8593
 2264TIP3   OH2 6755   6.370   2.266   2.716 -0.1313  0.5948  0.5713
 2264TIP3    H1 6756   6.287   2.232   2.683  0.4358 -0.7580  0.4566
 2264TIP3    H2 6757   6.424   2.188   2.730  1.6112  1.5077 -0.6710
 2265TIP3   OH2 6758   7.202   5.092   2.848 -0.4276  0.0442 -0.0904
 2265TIP3    H1 6759   7.280   5.101   2.793 -0.6958  0.1760 -0.4598
 2265TIP3    H2 6760   7.132   5.070   2.786 -1.8245  4.7879 -0.6214
 2266TIP3   OH2 6761   2.487   4.239   2.911 -0.2439  0.0674  0.5065
 2266TIP3    H1 6762   2.508   4.206   2.999  0.6273  1.1058  0.7103
 2266TIP3    H2 6763   2.563   4.215   2.858 -0.7067 -0.4326  0.0518
 2267TIP3   OH2 6764   2.891   5.415   4.796  0.4447  0.2084 -0.5286
 2267TIP3    H1 6765   2.916   5.324   4.782 -1.1539 -0.2284 -0.7162
 2267TIP3    H2 6766   2.970   5.465   4.775  1.6722 -1.1762  0.6627
 2268TIP3   OH2 6767   4.920   6.715   4.092  0.0853  0.0200  0.3642
 2268TIP3    H1 6768   4.944   6.758   4.010 -0.8929 -0.6532 -0.3058
 2268TIP3    H2 6769   4.943   6.778   4.160 -0.5183  1.2515 -0.5302
 2269TIP3   OH2 6770   6.069   6.309   0.449 -0.5384  0.0172 -0.2018
 2269TIP3    H1 6771   5.977   6.285   0.440 -0.3211 -1.0960  0.3677
 2269TIP3    H2 6772   6.099   6.326   0.359 -1.4642  1.1077 -0.3259
 2270TIP3   OH2 6773   5.519   3.654   1.107  0.1909  0.5014 -0.2038
 2270TIP3    H1 6774   5.443   3.597   1.100  0.4183  0.3011 -1.3141
 2270TIP3    H2 6775   5.498   3.730   1.053  0.4995  0.7556  0.0276
 2271TIP3   OH2 6776   1.808   3.544   1.797 -0.1680 -0.5197 -0.0247
 2271TIP3    H1 6777   1.744   3.612   1.777  0.0313 -0.1046  0.6884
 2271TIP3    H2 6778   1.893   3.588   1.790 -0.0725 -0.4697  1.2120
 2272TIP3   OH2 6779   0.707   4.990   2.627 -0.1853  0.0669  0.2225
 2272TIP3    H1 6780   0.744   4.915   2.580 -0.1390 -1.1152  2.0250
 2272TIP3    H2 6781   0.782   5.045   2.648 -0.0330 -0.0810  0.0624
 2273TIP3   OH2 6782   4.317   4.766   3.249  0.1924  0.5315 -0.1374
 2273TIP3    H1 6783   4.328   4.819   3.328  2.1141 -0.9020  0.6556
 2273TIP3    H2 6784   4.226   4.777   3.224 -0.0217  2.3729  1.2963
 2274TIP3   OH2 6785   2.332   5.507   4.424  0.6546 -0.5061 -0.3326
 2274TIP3    H1 6786   2.329   5.602   4.435  0.0031 -0.7427  2.4860
 2274TIP3    H2 6787   2.243   5.483   4.399  0.3713 -0.4879  0.6189
 2275TIP3   OH2 6788   5.430   1.305   2.369  0.3506 -0.4955 -0.2419
 2275TIP3    H1 6789   5.383   1.291   2.451 -0.7383  3.9637  0.1355
 2275TIP3    H2 6790   5.522   1.292   2.391 -0.1004 -2.1931  0.8623
 2276TIP3   OH2 6791   2.101   1.762   0.660  0.1763  0.8338  0.5636
 2276TIP3    H1 6792   2.026   1.706   0.682 -0.6946  1.5700 -0.4516
 2276TIP3    H2 6793   2.155   1.762   0.739 -1.3126  0.9492  1.6135
 2277TIP3   OH2 6794   5.197   5.519   0.682  0.0329  0.3269  0.2116
 2277TIP3    H1 6795   5.163   5.467   0.754  0.1942  0.7775  0.6216
 2277TIP3    H2 6796   5.120   5.539   0.629  0.1003 -1.0653 -0.4496
 2278TIP3   OH2 6797   0.814   5.737   2.437 -0.1606  0.5290 -0.3728
 2278TIP3    H1 6798   0.739   5.694   2.476  0.6382  0.4408  1.1378
 2278TIP3    H2 6799   0.880   5.738   2.506  1.4054  0.1746 -1.7882
 2279TIP3   OH2 6800   0.954   4.900   4.701 -0.1555  0.2288 -0.1668
 2279TIP3    H1 6801   0.903   4.825   4.733 -0.3363 -0.4765 -1.9851
 2279TIP3    H2 6802   1.023   4.912   4.766  0.7493 -2.4418 -0.5032
 2280TIP3   OH2 6803   3.266   5.772   5.209 -0.0546 -0.5866 -0.0244
 2280TIP3    H1 6804   3.303   5.853   5.175 -0.1637 -0.0975  0.9764
 2280TIP3    H2 6805   3.322   5.749   5.284 -1.0734 -0.4501  0.8054
 2281TIP3   OH2 6806   2.167   5.346   4.787  0.5013 -0.0745 -0.8808
 2281TIP3    H1 6807   2.122   5.406   4.728 -1.2714  0.5851  1.0456
 2281TIP3    H2 6808   2.097   5.297   4.830  1.5591  0.8688  2.1390
 2282TIP3   OH2 6809   7.112   0.796   3.720 -0.0664  0.4576 -0.1335
 2282TIP3    H1 6810   7.169   0.849   3.776  0.5376  0.1822 -0.4769
 2282TIP3    H2 6811   7.062   0.741   3.781  2.0565 -1.3351  0.1053
 2283TIP3   OH2 6812   2.009   4.933   5.010  0.0240  0.2160 -0.1444
 2283TIP3    H1 6813   1.976   4.986   4.938 -1.5957 -1.8200 -1.0189
 2283TIP3    H2 6814   2.099   4.910   4.984  0.5323  1.9291 -0.0302
 2284TIP3   OH2 6815   0.262   3.496   2.285  0.3436 -0.1944  0.1158
 2284TIP3    H1 6816   0.269   3.467   2.193  3.7801 -1.2391  0.5718
 2284TIP3    H2 6817   0.289   3.419   2.336  0.6756  1.0571  1.9013
 2285TIP3   OH2 6818   4.102   3.930   2.168  0.5690  0.5357 -0.1065
 2285TIP3    H1 6819   4.149   4.009   2.194 -0.2238  0.5844  1.2751
 2285TIP3    H2 6820   4.170   3.873   2.132  1.5146  1.0226  0.8459
 2286TIP3   OH2 6821   4.862   1.375   0.557 -0.4565 -0.8125 -0.5219
 2286TIP3    H1 6822   4.891   1.291   0.592 -0.1983 -1.8570 -3.0386
 2286TIP3    H2 6823   4.942   1.417   0.526 -0.8946 -1.0319 -2.0382
 2287TIP3   OH2 6824   7.053   0.357   1.840  0.0984 -0.4869  0.9277
 2287TIP3    H1 6825   6.991   0.312   1.782  2.8993 -2.3433 -0.8427
 2287TIP3    H2 6826   7.043   0.450   1.818 -1.6073 -0.7837  0.3104
 2288TIP3   OH2 6827   4.627   1.520   1.312 -0.0434  0.6685  0.2167
 2288TIP3    H1 6828   4.652   1.605   1.349  0.7015  0.6999 -0.3484
 2288TIP3    H2 6829   4.585   1.541   1.228  0.0951  0.4772  0.0994
 2289TIP3   OH2 6830   1.228   3.898   0.766  0.4522  0.1195  0.1884
 2289TIP3    H1 6831   1.198   3.808   0.753  1.0243 -0.4098  2.2038
 2289TIP3    H2 6832   1.148   3.949   0.772  0.1028 -0.4106  0.0989
 2290TIP3   OH2 6833   7.088   3.286   3.544  0.5799  0.2370 -0.1643
 2290TIP3    H1 6834   7.103   3.378   3.520  0.7662 -0.1069 -1.4272
 2290TIP3    H2 6835   7.153   3.237   3.494  0.3998 -0.6061  0.4079
 2291TIP3   OH2 6836   0.292   5.046   3.528 -0.1180  0.3853  0.3273
 2291TIP3    H1 6837   0.298   5.012   3.618  1.3286 -0.5603 -0.1002
 2291TIP3    H2 6838   0.378   5.085   3.512 -0.7765  1.6665 -0.2447
 2292TIP3   OH2 6839   5.670   2.830   3.068 -0.1381  0.1560 -0.2661
 2292TIP3    H1 6840   5.670   2.834   3.164 -0.0345 -2.5555 -0.0690
 2292TIP3    H2 6841   5.724   2.904   3.041 -0.5893  1.2930  1.7268
 2293TIP3   OH2 6842   6.885   4.985   0.199  0.1055  0.4631 -0.1493
 2293TIP3    H1 6843   6.862   4.954   0.287 -0.7929  0.0097 -0.5277
 2293TIP3    H2 6844   6.829   5.061   0.186  0.7246  0.9341 -0.0738
 2294TIP3   OH2 6845   3.155   4.611   0.781 -0.0910 -0.9567 -0.6205
 2294TIP3    H1 6846   3.131   4.686   0.836  1.9395 -1.5063  1.1842
 2294TIP3    H2 6847   3.101   4.620   0.703 -0.6287  1.8379 -0.0506
 2295TIP3   OH2 6848   4.484   2.574   0.130  0.3815 -0.5049 -0.6582
 2295TIP3    H1 6849   4.476   2.554   0.037 -1.1963 -1.6715 -0.3026
 2295TIP3    H2 6850   4.578   2.567   0.148  0.9943  1.5968 -2.5063
 2296TIP3   OH2 6851   0.248   3.058   2.708  0.4310  0.2348 -0.2508
 2296TIP3    H1 6852   0.164   3.094   2.679  0.8309  0.7267 -0.7940
 2296TIP3    H2 6853   0.303   3.134   2.727  0.9463 -0.0836 -0.4435
 2297TIP3   OH2 6854   3.376   6.033   1.026 -0.6007 -0.0045  0.1140
 2297TIP3    H1 6855   3.447   5.974   1.001  1.1182  0.9197  2.5245
 2297TIP3    H2 6856   3.335   5.991   1.101 -1.8371  0.0973 -0.4774
 2298TIP3   OH2 6857   3.895   6.194   1.978 -0.0202 -0.1455  0.2513
 2298TIP3    H1 6858   3.924   6.112   2.017 -0.5703 -0.8134 -0.6971
 2298TIP3    H2 6859   3.841   6.236   2.046 -0.5794 -1.0599  0.3861
 2299TIP3   OH2 6860   0.112   2.620   4.696  0.2058 -0.3367 -0.8542
 2299TIP3    H1 6861   0.131   2.714   4.689 -0.2462 -0.3088 -1.9018
 2299TIP3    H2 6862   0.017   2.616   4.710  0.2488 -0.6355 -0.6433
 2300TIP3   OH2 6863   0.701   3.617   1.260  1.1918  0.3524 -0.0057
 2300TIP3    H1 6864   0.746   3.621   1.345 -0.2471  1.4593  0.7560
 2300TIP3    H2 6865   0.644   3.694   1.260  0.4390 -0.1728 -1.5743
 2301TIP3   OH2 6866   5.936   3.930   4.482  0.0603  0.1787 -0.4406
 2301TIP3    H1 6867   5.886   3.955   4.560 -0.8809  2.6057 -1.7147
 2301TIP3    H2 6868   6.019   3.977   4.491 -0.3878  1.1559 -1.2785
 2302TIP3   OH2 6869   3.905   2.183   0.559  0.2601  0.1582  0.3380
 2302TIP3    H1 6870   3.974   2.197   0.624  0.4220  1.1365 -0.0335
 2302TIP3    H2 6871   3.873   2.270   0.539 -0.3068 -0.2009 -0.3473
 2303TIP3   OH2 6872   5.961   4.974   3.652  0.2658 -0.1916 -0.4394
 2303TIP3    H1 6873   5.978   4.881   3.637 -0.3411 -0.8803  2.4519
 2303TIP3    H2 6874   5.894   4.997   3.587 -0.9616 -2.3142 -0.0225
 2304TIP3   OH2 6875   2.436   5.083   5.775  0.3367  0.4194 -0.6302
 2304TIP3    H1 6876   2.422   5.140   5.698 -0.4219 -0.8447 -1.4652
 2304TIP3    H2 6877   2.350   5.077   5.815  0.6220  0.6343  0.0179
 2305TIP3   OH2 6878   5.113   4.232   0.214 -0.4708  0.2858 -0.4116
 2305TIP3    H1 6879   5.099   4.244   0.308  1.7291  1.4149 -0.1507
 2305TIP3    H2 6880   5.152   4.145   0.206  1.1355  0.9329  0.0025
 2306TIP3   OH2 6881   3.372   0.395   2.017 -0.2709 -0.1996  1.0495
 2306TIP3    H1 6882   3.311   0.343   2.070 -0.4363  0.9140  1.9876
 2306TIP3    H2 6883   3.365   0.484   2.052  2.8917 -0.2682  2.1726
 2307TIP3   OH2 6884   1.702   2.428   1.096  0.1066 -0.0221 -0.1319
 2307TIP3    H1 6885   1.737   2.342   1.073 -0.6495 -0.1082 -1.0053
 2307TIP3    H2 6886   1.779   2.486   1.098  0.5423 -0.5937 -0.0899
 2308TIP3   OH2 6887   7.162   2.207   5.146  0.0675  0.0422  0.3573
 2308TIP3    H1 6888   7.120   2.129   5.110 -0.8801  0.4091  0.6296
 2308TIP3    H2 6889   7.201   2.251   5.071  2.9008 -1.9942  0.4942
 2309TIP3   OH2 6890   4.733   2.953   2.990  1.0626 -0.1363 -0.1719
 2309TIP3    H1 6891   4.730   2.869   3.036 -1.4136  0.0715  0.1950
 2309TIP3    H2 6892   4.700   2.933   2.902  1.2489  0.3101 -0.3436
 2310TIP3   OH2 6893   3.886   0.982   4.590  0.3530  0.1321  0.2932
 2310TIP3    H1 6894   3.953   1.026   4.537 -0.6464  0.5892 -0.6250
 2310TIP3    H2 6895   3.906   0.889   4.580  2.3021  0.2951  2.0105
 2311TIP3   OH2 6896   1.628   4.984   1.426 -0.4558 -0.3460  0.2751
 2311TIP3    H1 6897   1.582   4.906   1.396  2.2314 -1.3327 -1.6609
 2311TIP3    H2 6898   1.698   4.951   1.482 -0.3262  0.8204  0.8348
 2312TIP3   OH2 6899   5.843   2.293   1.697  0.8346 -0.8915 -0.0322
 2312TIP3    H1 6900   5.812   2.382   1.682 -1.7506 -1.9112 -1.1797
 2312TIP3    H2 6901   5.841   2.282   1.792 -1.5141 -0.5702 -0.0024
 2313TIP3   OH2 6902   4.821   4.667   4.866  0.4289  0.4179 -0.1110
 2313TIP3    H1 6903   4.866   4.588   4.896 -0.3343  0.2311  0.5572
 2313TIP3    H2 6904   4.866   4.739   4.910  0.9942  0.3562 -0.5661
 2314TIP3   OH2 6905   5.201   0.667   0.776 -0.1676 -0.1880  0.4210
 2314TIP3    H1 6906   5.208   0.755   0.815  0.1952 -0.6849  1.5112
 2314TIP3    H2 6907   5.108   0.645   0.782  0.0580 -0.7819  2.2318
 2315TIP3   OH2 6908   1.780   2.136   1.702 -0.0585 -0.0616  0.4193
 2315TIP3    H1 6909   1.866   2.173   1.681 -0.6308  0.7253 -0.6089
 2315TIP3    H2 6910   1.781   2.050   1.661  0.7307 -0.6241  1.5687
 2316TIP3   OH2 6911   1.989   4.235   1.408 -0.7881 -0.0404 -0.0047
 2316TIP3    H1 6912   2.039   4.176   1.351 -2.6498 -0.8516 -0.9185
 2316TIP3    H2 6913   2.027   4.224   1.495  1.3913  0.3538 -0.8531
 2317TIP3   OH2 6914   0.178   4.782   3.856 -0.3073 -0.0584 -0.0209
 2317TIP3    H1 6915   0.101   4.824   3.894  0.1564 -0.5576  1.5575
 2317TIP3    H2 6916   0.144   4.730   3.783 -1.8961 -2.2038  2.0972
 2318TIP3   OH2 6917   6.635   1.051   0.705 -0.5469 -0.2952  0.0506
 2318TIP3    H1 6918   6.706   0.987   0.704 -2.2318 -2.2452 -0.0657
 2318TIP3    H2 6919   6.599   1.049   0.616 -0.6237  0.8586  0.0337
 2319TIP3   OH2 6920   3.910   3.295   0.775 -0.5255 -0.1680  0.0293
 2319TIP3    H1 6921   3.969   3.234   0.819 -0.9098  0.1078  0.9673
 2319TIP3    H2 6922   3.935   3.381   0.810  1.1956  0.5106 -2.5593
 2320TIP3   OH2 6923   2.901   4.491   2.735  0.9884 -0.4917  0.3804
 2320TIP3    H1 6924   2.983   4.500   2.784  1.1339 -1.2969  0.2942
 2320TIP3    H2 6925   2.887   4.396   2.729  1.8456 -0.5167 -2.5987
 2321TIP3   OH2 6926   1.561   0.573   0.109 -0.2387 -0.2809  0.2963
 2321TIP3    H1 6927   1.632   0.605   0.163 -0.2368 -0.5713  0.4659
 2321TIP3    H2 6928   1.574   0.615   0.024 -0.1818  0.0912  0.4872
 2322TIP3   OH2 6929   0.145   6.385   5.894 -0.1093  0.0716 -0.1971
 2322TIP3    H1 6930   0.068   6.330   5.912 -0.2217  0.9400  2.3864
 2322TIP3    H2 6931   0.216   6.322   5.881 -1.2972 -0.7859 -3.5764
 2323TIP3   OH2 6932   2.599   0.218   2.318 -0.1620 -0.3677 -0.0724
 2323TIP3    H1 6933   2.606   0.149   2.251 -2.4496 -0.9152  0.1476
 2323TIP3    H2 6934   2.513   0.203   2.357  1.1763 -0.2229  3.2130
 2324TIP3   OH2 6935   6.396   1.345   1.188  0.3232 -0.5078 -0.3573
 2324TIP3    H1 6936   6.481   1.360   1.145  0.6010 -2.5665 -0.6197
 2324TIP3    H2 6937   6.348   1.290   1.126 -0.9483  0.0311  0.1216
 2325TIP3   OH2 6938   2.376   2.572   0.166  0.2900 -0.2236 -0.3328
 2325TIP3    H1 6939   2.421   2.489   0.153 -0.8806 -0.7598 -1.2209
 2325TIP3    H2 6940   2.327   2.586   0.085 -0.3794  0.8014  0.2153
 2326TIP3   OH2 6941   6.016   6.024   4.780 -0.2520  0.2284  0.5687
 2326TIP3    H1 6942   5.999   6.016   4.686 -0.3855 -1.1254  0.6922
 2326TIP3    H2 6943   6.110   6.014   4.789 -0.2908 -0.0905  0.6215
 2327TIP3   OH2 6944   1.680   1.065   3.959  0.0372 -0.1717  0.5326
 2327TIP3    H1 6945   1.620   1.140   3.954 -0.4582 -0.3595  2.6949
 2327TIP3    H2 6946   1.632   0.999   4.008  1.3209 -1.0413  0.6609
 2328TIP3   OH2 6947   0.372   0.705   3.191 -0.5068  0.1292 -0.1661
 2328TIP3    H1 6948   0.433   0.652   3.243 -0.6440  1.7196  1.7736
 2328TIP3    H2 6949   0.286   0.684   3.226 -0.6338  1.0211  0.0899
 2329TIP3   OH2 6950   6.235   2.473   0.858 -0.2037  0.1177 -0.2584
 2329TIP3    H1 6951   6.202   2.395   0.902 -0.6129  0.0235 -0.7161
 2329TIP3    H2 6952   6.244   2.446   0.766  1.0784  0.1673 -0.1690
 2330TIP3   OH2 6953   4.118   1.951   2.730 -0.0849 -0.2083  0.0336
 2330TIP3    H1 6954   4.098   2.041   2.754  1.8435  0.4186 -0.5700
 2330TIP3    H2 6955   4.089   1.943   2.639  3.1920  1.0638 -1.2458
 2331TIP3   OH2 6956   0.648   0.057   4.878 -0.4296  0.0947  0.2698
 2331TIP3    H1 6957   0.705  -0.018   4.898 -3.1981 -2.3672 -0.4828
 2331TIP3    H2 6958   0.678   0.087   4.793 -0.5723 -1.5474 -0.3925
 2332TIP3   OH2 6959   3.685   3.696   2.798  0.0044 -0.6247 -0.3726
 2332TIP3    H1 6960   3.761   3.647   2.829 -0.0309 -0.9557 -0.8054
 2332TIP3    H2 6961   3.707   3.788   2.813 -0.2583 -0.7932  1.2053
 2333TIP3   OH2 6962   0.242   4.062   3.519 -0.2978  0.0205 -0.0545
 2333TIP3    H1 6963   0.271   4.101   3.437  1.3720  1.2656  1.0277
 2333TIP3    H2 6964   0.147   4.069   3.518 -0.2581  0.5923 -1.6033
 2334TIP3   OH2 6965   2.729   3.480   3.424  0.2803  0.3039 -0.5020
 2334TIP3    H1 6966   2.634   3.470   3.421  0.4816 -1.9080 -0.7879
 2334TIP3    H2 6967   2.745   3.530   3.504 -1.0963  0.2779 -0.1819
 2335TIP3   OH2 6968   1.470   6.686   5.311  0.0525  0.3596 -0.4499
 2335TIP3    H1 6969   1.561   6.711   5.295  0.0132  0.3030 -0.7747
 2335TIP3    H2 6970   1.454   6.708   5.403 -0.0820  1.8286 -0.8066
 2336TIP3   OH2 6971   2.253   4.365   1.802  0.1458 -0.5603  0.6890
 2336TIP3    H1 6972   2.187   4.347   1.735 -0.7627 -1.1048  1.7173
 2336TIP3    H2 6973   2.271   4.459   1.793  1.9310 -1.0361 -1.9994
 2337TIP3   OH2 6974   4.761   3.280   4.932  0.1237 -0.0915  0.3586
 2337TIP3    H1 6975   4.850   3.273   4.898  0.4205  0.0226  1.0877
 2337TIP3    H2 6976   4.732   3.189   4.942 -0.1732 -0.1244 -0.6965
 2338TIP3   OH2 6977   2.684   4.853   3.167 -0.0547  0.3266 -0.5974
 2338TIP3    H1 6978   2.736   4.795   3.223 -1.2013 -1.5820 -1.3859
 2338TIP3    H2 6979   2.612   4.797   3.136 -1.7327  2.4366 -0.7276
 2339TIP3   OH2 6980   4.657   5.756   5.663  0.1074  0.2780  0.2082
 2339TIP3    H1 6981   4.739   5.716   5.694  1.1763  1.7858 -0.5232
 2339TIP3    H2 6982   4.591   5.725   5.725  0.8225 -2.5404 -0.2767
 2340TIP3   OH2 6983   6.317   6.245   0.745  0.0291  0.3541  0.0355
 2340TIP3    H1 6984   6.408   6.273   0.751  0.7625 -1.1309 -2.4054
 2340TIP3    H2 6985   6.270   6.321   0.709  1.2245 -0.0857 -2.7707
 2341TIP3   OH2 6986   2.626   5.139   3.707  0.4061 -0.0829 -0.4196
 2341TIP3    H1 6987   2.639   5.045   3.710  1.9367  0.1288  1.8357
 2341TIP3    H2 6988   2.668   5.172   3.787 -1.4294  2.3443 -0.3357
 2342TIP3   OH2 6989   1.651   0.969   1.879 -0.1646 -0.2383 -0.2618
 2342TIP3    H1 6990   1.697   1.004   1.955 -0.6205  2.1831 -1.0093
 2342TIP3    H2 6991   1.558   0.987   1.897 -0.3856 -0.7446 -0.8672
 2343TIP3   OH2 6992   2.086   4.185   0.466  0.2441 -0.3248 -0.3326
 2343TIP3    H1 6993   2.054   4.251   0.403 -0.3292  0.5034  0.7862
 2343TIP3    H2 6994   2.086   4.231   0.550 -0.5477 -1.8816  0.5529
 2344TIP3   OH2 6995   2.781   4.484   4.624 -0.0268  0.7067 -0.2399
 2344TIP3    H1 6996   2.732   4.473   4.705  0.0627  1.9431  0.0008
 2344TIP3    H2 6997   2.784   4.579   4.610  1.7776  0.6410 -0.5584
 2345TIP3   OH2 6998   3.054   0.795   4.486 -0.2332 -0.5155  0.0842
 2345TIP3    H1 6999   3.125   0.746   4.445 -0.9468 -2.3035  0.8875
 2345TIP3    H2 7000   2.989   0.806   4.416  0.0591 -0.4603 -0.1803
 2346TIP3   OH2 7001   4.045   3.423   3.890 -0.2496  0.5158  0.1409
 2346TIP3    H1 7002   4.093   3.452   3.968 -1.6600 -0.8440  1.6062
 2346TIP3    H2 7003   4.104   3.359   3.849  1.1827  2.4040 -0.8840
 2347TIP3   OH2 7004   6.144   3.560   3.183 -0.6420  0.2399 -0.2581
 2347TIP3    H1 7005   6.139   3.579   3.276  0.6954 -1.0013  0.0991
 2347TIP3    H2 7006   6.200   3.483   3.177 -1.2314 -0.1017 -2.0414
 2348TIP3   OH2 7007   3.830   6.202   5.218  0.3557  0.1820 -0.0862
 2348TIP3    H1 7008   3.895   6.159   5.274  1.0322 -0.2319 -1.1583
 2348TIP3    H2 7009   3.854   6.295   5.220  0.4016  0.1624  0.2699
 2349TIP3   OH2 7010   1.754   2.155   1.042  0.0693 -0.4010  0.0867
 2349TIP3    H1 7011   1.781   2.168   0.951 -1.1078  1.7584 -0.0097
 2349TIP3    H2 7012   1.671   2.108   1.036 -0.6347  0.8234 -0.0469
 2350TIP3   OH2 7013   1.792   6.450   2.282  0.0912 -0.0308 -0.0679
 2350TIP3    H1 7014   1.873   6.496   2.257  1.4908 -1.6489  1.2014
 2350TIP3    H2 7015   1.773   6.483   2.370 -0.3030 -0.0663 -0.1422
 2351TIP3   OH2 7016   2.205   2.967   3.034  0.3624  0.3046  0.3168
 2351TIP3    H1 7017   2.144   3.038   3.014 -1.4631 -0.9896  0.9638
 2351TIP3    H2 7018   2.235   2.985   3.122 -0.6468 -0.0561  0.7508
 2352TIP3   OH2 7019   2.854   2.122   0.187  0.5953 -0.0058 -0.6200
 2352TIP3    H1 7020   2.946   2.115   0.211  0.9412  0.3336 -1.7938
 2352TIP3    H2 7021   2.809   2.066   0.250  1.7092 -0.9480 -0.6301
 2353TIP3   OH2 7022   2.379   3.348   3.092 -0.1279 -0.0259 -0.2271
 2353TIP3    H1 7023   2.379   3.410   3.165  1.5632 -0.4560  0.1791
 2353TIP3    H2 7024   2.388   3.403   3.014  2.3313  0.2736  0.1800
 2354TIP3   OH2 7025   4.902   6.538   3.635 -0.3098 -0.3153 -0.4418
 2354TIP3    H1 7026   4.826   6.595   3.623  1.2083  1.3708 -2.8212
 2354TIP3    H2 7027   4.909   6.490   3.552  0.3669 -1.5719  0.3115
 2355TIP3   OH2 7028   0.729   1.648   2.334  0.0659  0.1601 -0.0700
 2355TIP3    H1 7029   0.733   1.743   2.319  0.4724  0.0208 -0.8603
 2355TIP3    H2 7030   0.646   1.621   2.296  1.7821 -0.4486 -3.7115
 2356TIP3   OH2 7031   5.937   3.063   1.646  0.2177 -0.1409 -0.2518
 2356TIP3    H1 7032   6.031   3.069   1.663  0.5990  1.9524 -2.5670
 2356TIP3    H2 7033   5.897   3.094   1.727  1.6081  0.8214  0.1114
 2357TIP3   OH2 7034   6.555  -0.011   1.620  0.0649  0.0256 -0.0770
 2357TIP3    H1 7035   6.593   0.027   1.541 -3.0133 -0.7770 -2.1169
 2357TIP3    H2 7036   6.596   0.037   1.692  2.0531  1.6915 -2.1785
 2358TIP3   OH2 7037   2.060   1.980   5.160 -0.1280  0.4303 -0.6428
 2358TIP3    H1 7038   2.091   2.069   5.179  1.6997 -0.2490 -0.1947
 2358TIP3    H2 7039   2.108   1.954   5.081  0.6530 -0.7308  0.1706
 2359TIP3   OH2 7040   5.946   0.556   2.583  0.2189  0.0661  0.6789
 2359TIP3    H1 7041   5.908   0.482   2.537 -2.0155  0.4846  1.6973
 2359TIP3    H2 7042   5.959   0.623   2.516 -0.1323 -0.3852  0.1557
 2360TIP3   OH2 7043   6.944   4.172   2.948  0.2998  0.9759  0.0092
 2360TIP3    H1 7044   6.989   4.229   3.011 -0.7211  2.6863 -0.7245
 2360TIP3    H2 7045   6.853   4.171   2.977  0.5431 -1.6000  0.8796
 2361TIP3   OH2 7046   4.038   3.302   2.528 -0.4734  0.1617  0.1520
 2361TIP3    H1 7047   4.022   3.213   2.558  1.2782  0.0915  0.9631
 2361TIP3    H2 7048   4.132   3.305   2.509 -0.4557  1.8879  0.3604
 2362TIP3   OH2 7049   6.611   3.320   1.066 -0.1918 -0.0670  0.1878
 2362TIP3    H1 7050   6.679   3.262   1.101 -2.5072 -1.6444  2.4795
 2362TIP3    H2 7051   6.609   3.395   1.126  0.0112  0.3599 -0.3267
 2363TIP3   OH2 7052   3.317   2.158   0.761  0.1016 -0.4124 -0.0880
 2363TIP3    H1 7053   3.330   2.209   0.841 -1.4893 -3.2018  2.1338
 2363TIP3    H2 7054   3.401   2.115   0.745  0.0067 -1.0236  1.0076
 2364TIP3   OH2 7055   7.184   2.865   2.638 -0.1230  0.3214 -0.6062
 2364TIP3    H1 7056   7.098   2.838   2.606 -0.9482  1.9217  0.1626
 2364TIP3    H2 7057   7.227   2.903   2.562 -1.1109  1.8322 -0.4557
 2365TIP3   OH2 7058   4.583   6.276   1.399  0.2866  0.1182 -0.1461
 2365TIP3    H1 7059   4.672   6.304   1.380  0.7275 -0.5754  0.8160
 2365TIP3    H2 7060   4.534   6.357   1.411  1.1496  0.5157  0.8779
 2366TIP3   OH2 7061   6.953   6.379   5.383  0.2483 -0.4446  0.4037
 2366TIP3    H1 7062   6.922   6.295   5.349 -0.2709  0.1114 -0.5583
 2366TIP3    H2 7063   6.873   6.427   5.405  0.5380 -0.1836  0.9103
 2367TIP3   OH2 7064   3.492   5.963   0.125  0.1980  0.1107 -0.4277
 2367TIP3    H1 7065   3.482   5.953   0.219  1.1283  2.2252 -0.0535
 2367TIP3    H2 7066   3.583   5.991   0.113  0.1169 -0.2007 -1.9534
 2368TIP3   OH2 7067   3.849   1.618   0.478  0.0250 -0.0655 -0.2824
 2368TIP3    H1 7068   3.837   1.634   0.572  1.1486 -1.3072  0.0920
 2368TIP3    H2 7069   3.783   1.674   0.436  0.6733  1.9088  1.1415
 2369TIP3   OH2 7070   3.123   4.097   1.362 -0.0253 -0.8099  0.3909
 2369TIP3    H1 7071   3.212   4.129   1.372  0.0923  0.0076 -2.3639
 2369TIP3    H2 7072   3.132   4.002   1.349  0.6948 -0.4860 -1.8108
 2370TIP3   OH2 7073   6.010   3.386   3.394  0.4852  0.2155 -0.7246
 2370TIP3    H1 7074   5.981   3.409   3.305  0.5920 -2.3889 -1.5220
 2370TIP3    H2 7075   5.931   3.396   3.448  0.5177  2.2264 -0.9750
 2371TIP3   OH2 7076   1.111   3.644   1.408  0.3114  0.1510  0.2367
 2371TIP3    H1 7077   1.159   3.605   1.482 -1.6820 -0.7502  1.1480
 2371TIP3    H2 7078   1.023   3.608   1.416 -0.0449  0.2371 -2.4755
 2372TIP3   OH2 7079   1.150   6.580   5.649  0.4842 -0.3416  0.5248
 2372TIP3    H1 7080   1.057   6.569   5.665  0.0682  1.1083 -0.6278
 2372TIP3    H2 7081   1.167   6.528   5.570  0.2492  0.7308 -0.2586
 2373TIP3   OH2 7082   5.476   2.767   4.280 -0.2562 -0.0987 -0.0202
 2373TIP3    H1 7083   5.522   2.725   4.353 -2.0257 -0.6686  0.8355
 2373TIP3    H2 7084   5.504   2.858   4.282  2.0617 -0.7491 -0.5826
 2374TIP3   OH2 7085   6.990   1.404   2.867  0.2646 -0.1385  0.6645
 2374TIP3    H1 7086   6.936   1.389   2.789  0.5994 -1.3390  0.6398
 2374TIP3    H2 7087   7.054   1.470   2.840  1.1140 -1.3741 -0.4614
 2375TIP3   OH2 7088   5.117   0.126   3.167 -0.0297  0.0338 -0.0048
 2375TIP3    H1 7089   5.180   0.070   3.122  0.4034  1.0358 -0.6598
 2375TIP3    H2 7090   5.170   0.190   3.214 -0.5331  0.1832  0.3699
 2376TIP3   OH2 7091   5.780   4.206   4.732 -0.2737  0.4108 -0.1777
 2376TIP3    H1 7092   5.725   4.283   4.717  0.6784  0.8329 -1.6965
 2376TIP3    H2 7093   5.849   4.238   4.789  0.3685  0.8322 -1.1610
 2377TIP3   OH2 7094   0.185   3.542   4.441  0.3848 -0.1112  0.5017
 2377TIP3    H1 7095   0.200   3.608   4.508  3.1513  0.3933 -0.4772
 2377TIP3    H2 7096   0.198   3.589   4.358  1.8129 -1.6694 -0.2216
 2378TIP3   OH2 7097   4.058   5.560   3.201 -0.4812  0.2069 -0.8819
 2378TIP3    H1 7098   4.065   5.519   3.115 -1.8842  1.8564 -1.8552
 2378TIP3    H2 7099   3.981   5.617   3.194 -1.7501 -0.9107  2.0258
 2379TIP3   OH2 7100   2.728   0.302   2.551 -0.6967 -0.2435 -0.1471
 2379TIP3    H1 7101   2.758   0.219   2.588  1.3993  0.2408 -0.6115
 2379TIP3    H2 7102   2.677   0.277   2.474  2.2197 -1.1875 -1.9636
 2380TIP3   OH2 7103   4.679   1.702   1.875 -0.1397  0.2387 -0.2754
 2380TIP3    H1 7104   4.644   1.687   1.963  0.8720  0.0051  0.1094
 2380TIP3    H2 7105   4.750   1.765   1.889  0.4664 -0.3038 -0.8196
 2381TIP3   OH2 7106   2.024   5.601   2.391  0.8177  0.1806  0.0835
 2381TIP3    H1 7107   2.017   5.691   2.424 -1.3801  0.2772 -0.4795
 2381TIP3    H2 7108   1.985   5.548   2.460  0.3587 -0.1118 -0.3964
 2382TIP3   OH2 7109   2.165   3.780   2.491 -0.1325  0.0877 -1.2298
 2382TIP3    H1 7110   2.174   3.873   2.475 -1.2815 -0.2023 -4.0395
 2382TIP3    H2 7111   2.251   3.752   2.523  0.4878  1.9093 -1.2466
 2383TIP3   OH2 7112   3.710   3.277   5.779 -0.0136 -0.2210  0.0949
 2383TIP3    H1 7113   3.767   3.201   5.769  2.5513  1.0382  3.2626
 2383TIP3    H2 7114   3.767   3.345   5.817 -3.0426  2.0093  1.0613
 2384TIP3   OH2 7115   1.654   3.209   2.727 -0.1847  0.1184  0.0096
 2384TIP3    H1 7116   1.676   3.247   2.812  1.7638  2.2309 -1.3405
 2384TIP3    H2 7117   1.726   3.150   2.708  0.1551  0.7807 -0.8009
 2385TIP3   OH2 7118   0.802   0.446   2.563  0.1964  0.4354  0.1529
 2385TIP3    H1 7119   0.759   0.430   2.479  0.7072  0.2041 -0.0674
 2385TIP3    H2 7120   0.762   0.527   2.595 -1.7229 -0.7039  0.8251
 2386TIP3   OH2 7121   2.237   5.228   0.715  0.0559  0.3186 -0.0423
 2386TIP3    H1 7122   2.174   5.193   0.778  1.2262 -1.2394  0.3095
 2386TIP3    H2 7123   2.218   5.322   0.713  1.2629  0.8535  4.1977
 2387TIP3   OH2 7124   5.454   4.537   1.606 -0.0508 -0.4383  0.4111
 2387TIP3    H1 7125   5.431   4.622   1.644 -1.8659 -0.2762 -0.8837
 2387TIP3    H2 7126   5.394   4.527   1.532  1.3192 -2.0658 -0.5599
 2388TIP3   OH2 7127   6.521   2.433   0.668  0.6619 -0.1003  0.4356
 2388TIP3    H1 7128   6.590   2.482   0.624 -0.1301  1.1083  0.5016
 2388TIP3    H2 7129   6.564   2.351   0.696  1.5878 -0.1634 -1.0762
 2389TIP3   OH2 7130   3.187   2.542   1.898 -0.2203 -0.2439  0.2120
 2389TIP3    H1 7131   3.181   2.529   1.992  0.9417 -1.8048  0.1208
 2389TIP3    H2 7132   3.113   2.598   1.876 -0.7209 -0.1556  1.9938
 2390TIP3   OH2 7133   1.647   3.161   5.018 -0.0266  0.2059 -0.0905
 2390TIP3    H1 7134   1.670   3.218   4.945  0.7257  1.3240  0.9741
 2390TIP3    H2 7135   1.660   3.072   4.984 -0.7429  0.6523 -1.6307
 2391TIP3   OH2 7136   7.072   4.674   1.909  0.2578 -0.1258  0.7071
 2391TIP3    H1 7137   7.123   4.621   1.848 -0.4565  1.5608 -1.4811
 2391TIP3    H2 7138   6.993   4.697   1.861 -1.6614 -0.9281  3.2681
 2392TIP3   OH2 7139   3.056   1.196   2.929  0.2194  0.0643 -0.0048
 2392TIP3    H1 7140   2.962   1.177   2.939  0.5485 -1.2030  0.8357
 2392TIP3    H2 7141   3.072   1.185   2.835 -0.7283  1.6294 -0.3896
 2393TIP3   OH2 7142   2.780   0.245   0.686 -0.3730 -0.3909  0.2258
 2393TIP3    H1 7143   2.803   0.212   0.599 -0.6067 -0.9425  0.3644
 2393TIP3    H2 7144   2.802   0.173   0.745 -1.7383 -0.6740  0.4361
 2394TIP3   OH2 7145   0.132   1.126   4.782  0.1995 -0.2014  0.0651
 2394TIP3    H1 7146   0.080   1.124   4.702 -0.2625 -0.1908  0.3608
 2394TIP3    H2 7147   0.112   1.210   4.822  0.5774 -0.1250  0.0981
 2395TIP3   OH2 7148   2.445   2.191   3.192  0.0612  0.4933 -0.2169
 2395TIP3    H1 7149   2.498   2.112   3.181 -1.8236 -0.8401 -0.2338
 2395TIP3    H2 7150   2.411   2.186   3.281  0.2756  1.5308 -0.0658
 2396TIP3   OH2 7151   1.097   2.160   0.130  0.1212  0.0431 -0.1599
 2396TIP3    H1 7152   1.007   2.154   0.097 -0.6928  0.0074  1.9331
 2396TIP3    H2 7153   1.152   2.144   0.053 -1.6612 -0.1909 -1.4347
 2397TIP3   OH2 7154   3.160   1.851   1.658 -0.8167  0.3845  0.3333
 2397TIP3    H1 7155   3.149   1.796   1.736 -2.2196 -0.6965 -0.5850
 2397TIP3    H2 7156   3.254   1.852   1.643 -0.6948 -1.2001  0.7980
 2398TIP3   OH2 7157   1.918   5.231   4.810  0.3643  0.3805 -0.4001
 2398TIP3    H1 7158   1.953   5.161   4.756 -0.3823  0.7742 -1.4315
 2398TIP3    H2 7159   1.837   5.195   4.846  0.7784  0.1751  0.3595
 2399TIP3   OH2 7160   5.742   2.573   0.580 -0.2575  0.3773 -0.0708
 2399TIP3    H1 7161   5.714   2.653   0.624 -0.4898  0.6885 -0.7666
 2399TIP3    H2 7162   5.762   2.601   0.490  0.0389 -0.2731 -0.2133
 2400TIP3   OH2 7163   1.019   3.672   0.723  0.1038 -0.2961  0.4681
 2400TIP3    H1 7164   1.064   3.590   0.702  0.6955  0.1815 -0.2115
 2400TIP3    H2 7165   1.009   3.716   0.638  1.3604  1.1009  0.9855
 2401TIP3   OH2 7166   1.180   1.269   4.734 -0.2515  0.4678 -0.1553
 2401TIP3    H1 7167   1.135   1.238   4.813 -0.6916  0.0894 -0.5472
 2401TIP3    H2 7168   1.269   1.234   4.742 -0.3353  0.3055  0.0973
 2402TIP3   OH2 7169   1.109   6.673   4.809 -0.2156  1.0623 -0.0984
 2402TIP3    H1 7170   1.098   6.754   4.758  0.6984  1.5378  0.4437
 2402TIP3    H2 7171   1.097   6.700   4.900 -1.0379  0.3619  0.0145
 2403TIP3   OH2 7172   3.227   0.278   4.220 -0.8953  0.0167 -0.1413
 2403TIP3    H1 7173   3.287   0.351   4.209 -2.2067  1.1389 -0.0991
 2403TIP3    H2 7174   3.247   0.243   4.307  1.4525 -1.3373 -1.1348
 2404TIP3   OH2 7175   3.318   1.287   1.894 -0.5026 -0.0996 -0.5939
 2404TIP3    H1 7176   3.314   1.365   1.950  0.2615  0.6606 -1.5499
 2404TIP3    H2 7177   3.236   1.288   1.845 -0.9925 -0.5410  0.1916
 2405TIP3   OH2 7178   1.491   2.513   0.949 -0.0222 -0.1630  0.6461
 2405TIP3    H1 7179   1.496   2.429   0.904  0.2562  0.8250 -1.2694
 2405TIP3    H2 7180   1.566   2.513   1.008  0.3134 -1.0136  0.2322
 2406TIP3   OH2 7181   5.774   5.876   5.264  0.2354  0.2365  0.2927
 2406TIP3    H1 7182   5.814   5.937   5.203  0.2495  1.1876  1.2274
 2406TIP3    H2 7183   5.735   5.931   5.332 -2.2045 -0.6614 -0.2656
 2407TIP3   OH2 7184   4.115   2.302   3.839  0.0949  0.0050  0.0402
 2407TIP3    H1 7185   4.123   2.396   3.856 -3.5220  0.5234 -0.3371
 2407TIP3    H2 7186   4.108   2.262   3.925 -2.2870  0.6703  0.2351
 2408TIP3   OH2 7187   5.582   2.240   4.410 -0.1909  0.3899  0.2163
 2408TIP3    H1 7188   5.584   2.152   4.448 -1.3660  0.6164  0.8433
 2408TIP3    H2 7189   5.490   2.266   4.415  0.0434  1.4211 -0.5198
 2409TIP3   OH2 7190   4.004   4.920   1.396  0.0081 -0.6965 -0.3386
 2409TIP3    H1 7191   3.938   4.990   1.407  0.3104 -0.2918 -1.0629
 2409TIP3    H2 7192   3.955   4.847   1.359 -0.0267 -0.3648 -0.9638
 2410TIP3   OH2 7193   1.721   3.245   4.765 -0.2333 -0.5306 -0.2382
 2410TIP3    H1 7194   1.658   3.278   4.701 -1.0405 -0.6910  0.4520
 2410TIP3    H2 7195   1.797   3.302   4.757 -0.7768  0.1551 -0.5353
 2411TIP3   OH2 7196   6.728   6.288   1.324 -0.3524  0.1409 -0.0584
 2411TIP3    H1 7197   6.696   6.359   1.268 -0.2756 -0.1915 -0.5302
 2411TIP3    H2 7198   6.657   6.274   1.386 -0.6788  0.1394 -0.4247
 2412TIP3   OH2 7199   1.662   5.482   1.518 -0.3205  0.7050  0.2267
 2412TIP3    H1 7200   1.610   5.438   1.450  1.2831 -2.8861  1.0501
 2412TIP3    H2 7201   1.613   5.467   1.599  1.3036 -1.9116  0.8666
 2413TIP3   OH2 7202   6.571   3.249   3.293 -0.2903  0.2766 -0.7483
 2413TIP3    H1 7203   6.601   3.185   3.229  1.3411  2.1096 -1.9307
 2413TIP3    H2 7204   6.651   3.285   3.331 -1.2039 -0.1290  1.7312
 2414TIP3   OH2 7205   2.584   1.119   2.034  0.4316 -0.3231 -0.5273
 2414TIP3    H1 7206   2.623   1.034   2.014 -0.9060 -0.9503 -0.6033
 2414TIP3    H2 7207   2.577   1.120   2.129 -0.9808 -1.0032 -0.5933
 2415TIP3   OH2 7208   1.764   6.417   0.624 -0.3230 -0.2871 -0.0256
 2415TIP3    H1 7209   1.825   6.365   0.678  0.2151 -0.2668 -0.5997
 2415TIP3    H2 7210   1.678   6.383   0.647 -0.1799  0.2474  1.4262
 2416TIP3   OH2 7211   0.599   6.676   5.027 -0.3209 -0.3446 -0.4827
 2416TIP3    H1 7212   0.519   6.691   4.977  0.0006 -0.9112 -1.1804
 2416TIP3    H2 7213   0.578   6.705   5.116 -0.5727  1.6517 -1.1568
 2417TIP3   OH2 7214   7.077   4.260   0.995 -0.4869 -0.2438  0.1315
 2417TIP3    H1 7215   7.131   4.206   0.937  0.4349 -1.3025  1.8837
 2417TIP3    H2 7216   7.008   4.295   0.939  1.4920  0.4326 -2.0038
 2418TIP3   OH2 7217   2.261   3.380   0.497 -0.6779 -0.1126  0.2570
 2418TIP3    H1 7218   2.353   3.385   0.473 -0.9545  4.0447 -0.7658
 2418TIP3    H2 7219   2.218   3.347   0.419 -0.2669  0.6985 -0.3342
 2419TIP3   OH2 7220   0.474   0.825   2.974 -0.0128  0.1836 -0.0336
 2419TIP3    H1 7221   0.443   0.816   2.884 -0.4012  0.1635  0.0989
 2419TIP3    H2 7222   0.402   0.790   3.028  1.1585 -2.0235  0.2006
 2420TIP3   OH2 7223   1.701   3.844   3.230 -0.4098  0.1523  0.6243
 2420TIP3    H1 7224   1.642   3.899   3.283  0.2122 -0.3699  1.8992
 2420TIP3    H2 7225   1.759   3.906   3.186 -1.6429  0.6552 -0.3527
 2421TIP3   OH2 7226   3.049   1.245   5.799  0.5155 -0.2740 -0.0771
 2421TIP3    H1 7227   3.132   1.201   5.820 -0.0384 -1.5049 -0.4554
 2421TIP3    H2 7228   2.995   1.233   5.877  0.1645 -0.7326 -0.3926
 2422TIP3   OH2 7229   7.120   6.612   5.355  0.1505 -0.6203  0.1732
 2422TIP3    H1 7230   7.066   6.533   5.363 -1.8432  0.6977  0.4478
 2422TIP3    H2 7231   7.061   6.677   5.316  2.4675  0.0406 -2.5847
 2423TIP3   OH2 7232   1.676   1.504   1.487 -0.2598 -0.1086  0.3422
 2423TIP3    H1 7233   1.669   1.427   1.544  0.4645 -0.4773 -0.0585
 2423TIP3    H2 7234   1.763   1.539   1.504  0.2078 -0.5742 -0.9726
 2424TIP3   OH2 7235   0.877   3.604   2.751  0.0458 -0.3588 -0.3880
 2424TIP3    H1 7236   0.901   3.513   2.733  0.8554 -0.1823 -0.2295
 2424TIP3    H2 7237   0.858   3.641   2.665  0.9492 -0.3391 -0.5866
 2425TIP3   OH2 7238   6.847   3.447   5.486 -0.4732  0.7378 -0.3340
 2425TIP3    H1 7239   6.915   3.486   5.541 -0.0107 -1.0366  0.4465
 2425TIP3    H2 7240   6.764   3.477   5.525 -0.1768  2.1417 -0.7156
 2426TIP3   OH2 7241   3.497   2.863   4.416  0.3891  0.6960  0.3679
 2426TIP3    H1 7242   3.564   2.794   4.419 -2.1382 -1.9537  0.1205
 2426TIP3    H2 7243   3.471   2.875   4.507 -0.4369 -0.0374  0.2368
 2427TIP3   OH2 7244   6.446   5.318   2.726  0.3647 -0.1210 -0.3611
 2427TIP3    H1 7245   6.461   5.281   2.639 -0.1637 -0.9585 -0.1086
 2427TIP3    H2 7246   6.363   5.366   2.718 -0.9429 -2.1686  0.2470
 2428TIP3   OH2 7247   0.562   3.532   2.691  0.1754  0.4006 -0.8567
 2428TIP3    H1 7248   0.591   3.490   2.610  1.4876  0.6773 -0.5526
 2428TIP3    H2 7249   0.615   3.611   2.698  0.4632  0.1141  0.5295
 2429TIP3   OH2 7250   0.310   1.400   0.909 -0.0550  0.4908 -0.1380
 2429TIP3    H1 7251   0.290   1.434   0.822 -0.4639  1.1032  0.1855
 2429TIP3    H2 7252   0.406   1.397   0.912  0.0105 -2.1698 -1.5881
 2430TIP3   OH2 7253   3.617   3.943   2.227 -0.2675  0.2110 -0.2465
 2430TIP3    H1 7254   3.710   3.940   2.249 -0.5065 -0.4211  0.7285
 2430TIP3    H2 7255   3.579   3.868   2.272 -1.5266  1.3889  0.7532
 2431TIP3   OH2 7256   2.084   3.281   0.688  0.5019  0.6614  0.1598
 2431TIP3    H1 7257   2.124   3.320   0.610  1.7785 -3.1663 -1.3705
 2431TIP3    H2 7258   1.996   3.257   0.661 -0.3040  2.4093  1.1080
 2432TIP3   OH2 7259   5.844   1.940   4.971 -0.1557 -0.0100 -0.7228
 2432TIP3    H1 7260   5.877   1.937   5.061 -0.0685  1.4208 -0.6791
 2432TIP3    H2 7261   5.750   1.924   4.980 -0.2120  0.5080 -0.3203
 2433TIP3   OH2 7262   1.246   6.330   5.754  0.3525  0.0651 -0.3556
 2433TIP3    H1 7263   1.292   6.278   5.689 -1.7471  0.0163 -1.9072
 2433TIP3    H2 7264   1.256   6.421   5.725 -0.7168  0.0319 -0.8771
 2434TIP3   OH2 7265   0.036   4.190   2.773  0.2573  0.0511  0.7744
 2434TIP3    H1 7266  -0.035   4.254   2.776  0.5073  0.3218  1.0628
 2434TIP3    H2 7267   0.114   4.241   2.751  0.3093 -0.2938  0.1427
 2435TIP3   OH2 7268   6.778   4.578   0.180  0.1173 -0.1240 -0.0092
 2435TIP3    H1 7269   6.828   4.497   0.177 -0.2629 -0.3867  0.5029
 2435TIP3    H2 7270   6.785   4.608   0.271  1.0399  0.9277 -0.4081
 2436TIP3   OH2 7271   5.332   0.955   2.573  0.5223  0.3545  0.4368
 2436TIP3    H1 7272   5.322   0.859   2.574  0.4304  0.3311 -0.8893
 2436TIP3    H2 7273   5.371   0.974   2.488  0.8793  1.4761  0.8379
 2437TIP3   OH2 7274   7.033   0.023   5.716  0.0885 -0.1581  0.2693
 2437TIP3    H1 7275   7.088   0.096   5.744 -1.9039  0.6596  2.4899
 2437TIP3    H2 7276   7.081  -0.055   5.741  1.0362  0.4716  0.4563
 2438TIP3   OH2 7277   3.027   1.894   2.258  0.0013  0.2437  0.1729
 2438TIP3    H1 7278   2.947   1.847   2.279 -0.3468  0.2389 -1.0470
 2438TIP3    H2 7279   3.011   1.983   2.288  0.0080 -0.0237  0.9893
 2439TIP3   OH2 7280   6.433   3.575   4.124 -0.4231  0.2378 -0.3924
 2439TIP3    H1 7281   6.481   3.594   4.205 -0.6714  0.0567 -0.1956
 2439TIP3    H2 7282   6.449   3.650   4.068 -0.3566  0.4316 -0.1193
 2440TIP3   OH2 7283   0.743   1.984   1.466  0.4270  0.1979 -0.1777
 2440TIP3    H1 7284   0.720   1.891   1.461  1.1664  0.0213 -0.3730
 2440TIP3    H2 7285   0.670   2.024   1.513 -0.1009 -0.4084 -0.4756
 2441TIP3   OH2 7286   0.241   4.818   1.982 -0.6461 -0.0307 -0.1450
 2441TIP3    H1 7287   0.335   4.834   1.982 -0.7192  0.5646  1.6301
 2441TIP3    H2 7288   0.233   4.723   1.990 -0.1725  0.0186  1.0899
 2442TIP3   OH2 7289   1.232   1.999   4.911 -0.2415  0.7404  0.0313
 2442TIP3    H1 7290   1.267   2.027   4.826  1.1319  3.9226  1.4422
 2442TIP3    H2 7291   1.289   1.928   4.938  0.3927  0.8373 -0.9930
 2443TIP3   OH2 7292   1.650   2.445   5.339 -0.0611  0.0423 -0.0449
 2443TIP3    H1 7293   1.556   2.451   5.356 -0.3444 -1.3777 -0.9022
 2443TIP3    H2 7294   1.691   2.473   5.421 -1.2892 -2.1903  1.4426
 2444TIP3   OH2 7295   6.638   5.259   4.453 -0.4970 -0.0559 -0.7836
 2444TIP3    H1 7296   6.568   5.208   4.494 -0.1111  1.2733  1.6837
 2444TIP3    H2 7297   6.603   5.280   4.365 -3.2017  0.4735  0.3016
 2445TIP3   OH2 7298   4.971   2.278   3.188  0.4017  0.4083 -0.0815
 2445TIP3    H1 7299   4.949   2.247   3.276 -0.2663 -1.3695 -0.8392
 2445TIP3    H2 7300   4.984   2.372   3.199  2.8661 -0.0827  2.4084
 2446TIP3   OH2 7301   0.439   2.712   4.931 -0.1568  0.6881 -0.0832
 2446TIP3    H1 7302   0.421   2.736   5.022 -1.1847  0.3095 -0.1741
 2446TIP3    H2 7303   0.535   2.719   4.923  0.1698 -1.1895  1.5755
 2447TIP3   OH2 7304   3.281   3.000   4.299 -0.2186 -0.4247  0.0163
 2447TIP3    H1 7305   3.228   2.985   4.378 -0.2437 -4.0145 -0.4871
 2447TIP3    H2 7306   3.368   2.967   4.323  0.7944  1.7417 -0.4271
 2448TIP3   OH2 7307   2.955   0.771   3.977  0.1187  0.4529  0.3856
 2448TIP3    H1 7308   2.976   0.826   3.901  0.0463  0.5431  0.4303
 2448TIP3    H2 7309   2.867   0.797   4.002 -1.1833 -1.7991 -1.4543
 2449TIP3   OH2 7310   4.028   0.994   0.610 -0.2482  0.2358  0.4123
 2449TIP3    H1 7311   3.989   0.915   0.573 -2.0338  0.8903  0.7563
 2449TIP3    H2 7312   4.047   0.971   0.701  1.1330 -0.3967 -0.0261
 2450TIP3   OH2 7313   3.348   1.988   1.270 -0.2800  0.1473 -0.2499
 2450TIP3    H1 7314   3.319   1.897   1.268 -2.8099  0.8287  1.5960
 2450TIP3    H2 7315   3.434   1.985   1.312 -0.3732 -1.3449 -0.1330
 2451TIP3   OH2 7316   6.706   1.246   3.398  0.3758  0.7343  0.4554
 2451TIP3    H1 7317   6.641   1.180   3.374  1.7331 -1.0165  1.4420
 2451TIP3    H2 7318   6.672   1.286   3.478 -0.0025  0.6168  0.3543
 2452TIP3   OH2 7319   3.325   0.900   5.653  0.1184  0.5044 -0.4103
 2452TIP3    H1 7320   3.238   0.861   5.641  0.2569  0.0962 -0.1016
 2452TIP3    H2 7321   3.314   0.961   5.727 -0.0494  0.9136 -0.7656
 2453TIP3   OH2 7322   0.528   4.022   0.200 -0.1699 -0.1911  0.2867
 2453TIP3    H1 7323   0.547   4.004   0.108 -0.0317 -1.5332  0.5704
 2453TIP3    H2 7324   0.593   4.088   0.226  0.3639 -0.4728 -0.3202
 2454TIP3   OH2 7325   0.154   3.052   3.689  0.0025  0.1138  0.1403
 2454TIP3    H1 7326   0.208   3.024   3.615 -2.4513  0.1097 -1.7582
 2454TIP3    H2 7327   0.176   3.144   3.701  1.5860 -0.2866  0.5007
 2455TIP3   OH2 7328   5.486   6.307   3.522  0.5338  0.2194  0.3475
 2455TIP3    H1 7329   5.450   6.385   3.482 -0.0169  0.4290  1.2227
 2455TIP3    H2 7330   5.478   6.322   3.616 -2.9251 -2.3244  0.6631
 2456TIP3   OH2 7331   4.822   1.338   0.998 -0.1020 -0.0394  0.0718
 2456TIP3    H1 7332   4.811   1.244   1.008 -0.9549 -0.1773 -1.6964
 2456TIP3    H2 7333   4.734   1.374   1.009 -0.1796  0.2885 -1.4323
 2457TIP3   OH2 7334   5.847   3.428   1.497 -0.1370 -0.2034  0.1114
 2457TIP3    H1 7335   5.789   3.363   1.460  0.0473  0.8834 -2.2852
 2457TIP3    H2 7336   5.929   3.417   1.449  1.0505 -0.4398  2.0868
 2458TIP3   OH2 7337   6.452   6.185   5.002 -0.0606  0.0650 -0.0337
 2458TIP3    H1 7338   6.434   6.253   4.937  1.6892 -0.2114 -0.8580
 2458TIP3    H2 7339   6.506   6.230   5.068  0.1316 -0.2364  0.0154
 2459TIP3   OH2 7340   6.535   3.286   4.543 -0.2714  0.3441  0.5474
 2459TIP3    H1 7341   6.585   3.284   4.461 -0.3632  0.2502  0.4942
 2459TIP3    H2 7342   6.462   3.346   4.524 -1.2694 -1.0023  0.0036
 2460TIP3   OH2 7343   3.573   4.341   0.965  0.4944  0.1588  0.0095
 2460TIP3    H1 7344   3.506   4.374   0.905 -0.6876 -0.6253  0.8585
 2460TIP3    H2 7345   3.592   4.252   0.933  2.1275  0.8048 -0.9993
 2461TIP3   OH2 7346   1.351   4.284   1.705  0.3098 -0.9727  0.5893
 2461TIP3    H1 7347   1.385   4.285   1.616  2.5867  1.3591  1.3653
 2461TIP3    H2 7348   1.257   4.302   1.696  0.7866  0.9438 -1.3089
 2462TIP3   OH2 7349   0.898   5.619   0.822  0.8782  0.1694 -0.7150
 2462TIP3    H1 7350   0.835   5.560   0.863 -0.6686  0.8640 -2.0035
 2462TIP3    H2 7351   0.953   5.562   0.768  0.9080 -0.3539 -0.1422
 2463TIP3   OH2 7352   5.272   0.880   3.305 -0.0908  0.1150 -0.7026
 2463TIP3    H1 7353   5.341   0.945   3.317 -1.3532  1.6126 -1.2749
 2463TIP3    H2 7354   5.308   0.818   3.241  1.3025 -0.0410  0.1976
 2464TIP3   OH2 7355   4.487   4.272   5.482 -0.3022  0.8655  0.7735
 2464TIP3    H1 7356   4.504   4.199   5.541 -1.9167  0.8966  1.3437
 2464TIP3    H2 7357   4.548   4.340   5.509  0.9804 -0.1201  0.4592
 2465TIP3   OH2 7358   1.052   1.394   3.083  0.2114  0.2687 -0.1717
 2465TIP3    H1 7359   1.095   1.478   3.067  0.8236  0.3871  1.8743
 2465TIP3    H2 7360   0.994   1.410   3.158  0.8829 -1.2869  0.7295
 2466TIP3   OH2 7361   1.833   0.590   2.042 -0.3872 -0.6806 -0.6199
 2466TIP3    H1 7362   1.751   0.581   2.091 -0.8227 -0.0860 -1.2090
 2466TIP3    H2 7363   1.849   0.504   2.005 -0.7387 -0.8095 -0.4773
 2467TIP3   OH2 7364   3.010   0.013   4.262 -0.0839  0.6888  0.3269
 2467TIP3    H1 7365   2.965   0.090   4.295  0.4186  1.6200 -1.0955
 2467TIP3    H2 7366   3.099   0.043   4.243 -0.3330  0.2374 -1.8203
 2468TIP3   OH2 7367   5.682   1.364   5.706 -0.9407 -0.6245  0.2142
 2468TIP3    H1 7368   5.592   1.363   5.673 -0.5227 -0.0940 -0.9749
 2468TIP3    H2 7369   5.718   1.279   5.680 -0.8286 -0.4883 -0.0752
 2469TIP3   OH2 7370   6.554   3.588   1.739 -0.3355 -0.3097  0.5515
 2469TIP3    H1 7371   6.550   3.618   1.829  2.5778  0.6030  0.4729
 2469TIP3    H2 7372   6.527   3.496   1.743  1.7336 -0.9146  2.7421
 2470TIP3   OH2 7373   3.168   4.782   0.039  0.4696 -0.2155  0.0473
 2470TIP3    H1 7374   3.171   4.766   0.133 -1.6526 -3.6497 -0.2761
 2470TIP3    H2 7375   3.215   4.708   0.000 -1.2987 -0.5704 -1.5903
 2471TIP3   OH2 7376   0.593   3.332   1.499 -0.6437  0.3079  0.2975
 2471TIP3    H1 7377   0.549   3.417   1.510 -0.7578 -0.0360  2.8560
 2471TIP3    H2 7378   0.681   3.346   1.535 -0.0615 -0.2177 -0.8647
 2472TIP3   OH2 7379   6.700   0.786   2.191  0.1707  0.1835 -0.3568
 2472TIP3    H1 7380   6.756   0.709   2.181  0.1717 -0.0448  1.1552
 2472TIP3    H2 7381   6.675   0.809   2.102 -0.0443 -1.7296 -0.8306
 2473TIP3   OH2 7382   0.590   3.502   2.388  0.3078  0.3458  0.7788
 2473TIP3    H1 7383   0.620   3.544   2.307 -0.1684 -1.4391 -0.4010
 2473TIP3    H2 7384   0.506   3.544   2.407  0.1721  0.4319  0.0226
 2474TIP3   OH2 7385   2.877   3.304   5.299 -0.3498  0.3471  0.4479
 2474TIP3    H1 7386   2.807   3.252   5.260 -0.4223  1.9431 -1.7145
 2474TIP3    H2 7387   2.833   3.360   5.362 -0.7324  0.0362  0.4635
 2475TIP3   OH2 7388   1.606   2.783   5.887 -0.5464 -0.3355 -0.2611
 2475TIP3    H1 7389   1.518   2.755   5.915 -0.1754 -1.6512 -0.3484
 2475TIP3    H2 7390   1.611   2.758   5.795  0.1142 -0.7382 -0.1158
 2476TIP3   OH2 7391   1.621   4.995   2.867  0.0279 -0.1136  0.2016
 2476TIP3    H1 7392   1.630   5.054   2.942 -1.3549  0.5808 -0.1517
 2476TIP3    H2 7393   1.700   4.940   2.871  0.6762  0.8380  1.3333
 2477TIP3   OH2 7394   2.403   5.532   1.785 -0.4013  1.0779  0.3343
 2477TIP3    H1 7395   2.482   5.574   1.818  0.1723  0.3958 -0.1374
 2477TIP3    H2 7396   2.370   5.482   1.860  0.3261  0.3527  0.1830
 2478TIP3   OH2 7397   0.482   2.398   1.553 -0.4878 -0.3652  0.0333
 2478TIP3    H1 7398   0.414   2.427   1.614  1.4653 -0.3056  2.3248
 2478TIP3    H2 7399   0.493   2.471   1.493 -0.0169  1.1442  1.8560
 2479TIP3   OH2 7400   1.051   0.518   2.319 -0.1217 -0.4897  0.0747
 2479TIP3    H1 7401   1.085   0.507   2.408 -0.7653 -1.2560  0.2391
 2479TIP3    H2 7402   1.048   0.430   2.284 -1.4011 -0.3895 -0.1236
 2480TIP3   OH2 7403   2.294   5.314   1.983 -0.0903  0.1924 -0.1494
 2480TIP3    H1 7404   2.290   5.351   2.071  1.6843 -0.6641  0.3362
 2480TIP3    H2 7405   2.213   5.265   1.974 -0.5462  0.7443  0.7873
 2481TIP3   OH2 7406   0.285   4.125   4.951  0.1785 -0.1999  0.4442
 2481TIP3    H1 7407   0.191   4.128   4.971 -0.1587 -2.9285 -0.2689
 2481TIP3    H2 7408   0.297   4.187   4.880 -1.7219 -1.7428 -1.3661
 2482TIP3   OH2 7409   5.087   1.047   5.166 -0.4403 -0.3327 -0.5895
 2482TIP3    H1 7410   5.143   1.072   5.093  0.2926  2.4990  0.7814
 2482TIP3    H2 7411   5.034   1.125   5.183 -4.1749 -2.5027 -1.1357
 2483TIP3   OH2 7412   1.737   6.670   3.388  0.7670  0.1497 -0.6810
 2483TIP3    H1 7413   1.784   6.588   3.401 -0.4394 -0.5124 -0.3321
 2483TIP3    H2 7414   1.644   6.645   3.389  0.2630  1.8107  1.6663
 2484TIP3   OH2 7415   5.395   3.428   2.064 -0.1663 -0.2502  0.2792
 2484TIP3    H1 7416   5.347   3.346   2.075  0.3174 -0.3211  2.0487
 2484TIP3    H2 7417   5.358   3.466   1.984 -2.2692 -0.9231  0.8672
 2485TIP3   OH2 7418   6.567   0.276   3.358 -0.1413 -0.3404  0.1890
 2485TIP3    H1 7419   6.512   0.243   3.286  0.4096 -0.7635 -0.0549
 2485TIP3    H2 7420   6.558   0.371   3.354  0.6050 -0.2912 -1.0641
 2486TIP3   OH2 7421   6.375   5.135   5.045 -0.2141  0.2133 -0.2998
 2486TIP3    H1 7422   6.447   5.186   5.009 -0.5471  0.1222 -1.1139
 2486TIP3    H2 7423   6.322   5.199   5.092 -0.3169  0.5174 -0.8262
 2487TIP3   OH2 7424   4.679   0.400   1.105 -0.1116  0.2751  0.1767
 2487TIP3    H1 7425   4.724   0.325   1.144  1.7316  0.1531 -2.0096
 2487TIP3    H2 7426   4.705   0.399   1.013 -2.8498  1.5647 -0.7365
 2488TIP3   OH2 7427   3.368   4.827   5.420  0.4141  0.2419  0.0047
 2488TIP3    H1 7428   3.394   4.740   5.390  0.2268 -0.5888  2.0962
 2488TIP3    H2 7429   3.438   4.854   5.480 -0.7618  0.3690  1.3862
 2489TIP3   OH2 7430   4.930   2.899   4.969  0.3499  0.1069  0.3614
 2489TIP3    H1 7431   5.020   2.927   4.989  0.4403  0.3046 -0.2987
 2489TIP3    H2 7432   4.930   2.886   4.874 -0.6346  1.2839  0.1749
 2490TIP3   OH2 7433   1.498   5.325   3.218  0.3225  0.1740  0.6501
 2490TIP3    H1 7434   1.502   5.388   3.290 -0.3496  0.0178  0.8311
 2490TIP3    H2 7435   1.436   5.258   3.248  0.4867 -0.2024  0.1677
 2491TIP3   OH2 7436   0.620   1.981   2.115  0.0654  0.3751 -0.1127
 2491TIP3    H1 7437   0.525   1.978   2.110 -0.2725 -0.3093  3.8253
 2491TIP3    H2 7438   0.649   1.947   2.030 -3.2288 -1.3947 -0.7036
 2492TIP3   OH2 7439   2.194   6.268   0.301 -0.0561  0.7758  0.3763
 2492TIP3    H1 7440   2.222   6.234   0.386  3.0398  1.1155 -0.3765
 2492TIP3    H2 7441   2.175   6.361   0.318  0.4720  0.8245  0.7188
 2493TIP3   OH2 7442   3.293   3.548   4.369  0.2629  0.1224 -0.4034
 2493TIP3    H1 7443   3.306   3.493   4.292 -0.3865  1.4629 -1.5166
 2493TIP3    H2 7444   3.327   3.634   4.343 -2.7871  1.4520 -0.3724
 2494TIP3   OH2 7445   5.120   4.316   0.718 -0.4083 -0.2245 -0.2058
 2494TIP3    H1 7446   5.094   4.228   0.744  1.5550 -0.2779  1.8759
 2494TIP3    H2 7447   5.114   4.368   0.798  1.5345  0.7329 -0.6145
 2495TIP3   OH2 7448   2.171   2.578   4.094  0.2422 -0.2349 -0.1856
 2495TIP3    H1 7449   2.110   2.562   4.022 -0.6569  0.8166  0.3043
 2495TIP3    H2 7450   2.222   2.653   4.066 -0.1045  0.1723  0.2590
 2496TIP3   OH2 7451   0.646   3.584   0.519  0.1264  0.6630  0.3911
 2496TIP3    H1 7452   0.551   3.584   0.528  0.0726 -0.6099  0.0628
 2496TIP3    H2 7453   0.663   3.637   0.442 -0.3517  0.5579  0.2111
 2497TIP3   OH2 7454   6.024   6.430   5.441 -0.4633 -0.2528  0.3157
 2497TIP3    H1 7455   6.002   6.447   5.532  1.4119 -1.1405  0.9860
 2497TIP3    H2 7456   5.983   6.501   5.392 -1.8957 -0.0324  1.7824
 2498TIP3   OH2 7457   2.283   1.524   2.662  0.0543  0.1703  0.5729
 2498TIP3    H1 7458   2.246   1.539   2.749  1.7325  1.4032  1.1237
 2498TIP3    H2 7459   2.296   1.429   2.657 -1.4589 -0.0876  1.0333
 2499TIP3   OH2 7460   3.250   6.426   1.915  0.3875  0.2497  0.6675
 2499TIP3    H1 7461   3.335   6.387   1.897  0.6359  0.9283  0.3309
 2499TIP3    H2 7462   3.187   6.355   1.900  0.6565  0.4565 -1.8864
 2500TIP3   OH2 7463   5.154   0.532   1.069 -0.0536 -0.4466 -0.2280
 2500TIP3    H1 7464   5.226   0.488   1.114  1.3135 -0.3083 -2.1598
 2500TIP3    H2 7465   5.196   0.599   1.015 -1.6289 -0.3142 -1.3732
 2501TIP3   OH2 7466   4.162   4.181   2.268 -0.4265 -0.1397 -0.4139
 2501TIP3    H1 7467   4.151   4.228   2.186 -1.8497  0.8607  0.3037
 2501TIP3    H2 7468   4.246   4.213   2.303 -0.2719  0.1276 -1.0198
 2502TIP3   OH2 7469   1.249   2.360   3.894 -0.4429 -0.1773 -0.1220
 2502TIP3    H1 7470   1.317   2.336   3.957 -0.3040  1.4830  0.3997
 2502TIP3    H2 7471   1.170   2.372   3.947 -0.8271 -0.7226 -0.5519
 2503TIP3   OH2 7472   1.194   4.563   4.895 -0.7466 -0.2740  0.1439
 2503TIP3    H1 7473   1.109   4.560   4.851  0.5047  0.5940 -2.5742
 2503TIP3    H2 7474   1.231   4.647   4.868  0.3969  0.0335  2.4870
 2504TIP3   OH2 7475   1.106   3.823   2.750  0.0033 -0.7096 -0.0481
 2504TIP3    H1 7476   1.183   3.767   2.742  0.5678 -0.3768  2.4260
 2504TIP3    H2 7477   1.036   3.764   2.777  0.1349 -0.5233  0.6990
 2505TIP3   OH2 7478   2.322   0.161   3.609 -0.2635 -0.4388  0.5594
 2505TIP3    H1 7479   2.324   0.066   3.615 -0.2220 -0.4044  1.0780
 2505TIP3    H2 7480   2.411   0.185   3.583 -0.7534 -0.6648 -1.5929
 2506TIP3   OH2 7481   1.563   3.191   3.252 -0.2397  0.0760 -0.0983
 2506TIP3    H1 7482   1.650   3.170   3.286  0.6278  1.9271 -1.0492
 2506TIP3    H2 7483   1.508   3.202   3.330  0.6654  0.0644  0.5473
 2507TIP3   OH2 7484   1.771   3.734   2.173 -0.1946  0.0331  0.2998
 2507TIP3    H1 7485   1.828   3.810   2.168 -1.7376  1.2614  0.5244
 2507TIP3    H2 7486   1.773   3.708   2.266  1.1772 -0.9075  0.0273
 2508TIP3   OH2 7487   3.482   6.308   2.812  0.1371 -0.4066  0.0191
 2508TIP3    H1 7488   3.413   6.362   2.851  0.6346  0.5874 -0.4459
 2508TIP3    H2 7489   3.436   6.236   2.769 -0.4779 -0.9844  1.5812
 2509TIP3   OH2 7490   1.505   5.963   1.974  0.0453 -0.3640  0.3543
 2509TIP3    H1 7491   1.520   5.898   1.904  0.2162 -1.6074  1.5112
 2509TIP3    H2 7492   1.535   6.046   1.936  1.5576 -1.2616 -0.5379
 2510TIP3   OH2 7493   6.120   3.493   2.665  0.0920 -0.3333 -0.4647
 2510TIP3    H1 7494   6.119   3.587   2.683  0.7422 -0.3329 -0.4186
 2510TIP3    H2 7495   6.092   3.453   2.747 -1.8538 -0.1191 -0.9808
 2511TIP3   OH2 7496   1.315   4.651   0.452 -0.0607 -0.0558 -0.4333
 2511TIP3    H1 7497   1.279   4.698   0.377  0.0933 -1.2459 -1.2852
 2511TIP3    H2 7498   1.394   4.700   0.476  0.2445 -0.0240 -1.4729
 2512TIP3   OH2 7499   1.553   6.386   1.401  0.2633 -1.0623 -0.1154
 2512TIP3    H1 7500   1.483   6.323   1.385  0.6140 -1.5843  0.3668
 2512TIP3    H2 7501   1.536   6.457   1.339 -1.3885 -0.6098  0.7780
 2513TIP3   OH2 7502   1.258   2.790   2.699  0.2056  0.0345 -0.1161
 2513TIP3    H1 7503   1.322   2.728   2.735  1.1005  0.2503 -1.2868
 2513TIP3    H2 7504   1.210   2.740   2.634  1.1026  0.5978 -1.2480
 2514TIP3   OH2 7505   5.818   3.267   0.590 -0.3669  0.6546  0.2834
 2514TIP3    H1 7506   5.900   3.250   0.543 -0.9592  1.1571 -0.9935
 2514TIP3    H2 7507   5.752   3.269   0.521 -1.3168  1.1588  1.1895
 2515TIP3   OH2 7508   4.201   3.383   1.710  0.8282  0.3344 -0.1276
 2515TIP3    H1 7509   4.194   3.442   1.635  0.7267  0.5612  0.0595
 2515TIP3    H2 7510   4.184   3.296   1.673  0.6241  0.4613 -0.3414
 2516TIP3   OH2 7511   1.426   5.917   3.203  0.0158  0.5945  0.4462
 2516TIP3    H1 7512   1.442   5.923   3.297  0.3041  0.0457  0.4384
 2516TIP3    H2 7513   1.459   6.000   3.168  0.9879  0.3320  0.6895
 2517TIP3   OH2 7514   1.820   1.411   3.586  0.4396 -0.0287  0.0007
 2517TIP3    H1 7515   1.852   1.360   3.511 -1.9142 -2.2293  0.3431
 2517TIP3    H2 7516   1.807   1.499   3.551  1.5762 -0.4370 -1.5583
 2518TIP3   OH2 7517   0.260   3.181   5.712  0.7611 -0.4394 -0.2265
 2518TIP3    H1 7518   0.228   3.168   5.801  1.8459 -0.7294  0.1371
 2518TIP3    H2 7519   0.298   3.096   5.687  1.9538  0.0921 -0.3278
 2519TIP3   OH2 7520   4.647   2.865   4.076  0.0901  0.4303  0.1427
 2519TIP3    H1 7521   4.677   2.823   3.996  2.1523  0.3391  0.9033
 2519TIP3    H2 7522   4.564   2.822   4.097  0.5055 -0.9157 -0.8791
 2520TIP3   OH2 7523   6.423   0.762   4.621  0.5699 -0.5661 -0.2334
 2520TIP3    H1 7524   6.490   0.829   4.633 -2.5279  2.5367  1.6360
 2520TIP3    H2 7525   6.415   0.721   4.707  0.2033 -1.0479 -0.4899
 2521TIP3   OH2 7526   3.400   0.371   0.933  0.4256  0.4257  0.3046
 2521TIP3    H1 7527   3.338   0.442   0.917 -0.4236 -0.5824 -1.1363
 2521TIP3    H2 7528   3.349   0.291   0.922  1.7770 -0.4337 -0.0514
 2522TIP3   OH2 7529   3.363   0.681   4.554 -0.3526 -0.1854  0.4199
 2522TIP3    H1 7530   3.358   0.728   4.471 -0.1236 -1.4970 -0.3648
 2522TIP3    H2 7531   3.446   0.711   4.593  1.3812 -2.0936 -1.4969
 2523TIP3   OH2 7532   3.865   4.934   2.653 -0.2139 -0.3592 -0.6195
 2523TIP3    H1 7533   3.830   4.901   2.571  0.9959  0.3912 -1.4661
 2523TIP3    H2 7534   3.939   4.876   2.673 -0.5344 -0.5716 -0.0205
 2524TIP3   OH2 7535   6.063   1.072   2.100 -0.0563  0.4374 -0.0746
 2524TIP3    H1 7536   6.116   1.120   2.036 -0.0915 -0.3793 -0.7347
 2524TIP3    H2 7537   6.108   0.988   2.110 -0.6193  0.1655  0.2130
 2525TIP3   OH2 7538   3.444   5.288   0.995 -0.3655 -0.1305 -0.0458
 2525TIP3    H1 7539   3.370   5.268   0.937 -1.3447  0.0630  1.1028
 2525TIP3    H2 7540   3.463   5.380   0.977  0.4695 -0.5094 -1.2674
 2526TIP3   OH2 7541   6.734   0.381   2.343 -0.3585 -0.6278  0.2438
 2526TIP3    H1 7542   6.791   0.336   2.405 -0.8696 -0.4627  0.8421
 2526TIP3    H2 7543   6.772   0.361   2.257 -0.6150 -2.2644  0.4806
 2527TIP3   OH2 7544   6.037   6.619   4.615  0.1462 -0.0618 -0.2678
 2527TIP3    H1 7545   6.027   6.688   4.549 -1.0601 -0.3195 -0.3775
 2527TIP3    H2 7546   5.951   6.578   4.620  1.6558 -4.3136 -3.1913
 2528TIP3   OH2 7547   4.701   5.594   2.031 -0.0644 -0.2567 -0.1028
 2528TIP3    H1 7548   4.745   5.509   2.035  0.5511  0.0806  0.4353
 2528TIP3    H2 7549   4.646   5.589   1.953  0.9728 -0.6655 -0.8244
 2529TIP3   OH2 7550   4.226   6.054   1.210 -0.1868 -0.3959 -0.4935
 2529TIP3    H1 7551   4.211   6.090   1.297  0.8102  2.0411 -1.2402
 2529TIP3    H2 7552   4.181   6.115   1.151  1.7798 -0.1865 -1.8611
 2530TIP3   OH2 7553   1.750   5.584   2.812  0.0981 -0.2491 -0.2544
 2530TIP3    H1 7554   1.845   5.595   2.816  0.2782 -1.8473  0.3559
 2530TIP3    H2 7555   1.722   5.572   2.903 -0.7363  0.4396 -0.3999
 2531TIP3   OH2 7556   3.664   5.227   2.316 -0.2968 -0.0881  0.3500
 2531TIP3    H1 7557   3.746   5.210   2.363  0.5565  0.0025 -1.0162
 2531TIP3    H2 7558   3.656   5.323   2.318  0.6848  0.0629 -1.1192
 2532TIP3   OH2 7559   3.723   1.819   1.219  0.1520 -0.0951 -0.1062
 2532TIP3    H1 7560   3.733   1.815   1.314  0.7703 -1.4849 -0.1983
 2532TIP3    H2 7561   3.783   1.888   1.191  0.2590  0.0484  0.4784
 2533TIP3   OH2 7562   1.421   0.169   4.066 -0.0538 -0.0751 -0.5206
 2533TIP3    H1 7563   1.379   0.249   4.098  1.8782  0.7676  0.0725
 2533TIP3    H2 7564   1.350   0.120   4.025 -1.3103  1.9267 -0.9025
 2534TIP3   OH2 7565   0.728   1.486   4.171 -0.3388 -0.8880 -0.0502
 2534TIP3    H1 7566   0.778   1.443   4.240  1.7762  0.7795 -0.4332
 2534TIP3    H2 7567   0.710   1.573   4.206  1.8013  0.4226 -1.9351
 2535TIP3   OH2 7568   2.399   5.509   1.483  0.3156 -0.0255 -1.0445
 2535TIP3    H1 7569   2.479   5.556   1.460  1.2697 -1.3019 -0.4716
 2535TIP3    H2 7570   2.386   5.529   1.576 -0.3732  0.6291 -1.2676
 2536TIP3   OH2 7571   1.974   3.717   3.346 -0.0673 -0.7793 -0.0919
 2536TIP3    H1 7572   2.041   3.769   3.390 -0.7165 -1.0087  1.2108
 2536TIP3    H2 7573   1.922   3.781   3.297 -1.9607  0.1808  2.8730
 2537TIP3   OH2 7574   6.128   0.888   1.109  0.2144  0.3581 -0.8155
 2537TIP3    H1 7575   6.185   0.845   1.172  0.2799  0.1958 -0.9851
 2537TIP3    H2 7576   6.187   0.925   1.043  0.1147 -0.0191 -1.1206
 2538TIP3   OH2 7577   2.300   4.753   3.774  0.3133 -0.3912 -0.4550
 2538TIP3    H1 7578   2.266   4.710   3.852 -0.4010  0.9062 -0.0215
 2538TIP3    H2 7579   2.362   4.690   3.736 -0.3567 -1.5870  0.3903
 2539TIP3   OH2 7580   5.463   2.714   4.762 -0.4436  0.3581  0.2920
 2539TIP3    H1 7581   5.435   2.805   4.767  0.5657  0.8240 -1.5800
 2539TIP3    H2 7582   5.538   2.708   4.821 -0.4991  0.7498  0.4021
 2540TIP3   OH2 7583   3.051   4.823   0.908 -1.0926  0.1068 -0.1441
 2540TIP3    H1 7584   3.021   4.852   0.994 -3.1296 -0.8153 -0.4814
 2540TIP3    H2 7585   2.988   4.861   0.846 -0.4007 -0.2683 -1.1068
 2541TIP3   OH2 7586   4.797   5.847   5.052  0.0051 -0.5879 -0.5207
 2541TIP3    H1 7587   4.769   5.757   5.035  2.0161 -1.1693 -0.9891
 2541TIP3    H2 7588   4.775   5.895   4.972 -4.1004  0.2348  0.8641
 2542TIP3   OH2 7589   4.623   4.513   4.047 -0.1880 -0.0362  0.3524
 2542TIP3    H1 7590   4.646   4.596   4.088 -1.1294  0.5290 -0.2324
 2542TIP3    H2 7591   4.528   4.505   4.060 -0.0983 -1.0664  0.4874
 2543TIP3   OH2 7592   6.760   5.946   2.472 -0.1587  1.0081 -0.4857
 2543TIP3    H1 7593   6.691   5.928   2.409 -0.3735  0.4607 -0.1009
 2543TIP3    H2 7594   6.795   6.032   2.447  1.0242  0.0058 -2.4932
 2544TIP3   OH2 7595   7.207   6.631   1.759  0.3400  0.1843 -0.1739
 2544TIP3    H1 7596   7.189   6.538   1.762  0.0500  0.2386 -0.2975
 2544TIP3    H2 7597   7.201   6.659   1.851 -0.7936  0.3193 -0.2821
 2545TIP3   OH2 7598   1.031   2.768   0.672 -0.2996  0.1366  0.0226
 2545TIP3    H1 7599   0.964   2.763   0.740  0.0540  2.3725  0.6024
 2545TIP3    H2 7600   0.983   2.760   0.590 -0.9563 -0.6624  0.4646
 2546TIP3   OH2 7601   7.036   3.515   3.226  0.3894  0.6599 -0.0934
 2546TIP3    H1 7602   7.042   3.567   3.146 -0.1700  0.1579 -0.4708
 2546TIP3    H2 7603   7.049   3.425   3.198 -0.5239  0.4065  0.2602
 2547TIP3   OH2 7604   6.301   6.521   3.379 -0.0046 -0.3515 -0.6696
 2547TIP3    H1 7605   6.367   6.470   3.427 -1.7178 -0.2162  2.0483
 2547TIP3    H2 7606   6.241   6.454   3.345 -0.2920 -0.3603 -0.1717
 2548TIP3   OH2 7607   5.646   2.878   1.405  0.1611  0.8752  0.0232
 2548TIP3    H1 7608   5.668   2.841   1.320 -0.2170 -0.7510  0.5992
 2548TIP3    H2 7609   5.556   2.850   1.421  0.0110  1.6997  0.6829
 2549TIP3   OH2 7610   2.989   5.773   5.345 -0.0557 -0.2592 -0.0194
 2549TIP3    H1 7611   3.010   5.866   5.360 -0.5426 -0.1369 -0.0852
 2549TIP3    H2 7612   3.066   5.738   5.301  0.4769 -0.0861  0.7563
 2550TIP3   OH2 7613   5.734   6.457   0.808  0.1860  0.4055 -0.2200
 2550TIP3    H1 7614   5.810   6.400   0.821  0.0172  0.0151 -0.8892
 2550TIP3    H2 7615   5.772   6.541   0.782  0.3901  0.0045 -1.3062
 2551TIP3   OH2 7616   2.692   3.400   4.965  0.0069 -0.5226  0.0617
 2551TIP3    H1 7617   2.703   3.444   4.881 -0.8724 -1.5650 -0.6221
 2551TIP3    H2 7618   2.751   3.447   5.024  2.5154 -1.2271 -1.6684
 2552TIP3   OH2 7619   3.946   3.682   0.324 -0.4611  0.6526  0.2721
 2552TIP3    H1 7620   3.931   3.633   0.405 -3.6066  1.6837  0.4430
 2552TIP3    H2 7621   3.941   3.617   0.255  0.3447  0.0460  0.7720
 2553TIP3   OH2 7622   3.756   6.325   2.827 -0.0596  0.3422 -0.3402
 2553TIP3    H1 7623   3.661   6.326   2.813 -0.3551  4.4581  0.6809
 2553TIP3    H2 7624   3.793   6.329   2.739 -0.8538 -0.1410 -0.7111
 2554TIP3   OH2 7625   2.617   0.172   4.758  0.1058 -0.3366  0.4743
 2554TIP3    H1 7626   2.597   0.080   4.741 -0.1669  0.0592 -1.6336
 2554TIP3    H2 7627   2.710   0.172   4.781 -0.0900 -1.2070  1.3328
 2555TIP3   OH2 7628   6.210   2.486   3.191  0.1958 -0.5844 -0.5796
 2555TIP3    H1 7629   6.184   2.396   3.212  1.7239 -0.6762  1.2586
 2555TIP3    H2 7630   6.223   2.528   3.276  0.6852  1.0205 -1.3922
 2556TIP3   OH2 7631   2.425   3.213   4.822  0.0417 -0.8265 -0.3668
 2556TIP3    H1 7632   2.481   3.238   4.896  0.4382 -0.4158 -0.8028
 2556TIP3    H2 7633   2.360   3.154   4.861  0.4412 -0.8758  0.2503
 2557TIP3   OH2 7634   7.079   3.581   2.972  0.5621  0.3201 -0.1588
 2557TIP3    H1 7635   7.043   3.528   2.901  0.3800 -1.2651  1.0765
 2557TIP3    H2 7636   7.137   3.643   2.927 -0.1253 -0.1234 -1.7499
 2558TIP3   OH2 7637   2.543   6.090   3.507  0.2489 -0.2349  0.3455
 2558TIP3    H1 7638   2.585   6.024   3.452  1.5534  1.4665 -0.7815
 2558TIP3    H2 7639   2.610   6.113   3.572 -0.3489 -0.3219  1.0051
 2559TIP3   OH2 7640   5.568   0.158   2.588  0.2898  0.2093 -0.0544
 2559TIP3    H1 7641   5.614   0.222   2.642 -0.2702  0.7213 -0.1739
 2559TIP3    H2 7642   5.636   0.098   2.559  0.5986 -0.1233  1.2714
 2560TIP3   OH2 7643   3.456   3.180   0.270 -0.0989  0.0421 -0.0573
 2560TIP3    H1 7644   3.402   3.211   0.343 -0.4390 -1.1355  0.2211
 2560TIP3    H2 7645   3.454   3.084   0.278  1.0347 -0.0591 -0.7769
 2561TIP3   OH2 7646   6.644   1.748   0.487 -0.0912 -0.1497 -0.3901
 2561TIP3    H1 7647   6.660   1.714   0.576  0.3847 -0.6182 -0.6497
 2561TIP3    H2 7648   6.611   1.837   0.501  1.1016  0.2219  0.2251
 2562TIP3   OH2 7649   0.557   0.029   1.690 -0.7949 -0.1391 -0.2607
 2562TIP3    H1 7650   0.635  -0.020   1.665 -0.7057  0.4122 -1.1131
 2562TIP3    H2 7651   0.526   0.068   1.608 -0.5254  1.7153  0.4766
 2563TIP3   OH2 7652   5.783   6.078   1.001 -0.4993  0.0701 -0.6582
 2563TIP3    H1 7653   5.799   6.023   1.077 -2.6602  0.5890  0.2423
 2563TIP3    H2 7654   5.757   6.018   0.932 -1.6949 -0.1536 -0.0257
 2564TIP3   OH2 7655   3.180   4.715   5.704 -0.6372  0.8506  0.1588
 2564TIP3    H1 7656   3.245   4.674   5.648 -2.1182  0.3323 -1.2675
 2564TIP3    H2 7657   3.140   4.643   5.753 -0.7836  1.0331  0.3123
 2565TIP3   OH2 7658   4.339   3.734   3.301  0.3631  0.2456  0.2802
 2565TIP3    H1 7659   4.376   3.790   3.370  0.0992  1.6134 -0.6639
 2565TIP3    H2 7660   4.267   3.785   3.264 -0.7390 -1.2583  0.2403
 2566TIP3   OH2 7661   2.151   1.149   3.086  0.4654 -0.2041 -0.2469
 2566TIP3    H1 7662   2.188   1.218   3.142 -0.8382  0.2282  0.1357
 2566TIP3    H2 7663   2.127   1.195   3.005 -1.2196  0.0200  0.3417
 2567TIP3   OH2 7664   1.272   5.371   2.470 -0.1256  0.5178  0.3332
 2567TIP3    H1 7665   1.255   5.443   2.409  0.6341  1.0091  0.6895
 2567TIP3    H2 7666   1.312   5.413   2.546 -1.0149 -0.0931  1.1632
 2568TIP3   OH2 7667   6.827   1.212   1.037 -0.3422  0.2518  0.0457
 2568TIP3    H1 7668   6.908   1.217   0.985 -0.8569 -2.2737 -1.1358
 2568TIP3    H2 7669   6.857   1.183   1.124  0.2101  1.4543  0.2758
 2569TIP3   OH2 7670   7.194   0.752   4.093  0.1927 -0.4111 -0.8193
 2569TIP3    H1 7671   7.130   0.744   4.022  1.0700 -1.8510 -1.4837
 2569TIP3    H2 7672   7.146   0.730   4.172 -0.5289  0.1315 -1.1004
 2570TIP3   OH2 7673   0.365   3.978   3.857 -0.3334 -0.2667 -0.1640
 2570TIP3    H1 7674   0.337   3.923   3.783 -0.9052  0.4988 -0.5338
 2570TIP3    H2 7675   0.448   3.941   3.885  0.1619 -0.2420 -1.5513
 2571TIP3   OH2 7676   5.435   2.803   5.368 -0.2181 -0.3329  0.4437
 2571TIP3    H1 7677   5.453   2.822   5.461  1.3427 -0.7765  0.2626
 2571TIP3    H2 7678   5.340   2.795   5.363 -0.4156  0.7788  1.7965
 2572TIP3   OH2 7679   3.445   2.369   4.506  0.2068 -0.5013 -0.2745
 2572TIP3    H1 7680   3.375   2.404   4.561 -1.5084  0.2111 -2.7043
 2572TIP3    H2 7681   3.514   2.344   4.567 -0.6022  2.2771  2.0032
 2573TIP3   OH2 7682   4.824   0.888   4.281  0.7036  0.1183 -0.0198
 2573TIP3    H1 7683   4.802   0.831   4.208 -1.0193  0.8396 -0.1022
 2573TIP3    H2 7684   4.849   0.971   4.240 -0.8740  0.7243  0.1905
 2574TIP3   OH2 7685   4.778   2.052   5.362  0.3508  0.2077  0.1801
 2574TIP3    H1 7686   4.689   2.056   5.398  0.3894 -0.8291  0.4322
 2574TIP3    H2 7687   4.824   1.991   5.420  1.5554  1.5514  0.7231
 2575TIP3   OH2 7688   4.497   0.703   0.553 -0.5788 -0.2163 -0.1653
 2575TIP3    H1 7689   4.512   0.797   0.542 -0.6107 -0.0878  0.7741
 2575TIP3    H2 7690   4.544   0.681   0.633 -1.1882 -0.8505  0.0244
 2576TIP3   OH2 7691   3.690   1.432   5.656 -0.0542 -0.1860 -1.2251
 2576TIP3    H1 7692   3.620   1.380   5.695 -0.4218  0.4967 -0.9536
 2576TIP3    H2 7693   3.756   1.438   5.725 -1.0486  1.6930 -0.3558
 2577TIP3   OH2 7694   6.004   5.237   2.563 -0.0630 -0.4659 -0.7505
 2577TIP3    H1 7695   5.972   5.281   2.484  2.0370  1.6823 -0.5281
 2577TIP3    H2 7696   6.034   5.152   2.533 -3.4163 -1.5660 -1.3768
 2578TIP3   OH2 7697   0.235   3.371   3.410 -0.1108  0.2696 -0.0763
 2578TIP3    H1 7698   0.211   3.280   3.427 -0.4186  0.6761  1.8693
 2578TIP3    H2 7699   0.308   3.365   3.348 -1.8943 -1.1657 -2.2125
 2579TIP3   OH2 7700   5.747   3.018   5.747 -0.3906  0.2535 -0.2173
 2579TIP3    H1 7701   5.737   2.954   5.818  5.2961 -0.9386 -0.0071
 2579TIP3    H2 7702   5.703   3.097   5.780  0.0800 -0.9045  3.6676
 2580TIP3   OH2 7703   4.387   2.192   3.243  0.1832  0.2115  0.1134
 2580TIP3    H1 7704   4.479   2.166   3.245  0.0252 -0.3755 -0.2338
 2580TIP3    H2 7705   4.389   2.287   3.230  0.7655  0.3975  1.4197
 2581TIP3   OH2 7706   5.279   0.543   2.778  0.5491  0.0916 -0.5554
 2581TIP3    H1 7707   5.333   0.602   2.829  0.1551 -0.7466  0.8895
 2581TIP3    H2 7708   5.202   0.594   2.754  0.8757  0.5769 -0.5773
 2582TIP3   OH2 7709   2.780   2.766   4.214  0.0254 -0.2683  0.4538
 2582TIP3    H1 7710   2.826   2.840   4.255 -0.8307  0.2017  0.5719
 2582TIP3    H2 7711   2.851   2.705   4.190  0.6391 -0.0095  1.5351
 2583TIP3   OH2 7712   1.982   4.602   4.924  0.1106  0.6216 -0.4356
 2583TIP3    H1 7713   1.920   4.620   4.995  0.0615  1.3532 -0.6521
 2583TIP3    H2 7714   2.043   4.539   4.962 -0.0371  0.8427  0.1980
 2584TIP3   OH2 7715   4.349   3.007   3.909  0.3039  0.2781 -0.4320
 2584TIP3    H1 7716   4.415   3.023   3.841  0.3966  1.3124 -0.1188
 2584TIP3    H2 7717   4.282   3.074   3.894  0.4268  0.6556  0.6033
 2585TIP3   OH2 7718   6.802   4.280   3.266 -0.2802  0.0784  0.2133
 2585TIP3    H1 7719   6.851   4.351   3.307  1.5348 -1.1725  0.3515
 2585TIP3    H2 7720   6.752   4.322   3.196  1.6716  1.3452 -0.5031
 2586TIP3   OH2 7721   1.901   6.180   1.355  0.5179  0.0854  0.0339
 2586TIP3    H1 7722   1.885   6.117   1.285  0.7441 -0.9994  0.9379
 2586TIP3    H2 7723   1.990   6.162   1.383  0.2172  0.0896  1.0162
 2587TIP3   OH2 7724   2.632   6.510   0.722 -0.3830 -0.0822 -0.4342
 2587TIP3    H1 7725   2.692   6.507   0.797 -0.3928 -3.0067 -0.4203
 2587TIP3    H2 7726   2.689   6.517   0.646 -0.1984  0.0344 -0.2870
 2588TIP3   OH2 7727   6.634   3.575   2.824 -0.7157  0.0987 -0.4114
 2588TIP3    H1 7728   6.567   3.643   2.817 -1.1054 -0.2315  0.0439
 2588TIP3    H2 7729   6.699   3.599   2.758 -0.9285  0.8217 -0.3707
 2589TIP3   OH2 7730   0.854   1.795   0.922  0.0616  0.0035  0.3194
 2589TIP3    H1 7731   0.880   1.770   1.010  0.5826  1.5258  0.6218
 2589TIP3    H2 7732   0.882   1.722   0.867 -1.0450 -1.3667  1.4944
 2590TIP3   OH2 7733   6.975   0.496   3.414 -0.3183 -0.0695 -0.1320
 2590TIP3    H1 7734   7.009   0.422   3.364 -1.2295 -0.9188  0.4868
 2590TIP3    H2 7735   6.887   0.510   3.380  0.2544  1.5433 -1.0990
 2591TIP3   OH2 7736   3.715   1.657   5.083 -0.6358 -0.4918  0.4372
 2591TIP3    H1 7737   3.664   1.576   5.085 -1.6818  0.0490 -1.6667
 2591TIP3    H2 7738   3.649   1.726   5.085  0.0005  0.2362 -1.4563
 2592TIP3   OH2 7739   4.900   5.226   5.195 -0.7606 -0.5039  0.1739
 2592TIP3    H1 7740   4.880   5.201   5.285 -0.7120 -0.6682  0.1384
 2592TIP3    H2 7741   4.916   5.144   5.150  0.4927 -0.3605  0.3088
 2593TIP3   OH2 7742   4.433   0.447   5.817  0.4455  0.2336  0.6237
 2593TIP3    H1 7743   4.492   0.383   5.857 -0.7575 -0.4420  1.3749
 2593TIP3    H2 7744   4.457   0.530   5.857  1.5808  0.1617  0.1301
 2594TIP3   OH2 7745   4.514   2.034   5.409  0.2704  0.2209 -0.3931
 2594TIP3    H1 7746   4.451   2.029   5.337 -1.1048 -1.8424  0.8426
 2594TIP3    H2 7747   4.482   2.104   5.465 -0.0241  0.2360 -0.5805
 2595TIP3   OH2 7748   7.137   2.020   3.273 -0.0966 -0.0634 -0.2594
 2595TIP3    H1 7749   7.202   2.037   3.341  0.2082  0.3677 -0.6454
 2595TIP3    H2 7750   7.053   2.016   3.319  0.0409  0.7520  0.0700
 2596TIP3   OH2 7751   5.626   2.324   0.582 -0.0375  0.1341 -0.3438
 2596TIP3    H1 7752   5.670   2.408   0.595  0.5354 -0.1352 -0.5300
 2596TIP3    H2 7753   5.552   2.344   0.525 -0.1931  0.5983  0.0146
 2597TIP3   OH2 7754   5.206   0.180   3.743  0.4220  0.0977 -0.0807
 2597TIP3    H1 7755   5.221   0.252   3.804  1.4886 -1.5145  1.6852
 2597TIP3    H2 7756   5.131   0.207   3.691  0.0744  1.9635  1.2987
 2598TIP3   OH2 7757   5.208   5.212   5.825 -0.4045  0.0603  0.5920
 2598TIP3    H1 7758   5.295   5.202   5.788 -1.1767 -0.2814 -1.2367
 2598TIP3    H2 7759   5.205   5.146   5.895  0.3781 -0.8208 -0.1667
 2599TIP3   OH2 7760   1.807   4.787   2.931  0.2672 -0.0405  0.0658
 2599TIP3    H1 7761   1.863   4.855   2.970 -1.0654  1.2703 -0.2226
 2599TIP3    H2 7762   1.789   4.726   3.003 -1.2917  1.7663  1.3121
 2600TIP3   OH2 7763   6.162   5.254   2.933 -0.2501  0.6206  0.4558
 2600TIP3    H1 7764   6.179   5.306   2.855 -0.2648  1.5717  1.0690
 2600TIP3    H2 7765   6.130   5.317   2.997 -1.7696 -0.3942  0.7431
 2601TIP3   OH2 7766   3.314   4.641   1.377  0.2828  0.1204 -0.2386
 2601TIP3    H1 7767   3.251   4.585   1.332 -0.4702  1.6952 -1.2521
 2601TIP3    H2 7768   3.369   4.676   1.308  1.0459  0.2819  0.4285
 2602TIP3   OH2 7769   1.897   5.898   5.036 -0.3731 -0.0907 -0.2707
 2602TIP3    H1 7770   1.957   5.871   4.967  2.6530  0.6946  1.8432
 2602TIP3    H2 7771   1.866   5.815   5.074  0.0033 -0.5255 -0.8917
 2603TIP3   OH2 7772   0.243   4.236   1.162  0.0978  0.2175 -0.1861
 2603TIP3    H1 7773   0.279   4.232   1.073 -0.9580 -0.3123 -0.6065
 2603TIP3    H2 7774   0.195   4.319   1.165 -2.9412 -1.3144 -1.3939
 2604TIP3   OH2 7775   6.986   5.034   0.637 -0.5315 -0.0100  0.4774
 2604TIP3    H1 7776   7.082   5.036   0.628 -0.5694 -1.3588 -0.5397
 2604TIP3    H2 7777   6.961   5.125   0.645  0.8160  0.3990  0.3109
 2605TIP3   OH2 7778   3.964   6.064   2.575 -0.5282 -0.4271 -0.3517
 2605TIP3    H1 7779   3.929   6.147   2.544 -1.8332 -0.9035 -0.1879
 2605TIP3    H2 7780   3.960   6.069   2.670  2.2433  0.4999 -0.1848
 2606TIP3   OH2 7781   3.172   5.293   5.013  0.1326  0.3518 -0.2755
 2606TIP3    H1 7782   3.167   5.386   5.036 -1.1281  0.1904  0.2028
 2606TIP3    H2 7783   3.089   5.275   4.969  0.3184 -0.5677 -0.2709
 2607TIP3   OH2 7784   7.091   3.215   1.615  0.6872  0.0658  0.0391
 2607TIP3    H1 7785   7.015   3.211   1.673  0.7189 -0.9956  0.0237
 2607TIP3    H2 7786   7.063   3.169   1.536  1.3604 -0.3777  0.0543
 2608TIP3   OH2 7787   5.423   3.919   0.094 -0.6486  0.2890  0.0699
 2608TIP3    H1 7788   5.391   3.920   0.004  0.2162  1.1944 -0.2405
 2608TIP3    H2 7789   5.347   3.941   0.147 -1.6859 -2.2249 -0.2337
 2609TIP3   OH2 7790   3.889   2.870   5.277  0.9557 -0.0990  0.1434
 2609TIP3    H1 7791   3.840   2.809   5.220 -0.0218  0.3477  0.4857
 2609TIP3    H2 7792   3.978   2.836   5.276  0.8319 -0.4397 -1.1935
 2610TIP3   OH2 7793   7.226   5.991   0.811 -0.6109  0.1026  0.1526
 2610TIP3    H1 7794   7.151   5.932   0.817 -0.4795 -0.0836 -0.0120
 2610TIP3    H2 7795   7.284   5.949   0.747 -0.7476  0.6701 -0.3517
 2611TIP3   OH2 7796   7.010   4.998   2.265  0.1322 -0.1494 -0.4781
 2611TIP3    H1 7797   7.089   4.967   2.219 -0.4500 -1.5563 -0.5791
 2611TIP3    H2 7798   6.959   5.043   2.198  0.5163  0.1377 -0.5798
 2612TIP3   OH2 7799   2.878   4.524   3.199 -0.1123  0.3813  0.1124
 2612TIP3    H1 7800   2.954   4.561   3.155  0.9446 -0.1638  1.4361
 2612TIP3    H2 7801   2.857   4.588   3.267 -1.5152  1.0436 -0.8899
 2613TIP3   OH2 7802   4.041   6.427   3.298 -0.1352 -0.7005  0.0856
 2613TIP3    H1 7803   4.096   6.496   3.335 -0.4248 -0.6378  0.4031
 2613TIP3    H2 7804   4.050   6.438   3.203 -0.2409 -0.1762  0.1307
 2614TIP3   OH2 7805   2.506   1.265   4.696  0.5777 -0.0895  0.2845
 2614TIP3    H1 7806   2.567   1.259   4.769  1.3908 -3.0159 -0.5255
 2614TIP3    H2 7807   2.456   1.184   4.699 -1.2518  0.9293 -0.8526
 2615TIP3   OH2 7808   0.090   5.705   2.533 -0.1096  0.3732 -0.0412
 2615TIP3    H1 7809   0.043   5.788   2.545 -0.8723  0.1652 -1.4262
 2615TIP3    H2 7810   0.175   5.732   2.496 -0.5337  0.5287 -0.9342
 2616TIP3   OH2 7811   3.440   5.754   0.580 -0.1766  0.2464  0.2884
 2616TIP3    H1 7812   3.444   5.659   0.578 -0.1654  0.2589 -1.1879
 2616TIP3    H2 7813   3.351   5.773   0.609 -0.6232 -0.2377 -0.7175
 2617TIP3   OH2 7814   3.285   5.604   3.951  0.3085 -0.0371  0.0101
 2617TIP3    H1 7815   3.203   5.625   3.908  1.1675  0.1715 -1.5988
 2617TIP3    H2 7816   3.302   5.679   4.009  0.9792  1.5626 -2.1326
 2618TIP3   OH2 7817   5.747   4.763   5.197  0.0923 -0.1806  0.8661
 2618TIP3    H1 7818   5.727   4.827   5.129 -0.3025  0.6703  1.7461
 2618TIP3    H2 7819   5.839   4.740   5.184 -0.2559 -0.8237 -0.5745
 2619TIP3   OH2 7820   2.681   0.604   1.644 -0.2380 -0.4860  0.2434
 2619TIP3    H1 7821   2.614   0.664   1.677 -0.0834 -0.7553  1.0949
 2619TIP3    H2 7822   2.759   0.624   1.696  0.4785  0.1136 -1.0291
 2620TIP3   OH2 7823   6.567   6.480   2.079  0.3512 -0.6113  0.2598
 2620TIP3    H1 7824   6.658   6.506   2.090  0.0558  1.7014 -1.8332
 2620TIP3    H2 7825   6.522   6.514   2.157  0.7599  1.3367 -0.3074
 2621TIP3   OH2 7826   3.948   0.045   4.170  0.2446  0.1226 -1.0194
 2621TIP3    H1 7827   3.878   0.049   4.235 -0.9411 -1.5524 -2.1053
 2621TIP3    H2 7828   3.905   0.012   4.091  2.2318 -0.7928 -1.7763
 2622TIP3   OH2 7829   5.210   3.891   1.219 -0.5626 -0.0968  0.0928
 2622TIP3    H1 7830   5.278   3.932   1.272  0.6648 -1.2324 -0.5440
 2622TIP3    H2 7831   5.141   3.957   1.213  1.5360  2.1347 -1.3448
 2623TIP3   OH2 7832   5.353   4.800   4.065  0.4288  0.0112 -0.5967
 2623TIP3    H1 7833   5.391   4.743   4.132  0.1990  1.1718  0.5705
 2623TIP3    H2 7834   5.409   4.877   4.064 -1.1810  1.2643  0.3635
 2624TIP3   OH2 7835   4.758   4.497   3.599 -0.2721 -0.0749  0.3845
 2624TIP3    H1 7836   4.829   4.561   3.601  1.4773 -1.9557  0.9261
 2624TIP3    H2 7837   4.682   4.547   3.568  1.6943  1.6148 -2.1270
 2625TIP3   OH2 7838   5.338   2.855   0.917  0.0254 -0.1413 -0.1144
 2625TIP3    H1 7839   5.373   2.922   0.975 -1.5177  0.6570 -0.0645
 2625TIP3    H2 7840   5.295   2.904   0.847 -3.2808 -0.9582  1.1985
 2626TIP3   OH2 7841   3.359   0.796   4.296 -0.3203 -0.5440 -0.0621
 2626TIP3    H1 7842   3.311   0.866   4.251 -0.7054  0.9726  2.4907
 2626TIP3    H2 7843   3.437   0.839   4.330  1.0638 -2.1482 -1.0690
 2627TIP3   OH2 7844   2.567   5.335   2.205  0.1451 -0.1369  0.2256
 2627TIP3    H1 7845   2.654   5.341   2.243  0.3950 -0.2314 -0.3172
 2627TIP3    H2 7846   2.578   5.281   2.127 -0.5187 -0.6726  0.4889
 2628TIP3   OH2 7847   1.487   3.937   4.137 -0.1008 -0.0511  0.5251
 2628TIP3    H1 7848   1.524   3.881   4.205  0.2777 -2.1064 -1.2511
 2628TIP3    H2 7849   1.561   3.987   4.103  0.4429 -1.5268 -0.5929
 2629TIP3   OH2 7850   3.902   3.525   2.931 -1.2450  0.0220 -0.2106
 2629TIP3    H1 7851   3.990   3.501   2.903 -1.3200 -0.0023 -0.4290
 2629TIP3    H2 7852   3.846   3.456   2.894 -1.2660 -0.4054  0.5900
 2630TIP3   OH2 7853   1.199   1.043   5.708  0.4415 -0.0591 -0.5244
 2630TIP3    H1 7854   1.191   1.133   5.740  0.5903  0.0791 -0.8686
 2630TIP3    H2 7855   1.280   1.010   5.747 -0.1733 -0.4253  0.4969
 2631TIP3   OH2 7856   2.278   0.346   0.459  0.1601  0.3461  0.5943
 2631TIP3    H1 7857   2.349   0.364   0.521  0.5763  1.6433 -0.2093
 2631TIP3    H2 7858   2.261   0.431   0.417  0.0806 -0.5301 -1.2610
 2632TIP3   OH2 7859   5.456   0.556   0.649 -0.1093  0.5877 -0.4856
 2632TIP3    H1 7860   5.368   0.585   0.672 -0.9862 -2.3195  0.3459
 2632TIP3    H2 7861   5.451   0.536   0.556 -1.3488 -2.3410  0.0941
 2633TIP3   OH2 7862   5.581   6.599   3.849  0.1039  0.6622 -0.5281
 2633TIP3    H1 7863   5.513   6.622   3.913 -0.5715 -1.1016 -0.5593
 2633TIP3    H2 7864   5.652   6.563   3.901  0.4275  1.1543 -0.6204
 2634TIP3   OH2 7865   4.263   1.798   2.433  0.1364  0.0779  0.5756
 2634TIP3    H1 7866   4.171   1.821   2.447  0.2510 -0.6258  2.9339
 2634TIP3    H2 7867   4.260   1.726   2.371 -1.0358 -0.7188  1.5067
 2635TIP3   OH2 7868   2.451   3.798   0.398  0.0681  0.3405 -0.1836
 2635TIP3    H1 7869   2.511   3.810   0.325  1.0619  1.5809  0.7976
 2635TIP3    H2 7870   2.489   3.727   0.450  0.9049  1.3319  0.6044
 2636TIP3   OH2 7871   5.640   4.590   1.413  1.2083 -0.3255 -0.2083
 2636TIP3    H1 7872   5.585   4.518   1.385  0.2414  0.6038 -0.7876
 2636TIP3    H2 7873   5.614   4.606   1.504  0.6643 -0.0223 -0.4160
 2637TIP3   OH2 7874   3.028   3.497   2.378 -0.7418 -0.2173 -0.1433
 2637TIP3    H1 7875   2.977   3.434   2.328 -0.3949 -0.5981 -0.0170
 2637TIP3    H2 7876   3.069   3.446   2.448 -1.6704  0.3883  0.8833
 2638TIP3   OH2 7877   4.610   5.685   4.574 -0.0648  0.2728  0.0927
 2638TIP3    H1 7878   4.656   5.636   4.506  0.2382 -0.5131  0.8570
 2638TIP3    H2 7879   4.545   5.623   4.608  0.0485  0.5276  0.7880
 2639TIP3   OH2 7880   2.555   3.010   3.399  0.0423  0.3079  0.1414
 2639TIP3    H1 7881   2.641   2.969   3.391  0.5088  1.1328  0.8176
 2639TIP3    H2 7882   2.565   3.095   3.357 -1.1937 -0.5884 -2.1703
 2640TIP3   OH2 7883   5.587   3.094   4.688  0.3699  0.2960 -0.0367
 2640TIP3    H1 7884   5.536   3.048   4.754 -1.1682 -0.0712 -1.4128
 2640TIP3    H2 7885   5.628   3.166   4.736 -2.9932  1.8185  0.8840
 2641TIP3   OH2 7886   1.958   4.180   1.089  0.6211  0.6495 -0.3419
 2641TIP3    H1 7887   1.979   4.158   0.998  0.8037 -3.6047  0.5463
 2641TIP3    H2 7888   1.864   4.163   1.097  0.3579  2.1542  0.0392
 2642TIP3   OH2 7889   4.127   4.009   0.841 -0.0991 -0.3438  0.4183
 2642TIP3    H1 7890   4.105   3.917   0.831  1.0442 -0.6415  0.4688
 2642TIP3    H2 7891   4.056   4.045   0.895 -1.6302 -0.7035 -1.2633
 2643TIP3   OH2 7892   5.468   6.281   2.841  0.3205 -0.4067  0.8419
 2643TIP3    H1 7893   5.402   6.220   2.875  1.7170 -1.2239  2.2024
 2643TIP3    H2 7894   5.470   6.265   2.747 -1.4834 -0.2626  0.7369
 2644TIP3   OH2 7895   1.695   3.393   1.597 -0.7153 -0.8657 -0.3110
 2644TIP3    H1 7896   1.618   3.449   1.588  0.7007  0.9886 -1.7224
 2644TIP3    H2 7897   1.745   3.431   1.669 -0.2220 -0.8887 -0.6316
 2645TIP3   OH2 7898   6.752   1.186   3.049  0.0341 -0.6528  0.2886
 2645TIP3    H1 7899   6.679   1.137   3.088 -0.6442 -0.0070 -0.1383
 2645TIP3    H2 7900   6.721   1.209   2.961  1.0379 -0.9817 -0.1608
 2646TIP3   OH2 7901   0.591   1.964   0.905 -0.2717  0.3842 -0.6841
 2646TIP3    H1 7902   0.521   1.909   0.940 -1.6541  2.0374 -0.7005
 2646TIP3    H2 7903   0.636   1.908   0.841 -0.5306 -1.2287  0.4938
 2647TIP3   OH2 7904   1.269   0.118   5.864 -0.4138  0.5930  0.3745
 2647TIP3    H1 7905   1.323   0.045   5.835 -1.6584 -0.6160  0.9979
 2647TIP3    H2 7906   1.269   0.112   5.960 -0.9787  1.0481  0.4132
 2648TIP3   OH2 7907   4.600   5.605   1.576 -0.6571 -0.5167 -0.2700
 2648TIP3    H1 7908   4.592   5.514   1.546 -4.0091 -1.1597  2.0599
 2648TIP3    H2 7909   4.668   5.602   1.644 -1.2661 -1.4642  0.3192
 2649TIP3   OH2 7910   1.062   5.759   2.345  0.4607 -0.3988  0.6221
 2649TIP3    H1 7911   0.970   5.733   2.357  0.1589 -1.0013 -2.4023
 2649TIP3    H2 7912   1.058   5.854   2.330 -0.0018 -0.7419 -1.7748
 2650TIP3   OH2 7913   2.603   4.823   2.301  0.2220 -0.1649 -0.5619
 2650TIP3    H1 7914   2.643   4.736   2.297 -0.3425 -0.4495 -0.2324
 2650TIP3    H2 7915   2.670   4.883   2.269  1.5899 -0.3758  1.7293
 2651TIP3   OH2 7916   6.109   6.281   0.069 -0.0858  0.0005 -0.3562
 2651TIP3    H1 7917   6.060   6.353   0.107  2.7905  1.5782  0.7278
 2651TIP3    H2 7918   6.188   6.274   0.124  0.9814 -2.2361 -2.0022
 2652TIP3   OH2 7919   6.934   6.038   2.073  1.0578  0.4788  0.4184
 2652TIP3    H1 7920   6.919   5.961   2.019  0.0040 -0.1271  1.5128
 2652TIP3    H2 7921   7.005   6.013   2.131  1.5373  0.7788 -0.0357
 2653TIP3   OH2 7922   4.111   1.456   1.024  0.1534  0.2472 -0.1679
 2653TIP3    H1 7923   4.029   1.504   1.036  0.7415  1.4767 -0.8692
 2653TIP3    H2 7924   4.085   1.376   0.978 -0.6949  0.4329 -0.0368
 2654TIP3   OH2 7925   2.404   0.510   2.776 -0.1791  0.2976 -0.0367
 2654TIP3    H1 7926   2.358   0.464   2.706  0.5099 -0.8904  0.2704
 2654TIP3    H2 7927   2.490   0.468   2.781  1.2577  2.8494 -1.0230
 2655TIP3   OH2 7928   1.579   1.840   3.753  0.0311  0.1470  0.1272
 2655TIP3    H1 7929   1.521   1.916   3.755  0.6109  0.6121 -0.2600
 2655TIP3    H2 7930   1.526   1.770   3.715  0.1269  0.9355 -1.5585
 2656TIP3   OH2 7931   3.222   0.844   0.812 -0.1774  0.5274  0.1014
 2656TIP3    H1 7932   3.174   0.927   0.804  0.4524  0.9234  0.3149
 2656TIP3    H2 7933   3.313   0.869   0.798 -0.0739 -0.2863 -0.7519
 2657TIP3   OH2 7934   5.450   6.286   0.491  0.3704  0.2583 -0.3896
 2657TIP3    H1 7935   5.494   6.356   0.540  0.1116  1.1147 -1.3430
 2657TIP3    H2 7936   5.358   6.313   0.490 -0.0283 -0.9587  0.6435
 2658TIP3   OH2 7937   3.066   5.834   3.913  0.0032  0.2823 -0.0253
 2658TIP3    H1 7938   3.026   5.789   3.839  1.1136 -1.1596  0.2174
 2658TIP3    H2 7939   3.003   5.826   3.984  1.1702 -3.2711  0.8078
 2659TIP3   OH2 7940   5.657   2.094   1.928  0.3210  0.2787 -0.0015
 2659TIP3    H1 7941   5.726   2.134   1.981  1.3701 -0.5663 -0.6809
 2659TIP3    H2 7942   5.624   2.164   1.872  0.0139  0.8951  0.9284
 2660TIP3   OH2 7943   5.740   3.431   0.121  0.3044  0.0080 -0.2016
 2660TIP3    H1 7944   5.835   3.428   0.130  0.3362 -1.0481 -0.6940
 2660TIP3    H2 7945   5.725   3.453   0.029  0.0888 -0.3084 -0.2454
 2661TIP3   OH2 7946   0.445   0.271   0.121 -0.2153  0.4214 -0.2929
 2661TIP3    H1 7947   0.379   0.332   0.154 -0.8305 -0.4729  0.1509
 2661TIP3    H2 7948   0.526   0.297   0.165 -0.1633  1.7517 -1.1092
 2662TIP3   OH2 7949   1.447   2.495   3.484 -0.0989  0.3217  0.1103
 2662TIP3    H1 7950   1.413   2.475   3.397 -0.0092  1.1987 -0.1339
 2662TIP3    H2 7951   1.370   2.520   3.534 -0.0996  0.1906  0.1748
 2663TIP3   OH2 7952   2.232   0.514   4.818  0.1193  0.0340  0.1250
 2663TIP3    H1 7953   2.312   0.463   4.811 -0.1402 -0.2979 -0.4900
 2663TIP3    H2 7954   2.163   0.450   4.833 -0.3074  0.1223 -1.3643
 2664TIP3   OH2 7955   7.041   4.382   5.291  0.1454  0.3890  0.1959
 2664TIP3    H1 7956   6.985   4.458   5.297  1.4897  1.3603  1.0809
 2664TIP3    H2 7957   6.982   4.307   5.300 -1.2264  1.2937 -0.9550
 2665TIP3   OH2 7958   5.375   3.138   1.930 -0.2928  0.3013 -0.4239
 2665TIP3    H1 7959   5.380   3.156   1.837  0.8794 -1.4618 -0.7489
 2665TIP3    H2 7960   5.463   3.110   1.955 -0.4900  1.0520  1.2933
 2666TIP3   OH2 7961   5.249   3.580   3.931  0.1885  0.2246 -0.2530
 2666TIP3    H1 7962   5.235   3.657   3.986  0.6367 -0.1531  0.3964
 2666TIP3    H2 7963   5.212   3.605   3.846 -2.4215  0.0758  0.7565
 2667TIP3   OH2 7964   5.678   5.184   3.070  0.7045 -0.4648 -0.1825
 2667TIP3    H1 7965   5.658   5.263   3.019  0.5442 -0.3750  0.0186
 2667TIP3    H2 7966   5.735   5.215   3.141 -1.0826 -0.1354  1.1694
 2668TIP3   OH2 7967   1.014   0.740   2.935 -0.2399 -0.6190 -0.1883
 2668TIP3    H1 7968   1.005   0.832   2.962  1.9372 -0.3444 -0.2294
 2668TIP3    H2 7969   0.968   0.691   3.003 -0.4941  0.4360  0.4294
 2669TIP3   OH2 7970   3.975   4.454   2.278  0.2343 -0.2008  0.0982
 2669TIP3    H1 7971   3.880   4.462   2.287  0.4197 -0.0995  2.5921
 2669TIP3    H2 7972   4.002   4.401   2.353  2.1303 -0.5851 -0.7894
 2670TIP3   OH2 7973   0.363   2.203   4.555  0.4577 -0.1954 -0.1285
 2670TIP3    H1 7974   0.335   2.168   4.471 -1.0558 -0.0276  0.2814
 2670TIP3    H2 7975   0.305   2.276   4.572  0.4894 -0.4471  1.2273
 2671TIP3   OH2 7976   6.401   3.046   5.073  0.1609 -0.0611 -1.0539
 2671TIP3    H1 7977   6.415   2.957   5.107  1.3848 -0.1099 -1.6182
 2671TIP3    H2 7978   6.311   3.046   5.042 -1.3021  0.1739  2.7129
 2672TIP3   OH2 7979   2.786   3.797   4.098  0.0998 -0.2017  0.2483
 2672TIP3    H1 7980   2.878   3.803   4.073  0.1349 -1.0539  0.1728
 2672TIP3    H2 7981   2.754   3.718   4.055  0.0344 -1.4357  2.4144
 2673TIP3   OH2 7982   2.732   1.966   1.067  0.0432 -0.2490  0.3411
 2673TIP3    H1 7983   2.749   1.922   1.151 -1.7356  0.4881  1.1320
 2673TIP3    H2 7984   2.784   1.917   1.004 -0.3988 -2.3199  1.4775
 2674TIP3   OH2 7985   0.489   5.965   3.330 -0.3142  0.5598  0.3907
 2674TIP3    H1 7986   0.581   5.941   3.337 -0.3954 -0.1384 -0.6599
 2674TIP3    H2 7987   0.470   5.960   3.236 -1.9571 -1.4932  0.7320
 2675TIP3   OH2 7988   3.560   2.026   0.502 -0.2681 -0.5338  0.1712
 2675TIP3    H1 7989   3.624   1.961   0.474  0.5169  0.5114 -0.5423
 2675TIP3    H2 7990   3.585   2.046   0.593 -1.0216 -1.7919  0.6843
 2676TIP3   OH2 7991   6.692   3.616   5.906 -0.2477 -0.2472  0.3739
 2676TIP3    H1 7992   6.743   3.541   5.876  1.0670  0.8139 -0.1616
 2676TIP3    H2 7993   6.714   3.686   5.845  0.6599  1.3260  2.3970
 2677TIP3   OH2 7994   1.056   2.528   2.890 -0.3944 -0.2769 -0.5248
 2677TIP3    H1 7995   0.983   2.583   2.863 -1.9300 -1.9658  0.0188
 2677TIP3    H2 7996   1.048   2.522   2.985 -1.2756 -2.6932 -0.6853
 2678TIP3   OH2 7997   3.404   4.565   5.634 -0.0697  0.1083 -0.5348
 2678TIP3    H1 7998   3.373   4.491   5.686 -0.5828  0.8414  0.2031
 2678TIP3    H2 7999   3.463   4.613   5.692  1.6337 -0.6374 -1.5507
 2679TIP3   OH2 8000   2.747   5.281   1.049  0.2656  0.1824 -0.1469
 2679TIP3    H1 8001   2.783   5.218   0.987  0.6669  0.8765 -0.6342
 2679TIP3    H2 8002   2.689   5.336   0.997 -1.2443 -0.6879  0.5597
 2680TIP3   OH2 8003   5.610   5.289   4.434  0.1147 -0.0232  0.6268
 2680TIP3    H1 8004   5.623   5.195   4.445 -2.0206 -0.4844 -0.1979
 2680TIP3    H2 8005   5.581   5.298   4.343 -1.7646  1.1489  1.2952
 2681TIP3   OH2 8006   5.122   4.698   1.956  0.1096 -0.0698 -0.0705
 2681TIP3    H1 8007   5.088   4.787   1.947 -1.5629 -0.8674 -2.8419
 2681TIP3    H2 8008   5.183   4.688   1.883  3.9377  0.1230  2.7702
 2682TIP3   OH2 8009   5.299   1.745   3.039  0.1171 -0.2990  0.2234
 2682TIP3    H1 8010   5.310   1.784   3.126  0.8426 -0.5349  0.2481
 2682TIP3    H2 8011   5.245   1.668   3.054  0.2425 -0.3410  0.4698
 2683TIP3   OH2 8012   3.261   4.076   5.108 -0.0443  0.6307  0.3661
 2683TIP3    H1 8013   3.192   4.080   5.175  2.1069  0.5844  2.7347
 2683TIP3    H2 8014   3.249   3.991   5.066 -2.2280  1.1849 -0.2714
 2684TIP3   OH2 8015   6.412   1.517   4.945 -0.3032 -0.1215  0.0958
 2684TIP3    H1 8016   6.332   1.521   4.892  0.4991  0.6436 -1.1007
 2684TIP3    H2 8017   6.443   1.607   4.949  0.7818 -0.4859  0.1006
 2685TIP3   OH2 8018   6.098   2.232   1.387  0.3408 -0.4278 -0.0922
 2685TIP3    H1 8019   6.071   2.308   1.439 -0.7776 -1.2932  0.6185
 2685TIP3    H2 8020   6.021   2.176   1.383  2.0316 -3.2929  2.4939
 2686TIP3   OH2 8021   2.945   5.892   4.652 -0.1247  0.2071 -0.1723
 2686TIP3    H1 8022   2.922   5.820   4.711 -0.5489  0.5477  0.0777
 2686TIP3    H2 8023   3.023   5.931   4.691  1.0099 -1.0274 -1.0884
 2687TIP3   OH2 8024   0.579   1.732   3.797 -0.0595  0.3132  0.3578
 2687TIP3    H1 8025   0.574   1.653   3.851  0.1502  0.0526  0.0016
 2687TIP3    H2 8026   0.612   1.799   3.856  1.3060 -0.2478  0.2646
 2688TIP3   OH2 8027   1.623   5.280   4.370 -0.0130 -0.3489 -0.2576
 2688TIP3    H1 8028   1.676   5.267   4.291 -0.4118  0.6669 -0.7219
 2688TIP3    H2 8029   1.667   5.229   4.437  0.4571 -1.0712 -1.0863
 2689TIP3   OH2 8030   5.917   3.683   4.654 -0.2606 -0.5925 -0.2394
 2689TIP3    H1 8031   5.912   3.749   4.585  0.5876 -0.1908  0.0636
 2689TIP3    H2 8032   5.846   3.621   4.634 -0.1879 -0.3466 -1.3192
 2690TIP3   OH2 8033   2.318   0.101   3.120  0.1723 -0.2657 -0.1514
 2690TIP3    H1 8034   2.364   0.141   3.046  1.1474 -0.8962  0.0825
 2690TIP3    H2 8035   2.364   0.018   3.134 -2.5127 -2.0937 -1.3981
 2691TIP3   OH2 8036   5.497   2.657   0.823  0.3917 -0.7372 -0.5994
 2691TIP3    H1 8037   5.460   2.721   0.884  1.5816 -0.2678 -0.3586
 2691TIP3    H2 8038   5.539   2.710   0.756 -1.7544 -1.2180 -2.4402
 2692TIP3   OH2 8039   0.567   6.602   2.940 -0.4109  0.3412  0.0872
 2692TIP3    H1 8040   0.574   6.584   2.847  2.1932  1.8318 -0.1174
 2692TIP3    H2 8041   0.500   6.541   2.972  0.5516 -2.1626 -2.2504
 2693TIP3   OH2 8042   6.491   4.891   2.261 -0.2275  0.2085  0.1619
 2693TIP3    H1 8043   6.576   4.890   2.305  0.0600  1.1581 -0.3372
 2693TIP3    H2 8044   6.466   4.799   2.254  1.5115 -0.2166 -1.1112
 2694TIP3   OH2 8045   6.055   4.503   2.262  0.5050  0.0561 -0.2096
 2694TIP3    H1 8046   6.028   4.584   2.306 -1.3139  0.5222 -2.0387
 2694TIP3    H2 8047   6.134   4.476   2.309  0.6293  2.3569  1.0686
 2695TIP3   OH2 8048   5.965   6.793   3.056  0.3178 -0.0804 -0.7476
 2695TIP3    H1 8049   6.031   6.792   2.987 -0.1644 -2.5934 -1.2717
 2695TIP3    H2 8050   5.960   6.702   3.086 -0.9787  0.5555  1.1703
 2696TIP3   OH2 8051   3.609   5.563   2.585 -0.0544  0.3929 -0.2332
 2696TIP3    H1 8052   3.549   5.489   2.573 -0.1397  0.5912 -1.0882
 2696TIP3    H2 8053   3.601   5.614   2.504  1.1596  0.5053 -0.2988
 2697TIP3   OH2 8054   3.632   0.140   4.052  0.1909 -0.6527  0.1075
 2697TIP3    H1 8055   3.689   0.172   4.122  2.1867 -0.8970 -1.3188
 2697TIP3    H2 8056   3.617   0.216   3.996  1.2352 -1.1327 -0.8663
 2698TIP3   OH2 8057   0.903   0.794   1.170 -0.4150 -0.8135  0.4190
 2698TIP3    H1 8058   0.870   0.756   1.251  1.0160  0.0246  1.4445
 2698TIP3    H2 8059   0.893   0.724   1.105 -2.0064 -1.3492  1.1871
 2699TIP3   OH2 8060   0.981   5.502   5.814 -0.2353 -0.1638 -0.0533
 2699TIP3    H1 8061   0.932   5.432   5.858  0.0695 -0.5804 -0.3721
 2699TIP3    H2 8062   0.917   5.542   5.755 -0.4378 -0.1060  0.2007
 2700TIP3   OH2 8063   0.500   1.065   3.809 -0.1858 -0.9473  0.8810
 2700TIP3    H1 8064   0.420   1.054   3.757  0.1147  0.5770  0.0513
 2700TIP3    H2 8065   0.470   1.099   3.893 -0.3253  1.4198 -0.0606
 2701TIP3   OH2 8066   2.681   5.360   2.793  0.3246  0.3058 -0.2553
 2701TIP3    H1 8067   2.720   5.321   2.715  0.8122  0.6133 -0.1701
 2701TIP3    H2 8068   2.750   5.357   2.859 -0.5611 -1.3473  0.6500
 2702TIP3   OH2 8069   3.018   2.624   4.501 -0.5187  0.9653  0.1383
 2702TIP3    H1 8070   2.962   2.593   4.430 -1.7043  0.1946  1.3372
 2702TIP3    H2 8071   2.963   2.614   4.580  1.6255 -0.7344  1.5241
 2703TIP3   OH2 8072   6.556   0.857   3.739  0.5935  0.9923 -0.2229
 2703TIP3    H1 8073   6.560   0.765   3.766 -0.6047  1.1503  0.5598
 2703TIP3    H2 8074   6.628   0.867   3.677  0.6848 -0.4991 -0.3886
 2704TIP3   OH2 8075   0.787   1.221   0.194 -0.5187 -0.2195  0.5959
 2704TIP3    H1 8076   0.855   1.285   0.171  0.3741 -1.3794 -0.0673
 2704TIP3    H2 8077   0.833   1.155   0.246 -0.9718 -1.3495 -0.3918
 2705TIP3   OH2 8078   2.815   3.521   1.593  0.5415  0.5897  0.4056
 2705TIP3    H1 8079   2.909   3.507   1.588  0.4232 -1.0102  1.6732
 2705TIP3    H2 8080   2.802   3.608   1.557  2.2798  0.1723 -1.4169
 2706TIP3   OH2 8081   0.697   6.354   0.267  0.3245 -0.2626  0.0344
 2706TIP3    H1 8082   0.664   6.275   0.311  0.3304 -2.2413 -3.1755
 2706TIP3    H2 8083   0.783   6.369   0.307  0.4196 -2.0522  0.6109
 2707TIP3   OH2 8084   1.518   0.034   1.338  0.5115 -0.4127 -0.2695
 2707TIP3    H1 8085   1.475   0.090   1.403  1.2798  0.1962 -0.2608
 2707TIP3    H2 8086   1.495  -0.055   1.364  0.1323 -0.1429  0.3539
 2708TIP3   OH2 8087   2.513   3.610   4.565  0.0118  0.0591 -0.8636
 2708TIP3    H1 8088   2.418   3.607   4.563 -0.0998 -0.8258  1.6205
 2708TIP3    H2 8089   2.541   3.581   4.479 -1.9704 -1.0307 -1.1891
 2709TIP3   OH2 8090   1.525   4.731   3.258 -0.0899 -0.2583 -0.3572
 2709TIP3    H1 8091   1.468   4.692   3.192 -1.9234 -1.4118  1.7543
 2709TIP3    H2 8092   1.473   4.728   3.339  2.1359  0.8021  1.2124
 2710TIP3   OH2 8093   6.494   2.611   0.082  0.1219 -0.3982 -0.6045
 2710TIP3    H1 8094   6.512   2.669   0.008  0.3989 -0.1391 -0.3344
 2710TIP3    H2 8095   6.438   2.543   0.045 -0.5040  0.2347 -0.8446
 2711TIP3   OH2 8096   2.251   3.623   4.459  0.3565  0.0781  0.0722
 2711TIP3    H1 8097   2.259   3.693   4.394 -0.1247 -0.3272 -0.4334
 2711TIP3    H2 8098   2.157   3.609   4.468  0.4368 -0.2078  0.4895
 2712TIP3   OH2 8099   1.465   6.573   3.398  0.1739 -0.7579  0.7711
 2712TIP3    H1 8100   1.407   6.600   3.327 -0.2046  0.8588  1.6451
 2712TIP3    H2 8101   1.424   6.495   3.434  1.1855 -2.5715 -1.7108
 2713TIP3   OH2 8102   0.011   6.380   2.735  0.5376  0.2318 -0.1826
 2713TIP3    H1 8103   0.094   6.425   2.723  0.5380  0.3635  0.3006
 2713TIP3    H2 8104  -0.050   6.425   2.676  0.5320  0.8857  0.3118
 2714TIP3   OH2 8105   2.342   1.235   3.925  0.1631  0.3982  0.1307
 2714TIP3    H1 8106   2.353   1.242   3.831 -0.5880  1.0579  0.0813
 2714TIP3    H2 8107   2.424   1.196   3.956 -0.3131 -1.6724 -0.9853
 2715TIP3   OH2 8108   4.730   2.718   3.109 -0.2554  0.4096  0.6646
 2715TIP3    H1 8109   4.794   2.668   3.160  0.2842  0.6073  0.1928
 2715TIP3    H2 8110   4.661   2.739   3.171 -0.7991 -1.4423  0.7345
 2716TIP3   OH2 8111   3.860   2.517   5.670  0.0505  0.4432  0.4576
 2716TIP3    H1 8112   3.840   2.529   5.763  1.3434 -0.6786  0.9068
 2716TIP3    H2 8113   3.796   2.453   5.640 -0.3223  0.7548  0.5731
 2717TIP3   OH2 8114   2.099   3.459   2.781 -0.4367  0.1779 -0.2405
 2717TIP3    H1 8115   2.065   3.540   2.819 -0.4553 -0.3022  0.7974
 2717TIP3    H2 8116   2.119   3.481   2.690  0.6974  1.6622  0.3467
 2718TIP3   OH2 8117   2.441   1.304   1.371  0.1087 -0.1747  0.2278
 2718TIP3    H1 8118   2.400   1.265   1.294  1.3075  1.9154 -1.6052
 2718TIP3    H2 8119   2.497   1.235   1.407 -0.5044 -1.2079 -0.7439
 2719TIP3   OH2 8120   2.221   5.710   2.004 -0.6585  0.0026 -0.3474
 2719TIP3    H1 8121   2.163   5.646   1.964 -2.4133  0.0351  1.9244
 2719TIP3    H2 8122   2.294   5.658   2.038  0.7257 -0.0534 -3.1218
 2720TIP3   OH2 8123   2.237   1.119   3.661 -0.0362  0.0009 -0.2053
 2720TIP3    H1 8124   2.246   1.096   3.568  0.9634 -0.9325  0.1021
 2720TIP3    H2 8125   2.265   1.040   3.708  1.3648  1.1212  0.8962
 2721TIP3   OH2 8126   1.117   1.598   2.846  0.4585 -0.4098  0.1576
 2721TIP3    H1 8127   1.154   1.668   2.900  0.3706  0.4905 -0.8955
 2721TIP3    H2 8128   1.188   1.573   2.788  0.0557 -0.1288 -0.4757
 2722TIP3   OH2 8129   2.573   3.949   0.585 -0.0495 -0.5416  0.1859
 2722TIP3    H1 8130   2.513   3.889   0.541  0.6664 -0.7491 -0.5191
 2722TIP3    H2 8131   2.559   4.033   0.542 -0.4421 -0.3897  0.6015
 2723TIP3   OH2 8132   1.557   1.581   0.825  0.6479  0.5402 -0.3089
 2723TIP3    H1 8133   1.620   1.510   0.842  1.6631  1.4222 -0.2996
 2723TIP3    H2 8134   1.532   1.612   0.912 -1.5486 -1.2354 -0.2001
 2724TIP3   OH2 8135   4.687   2.200   0.735 -0.4617  0.0198  0.2693
 2724TIP3    H1 8136   4.725   2.251   0.806  0.4936  0.6864 -0.6998
 2724TIP3    H2 8137   4.734   2.117   0.736 -0.1163  0.2134  0.1136
 2725TIP3   OH2 8138   5.549   5.205   0.514 -0.4112  0.4684  0.0512
 2725TIP3    H1 8139   5.542   5.297   0.539 -1.0010  0.9393 -1.7221
 2725TIP3    H2 8140   5.460   5.172   0.515 -0.2206 -0.0585  0.5219
 2726TIP3   OH2 8141   4.906   1.233   1.520  0.0446  0.4459  0.5927
 2726TIP3    H1 8142   4.946   1.317   1.543  1.8554  0.4677 -2.1399
 2726TIP3    H2 8143   4.814   1.254   1.502  0.4545  1.8695  0.0110
 2727TIP3   OH2 8144   1.436   5.644   1.317  0.3226  0.1027  0.3891
 2727TIP3    H1 8145   1.388   5.673   1.239 -2.9824 -1.9368  1.4949
 2727TIP3    H2 8146   1.499   5.580   1.284 -0.8226 -0.5197 -0.6535
 2728TIP3   OH2 8147   7.096   3.497   3.811  0.1258  0.2711  0.8162
 2728TIP3    H1 8148   7.106   3.433   3.882  0.4403  0.2213  0.7249
 2728TIP3    H2 8149   7.040   3.453   3.747 -0.1694  0.3202  1.0355
 2729TIP3   OH2 8150   2.262   5.086   2.926 -0.7459 -0.2412 -0.4828
 2729TIP3    H1 8151   2.280   5.170   2.884 -0.1020 -1.0216 -1.8111
 2729TIP3    H2 8152   2.187   5.104   2.983 -0.6156  1.2287 -0.7277
 2730TIP3   OH2 8153   3.394   5.393   4.474  0.0696  0.4243  0.8992
 2730TIP3    H1 8154   3.308   5.356   4.495 -0.9680  1.7298 -0.8077
 2730TIP3    H2 8155   3.411   5.455   4.546 -0.1127 -0.2661  1.5559
 2731TIP3   OH2 8156   2.007   2.545   5.034 -0.0495 -0.5315 -0.2260
 2731TIP3    H1 8157   2.036   2.636   5.041  0.5063 -0.5689 -1.6808
 2731TIP3    H2 8158   1.987   2.519   5.124  2.9137  0.0140  0.6859
 2732TIP3   OH2 8159   3.375   4.309   4.990 -0.3511  0.2877  0.0493
 2732TIP3    H1 8160   3.327   4.239   5.036  0.2972  0.0531  0.3829
 2732TIP3    H2 8161   3.376   4.281   4.898 -1.2413  0.5242 -0.0441
 2733TIP3   OH2 8162   3.810   4.561   0.881  0.0692 -0.5397  0.1529
 2733TIP3    H1 8163   3.835   4.628   0.817 -0.6357 -0.1045  0.3236
 2733TIP3    H2 8164   3.715   4.554   0.872  0.0863 -1.2095  0.4446
 2734TIP3   OH2 8165   2.749   3.474   1.043  0.4227 -0.1046  0.4395
 2734TIP3    H1 8166   2.673   3.424   1.072  0.1397  0.2983  0.4098
 2734TIP3    H2 8167   2.808   3.473   1.117  0.7369 -1.0914  0.1869
 2735TIP3   OH2 8168   2.297   6.027   4.810 -0.3406 -0.5051  0.0340
 2735TIP3    H1 8169   2.252   6.079   4.744  0.5128 -1.2876 -1.2214
 2735TIP3    H2 8170   2.362   6.087   4.847 -0.3848 -0.2418 -0.3064
 2736TIP3   OH2 8171   4.471   6.659   5.902  0.7078 -0.2241 -0.4342
 2736TIP3    H1 8172   4.479   6.601   5.826  2.5470  0.6211 -0.9470
 2736TIP3    H2 8173   4.408   6.615   5.959 -1.3535 -0.5425 -2.7320
 2737TIP3   OH2 8174   6.920   5.063   2.520 -0.3481 -0.3599 -0.0229
 2737TIP3    H1 8175   6.880   5.150   2.524 -0.7763 -0.3223 -2.8914
 2737TIP3    H2 8176   6.948   5.053   2.429  1.9878 -2.2746  0.7858
 2738TIP3   OH2 8177   2.625   2.112   5.277 -0.4271  0.0148  0.2541
 2738TIP3    H1 8178   2.655   2.178   5.215 -0.3101  0.2268  0.5312
 2738TIP3    H2 8179   2.676   2.034   5.257 -1.3681 -0.3428 -0.8209
 2739TIP3   OH2 8180   5.081   3.473   1.646  0.0280 -0.4916 -0.0147
 2739TIP3    H1 8181   5.020   3.513   1.708 -1.0716 -1.1329 -0.6506
 2739TIP3    H2 8182   5.099   3.542   1.582  1.6420  0.3689  1.3037
 2740TIP3   OH2 8183   4.739   1.717   2.706  0.5730 -0.4569  0.1217
 2740TIP3    H1 8184   4.727   1.624   2.724  0.4012 -0.4218  0.1867
 2740TIP3    H2 8185   4.793   1.749   2.778 -1.3577  0.0068  1.4172
 2741TIP3   OH2 8186   1.325   6.708   1.895  0.0573  0.2887 -0.0207
 2741TIP3    H1 8187   1.309   6.772   1.825 -0.4046  0.8022  0.5466
 2741TIP3    H2 8188   1.368   6.635   1.851  0.3973  0.8949 -0.7225
 2742TIP3   OH2 8189   3.493   1.336   4.136 -0.7644 -0.2942  0.4623
 2742TIP3    H1 8190   3.417   1.394   4.142 -2.8191 -2.5675 -1.3567
 2742TIP3    H2 8191   3.464   1.254   4.175  0.9110 -1.1068  0.1022
 2743TIP3   OH2 8192   1.534   6.623   3.965 -0.4136  0.3060  0.0729
 2743TIP3    H1 8193   1.467   6.558   3.983 -0.1254 -0.2854 -0.9297
 2743TIP3    H2 8194   1.616   6.575   3.966 -0.0492  0.9232  0.7524
 2744TIP3   OH2 8195   2.182   2.142   1.216 -0.3074 -0.1612 -0.2665
 2744TIP3    H1 8196   2.259   2.091   1.241  0.3001 -0.0247 -1.7873
 2744TIP3    H2 8197   2.145   2.172   1.299 -0.2571 -2.4221  0.6446
 2745TIP3   OH2 8198   4.816   1.980   4.476 -0.3893 -0.6319  0.0788
 2745TIP3    H1 8199   4.809   2.074   4.496 -0.9990 -0.8019  0.7356
 2745TIP3    H2 8200   4.818   1.975   4.381 -0.9408  0.0247  0.0236
 2746TIP3   OH2 8201   5.314   4.020   5.881  0.0368 -0.4452  0.0956
 2746TIP3    H1 8202   5.374   4.064   5.821  1.6068 -2.5081  0.0535
 2746TIP3    H2 8203   5.333   3.927   5.871 -0.5985 -0.9603  2.7860
 2747TIP3   OH2 8204   2.939   3.302   2.645 -0.1188 -0.2807 -0.3579
 2747TIP3    H1 8205   2.982   3.231   2.596 -0.2844 -0.6805  0.0715
 2747TIP3    H2 8206   2.914   3.262   2.728 -2.7281 -0.5033 -1.1699
 2748TIP3   OH2 8207   1.404   5.435   3.472 -0.3948  0.2126 -0.0052
 2748TIP3    H1 8208   1.360   5.356   3.439  1.1993 -1.3843  1.4415
 2748TIP3    H2 8209   1.346   5.467   3.541 -0.6070 -0.2772  0.0510
 2749TIP3   OH2 8210   1.912   3.431   3.364  0.5315  0.3755  0.0676
 2749TIP3    H1 8211   1.826   3.415   3.325 -0.2783  0.1349  1.8641
 2749TIP3    H2 8212   1.916   3.526   3.376 -0.4381  0.2321  1.9335
 2750TIP3   OH2 8213   6.872   3.419   4.718  0.1814 -0.3056 -0.7563
 2750TIP3    H1 8214   6.909   3.385   4.799  1.6448  0.2474 -1.1651
 2750TIP3    H2 8215   6.939   3.478   4.683 -1.2179  1.0182 -1.3698
 2751TIP3   OH2 8216   6.217   3.019   1.270  0.6634 -0.1639  0.2542
 2751TIP3    H1 8217   6.239   3.017   1.177 -1.1478 -2.4362 -0.2214
 2751TIP3    H2 8218   6.225   3.111   1.294  3.3616  0.1904 -1.5369
 2752TIP3   OH2 8219   5.196   6.535   2.876 -0.1699 -0.3421 -0.1894
 2752TIP3    H1 8220   5.168   6.462   2.821  1.4091 -2.0116  1.1032
 2752TIP3    H2 8221   5.287   6.516   2.896 -0.0967  1.3204  1.2702
 2753TIP3   OH2 8222   4.380   4.627   4.457  0.4076 -0.0642 -0.4784
 2753TIP3    H1 8223   4.307   4.565   4.448  0.4350 -0.2787  0.6544
 2753TIP3    H2 8224   4.357   4.698   4.398 -0.3666 -0.4695 -0.6868
 2754TIP3   OH2 8225   1.796   0.130   1.641  0.8217 -0.5942  0.3865
 2754TIP3    H1 8226   1.726   0.182   1.681  0.1391 -1.0437 -0.1810
 2754TIP3    H2 8227   1.872   0.188   1.638  0.1375  0.3002 -0.0346
 2755TIP3   OH2 8228   4.109   0.721   4.464  0.0360 -0.4250 -0.0754
 2755TIP3    H1 8229   4.094   0.697   4.556  0.4284 -0.5571 -0.0471
 2755TIP3    H2 8230   4.166   0.797   4.468 -1.1414  0.5038 -0.1674
 2756TIP3   OH2 8231   2.457   6.183   5.725 -0.1699 -0.5003 -0.7896
 2756TIP3    H1 8232   2.490   6.147   5.642  0.4929 -3.2653  0.5334
 2756TIP3    H2 8233   2.391   6.120   5.753 -0.9263  0.8041  0.4347
 2757TIP3   OH2 8234   2.930   2.876   5.032 -0.2867 -0.1317  0.1116
 2757TIP3    H1 8235   2.909   2.791   5.071 -0.8904 -0.7996 -1.6060
 2757TIP3    H2 8236   2.846   2.920   5.024  0.0610  0.8175  1.3301
 2758TIP3   OH2 8237   1.900   3.180   1.973  0.2529  0.2130  0.1887
 2758TIP3    H1 8238   1.993   3.194   1.952 -0.0225 -0.1530 -1.4007
 2758TIP3    H2 8239   1.868   3.266   1.999  0.8998  0.4683  0.1652
 2759TIP3   OH2 8240   3.699   4.792   0.709 -0.2989 -0.4446  0.4375
 2759TIP3    H1 8241   3.668   4.882   0.694 -0.5698 -0.1984  2.2870
 2759TIP3    H2 8242   3.620   4.743   0.731  0.1889 -0.4396  2.3826
 2760TIP3   OH2 8243   0.495   6.512   0.454 -0.6452 -0.5988  0.3475
 2760TIP3    H1 8244   0.574   6.497   0.402 -1.3644 -1.0083 -0.6702
 2760TIP3    H2 8245   0.451   6.584   0.409 -1.7652 -1.6021 -0.2142
 2761TIP3   OH2 8246   2.118   0.466   3.977  0.4428 -0.6405 -0.1952
 2761TIP3    H1 8247   2.027   0.487   4.001  0.3614 -0.5207 -0.6023
 2761TIP3    H2 8248   2.110   0.394   3.915  0.5714 -0.0339 -0.9327
 2762TIP3   OH2 8249   1.281   2.718   1.820 -0.2321 -0.0776 -0.5661
 2762TIP3    H1 8250   1.224   2.734   1.745  0.1011 -0.9903 -1.0268
 2762TIP3    H2 8251   1.356   2.671   1.784  1.1360  1.5946 -0.0821
 2763TIP3   OH2 8252   5.098   3.680   1.424  0.5838 -0.1441  0.1086
 2763TIP3    H1 8253   5.050   3.762   1.413 -0.2462 -0.3140  2.0261
 2763TIP3    H2 8254   5.186   3.708   1.450  1.2706  0.1432 -2.2986
 2764TIP3   OH2 8255   4.667   2.156   3.584 -0.3009  0.0311 -0.8024
 2764TIP3    H1 8256   4.701   2.133   3.670 -0.1312 -2.5849 -1.4955
 2764TIP3    H2 8257   4.745   2.180   3.533 -0.3038  0.6877 -0.5115
 2765TIP3   OH2 8258   2.657   1.120   4.488  0.3595 -0.4155  0.5821
 2765TIP3    H1 8259   2.726   1.092   4.547  0.1508  0.8989  1.5042
 2765TIP3    H2 8260   2.581   1.134   4.545 -0.9023 -2.4240 -0.4856
 2766TIP3   OH2 8261   3.703   0.577   4.430  0.4818  0.3129  0.4650
 2766TIP3    H1 8262   3.770   0.618   4.375  0.9909 -1.2308 -0.1239
 2766TIP3    H2 8263   3.705   0.626   4.512  2.8673 -0.1391  0.7342
 2767TIP3   OH2 8264   3.675   4.880   3.004  0.4348 -0.1744  0.0592
 2767TIP3    H1 8265   3.762   4.920   2.997  0.4112 -0.3552 -3.2091
 2767TIP3    H2 8266   3.627   4.936   3.065  2.0425  1.5575 -0.1628
 2768TIP3   OH2 8267   0.745   2.771   0.840 -0.4341 -0.0657  0.3491
 2768TIP3    H1 8268   0.705   2.802   0.921  1.5966  1.0843  0.9951
 2768TIP3    H2 8269   0.812   2.709   0.868  0.6441  0.7272 -0.3614
 2769TIP3   OH2 8270   4.602   0.686   4.360 -0.1659 -0.1827  0.3029
 2769TIP3    H1 8271   4.644   0.601   4.348  0.8687  0.3435  0.0719
 2769TIP3    H2 8272   4.674   0.746   4.380 -0.3962  1.2407 -2.5271
 2770TIP3   OH2 8273   5.979   2.788   1.582  0.2598 -0.7972  0.1862
 2770TIP3    H1 8274   5.945   2.710   1.625  0.0060 -1.5886 -1.4046
 2770TIP3    H2 8275   5.915   2.856   1.603 -0.3319 -1.3796  0.3000
 2771TIP3   OH2 8276   6.266   0.137   4.787 -0.5222 -0.0359 -0.3192
 2771TIP3    H1 8277   6.181   0.126   4.743 -1.1283  0.8578  0.5710
 2771TIP3    H2 8278   6.247   0.121   4.879  0.3565 -0.1394 -0.1510
 2772TIP3   OH2 8279   2.320   2.428   0.722 -0.8954 -0.2487 -0.2804
 2772TIP3    H1 8280   2.374   2.433   0.643  1.3901 -0.1117  1.2108
 2772TIP3    H2 8281   2.341   2.343   0.760  0.8338  1.0857  1.9961
 2773TIP3   OH2 8282   3.756   2.319   5.326  0.0112 -0.6328 -0.3117
 2773TIP3    H1 8283   3.712   2.316   5.411 -0.8372 -0.9956 -0.7519
 2773TIP3    H2 8284   3.688   2.294   5.263  0.6364 -0.3957 -1.0939
 2774TIP3   OH2 8285   0.234   2.376   1.693 -0.2828  0.2434 -0.1684
 2774TIP3    H1 8286   0.179   2.448   1.723 -0.1538 -0.3514  1.6102
 2774TIP3    H2 8287   0.179   2.327   1.632 -1.4229  0.1775  0.8801
 2775TIP3   OH2 8288   4.658   5.473   4.108  0.0709 -0.3127  0.6890
 2775TIP3    H1 8289   4.717   5.535   4.064  1.0457 -0.4878  1.7020
 2775TIP3    H2 8290   4.716   5.404   4.140 -0.8278 -1.0260  0.8166
 2776TIP3   OH2 8291   4.486   6.523   5.087  0.3873  0.1820  0.7543
 2776TIP3    H1 8292   4.468   6.448   5.144  1.2474 -1.7584 -1.3572
 2776TIP3    H2 8293   4.432   6.508   5.010 -0.6877  2.6849  0.9416
 2777TIP3   OH2 8294   2.911   6.116   0.820 -0.6047 -0.4278  0.3421
 2777TIP3    H1 8295   2.932   6.025   0.844 -2.6122 -0.8009  0.8979
 2777TIP3    H2 8296   2.879   6.110   0.730 -0.5280 -0.2409  0.3035
 2778TIP3   OH2 8297   4.335   3.407   3.834 -0.0196  0.8659 -0.1328
 2778TIP3    H1 8298   4.385   3.396   3.753  1.4691 -1.8864  1.0215
 2778TIP3    H2 8299   4.278   3.331   3.838 -1.0347  1.6392  0.7951
 2779TIP3   OH2 8300   1.460   0.620   1.068 -0.0697 -0.4028  0.2831
 2779TIP3    H1 8301   1.387   0.584   1.017 -0.0594  0.4324 -0.3451
 2779TIP3    H2 8302   1.538   0.583   1.027 -0.0932 -0.3001  0.1425
 2780TIP3   OH2 8303   6.399   1.813   1.120 -0.3259 -0.3767  0.0642
 2780TIP3    H1 8304   6.415   1.904   1.142  1.4040 -0.6060 -0.1386
 2780TIP3    H2 8305   6.322   1.815   1.063 -0.1738  0.9757 -0.1156
 2781TIP3   OH2 8306   3.014   6.648   0.226 -0.3311 -0.5487 -1.0394
 2781TIP3    H1 8307   3.032   6.740   0.207  1.2950 -0.8790 -1.2051
 2781TIP3    H2 8308   2.982   6.647   0.316 -0.3256  0.1705 -1.0275
 2782TIP3   OH2 8309   4.141   6.299   1.961  0.2852 -0.3718  0.1983
 2782TIP3    H1 8310   4.052   6.274   1.984  0.5951 -0.5414  1.2681
 2782TIP3    H2 8311   4.131   6.379   1.909 -0.4802 -0.4220  0.2599
 2783TIP3   OH2 8312   7.054   2.450   0.593  0.0502  0.3657  1.1857
 2783TIP3    H1 8313   7.032   2.393   0.519 -1.5389  1.6049  0.6716
 2783TIP3    H2 8314   6.971   2.490   0.618  0.9535  1.6440  2.2361
 2784TIP3   OH2 8315   3.540   1.050   1.194 -0.3929 -0.3881 -0.3013
 2784TIP3    H1 8316   3.581   1.017   1.274 -0.8788 -1.4059 -0.4476
 2784TIP3    H2 8317   3.612   1.087   1.143 -0.0577  0.1378  0.5322
 2785TIP3   OH2 8318   0.073   0.077   2.461  0.2152 -0.1517  0.0805
 2785TIP3    H1 8319   0.073  -0.017   2.480 -0.2672 -0.1484  0.1137
 2785TIP3    H2 8320   0.159   0.108   2.490  1.1165 -0.9207 -1.5957
 2786TIP3   OH2 8321   4.203   0.289   1.587 -0.0079 -0.2261 -0.2330
 2786TIP3    H1 8322   4.181   0.381   1.601  0.7053  0.1314 -1.3528
 2786TIP3    H2 8323   4.251   0.288   1.504  0.2203 -1.5728 -0.1051
 2787TIP3   OH2 8324   0.830   3.148   1.247  0.0567 -0.4875  1.0012
 2787TIP3    H1 8325   0.915   3.186   1.269  0.1079 -0.5046  0.8327
 2787TIP3    H2 8326   0.798   3.112   1.330 -0.8816  1.6334  1.6462
 2788TIP3   OH2 8327   3.710   0.970   4.913  0.2096 -0.3519 -0.0431
 2788TIP3    H1 8328   3.684   1.050   4.867 -1.9124 -0.3939  0.9746
 2788TIP3    H2 8329   3.651   0.903   4.880  0.5697 -1.0167  0.6315
 2789TIP3   OH2 8330   5.527   4.967   0.795 -0.1994 -0.3322  0.2378
 2789TIP3    H1 8331   5.534   5.055   0.833  1.3824 -0.1531 -0.3810
 2789TIP3    H2 8332   5.467   4.977   0.721  1.1929  0.6409 -0.8278
 2790TIP3   OH2 8333   1.447   4.435   4.861  0.3241  0.1008 -0.4699
 2790TIP3    H1 8334   1.511   4.483   4.913  0.5756  1.5595 -2.0168
 2790TIP3    H2 8335   1.362   4.472   4.887  0.5612  2.0386 -2.1474
 2791TIP3   OH2 8336   3.036   3.873   0.884  0.4726 -0.8899 -0.5721
 2791TIP3    H1 8337   3.019   3.780   0.869 -1.1566 -0.8728  0.7848
 2791TIP3    H2 8338   2.978   3.918   0.823  0.9720 -0.7556 -0.9530
 2792TIP3   OH2 8339   2.206   2.763   5.031  0.3083  0.3878 -0.6654
 2792TIP3    H1 8340   2.154   2.819   4.974 -1.7061 -0.4180  0.2792
 2792TIP3    H2 8341   2.204   2.806   5.117 -0.0718 -0.3964 -0.2705
 2793TIP3   OH2 8342   3.304   0.129   2.359  0.3782 -0.0478  0.5411
 2793TIP3    H1 8343   3.310   0.198   2.425 -0.5703 -0.3466  0.9575
 2793TIP3    H2 8344   3.292   0.048   2.410 -1.1841 -0.1823  0.0122
 2794TIP3   OH2 8345   1.651   6.652   1.024  0.2559  0.0754  0.3281
 2794TIP3    H1 8346   1.678   6.563   1.000  0.0579  0.4867 -1.6004
 2794TIP3    H2 8347   1.665   6.704   0.944 -0.9523  1.4707  0.9737
 2795TIP3   OH2 8348   3.121   6.011   1.799 -0.2162  0.1613  0.0105
 2795TIP3    H1 8349   3.196   5.967   1.758 -0.5673 -0.2352 -0.2179
 2795TIP3    H2 8350   3.057   5.941   1.811 -0.2830  0.3607  0.8493
 2796TIP3   OH2 8351   0.646   0.818   2.185 -0.2644 -0.0517  0.2192
 2796TIP3    H1 8352   0.729   0.779   2.157  0.5219 -0.2496  2.5868
 2796TIP3    H2 8353   0.671   0.879   2.254 -2.1503 -1.0767  1.9243
 2797TIP3   OH2 8354   1.203   5.560   3.707 -0.4553  0.4142  0.1189
 2797TIP3    H1 8355   1.213   5.465   3.699  0.2414  0.4573  0.4377
 2797TIP3    H2 8356   1.225   5.579   3.798  1.9118  1.1749 -0.5483
 2798TIP3   OH2 8357   0.516   2.919   4.308  0.6296 -0.1474  0.1317
 2798TIP3    H1 8358   0.455   2.914   4.234 -0.4700  0.2473  0.9862
 2798TIP3    H2 8359   0.569   2.840   4.301  0.3293 -0.2706 -0.8907
 2799TIP3   OH2 8360   5.383   0.991   0.330  0.1143  0.0772 -0.2790
 2799TIP3    H1 8361   5.454   0.931   0.352 -1.2524 -1.7074 -0.4743
 2799TIP3    H2 8362   5.378   0.988   0.234  0.2204  0.7312 -0.3047
 2800TIP3   OH2 8363   1.921   0.122   4.630 -0.6547 -0.0614  0.2062
 2800TIP3    H1 8364   1.936   0.209   4.593  0.0073  0.1317  0.8967
 2800TIP3    H2 8365   1.872   0.138   4.711  0.6975 -0.1985  1.0764
 2801TIP3   OH2 8366   2.913   6.656   2.389 -0.1928  0.4625 -0.2767
 2801TIP3    H1 8367   2.821   6.675   2.375 -0.9542 -0.4662  2.7395
 2801TIP3    H2 8368   2.922   6.649   2.484  3.3446  2.1621 -0.3242
 2802TIP3   OH2 8369   5.369   5.183   0.861 -0.1986  0.4881  0.2981
 2802TIP3    H1 8370   5.367   5.188   0.957 -0.2084 -0.3152  0.3476
 2802TIP3    H2 8371   5.298   5.241   0.833  0.3402  1.3774  0.7432
 2803TIP3   OH2 8372   1.632   2.494   2.207 -0.1926 -0.5741  0.0768
 2803TIP3    H1 8373   1.650   2.403   2.232  0.6499 -0.2648  0.6008
 2803TIP3    H2 8374   1.606   2.537   2.288 -0.8458 -0.3920 -0.2170
 2804TIP3   OH2 8375   4.339   4.923   3.936 -0.1876  0.0413  0.3771
 2804TIP3    H1 8376   4.374   5.012   3.926  2.2039 -0.6213  1.8933
 2804TIP3    H2 8377   4.408   4.866   3.902 -1.7529 -1.2735 -0.7242
 2805TIP3   OH2 8378   5.326   3.648   0.715 -0.2034  0.5418 -0.6315
 2805TIP3    H1 8379   5.252   3.643   0.654 -0.7313 -0.2684  0.0461
 2805TIP3    H2 8380   5.290   3.691   0.793 -0.8459 -2.4003  0.8582
 2806TIP3   OH2 8381   4.952   6.587   0.717 -1.0138  0.2563  0.5579
 2806TIP3    H1 8382   4.944   6.613   0.809  1.4494  0.3415  0.8123
 2806TIP3    H2 8383   4.920   6.497   0.715  2.2374 -1.1254  2.3632
 2807TIP3   OH2 8384   3.912   1.617   5.280 -0.1913  0.1104  0.1983
 2807TIP3    H1 8385   3.981   1.576   5.228 -0.7445  0.5325 -0.9048
 2807TIP3    H2 8386   3.843   1.638   5.216 -0.6951  1.0656  1.0234
 2808TIP3   OH2 8387   4.567   5.827   1.124  0.2772 -0.1058 -0.3163
 2808TIP3    H1 8388   4.525   5.887   1.186 -0.2538  0.1998 -0.9544
 2808TIP3    H2 8389   4.495   5.774   1.091  0.6457 -0.6529 -0.2478
 2809TIP3   OH2 8390   6.884   1.650   5.704  0.4013  0.0654 -0.0258
 2809TIP3    H1 8391   6.820   1.672   5.637  0.3024  1.6650  0.5488
 2809TIP3    H2 8392   6.940   1.584   5.663  0.6901  1.3850 -1.8910
 2810TIP3   OH2 8393   1.389   1.040   0.901 -0.3169 -0.3315  0.1174
 2810TIP3    H1 8394   1.341   0.965   0.938  1.8742 -2.1261 -0.4239
 2810TIP3    H2 8395   1.433   1.079   0.977 -1.3658  0.3678  0.3838
 2811TIP3   OH2 8396   0.325   5.374   3.146  0.2563 -0.0282  0.2957
 2811TIP3    H1 8397   0.286   5.445   3.097 -0.3353 -0.4946  0.0816
 2811TIP3    H2 8398   0.259   5.350   3.211  1.4038  1.2584  2.0390
 2812TIP3   OH2 8399   3.808   0.852   5.762 -0.0361 -0.3370 -0.9902
 2812TIP3    H1 8400   3.761   0.775   5.730 -0.3127 -0.9562  0.8321
 2812TIP3    H2 8401   3.743   0.901   5.812  0.2619  0.8725 -1.7524
 2813TIP3   OH2 8402   1.885   2.441   3.722  0.0340  0.7045  0.5544
 2813TIP3    H1 8403   1.872   2.376   3.653 -4.0814  2.3884 -0.5812
 2813TIP3    H2 8404   1.819   2.418   3.788 -1.3747  3.4279  0.2172
 2814TIP3   OH2 8405   3.085   4.238   3.432 -0.0233  0.5595 -0.1458
 2814TIP3    H1 8406   3.023   4.256   3.362  0.9398  1.6969 -0.7466
 2814TIP3    H2 8407   3.107   4.324   3.467  1.2058  0.1802  0.0595
 2815TIP3   OH2 8408   7.019   0.729   3.209  0.1254  0.1805  0.1436
 2815TIP3    H1 8409   6.928   0.758   3.221  0.1718 -0.0341  1.0531
 2815TIP3    H2 8410   7.011   0.639   3.178  0.0032 -0.8569  2.8770
 2816TIP3   OH2 8411   4.348   6.514   2.637 -0.2088  0.3636  0.4274
 2816TIP3    H1 8412   4.368   6.569   2.562 -0.1563 -0.8036 -0.4467
 2816TIP3    H2 8413   4.252   6.515   2.643 -0.4439 -1.7094 -1.4331
 2817TIP3   OH2 8414   4.141   0.432   0.516  0.8207 -0.1117 -0.3987
 2817TIP3    H1 8415   4.103   0.345   0.508  2.9118 -0.9772 -1.6487
 2817TIP3    H2 8416   4.171   0.438   0.606  2.4609 -1.5398 -0.7970
 2818TIP3   OH2 8417   1.000   0.216   5.851 -0.2206 -0.7931  0.2592
 2818TIP3    H1 8418   1.094   0.203   5.863  0.3622  1.8534 -0.7183
 2818TIP3    H2 8419   0.989   0.227   5.757 -1.3466 -0.1989  0.4443
 2819TIP3   OH2 8420   4.724   5.872   3.783 -0.3098  0.1340  0.0851
 2819TIP3    H1 8421   4.724   5.930   3.706  0.6057 -0.3829 -0.3216
 2819TIP3    H2 8422   4.633   5.872   3.812 -0.4328  1.3781 -0.2083
 2820TIP3   OH2 8423   2.900   0.633   4.744 -0.6797  0.3753 -0.0377
 2820TIP3    H1 8424   2.896   0.567   4.813 -0.5096 -0.6080 -0.9487
 2820TIP3    H2 8425   2.993   0.653   4.734 -0.4644 -1.1380 -1.4790
 2821TIP3   OH2 8426   6.716   5.565   2.672 -0.1746  0.1705 -0.0979
 2821TIP3    H1 8427   6.686   5.579   2.762  0.3561  1.9239 -0.1713
 2821TIP3    H2 8428   6.794   5.620   2.664  1.4211 -2.0456 -0.8003
 2822TIP3   OH2 8429   2.718   0.327   1.628  0.1952 -0.6395 -0.1045
 2822TIP3    H1 8430   2.715   0.420   1.652  0.8087 -0.5477 -0.3616
 2822TIP3    H2 8431   2.755   0.284   1.706  0.1072 -0.6374 -0.0620
 2823TIP3   OH2 8432   4.597   4.635   2.066  0.5182 -0.1520 -0.0654
 2823TIP3    H1 8433   4.675   4.625   2.012  0.6774 -1.2743  0.3554
 2823TIP3    H2 8434   4.621   4.596   2.150  0.1682  1.2656  0.7320
 2824TIP3   OH2 8435   5.093   5.529   3.032 -0.4820  0.3791 -0.4247
 2824TIP3    H1 8436   5.114   5.604   2.977 -0.6461  1.2444  0.6821
 2824TIP3    H2 8437   5.084   5.564   3.120 -2.0332 -0.6901 -0.1179
 2825TIP3   OH2 8438   5.940   2.604   1.837  0.8158  0.7860  0.0301
 2825TIP3    H1 8439   5.968   2.531   1.782 -0.8744  1.4774 -1.9147
 2825TIP3    H2 8440   5.874   2.566   1.895  0.2206  0.6693 -0.7091
 2826TIP3   OH2 8441   4.027   0.088   0.197  0.1260 -0.3321  0.4659
 2826TIP3    H1 8442   4.005  -0.002   0.223  1.7292 -1.1625 -0.8593
 2826TIP3    H2 8443   4.110   0.105   0.241 -1.1641  1.3698  2.4392
 2827TIP3   OH2 8444   5.990   4.326   3.360 -0.2799 -0.1440  0.9464
 2827TIP3    H1 8445   6.007   4.413   3.324  0.5126 -0.2590  1.0125
 2827TIP3    H2 8446   6.029   4.266   3.296  1.7750 -0.3313  2.2782
 2828TIP3   OH2 8447   0.273   3.960   0.881 -0.1745  0.5256 -0.4196
 2828TIP3    H1 8448   0.253   4.046   0.844  0.2414  0.1970 -1.4325
 2828TIP3    H2 8449   0.193   3.909   0.867 -0.8201  1.0359  1.1529
 2829TIP3   OH2 8450   4.017   6.497   2.189 -0.3012 -0.2997  0.0805
 2829TIP3    H1 8451   4.092   6.453   2.149  0.7767  0.8835  0.7184
 2829TIP3    H2 8452   3.948   6.431   2.191  0.9307 -1.6315  0.1012
 2830TIP3   OH2 8453   3.556   2.985   2.529  0.2728  0.5465 -0.8798
 2830TIP3    H1 8454   3.601   3.001   2.446  1.4641  0.9237 -0.1862
 2830TIP3    H2 8455   3.510   2.902   2.517 -2.6651  2.3055 -3.1903
 2831TIP3   OH2 8456   6.651   0.656   0.677  0.5439 -0.3424 -0.6215
 2831TIP3    H1 8457   6.626   0.673   0.767 -2.0657  1.0955 -1.5050
 2831TIP3    H2 8458   6.647   0.561   0.668 -0.6537 -0.4078  0.3982
 2832TIP3   OH2 8459   0.117   4.905   1.265 -0.2265 -0.2249  0.2086
 2832TIP3    H1 8460   0.209   4.905   1.290 -0.1897 -3.2255  0.4122
 2832TIP3    H2 8461   0.070   4.916   1.348 -0.0235 -2.1131  0.6225
 2833TIP3   OH2 8462   1.015   5.919   4.667 -1.1435 -0.3093 -0.4196
 2833TIP3    H1 8463   1.022   5.874   4.751 -0.2535  1.2391  0.3834
 2833TIP3    H2 8464   0.988   6.008   4.690  0.2147  0.4568 -1.6471
 2834TIP3   OH2 8465   0.348   1.887   3.784 -0.2700 -0.0381 -0.1691
 2834TIP3    H1 8466   0.356   1.982   3.779 -0.7383 -0.0122 -0.5429
 2834TIP3    H2 8467   0.437   1.854   3.772 -0.1638  0.3419 -0.4220
 2835TIP3   OH2 8468   4.332   2.217   5.541 -0.2198 -0.0449  0.2345
 2835TIP3    H1 8469   4.285   2.151   5.489 -0.1712 -1.5828  2.0120
 2835TIP3    H2 8470   4.268   2.287   5.555 -0.9442 -0.6334 -0.0590
 2836TIP3   OH2 8471   2.480   2.319   0.167 -0.2294 -0.2585  0.8074
 2836TIP3    H1 8472   2.505   2.254   0.233 -1.7138 -2.1705 -0.3695
 2836TIP3    H2 8473   2.538   2.302   0.093  0.1487  0.5593  0.9141
 2837TIP3   OH2 8474   3.483   3.267   4.515 -0.2292  0.3546 -0.8272
 2837TIP3    H1 8475   3.487   3.186   4.566 -1.0753 -0.7179 -2.3626
 2837TIP3    H2 8476   3.571   3.279   4.481 -0.0355  0.2239 -0.3782
 2838TIP3   OH2 8477   3.480   0.060   5.488  0.4686 -0.4829  0.5638
 2838TIP3    H1 8478   3.411   0.002   5.521 -0.3083  0.0331 -0.0877
 2838TIP3    H2 8479   3.486   0.039   5.395  1.7270 -1.0330  0.7603
 2839TIP3   OH2 8480   0.335   2.300   5.480  0.6170 -0.3863 -0.1618
 2839TIP3    H1 8481   0.260   2.262   5.435  0.8003 -0.7380 -0.1796
 2839TIP3    H2 8482   0.391   2.224   5.500  0.4666 -0.2571  0.7898
 2840TIP3   OH2 8483   1.425   2.036   1.602 -0.0116  0.0218 -0.4604
 2840TIP3    H1 8484   1.511   1.994   1.595 -0.5802 -1.2605  0.0453
 2840TIP3    H2 8485   1.396   2.048   1.512  0.1514 -0.6902 -0.6083
 2841TIP3   OH2 8486   4.909   5.001   0.594 -0.3257  0.0153  0.1588
 2841TIP3    H1 8487   4.864   5.073   0.636 -1.4358  0.0382 -1.0124
 2841TIP3    H2 8488   4.841   4.935   0.578  0.0810 -0.0941 -1.3372
 2842TIP3   OH2 8489   3.470   5.225   2.579  0.1115 -0.2894 -0.0315
 2842TIP3    H1 8490   3.532   5.234   2.650 -2.4953 -0.3281  2.4300
 2842TIP3    H2 8491   3.447   5.133   2.577 -0.1787 -0.2153 -0.6411
 2843TIP3   OH2 8492   2.988   6.195   5.120 -0.1154  0.7844 -0.0359
 2843TIP3    H1 8493   2.957   6.105   5.114  1.5255  0.2048 -0.2456
 2843TIP3    H2 8494   2.980   6.217   5.213  2.6281 -0.8287  0.7007
 2844TIP3   OH2 8495   3.720   0.566   1.282  0.1289  0.0910  0.1169
 2844TIP3    H1 8496   3.639   0.617   1.289  1.3305  2.2589 -0.6135
 2844TIP3    H2 8497   3.705   0.505   1.211 -1.2642 -0.3949  0.7993
 2845TIP3   OH2 8498   6.634   0.085   1.378 -0.0092 -0.1265  0.5460
 2845TIP3    H1 8499   6.649   0.046   1.292 -1.1700  1.4417 -0.4194
 2845TIP3    H2 8500   6.707   0.146   1.391 -1.4093  1.9982 -0.8324
 2846TIP3   OH2 8501   1.138   5.539   4.269 -0.4516 -0.4318  0.1092
 2846TIP3    H1 8502   1.201   5.468   4.255  0.0021  0.1038 -0.6218
 2846TIP3    H2 8503   1.177   5.592   4.339 -1.0368 -1.1647  1.0213
 2847TIP3   OH2 8504   5.502   3.477   0.789  0.5204  0.0422  0.1118
 2847TIP3    H1 8505   5.483   3.413   0.720  2.0002 -0.1691 -0.1230
 2847TIP3    H2 8506   5.433   3.543   0.780 -0.1529 -0.7342 -0.6127
 2848TIP3   OH2 8507   6.253   6.555   2.211  0.1301 -0.8911 -0.2562
 2848TIP3    H1 8508   6.279   6.463   2.218 -0.8399 -1.3215 -1.7929
 2848TIP3    H2 8509   6.231   6.566   2.118 -2.1633  0.2167  0.3619
 2849TIP3   OH2 8510   3.706   1.861   2.307  0.1201  0.0100 -0.5993
 2849TIP3    H1 8511   3.726   1.767   2.307  0.2927 -0.0194  2.1131
 2849TIP3    H2 8512   3.700   1.884   2.214  1.5433 -2.3617 -1.3656
 2850TIP3   OH2 8513   0.480   6.059   4.127 -0.3156 -0.3448  0.1984
 2850TIP3    H1 8514   0.429   6.008   4.064  2.3900 -0.5668 -2.0404
 2850TIP3    H2 8515   0.526   5.993   4.179 -2.2527 -0.1535  2.3190
 2851TIP3   OH2 8516   1.924   0.434  -0.026  0.5274  0.3388 -0.7723
 2851TIP3    H1 8517   2.006   0.395   0.004 -0.4452 -1.2959 -0.1009
 2851TIP3    H2 8518   1.901   0.499   0.041  0.1751 -0.7773  0.2191
 2852TIP3   OH2 8519   5.019   0.252   1.441  0.1991 -0.3018  0.1075
 2852TIP3    H1 8520   5.101   0.209   1.416  1.6472  1.4325  1.5993
 2852TIP3    H2 8521   5.019   0.334   1.393 -0.1931  0.1498  0.8620
 2853TIP3   OH2 8522   3.203   5.209   3.450  0.3234  0.1623  0.5875
 2853TIP3    H1 8523   3.115   5.173   3.458 -0.3330  1.8605  1.7726
 2853TIP3    H2 8524   3.203   5.256   3.367  0.4450 -0.6490  0.1224
 2854TIP3   OH2 8525   0.939   1.288   0.611  0.2811 -0.1175 -0.1835
 2854TIP3    H1 8526   0.896   1.296   0.696  2.6713 -2.0268  1.3309
 2854TIP3    H2 8527   0.936   1.376   0.574  1.5676  1.4831  3.1403
 2855TIP3   OH2 8528   2.908   2.516   3.945  0.3778 -0.0516 -0.3776
 2855TIP3    H1 8529   2.997   2.532   3.915  0.3179 -0.2784 -0.6780
 2855TIP3    H2 8530   2.917   2.500   4.039  0.5816  0.5059 -0.2958
 2856TIP3   OH2 8531   7.217   4.738   3.649  0.6846  0.0566  0.0271
 2856TIP3    H1 8532   7.163   4.784   3.585  1.4597  2.7201  1.1324
 2856TIP3    H2 8533   7.154   4.690   3.703 -0.0910 -1.0061 -1.7322
 2857TIP3   OH2 8534   3.408   4.974   1.443  0.5148  0.3179  0.0838
 2857TIP3    H1 8535   3.353   5.026   1.385  2.2528  1.5802 -0.5091
 2857TIP3    H2 8536   3.412   5.025   1.524 -0.5941 -0.6546  0.7862
 2858TIP3   OH2 8537   1.141   1.603   4.837 -0.4075  0.7868 -0.3055
 2858TIP3    H1 8538   1.126   1.640   4.750 -0.0535  0.6205 -0.4408
 2858TIP3    H2 8539   1.174   1.515   4.820 -1.8107  0.1759  0.0238
 2859TIP3   OH2 8540   4.770   0.642   3.644 -0.9186 -0.0149 -0.0236
 2859TIP3    H1 8541   4.691   0.691   3.670 -0.6783  0.9967 -1.1174
 2859TIP3    H2 8542   4.780   0.661   3.551  1.3797  0.9780  0.3744
 2860TIP3   OH2 8543   6.448   4.183   4.920  0.0319  0.4839 -0.1310
 2860TIP3    H1 8544   6.476   4.107   4.970  1.1202  0.5229 -0.6572
 2860TIP3    H2 8545   6.497   4.178   4.838 -2.2720  0.0020 -1.5582
 2861TIP3   OH2 8546   7.184   5.202   1.397  0.1573  0.1365  0.6807
 2861TIP3    H1 8547   7.201   5.283   1.445  0.5179 -0.2958  1.2994
 2861TIP3    H2 8548   7.093   5.210   1.368 -0.6296 -0.2766  2.8546
 2862TIP3   OH2 8549   1.044   1.872   2.161 -0.2735  0.3306  0.7451
 2862TIP3    H1 8550   1.097   1.804   2.118  1.4217  2.4647 -0.7775
 2862TIP3    H2 8551   1.025   1.836   2.248 -0.0881 -2.3581 -0.2224
 2863TIP3   OH2 8552   1.664   5.028   4.140 -0.4952  0.0294 -0.0239
 2863TIP3    H1 8553   1.740   4.974   4.165  0.7284  1.3151 -0.8141
 2863TIP3    H2 8554   1.605   4.967   4.096 -0.5999 -1.2959  1.8021
 2864TIP3   OH2 8555   2.542   3.448   5.299  0.5390  0.2892  0.6044
 2864TIP3    H1 8556   2.519   3.458   5.391  0.2608  0.3712  0.5257
 2864TIP3    H2 8557   2.598   3.524   5.281  1.1009 -0.0576  0.8664
 2865TIP3   OH2 8558   4.356   2.649   0.928 -0.1704 -0.1349 -0.3301
 2865TIP3    H1 8559   4.290   2.699   0.880 -0.1666  0.9094  0.7192
 2865TIP3    H2 8560   4.418   2.714   0.959  0.0673 -0.8408  0.7167
 2866TIP3   OH2 8561   0.105   0.655   3.234  0.1358  0.0292 -0.7152
 2866TIP3    H1 8562   0.013   0.667   3.210 -0.3727 -1.0648  0.5548
 2866TIP3    H2 8563   0.105   0.577   3.291  1.6461  0.7803  0.3819
 2867TIP3   OH2 8564   2.561   3.197   0.254  0.6434 -0.1382  0.1737
 2867TIP3    H1 8565   2.614   3.261   0.208 -1.2352  1.4575  0.1148
 2867TIP3    H2 8566   2.577   3.114   0.208  1.1333  0.7953 -1.3915
 2868TIP3   OH2 8567   3.211   2.928   4.957 -0.2921 -0.6013 -0.6253
 2868TIP3    H1 8568   3.251   3.014   4.969  0.8532 -1.5089  4.4933
 2868TIP3    H2 8569   3.125   2.935   4.999 -1.2678 -1.4186 -2.3633
 2869TIP3   OH2 8570   6.383   1.455   2.442 -0.0929  0.5553 -0.0128
 2869TIP3    H1 8571   6.364   1.386   2.506  0.5893  0.4065  0.0309
 2869TIP3    H2 8572   6.366   1.537   2.490 -0.8066  0.4266 -0.0344
 2870TIP3   OH2 8573   0.464   5.057   5.645  0.2125 -0.1610 -0.4467
 2870TIP3    H1 8574   0.425   5.114   5.578  0.3014 -1.3564 -1.5707
 2870TIP3    H2 8575   0.413   4.976   5.640 -0.0582 -0.1287  1.2675
 2871TIP3   OH2 8576   4.181   5.233   4.113 -0.0541  0.4655  0.5479
 2871TIP3    H1 8577   4.267   5.258   4.078 -0.2926 -0.1571 -0.5195
 2871TIP3    H2 8578   4.122   5.238   4.038 -1.0338  1.1907  1.3396
 2872TIP3   OH2 8579   5.358   3.290   3.766  0.1761 -0.6301 -0.0856
 2872TIP3    H1 8580   5.389   3.374   3.732  0.7326 -0.2446  1.2987
 2872TIP3    H2 8581   5.419   3.269   3.837 -0.9639 -1.3514  0.7101
 2873TIP3   OH2 8582   0.219   0.358   1.168 -0.1666 -0.1519 -0.0908
 2873TIP3    H1 8583   0.268   0.366   1.085  0.1231 -1.9482 -0.1451
 2873TIP3    H2 8584   0.130   0.337   1.141 -0.5798  1.3209  0.0459
 2874TIP3   OH2 8585   3.696   1.253   3.663 -0.3344 -0.1680 -0.0242
 2874TIP3    H1 8586   3.613   1.279   3.624 -0.6710 -0.2031  0.6641
 2874TIP3    H2 8587   3.679   1.250   3.757  1.1407  2.4162  0.4158
 2875TIP3   OH2 8588   2.275   0.653   1.818 -0.2391  0.0418  0.1367
 2875TIP3    H1 8589   2.337   0.613   1.756 -0.6303 -0.0369 -0.2082
 2875TIP3    H2 8590   2.194   0.663   1.768 -0.2051  1.1157  0.2732
 2876TIP3   OH2 8591   6.607   1.608   5.299  0.6152  0.4603 -0.0752
 2876TIP3    H1 8592   6.679   1.600   5.236 -0.8559  2.8922 -2.2605
 2876TIP3    H2 8593   6.640   1.666   5.367  1.0944  0.6138 -0.4352
 2877TIP3   OH2 8594   2.189   0.607   0.457 -0.9028  0.3871  0.9096
 2877TIP3    H1 8595   2.208   0.694   0.421 -0.3208  0.4771  1.4150
 2877TIP3    H2 8596   2.179   0.621   0.551 -1.8017  0.0530  0.8717
 2878TIP3   OH2 8597   2.491   2.658   5.003 -0.1149  0.2069  0.0169
 2878TIP3    H1 8598   2.533   2.674   4.919  0.9939  1.6792  0.8045
 2878TIP3    H2 8599   2.399   2.684   4.990  0.1869  1.0091 -0.5910
 2879TIP3   OH2 8600   5.663   5.746   2.091 -0.0038 -0.6349 -0.3352
 2879TIP3    H1 8601   5.738   5.805   2.093 -0.4710  0.0445 -1.4530
 2879TIP3    H2 8602   5.682   5.686   2.018  0.2831 -1.6359  0.5383
 2880TIP3   OH2 8603   3.518   1.453   2.527 -0.1692 -0.2659 -0.3034
 2880TIP3    H1 8604   3.498   1.376   2.474 -0.7582  0.2923 -0.9011
 2880TIP3    H2 8605   3.446   1.457   2.591 -0.8476  0.5051 -1.0856
 2881TIP3   OH2 8606   0.839   2.355   0.251 -0.4965 -1.0037 -0.3736
 2881TIP3    H1 8607   0.744   2.351   0.246 -0.6484  1.0839  0.1167
 2881TIP3    H2 8608   0.859   2.352   0.344 -0.3728  2.1966 -0.2047
 2882TIP3   OH2 8609   0.774   3.157   0.862 -0.8073 -0.1493 -0.0071
 2882TIP3    H1 8610   0.858   3.143   0.817 -0.7324 -1.6722  0.5449
 2882TIP3    H2 8611   0.782   3.245   0.900  0.0605  0.1990 -0.9379
 2883TIP3   OH2 8612   4.612   0.150   1.686  0.1725  0.9318  0.0906
 2883TIP3    H1 8613   4.519   0.170   1.702 -0.1791  2.4263 -3.0091
 2883TIP3    H2 8614   4.616   0.054   1.684 -0.9956  0.8169  1.6308
 2884TIP3   OH2 8615   5.806   5.233   0.610 -0.6136 -0.0387 -0.2195
 2884TIP3    H1 8616   5.722   5.207   0.572 -0.8023  1.3447 -0.8224
 2884TIP3    H2 8617   5.853   5.151   0.622 -2.1617 -0.8821  0.4270
 2885TIP3   OH2 8618   3.329   5.749   0.053  0.2231  0.2045 -0.1529
 2885TIP3    H1 8619   3.239   5.772   0.032  0.4947  0.6900 -0.8076
 2885TIP3    H2 8620   3.380   5.828   0.036  0.8944 -0.3044 -0.6163
 2886TIP3   OH2 8621   2.999   5.363   4.024 -0.7530 -0.3671  0.0217
 2886TIP3    H1 8622   3.090   5.385   4.047 -1.0397  2.6510 -1.2253
 2886TIP3    H2 8623   2.948   5.391   4.100 -0.8672  0.9275 -0.5010
 2887TIP3   OH2 8624   4.713   4.660   2.870  0.1412 -0.2985  0.0663
 2887TIP3    H1 8625   4.745   4.595   2.808 -1.3051 -0.3768 -0.6402
 2887TIP3    H2 8626   4.637   4.699   2.827  0.1954  0.9369  1.0290
 2888TIP3   OH2 8627   2.262   1.029   2.758 -0.2324 -0.4306  0.0188
 2888TIP3    H1 8628   2.298   0.949   2.794  0.2719 -0.5585 -0.7357
 2888TIP3    H2 8629   2.168   1.013   2.753 -0.7652  0.5859  3.7423
 2889TIP3   OH2 8630   6.963   2.541   0.916  0.5720  0.1693  0.4462
 2889TIP3    H1 8631   6.934   2.547   1.007  0.5082 -1.4619  0.5669
 2889TIP3    H2 8632   6.927   2.619   0.873 -2.3919 -0.7628  1.0225
 2890TIP3   OH2 8633   6.263   2.103   3.173 -0.0132 -0.5340  0.2473
 2890TIP3    H1 8634   6.227   2.021   3.205  1.8242 -1.0453  1.1034
 2890TIP3    H2 8635   6.243   2.167   3.242 -0.9122 -0.3625 -0.1499
 2891TIP3   OH2 8636   4.203   6.545   3.539  0.3130 -0.0380 -0.1223
 2891TIP3    H1 8637   4.261   6.479   3.576  0.3083  1.5132  3.0484
 2891TIP3    H2 8638   4.114   6.514   3.560  0.0893 -0.7907 -2.0092
 2892TIP3   OH2 8639   3.223   6.148   0.549  0.1615 -0.1801  0.1142
 2892TIP3    H1 8640   3.298   6.150   0.608 -0.5316  0.6768  0.9895
 2892TIP3    H2 8641   3.261   6.152   0.461  1.1178  1.2034  0.5689
 2893TIP3   OH2 8642   4.982   1.961   2.955 -0.2470  0.5866 -0.8942
 2893TIP3    H1 8643   5.077   1.966   2.958 -0.2169 -0.2157  0.7744
 2893TIP3    H2 8644   4.964   1.874   2.920 -0.3806  0.7897 -1.3384
 2894TIP3   OH2 8645   0.104   6.236   4.593  0.2098  0.4987 -0.4098
 2894TIP3    H1 8646   0.146   6.205   4.513 -0.8111  0.9033 -1.1214
 2894TIP3    H2 8647   0.170   6.292   4.634  2.6518 -3.4207  1.6012
 2895TIP3   OH2 8648   0.104   1.974   2.097 -0.6070 -0.4212 -0.8888
 2895TIP3    H1 8649   0.076   1.921   2.022  0.2028 -1.5814 -0.3963
 2895TIP3    H2 8650   0.197   1.992   2.079 -0.5418 -0.2693 -0.3999
 2896TIP3   OH2 8651   0.104   2.178   4.097 -0.3780  0.1658  0.2726
 2896TIP3    H1 8652   0.075   2.087   4.103 -0.8957  0.1256 -1.8905
 2896TIP3    H2 8653   0.052   2.214   4.025  2.4897  1.0789 -1.4715
 2897TIP3   OH2 8654   6.054   6.182   1.304 -0.0302 -0.6609  0.3991
 2897TIP3    H1 8655   6.026   6.269   1.332 -0.1747 -0.4583 -0.3552
 2897TIP3    H2 8656   6.057   6.187   1.209  3.1109 -0.5118  0.4041
 2898TIP3   OH2 8657   4.821   4.873   2.303  0.6358  0.1381  0.2636
 2898TIP3    H1 8658   4.847   4.785   2.330 -0.2957  0.3812  2.0174
 2898TIP3    H2 8659   4.750   4.897   2.362 -1.4750  0.7629 -2.3332
 2899TIP3   OH2 8660   3.513   0.659   5.602  0.6092 -0.0286  0.0683
 2899TIP3    H1 8661   3.484   0.746   5.628 -0.3354 -0.9475  2.3739
 2899TIP3    H2 8662   3.435   0.618   5.564  0.2978 -0.6917  1.3585
 2900TIP3   OH2 8663   0.902   5.846   2.733  0.2882 -0.0703  0.1849
 2900TIP3    H1 8664   0.932   5.806   2.814 -0.4056  0.4321  0.7065
 2900TIP3    H2 8665   0.808   5.826   2.730 -0.3001  2.2564  0.9466
 2901TIP3   OH2 8666   6.206   6.649   4.830  0.4868 -0.1322  0.2251
 2901TIP3    H1 8667   6.171   6.634   4.742  1.4442  0.5451 -0.2932
 2901TIP3    H2 8668   6.247   6.566   4.854 -0.9842 -0.7681  0.6264
 2902TIP3   OH2 8669   5.504   0.580   2.022 -0.3503 -0.0407 -0.1943
 2902TIP3    H1 8670   5.563   0.554   2.093 -0.2198  0.1217 -0.2445
 2902TIP3    H2 8671   5.506   0.675   2.022  0.0055 -0.0449 -0.7162
 2903TIP3   OH2 8672   0.077   2.963   3.951 -0.2543 -0.0850  0.1923
 2903TIP3    H1 8673   0.052   3.051   3.979 -1.2151 -0.4615  0.5630
 2903TIP3    H2 8674   0.104   2.973   3.859 -0.3172  0.5932  0.2460
 2904TIP3   OH2 8675   2.987   6.035   1.310 -0.2274  0.2298  0.5202
 2904TIP3    H1 8676   2.993   6.049   1.405 -0.5678 -0.2095  0.6085
 2904TIP3    H2 8677   2.896   6.057   1.289  0.1207  1.3444  0.1218
 2905TIP3   OH2 8678   5.526   0.152   1.316  0.1874 -0.2435  0.0443
 2905TIP3    H1 8679   5.557   0.069   1.281  1.1549 -0.1548  0.6492
 2905TIP3    H2 8680   5.600   0.187   1.366 -0.8899 -0.0523  1.6051
 2906TIP3   OH2 8681   3.025   4.267   3.140  0.1890 -0.0311  0.2559
 2906TIP3    H1 8682   2.975   4.347   3.123  0.5733 -0.2156 -2.0765
 2906TIP3    H2 8683   3.116   4.291   3.124  0.6331 -0.3020  2.1499
 2907TIP3   OH2 8684   4.899   4.596   2.383  0.4316  0.4626 -0.1268
 2907TIP3    H1 8685   4.982   4.573   2.344  0.8901  0.3920  0.8619
 2907TIP3    H2 8686   4.841   4.523   2.363  0.0287  1.3621 -2.4667
 2908TIP3   OH2 8687   0.802   6.235   1.244  0.1104 -0.2107  0.0969
 2908TIP3    H1 8688   0.777   6.170   1.178 -0.0170 -0.1355  0.0711
 2908TIP3    H2 8689   0.895   6.219   1.259 -0.1794 -1.1587  0.9501
 2909TIP3   OH2 8690   3.204   1.025   4.457 -0.2267 -0.2793 -0.2692
 2909TIP3    H1 8691   3.122   1.064   4.489 -0.3659 -1.8864  1.4952
 2909TIP3    H2 8692   3.179   0.938   4.427  0.9270 -1.0191  0.8500
 2910TIP3   OH2 8693   1.059   0.960   1.424 -0.0392  0.3096  0.1842
 2910TIP3    H1 8694   1.103   0.983   1.506  0.3044  2.1486 -0.4654
 2910TIP3    H2 8695   0.971   0.995   1.434 -0.3664 -0.4997  0.2043
 2911TIP3   OH2 8696   3.248   6.541   3.653  0.1581  0.1446  0.6383
 2911TIP3    H1 8697   3.216   6.616   3.703 -0.2153  0.2858  0.1933
 2911TIP3    H2 8698   3.317   6.576   3.598 -0.0870  0.1839  0.3549
 2912TIP3   OH2 8699   3.742   4.857   4.686  0.3465  0.2042  0.4669
 2912TIP3    H1 8700   3.707   4.781   4.732  0.2531  0.3502  0.6360
 2912TIP3    H2 8701   3.775   4.821   4.603 -0.8392  0.1633 -0.0111
 2913TIP3   OH2 8702   5.115   1.735   1.472 -0.3690 -0.1327 -0.4004
 2913TIP3    H1 8703   5.052   1.686   1.524  0.3777  0.1846  0.8516
 2913TIP3    H2 8704   5.165   1.668   1.425  1.1399 -0.6944  1.8633
 2914TIP3   OH2 8705   0.496   4.924   0.670 -0.1101 -0.8679 -0.0696
 2914TIP3    H1 8706   0.424   4.974   0.631 -0.2320 -1.1889 -0.2604
 2914TIP3    H2 8707   0.479   4.834   0.644  2.0726 -0.6012 -2.8514
 2915TIP3   OH2 8708   4.833   4.746   1.320  0.0061 -0.6453 -0.0522
 2915TIP3    H1 8709   4.906   4.794   1.280  0.4857 -0.8223  0.6019
 2915TIP3    H2 8710   4.854   4.744   1.413 -0.8307 -0.7208  0.1392
 2916TIP3   OH2 8711   0.980   2.994   3.331 -0.2275 -0.2581 -0.3574
 2916TIP3    H1 8712   1.063   3.042   3.327  0.5828 -1.5221  0.6018
 2916TIP3    H2 8713   0.960   2.989   3.424 -0.8626 -0.8163 -0.5201
 2917TIP3   OH2 8714   0.551   4.051   5.348  0.1273  0.5419  0.3439
 2917TIP3    H1 8715   0.553   4.084   5.258 -1.0551 -0.5525 -0.1180
 2917TIP3    H2 8716   0.461   4.068   5.377 -0.6062 -2.2921  0.0295
 2918TIP3   OH2 8717   3.203   0.842   1.628  0.2450 -0.1516 -0.3172
 2918TIP3    H1 8718   3.170   0.773   1.685  0.7581 -1.2933 -1.3435
 2918TIP3    H2 8719   3.126   0.874   1.582  0.1741 -0.9881 -0.8027
 2919TIP3   OH2 8720   2.100   1.353   0.323 -0.3885  0.4420 -0.1426
 2919TIP3    H1 8721   2.039   1.379   0.254  0.1608 -1.6102 -1.4711
 2919TIP3    H2 8722   2.135   1.436   0.356 -0.8816  1.4980 -2.1351
 2920TIP3   OH2 8723   1.875   5.212   0.792  1.1489  0.6289 -0.5164
 2920TIP3    H1 8724   1.955   5.227   0.842 -0.0499  3.2944  0.8334
 2920TIP3    H2 8725   1.875   5.281   0.725 -0.3896  1.2999  0.1135
 2921TIP3   OH2 8726   3.206   2.548   1.397  0.1109  0.1397  0.5613
 2921TIP3    H1 8727   3.158   2.507   1.470 -0.4207  0.3220  0.3239
 2921TIP3    H2 8728   3.239   2.474   1.346 -0.6999 -0.0124  0.2287
 2922TIP3   OH2 8729   0.653   6.452   5.527 -0.2458 -0.1395  0.0774
 2922TIP3    H1 8730   0.567   6.411   5.528  0.1864 -1.0735  0.3786
 2922TIP3    H2 8731   0.661   6.495   5.612 -0.7550  0.7167 -0.2930
 2923TIP3   OH2 8732   3.820   3.567   2.243  0.2150  0.1760 -0.0053
 2923TIP3    H1 8733   3.815   3.480   2.283  2.4262 -0.6767 -1.4327
 2923TIP3    H2 8734   3.858   3.623   2.312  0.8742 -0.5113  0.2015
 2924TIP3   OH2 8735   1.321   2.418   0.202 -0.1463  0.1549 -0.0461
 2924TIP3    H1 8736   1.297   2.353   0.268  0.3305 -0.0640 -0.0867
 2924TIP3    H2 8737   1.272   2.391   0.124 -2.0689  1.3834  0.6447
 2925TIP3   OH2 8738   2.716   4.268   3.488 -0.0191  0.4735 -0.1844
 2925TIP3    H1 8739   2.757   4.189   3.452  1.9308  1.1559  0.4138
 2925TIP3    H2 8740   2.673   4.309   3.413 -0.3663 -0.7211 -0.6617
 2926TIP3   OH2 8741   6.247   4.390   2.403 -0.7543  0.5127  0.1620
 2926TIP3    H1 8742   6.286   4.309   2.437 -1.7271 -0.4029 -0.8142
 2926TIP3    H2 8743   6.291   4.460   2.451  0.6143 -0.5611  0.5400
 2927TIP3   OH2 8744   5.818   4.070   3.059  0.1324 -0.0697 -0.1880
 2927TIP3    H1 8745   5.841   4.040   3.148  0.6598  0.1949 -0.2310
 2927TIP3    H2 8746   5.903   4.085   3.017 -0.1048 -0.7250 -0.9250
 2928TIP3   OH2 8747   5.856   5.359   5.051  0.0348  0.2711 -0.3850
 2928TIP3    H1 8748   5.853   5.333   5.144  0.6360 -0.0782 -0.4655
 2928TIP3    H2 8749   5.774   5.324   5.015 -0.1444  0.2977 -0.0146
 2929TIP3   OH2 8750   0.142   5.069   5.477  0.0482  0.4150 -0.0722
 2929TIP3    H1 8751   0.223   5.090   5.429  0.2860 -0.2522  0.0301
 2929TIP3    H2 8752   0.077   5.128   5.439  0.3880  0.3801 -0.7418
 2930TIP3   OH2 8753   6.560   0.438   1.622 -0.1221 -0.4304 -0.1817
 2930TIP3    H1 8754   6.611   0.474   1.550  1.2788 -0.9546  0.5207
 2930TIP3    H2 8755   6.512   0.364   1.584  0.4634 -0.5862 -0.6241
 2931TIP3   OH2 8756   3.743   4.416   1.667 -0.5036 -0.1746 -0.8783
 2931TIP3    H1 8757   3.838   4.425   1.659 -0.5504 -0.5458 -1.9969
 2931TIP3    H2 8758   3.729   4.326   1.696 -0.4853  0.1971  0.3551
 2932TIP3   OH2 8759   0.918   3.920   4.507  0.0991 -0.1948 -0.4956
 2932TIP3    H1 8760   0.910   3.972   4.586  0.0950 -1.1794  0.1737
 2932TIP3    H2 8761   0.992   3.861   4.524  0.4584 -0.0346 -1.4475
 2933TIP3   OH2 8762   0.662   0.782   5.826 -0.1964 -0.9234  1.2045
 2933TIP3    H1 8763   0.709   0.843   5.882  1.9843  0.4860 -1.8653
 2933TIP3    H2 8764   0.594   0.835   5.785 -0.6386 -1.4877  1.1966
 2934TIP3   OH2 8765   0.579   4.169   5.632  0.1736  0.3519 -0.5626
 2934TIP3    H1 8766   0.582   4.253   5.677 -1.6326  0.8467 -1.2645
 2934TIP3    H2 8767   0.562   4.192   5.541 -1.3378 -0.7703 -0.6039
 2935TIP3   OH2 8768   1.799   2.463   0.163 -0.7650 -0.0837 -0.3869
 2935TIP3    H1 8769   1.738   2.503   0.226 -0.1197  1.3351 -0.6179
 2935TIP3    H2 8770   1.812   2.374   0.195 -0.1182  0.7210  1.7535
 2936TIP3   OH2 8771   0.249   5.914   0.390  0.0531  0.1842  0.2940
 2936TIP3    H1 8772   0.197   5.843   0.351 -0.0684 -0.0759  0.9193
 2936TIP3    H2 8773   0.337   5.878   0.397 -0.2800 -0.4395  1.8819
 2937TIP3   OH2 8774   2.523   5.244   5.509  0.4647  0.0477  0.0284
 2937TIP3    H1 8775   2.514   5.314   5.444  0.6021  0.3580  0.3357
 2937TIP3    H2 8776   2.598   5.271   5.562  0.1836 -0.0618  0.4861
 2938TIP3   OH2 8777   1.176   4.720   3.953 -0.0031  0.4076  0.4115
 2938TIP3    H1 8778   1.080   4.719   3.954  0.0008  0.5219  1.1262
 2938TIP3    H2 8779   1.201   4.681   4.037  0.5883 -1.4650 -0.5660
 2939TIP3   OH2 8780   4.125   5.774   4.643  0.2083 -0.2471  0.5153
 2939TIP3    H1 8781   4.064   5.844   4.623  1.4290 -0.0447 -3.3042
 2939TIP3    H2 8782   4.075   5.693   4.630  0.3759 -0.0659 -1.6786
 2940TIP3   OH2 8783   1.623   3.876   0.031 -0.3291 -0.1973 -0.7857
 2940TIP3    H1 8784   1.640   3.811  -0.037 -2.6891 -0.1233 -1.5302
 2940TIP3    H2 8785   1.691   3.942   0.018 -0.4059 -0.4516 -2.7662
 2941TIP3   OH2 8786   4.194   0.569   5.478  0.0164  0.1689  0.1127
 2941TIP3    H1 8787   4.124   0.542   5.537  0.3201 -4.4960 -1.2359
 2941TIP3    H2 8788   4.272   0.523   5.510  1.6411  2.2582 -0.5637
 2942TIP3   OH2 8789   0.227   3.562   1.742 -0.6893 -0.3557 -0.1677
 2942TIP3    H1 8790   0.153   3.618   1.718 -0.1039  1.6156  2.2849
 2942TIP3    H2 8791   0.297   3.588   1.682 -1.5534 -1.3461 -1.6654
 2943TIP3   OH2 8792   0.902   1.132   5.554  0.1828 -0.0991 -0.2554
 2943TIP3    H1 8793   0.902   1.045   5.516  0.2191  0.2225 -1.0019
 2943TIP3    H2 8794   0.822   1.173   5.522  1.4048  1.0405 -2.0473
 2944TIP3   OH2 8795   6.375   2.723   0.592  0.0463 -0.3786  0.2697
 2944TIP3    H1 8796   6.417   2.649   0.637  0.5239 -1.0602 -1.2135
 2944TIP3    H2 8797   6.293   2.687   0.559  0.1052 -0.1380 -0.1408
 2945TIP3   OH2 8798   2.608   1.973   2.868 -0.1198 -0.2025  0.0949
 2945TIP3    H1 8799   2.661   1.938   2.798 -0.3319 -1.2562  0.4418
 2945TIP3    H2 8800   2.560   1.898   2.902 -0.8706  0.4920  0.6246
 2946TIP3   OH2 8801   3.742   4.212   3.513  0.0719 -0.0973 -0.2076
 2946TIP3    H1 8802   3.736   4.145   3.581  0.4822  0.2020  0.1288
 2946TIP3    H2 8803   3.829   4.249   3.525  0.0222  0.1705 -0.6984
 2947TIP3   OH2 8804   3.859   6.205   4.821 -0.1467 -0.0909  0.1536
 2947TIP3    H1 8805   3.820   6.123   4.791 -1.5564  0.2123  1.0604
 2947TIP3    H2 8806   3.936   6.178   4.871  1.5555 -0.6630 -2.5133
 2948TIP3   OH2 8807   4.305   6.145   3.049 -0.0929  0.3445  0.1644
 2948TIP3    H1 8808   4.216   6.110   3.051  0.1281 -0.2356  0.0953
 2948TIP3    H2 8809   4.355   6.081   2.998  0.1994  1.0632 -0.4726
 2949TIP3   OH2 8810   2.010   5.349   2.631 -0.2684 -0.1171  0.0510
 2949TIP3    H1 8811   1.926   5.366   2.589  0.5213  0.9436 -1.1757
 2949TIP3    H2 8812   1.993   5.357   2.724 -1.0626  2.4215 -0.2544
 2950TIP3   OH2 8813   2.219   2.028   2.323  0.0024 -0.1073  0.2419
 2950TIP3    H1 8814   2.184   2.004   2.238  0.6667  2.0035 -0.6906
 2950TIP3    H2 8815   2.314   2.029   2.311  0.1526 -0.5513  1.2471
 2951TIP3   OH2 8816   6.979   1.652   1.904  0.0114 -0.0928  0.0856
 2951TIP3    H1 8817   6.884   1.645   1.916  0.0230 -1.3400 -0.3336
 2951TIP3    H2 8818   6.990   1.687   1.816 -0.0867 -1.7032 -0.6016
 2952TIP3   OH2 8819   0.779   5.098   4.696  0.1859 -0.0161 -0.3410
 2952TIP3    H1 8820   0.829   5.019   4.676  0.3398  0.1661 -0.6758
 2952TIP3    H2 8821   0.805   5.161   4.630 -1.3323 -0.2622 -1.2185
 2953TIP3   OH2 8822   1.693   6.492   5.226  0.1761  0.8286 -0.3824
 2953TIP3    H1 8823   1.745   6.550   5.282  1.8847 -0.9583 -0.0240
 2953TIP3    H2 8824   1.633   6.448   5.287  0.2127  0.8116 -0.3584
 2954TIP3   OH2 8825   0.956   6.658   2.932 -0.6412 -0.6567  0.2662
 2954TIP3    H1 8826   1.010   6.699   2.865 -1.1093  2.0574  1.4305
 2954TIP3    H2 8827   1.007   6.581   2.960  0.0511 -1.2267 -2.3308
 2955TIP3   OH2 8828  -0.005   5.743   1.350  0.1322  0.1592 -0.3140
 2955TIP3    H1 8829   0.045   5.687   1.408  0.8410 -0.7281 -1.7107
 2955TIP3    H2 8830  -0.003   5.830   1.391 -0.8321 -0.7502  1.7849
 2956TIP3   OH2 8831   2.522   2.317   4.801 -0.4404 -0.0953  0.0668
 2956TIP3    H1 8832   2.557   2.234   4.833 -0.5039 -0.7188 -1.3693
 2956TIP3    H2 8833   2.539   2.379   4.871 -0.4272 -1.3231  1.2023
 2957TIP3   OH2 8834   3.045   1.564   1.343 -0.4320 -0.2434 -0.4261
 2957TIP3    H1 8835   2.967   1.576   1.289  0.1702  0.9135 -1.0799
 2957TIP3    H2 8836   3.044   1.637   1.404  0.1008 -0.2606 -0.3925
 2958TIP3   OH2 8837   1.650   4.391   1.558  0.0758 -0.1028 -0.2088
 2958TIP3    H1 8838   1.554   4.388   1.559  0.0789 -0.2250 -0.1949
 2958TIP3    H2 8839   1.676   4.316   1.612  0.1780  0.0440 -0.0557
 2959TIP3   OH2 8840   2.720   3.527   2.942  0.1356  0.1265 -0.0781
 2959TIP3    H1 8841   2.655   3.551   3.008  0.0069 -0.7523  0.1320
 2959TIP3    H2 8842   2.802   3.564   2.974 -0.6021  3.4787 -1.5757
 2960TIP3   OH2 8843   1.532   1.754   1.522  0.3405 -0.1808  0.2862
 2960TIP3    H1 8844   1.557   1.663   1.535  2.0633  0.0183 -1.1517
 2960TIP3    H2 8845   1.446   1.750   1.482  0.0530 -1.1293  0.9723
 2961TIP3   OH2 8846   0.476   1.963   1.189  0.7569 -0.1292  0.2283
 2961TIP3    H1 8847   0.572   1.960   1.190  0.7414 -1.4151  1.7388
 2961TIP3    H2 8848   0.450   1.878   1.152  0.1500  0.8009 -1.6424
 2962TIP3   OH2 8849   3.096   2.690   4.115  0.1801  0.4059  0.2144
 2962TIP3    H1 8850   3.175   2.693   4.169 -1.7713  0.2502  3.3486
 2962TIP3    H2 8851   3.094   2.601   4.080  0.2921 -0.3770  2.0663
 2963TIP3   OH2 8852   3.475   6.761   4.477  0.7467 -0.2785 -0.1483
 2963TIP3    H1 8853   3.560   6.759   4.435  0.7028 -1.9559 -0.2115
 2963TIP3    H2 8854   3.413   6.784   4.407  1.0135 -0.0963 -0.3243
 2964TIP3   OH2 8855   6.373   5.412   0.232  0.2407 -0.0612 -0.3792
 2964TIP3    H1 8856   6.381   5.317   0.232  0.8715 -0.1098  2.6120
 2964TIP3    H2 8857   6.462   5.444   0.248 -0.4673  0.7550  2.6726
 2965TIP3   OH2 8858   0.366   0.351   2.731  0.4854  0.2620  0.8543
 2965TIP3    H1 8859   0.357   0.343   2.636 -1.7883 -1.1683  1.1226
 2965TIP3    H2 8860   0.450   0.310   2.750  0.5540 -0.2679 -0.4558
 2966TIP3   OH2 8861   0.401   5.064   4.354  0.3950  0.8613 -0.3260
 2966TIP3    H1 8862   0.355   5.148   4.362 -0.3453  0.5939 -1.5237
 2966TIP3    H2 8863   0.339   5.007   4.308  0.2985 -0.8182  1.6876
 2967TIP3   OH2 8864   2.793   5.448   3.859 -0.1532  0.2133 -0.0256
 2967TIP3    H1 8865   2.873   5.443   3.912  0.2281  2.0529 -0.3596
 2967TIP3    H2 8866   2.723   5.465   3.922  0.1467  1.3566  0.0179
 2968TIP3   OH2 8867   4.642   0.611   0.327 -0.4414 -0.6818 -0.4805
 2968TIP3    H1 8868   4.716   0.668   0.349  0.8211 -1.7442 -1.7077
 2968TIP3    H2 8869   4.570   0.642   0.381 -0.0241  2.4473 -1.5226
 2969TIP3   OH2 8870   3.867   3.897   4.422 -0.2830  0.4043 -0.2770
 2969TIP3    H1 8871   3.954   3.859   4.414  0.1294  1.1762  0.4287
 2969TIP3    H2 8872   3.838   3.873   4.510 -1.3738 -1.0315 -0.9917
 2970TIP3   OH2 8873   3.836   3.670   5.753 -0.3350  0.2019  0.9390
 2970TIP3    H1 8874   3.808   3.737   5.815 -1.6518  0.3925  0.1640
 2970TIP3    H2 8875   3.760   3.656   5.696  0.2174 -1.3127  0.5343
 2971TIP3   OH2 8876   5.168   0.692   4.042  0.2025  0.3443  0.2252
 2971TIP3    H1 8877   5.179   0.736   4.126 -0.5178 -0.5873  0.8375
 2971TIP3    H2 8878   5.205   0.752   3.977 -0.7815  1.8492  1.0063
 2972TIP3   OH2 8879   5.938   2.746   2.733  0.6045 -0.7387  0.1702
 2972TIP3    H1 8880   5.976   2.707   2.654 -0.7596 -0.6916 -0.5388
 2972TIP3    H2 8881   5.901   2.672   2.780 -2.4928 -0.3639 -1.4558
 2973TIP3   OH2 8882   2.095   3.347   3.164  0.6969  0.1000  0.5429
 2973TIP3    H1 8883   2.063   3.400   3.236  0.7908  2.0603 -0.7737
 2973TIP3    H2 8884   2.187   3.372   3.155  0.8303 -0.5295  0.1020
 2974TIP3   OH2 8885   6.015   2.483   1.479 -0.4107 -0.2343  0.1790
 2974TIP3    H1 8886   5.922   2.464   1.474 -1.1233  2.5808  0.8190
 2974TIP3    H2 8887   6.027   2.559   1.422  1.9291 -1.6802 -1.4286
 2975TIP3   OH2 8888   6.182   1.791   0.967 -0.2319 -0.1810  0.2220
 2975TIP3    H1 8889   6.136   1.737   1.031  0.9350  0.8156  1.9676
 2975TIP3    H2 8890   6.124   1.865   0.950 -0.3222 -0.1780  0.5410
 2976TIP3   OH2 8891   6.878   4.215   5.425 -0.0386  0.4551 -0.1501
 2976TIP3    H1 8892   6.897   4.162   5.503 -0.8715  0.3882  0.0190
 2976TIP3    H2 8893   6.818   4.161   5.374 -2.6872  2.0124  1.0464
 2977TIP3   OH2 8894   6.278   1.302   2.674  0.1703 -0.4781  0.2983
 2977TIP3    H1 8895   6.215   1.266   2.611  0.6973 -0.9220  0.0198
 2977TIP3    H2 8896   6.227   1.366   2.724 -0.5825 -1.0549  0.2854
 2978TIP3   OH2 8897   4.934   6.340   0.904 -0.4876  0.3797 -0.1439
 2978TIP3    H1 8898   4.895   6.306   0.985 -2.6988  1.4162 -0.6874
 2978TIP3    H2 8899   4.961   6.429   0.926  3.2764 -0.7825  0.6659
 2979TIP3   OH2 8900   3.601   2.328   0.641 -0.0129  0.6591  0.0377
 2979TIP3    H1 8901   3.615   2.235   0.656 -1.2594  0.4431 -0.0197
 2979TIP3    H2 8902   3.662   2.372   0.700  0.1093 -0.1849  0.5466
 2980TIP3   OH2 8903   3.343   5.619   0.302 -0.2122  0.2915 -0.4061
 2980TIP3    H1 8904   3.429   5.579   0.313 -0.1059  0.4512 -0.6512
 2980TIP3    H2 8905   3.353   5.676   0.225 -0.4139  0.6394 -0.1753
 2981TIP3   OH2 8906   3.981   2.468   5.369  0.1380 -0.1216  0.1281
 2981TIP3    H1 8907   3.895   2.427   5.378  0.5430 -1.7561 -2.4125
 2981TIP3    H2 8908   4.024   2.417   5.301  3.5461 -0.0117  2.0045
 2982TIP3   OH2 8909   3.497   5.021   4.527 -0.2534  0.3324 -0.0759
 2982TIP3    H1 8910   3.489   5.116   4.518 -2.7218  0.2689  0.6873
 2982TIP3    H2 8911   3.529   5.007   4.616  0.4389  0.4327 -0.3028
 2983TIP3   OH2 8912   4.931   6.614   2.543  0.7247 -0.1003  0.4086
 2983TIP3    H1 8913   4.899   6.605   2.633 -0.1493 -0.1535  0.1043
 2983TIP3    H2 8914   4.870   6.562   2.491  0.6128  0.7590 -0.3379
 2984TIP3   OH2 8915   4.776   4.954   4.501 -0.0500  0.0134 -0.0590
 2984TIP3    H1 8916   4.868   4.927   4.507  0.6213  2.0912 -0.1941
 2984TIP3    H2 8917   4.753   4.979   4.591 -0.6964 -1.0045  0.0836
 2985TIP3   OH2 8918   2.983   3.844   0.440 -0.1600  0.1938 -0.2215
 2985TIP3    H1 8919   2.958   3.791   0.364 -0.6934 -0.3488  0.3151
 2985TIP3    H2 8920   3.008   3.779   0.506 -2.1150  0.5051  0.9107
 2986TIP3   OH2 8921   6.930   4.054   0.294 -0.2510  0.4897  0.0798
 2986TIP3    H1 8922   6.909   4.131   0.347  0.3941  1.0821 -0.5065
 2986TIP3    H2 8923   6.850   4.036   0.245 -0.6771  0.2642  0.8381
 2987TIP3   OH2 8924   0.935   0.542   1.516 -0.2678 -0.1349  0.0368
 2987TIP3    H1 8925   0.868   0.597   1.475  0.7619  0.5964 -0.7021
 2987TIP3    H2 8926   1.000   0.604   1.549  0.1719 -0.8513  0.5401
 2988TIP3   OH2 8927   1.786   6.363   3.593  0.2695 -0.0768  0.0265
 2988TIP3    H1 8928   1.877   6.381   3.570  0.2202  0.1837  0.0381
 2988TIP3    H2 8929   1.748   6.325   3.514  0.2912  0.1560 -0.0954
 2989TIP3   OH2 8930   1.994   1.664   5.479 -0.1726 -0.1376  0.0494
 2989TIP3    H1 8931   2.001   1.727   5.551 -0.4628  1.5222 -1.3051
 2989TIP3    H2 8932   1.905   1.677   5.445  0.3016 -0.1367 -1.2460
 2990TIP3   OH2 8933   5.538   3.656   1.863 -0.4586  0.1181  0.6093
 2990TIP3    H1 8934   5.448   3.627   1.848 -0.5745 -0.4222  2.1465
 2990TIP3    H2 8935   5.589   3.614   1.794 -1.5270  1.4260 -1.0446
 2991TIP3   OH2 8936   2.584   6.313   2.990  0.1271 -0.1854 -0.1346
 2991TIP3    H1 8937   2.610   6.373   3.059 -0.7075  0.0053  0.0234
 2991TIP3    H2 8938   2.525   6.364   2.934 -1.1571 -1.0458  0.3975
 2992TIP3   OH2 8939   1.849   2.979   0.050 -0.2110 -0.8619  0.2377
 2992TIP3    H1 8940   1.894   2.960  -0.032 -1.7286 -3.7440 -0.0229
 2992TIP3    H2 8941   1.870   2.905   0.107  1.0442  1.1916  2.6726
 2993TIP3   OH2 8942   7.166   5.787   3.194 -0.0378  0.3106  0.3276
 2993TIP3    H1 8943   7.160   5.854   3.126  1.7568  2.1297  1.8217
 2993TIP3    H2 8944   7.109   5.818   3.264 -1.6432 -1.3894 -0.1590
 2994TIP3   OH2 8945   0.921   0.056   2.383 -0.2153 -0.4519  0.3151
 2994TIP3    H1 8946   0.946   0.097   2.466  0.5462 -2.5331  1.2085
 2994TIP3    H2 8947   0.825   0.056   2.384 -0.2363  1.1300  0.3191
 2995TIP3   OH2 8948   0.350   1.987   1.449 -0.6589 -0.0490  0.0220
 2995TIP3    H1 8949   0.414   2.026   1.508  0.1266 -1.1248 -0.0789
 2995TIP3    H2 8950   0.384   2.005   1.361  0.7815 -2.5250 -0.0249
 2996TIP3   OH2 8951   1.303   6.254   5.213  0.2484  0.4727 -0.4110
 2996TIP3    H1 8952   1.308   6.333   5.160 -0.9372  0.2878 -0.8105
 2996TIP3    H2 8953   1.381   6.204   5.188  0.2834  0.8865 -1.1450
 2997TIP3   OH2 8954   3.955   4.153   5.101 -0.1389 -0.0791  0.1374
 2997TIP3    H1 8955   3.889   4.084   5.113  1.2033 -1.3193  0.6095
 2997TIP3    H2 8956   3.999   4.160   5.186  2.0611 -1.1302 -0.8398
 2998TIP3   OH2 8957   2.897   2.671   3.507  0.4325 -0.2767 -0.3747
 2998TIP3    H1 8958   2.935   2.699   3.591 -0.6924 -0.2581  0.1375
 2998TIP3    H2 8959   2.973   2.652   3.452  1.2183  1.6993 -0.0359
 2999TIP3   OH2 8960   0.178   1.112   1.481  0.6894  0.3512 -0.3074
 2999TIP3    H1 8961   0.135   1.116   1.395 -0.1816  0.3455  0.1222
 2999TIP3    H2 8962   0.262   1.157   1.468  1.2106 -0.9035 -1.5294
 3000TIP3   OH2 8963   3.337   6.111   2.179 -0.2021 -0.2294  0.1707
 3000TIP3    H1 8964   3.392   6.186   2.200  2.5582 -1.5440 -1.7399
 3000TIP3    H2 8965   3.340   6.055   2.257 -2.2444  1.4881  1.5880
 3001TIP3   OH2 8966   5.482   6.321   1.802  0.0691 -0.8292  0.1306
 3001TIP3    H1 8967   5.388   6.303   1.801  0.0085 -0.5098 -0.3084
 3001TIP3    H2 8968   5.523   6.235   1.809 -0.2430 -1.0191 -0.3423
 3002TIP3   OH2 8969   0.030   0.681   1.160 -0.0665 -0.0008 -0.1398
 3002TIP3    H1 8970  -0.055   0.682   1.115  0.7739  1.6100 -1.8084
 3002TIP3    H2 8971   0.028   0.600   1.212 -2.3436 -0.3410 -0.6311
 3003TIP3   OH2 8972   3.678   0.297   3.730  0.3596 -0.3038 -0.0325
 3003TIP3    H1 8973   3.721   0.355   3.667  2.0584 -0.8753  0.5576
 3003TIP3    H2 8974   3.678   0.347   3.812  1.4519 -0.9596  0.3773
 3004TIP3   OH2 8975   3.794   2.173   0.195  0.1549 -0.0262  0.2406
 3004TIP3    H1 8976   3.709   2.142   0.163  1.4939 -1.4920 -2.3090
 3004TIP3    H2 8977   3.831   2.098   0.241 -0.5986  1.2117  3.0940
 3005TIP3   OH2 8978   4.769   2.922   1.227 -0.3843  0.2808 -0.1706
 3005TIP3    H1 8979   4.794   2.946   1.138  1.3618  0.4477  0.3222
 3005TIP3    H2 8980   4.829   2.972   1.283 -0.3829 -1.0152  1.0387
 3006TIP3   OH2 8981   5.651   0.799   1.376 -0.6252  0.9380  0.4102
 3006TIP3    H1 8982   5.732   0.814   1.327 -1.4788  0.4217 -1.2279
 3006TIP3    H2 8983   5.616   0.887   1.391 -0.2850  1.1084  0.2237
 3007TIP3   OH2 8984   3.266   6.729   5.214  0.0010  0.0919  0.2178
 3007TIP3    H1 8985   3.250   6.760   5.303 -1.0162  1.8813 -0.5540
 3007TIP3    H2 8986   3.303   6.641   5.226  0.8505  0.6881  2.4189
 3008TIP3   OH2 8987   1.392   2.843   1.366  0.8105  0.2621 -0.2870
 3008TIP3    H1 8988   1.317   2.901   1.382 -1.7377 -3.1332  1.2196
 3008TIP3    H2 8989   1.385   2.819   1.274 -0.3782 -0.4642 -0.0294
 3009TIP3   OH2 8990   4.988   1.413   2.869 -0.2458 -0.4019  0.3854
 3009TIP3    H1 8991   4.894   1.399   2.866 -0.6878  2.0612  0.6868
 3009TIP3    H2 8992   5.016   1.374   2.952 -1.1477 -0.3785  0.7076
 3010TIP3   OH2 8993   2.416   0.578   0.819 -0.2787 -0.4614 -0.1010
 3010TIP3    H1 8994   2.507   0.608   0.821 -0.6363  0.7573  2.9819
 3010TIP3    H2 8995   2.417   0.500   0.763  2.3675  0.2995 -1.2419
 3011TIP3   OH2 8996   4.530   0.851   5.649 -0.1314 -0.1964 -0.0150
 3011TIP3    H1 8997   4.467   0.922   5.658 -1.3152 -1.1725 -0.3489
 3011TIP3    H2 8998   4.565   0.862   5.560  2.3454  2.0165  1.0784
 3012TIP3   OH2 8999   6.550   2.026   4.682 -0.1365 -0.4484  0.1788
 3012TIP3    H1 9000   6.610   2.101   4.677  0.3111 -0.6517  1.8902
 3012TIP3    H2 9001   6.542   1.996   4.591  2.0798 -0.1944 -0.1663
 3013TIP3   OH2 9002   3.502   3.070   1.635  0.2167  0.0079  0.2586
 3013TIP3    H1 9003   3.501   3.077   1.540 -0.6171  0.1271  0.2675
 3013TIP3    H2 9004   3.572   3.128   1.663  1.7097 -1.4053 -0.3761
 3014TIP3   OH2 9005   1.464   6.139   1.606 -0.4070  0.1798 -0.2545
 3014TIP3    H1 9006   1.460   6.118   1.513  0.8553 -2.4113  0.1584
 3014TIP3    H2 9007   1.387   6.097   1.644 -0.6698  0.8240 -0.0662
 3015TIP3   OH2 9008   2.840   6.054   4.286  0.3086 -0.5843 -0.0443
 3015TIP3    H1 9009   2.920   6.089   4.326 -0.5447 -0.4525  1.6569
 3015TIP3    H2 9010   2.770   6.086   4.342 -0.7372 -2.7796  0.0069
 3016TIP3   OH2 9011   5.460   2.270   4.716  0.3293  0.4375  0.2616
 3016TIP3    H1 9012   5.463   2.177   4.737  2.5601  0.1825 -0.9606
 3016TIP3    H2 9013   5.408   2.275   4.635  1.5616  0.0284 -0.5782
 3017TIP3   OH2 9014   7.236   1.568   1.103 -0.3292 -0.4415 -0.0050
 3017TIP3    H1 9015   7.247   1.609   1.017 -0.6824  1.1311  0.6859
 3017TIP3    H2 9016   7.143   1.546   1.107 -0.0726 -1.7251 -0.5278
 3018TIP3   OH2 9017   7.199   6.376   3.013  0.1629 -0.0915 -0.0320
 3018TIP3    H1 9018   7.187   6.364   2.919 -1.7368  0.6263  0.0705
 3018TIP3    H2 9019   7.231   6.291   3.044  0.5187 -0.4295 -1.2718
 3019TIP3   OH2 9020   0.027   6.116   0.405 -0.4126  0.7767  0.5061
 3019TIP3    H1 9021   0.017   6.123   0.310 -2.0199  1.3049  0.6874
 3019TIP3    H2 9022   0.088   6.043   0.417 -0.4240  0.5016 -0.9111
 3020TIP3   OH2 9023   4.324   0.299   0.922  0.0607  0.2789 -0.5902
 3020TIP3    H1 9024   4.373   0.267   0.998  1.4610  2.4973 -0.4591
 3020TIP3    H2 9025   4.233   0.307   0.953  0.3102 -0.3625  0.3373
 3021TIP3   OH2 9026   4.248   5.948   2.690 -0.1899 -0.2662  0.2706
 3021TIP3    H1 9027   4.315   5.953   2.758 -0.7761  0.6531  0.8027
 3021TIP3    H2 9028   4.182   5.889   2.726 -1.3216  1.5298  1.2826
 3022TIP3   OH2 9029   1.792   1.622   5.160  0.0143 -0.5491  0.0667
 3022TIP3    H1 9030   1.789   1.702   5.107  0.7128 -1.2632 -1.0974
 3022TIP3    H2 9031   1.763   1.650   5.247 -2.9950  0.3054 -1.0911
 3023TIP3   OH2 9032   1.617   3.953   4.923  0.1036 -0.0254  0.3851
 3023TIP3    H1 9033   1.558   4.028   4.937  1.9455  1.4646  0.5788
 3023TIP3    H2 9034   1.559   3.878   4.915 -1.7560  1.1739  1.8609
 3024TIP3   OH2 9035   6.234   0.183   3.503  0.1634 -0.4201  0.1895
 3024TIP3    H1 9036   6.181   0.113   3.466 -0.4333  0.1795 -0.1031
 3024TIP3    H2 9037   6.199   0.264   3.464  2.5050 -0.1308 -1.5521
 3025TIP3   OH2 9038   3.577   1.558   4.801 -0.4879 -0.3165 -0.1845
 3025TIP3    H1 9039   3.573   1.604   4.885  2.1753 -0.8057  0.3261
 3025TIP3    H2 9040   3.523   1.610   4.742 -1.5770  0.6296  1.5679
 3026TIP3   OH2 9041   3.525   6.573   5.737  0.6071  0.1077 -0.4651
 3026TIP3    H1 9042   3.596   6.548   5.796  0.4064 -0.1547 -0.3325
 3026TIP3    H2 9043   3.510   6.496   5.683 -0.3368 -0.2334  0.2615
 3027TIP3   OH2 9044   6.783   0.545   2.075  0.2124 -0.2146  0.4185
 3027TIP3    H1 9045   6.710   0.526   2.016  0.8888 -0.0196 -0.5052
 3027TIP3    H2 9046   6.849   0.478   2.054  1.8514  1.8223 -1.5236
 3028TIP3   OH2 9047   4.887   2.138   0.076 -0.2742 -0.2271  0.2582
 3028TIP3    H1 9048   4.831   2.156   0.152 -1.0598 -0.7452 -0.1852
 3028TIP3    H2 9049   4.945   2.068   0.106  0.6057  0.7732  0.9373
 3029TIP3   OH2 9050   1.928   3.490   3.647 -0.2920  0.2369 -0.2867
 3029TIP3    H1 9051   1.926   3.442   3.564  3.0120 -0.7878  0.0787
 3029TIP3    H2 9052   1.909   3.423   3.714  0.7386  0.1962 -0.0159
 3030TIP3   OH2 9053   1.484   1.966   4.705  0.1976 -0.3832  0.3296
 3030TIP3    H1 9054   1.565   1.996   4.745  0.4960 -0.2678 -0.3430
 3030TIP3    H2 9055   1.506   1.951   4.613 -0.6990  0.2979 -0.0187
 3031TIP3   OH2 9056   3.749   2.758   1.330  0.0658 -0.2555  0.0190
 3031TIP3    H1 9057   3.693   2.683   1.351 -2.8489  1.7661  0.1003
 3031TIP3    H2 9058   3.729   2.776   1.238 -0.8246  1.5544  0.5263
 3032TIP3   OH2 9059   0.831   6.207   5.463  0.4291 -0.3619  0.1204
 3032TIP3    H1 9060   0.785   6.287   5.489  0.1647 -1.0530  1.9312
 3032TIP3    H2 9061   0.830   6.209   5.367 -3.3634 -0.2983 -0.0108
 3033TIP3   OH2 9062   3.109   5.656   4.345 -0.5652 -0.4533 -0.0078
 3033TIP3    H1 9063   3.115   5.562   4.330  0.3367 -0.4934  0.5510
 3033TIP3    H2 9064   3.015   5.673   4.354 -0.8871 -0.9949 -1.9246
 3034TIP3   OH2 9065   0.424   3.045   3.580 -0.4537 -0.0854 -0.0760
 3034TIP3    H1 9066   0.468   3.061   3.497  1.1349 -0.0704  0.7251
 3034TIP3    H2 9067   0.450   3.118   3.636 -0.8088 -0.5364  0.7044
 3035TIP3   OH2 9068   2.360   4.629   4.023  0.1619  0.3529  0.1959
 3035TIP3    H1 9069   2.412   4.564   3.976  0.9117  0.5983  0.6623
 3035TIP3    H2 9070   2.374   4.609   4.116  0.5978  1.3041  0.3551
 3036TIP3   OH2 9071   0.436   1.326   1.226 -0.5058 -1.1603  0.0476
 3036TIP3    H1 9072   0.465   1.250   1.176 -0.9024 -0.4730 -1.2557
 3036TIP3    H2 9073   0.420   1.394   1.161 -0.8518 -0.1699  1.1240
 3037TIP3   OH2 9074   2.433   0.540   2.327 -0.7670 -0.4248 -0.0198
 3037TIP3    H1 9075   2.404   0.505   2.243 -1.8148  2.2537 -0.8705
 3037TIP3    H2 9076   2.368   0.509   2.390 -0.9453 -1.0389 -0.4966
 3038TIP3   OH2 9077   6.082   4.457   4.862 -0.1298  0.2677 -0.4736
 3038TIP3    H1 9078   6.071   4.492   4.773  0.2663 -1.4700 -1.2415
 3038TIP3    H2 9079   6.171   4.481   4.886 -0.5483  1.5813 -0.1194
 3039TIP3   OH2 9080   6.842   4.320   3.659  0.3397  0.1159  0.3124
 3039TIP3    H1 9081   6.791   4.400   3.673  1.3428  1.0246 -0.9158
 3039TIP3    H2 9082   6.895   4.311   3.738 -0.8928 -0.2249  1.1260
 3040TIP3   OH2 9083   2.795   4.619   0.865  0.2945  0.9842 -0.3345
 3040TIP3    H1 9084   2.825   4.528   0.861 -2.2317  0.0197  1.0210
 3040TIP3    H2 9085   2.814   4.647   0.955 -1.0886  0.9673 -0.0185
 3041TIP3   OH2 9086   1.891   0.129   4.195  0.0553 -0.2916  0.2350
 3041TIP3    H1 9087   1.983   0.121   4.219  0.5396  2.5809 -0.2987
 3041TIP3    H2 9088   1.863   0.212   4.233 -2.0828 -0.6646 -0.3794
 3042TIP3   OH2 9089   3.067   4.774   2.544  1.1269 -0.4238  0.2306
 3042TIP3    H1 9090   3.100   4.777   2.634  3.1509 -1.0033 -0.4310
 3042TIP3    H2 9091   3.027   4.687   2.537 -0.5831  0.2585  1.0254
 3043TIP3   OH2 9092   2.667   4.152   4.282 -0.1401  0.3878  0.3793
 3043TIP3    H1 9093   2.701   4.138   4.194 -0.6159  0.4551  0.1831
 3043TIP3    H2 9094   2.735   4.204   4.326  0.2862  0.0037  0.1875
 3044TIP3   OH2 9095   2.271   0.297   5.374 -0.5940 -0.5305 -0.0370
 3044TIP3    H1 9096   2.321   0.258   5.446  0.2808  0.4992 -0.0547
 3044TIP3    H2 9097   2.257   0.388   5.401  0.8342  0.2455 -1.6460
 3045TIP3   OH2 9098   6.339   2.605   4.635  0.3374  0.5940  0.3637
 3045TIP3    H1 9099   6.281   2.569   4.567  1.9215 -1.2095 -0.1345
 3045TIP3    H2 9100   6.302   2.574   4.717  0.0787  0.2266  0.1135
 3046TIP3   OH2 9101   0.354   6.308   0.594  0.0192  0.1065 -0.0808
 3046TIP3    H1 9102   0.391   6.357   0.521  0.3373  0.4987  0.3389
 3046TIP3    H2 9103   0.260   6.322   0.587  0.0903  0.5888 -0.0963
 3047TIP3   OH2 9104   1.801   4.772   4.136 -0.4104 -0.1605 -0.5533
 3047TIP3    H1 9105   1.807   4.705   4.204  0.3671 -0.2898 -0.7395
 3047TIP3    H2 9106   1.886   4.769   4.092 -1.3605 -1.0409 -2.4329
 3048TIP3   OH2 9107   0.790   1.068   0.505 -0.3040 -0.4594 -0.0216
 3048TIP3    H1 9108   0.837   1.144   0.537 -1.7896  0.7106 -0.4959
 3048TIP3    H2 9109   0.850   0.995   0.518  0.6590  0.5784  1.6682
 3049TIP3   OH2 9110   2.282   2.317   4.659  0.0525 -0.3006 -0.6638
 3049TIP3    H1 9111   2.211   2.337   4.720  1.6352 -0.3544  1.2946
 3049TIP3    H2 9112   2.358   2.300   4.715  2.0071  1.2050 -2.6867
 3050TIP3   OH2 9113   0.718   1.711   1.523 -0.6621 -0.4670  0.0005
 3050TIP3    H1 9114   0.763   1.672   1.597 -0.3457  0.0414  0.0800
 3050TIP3    H2 9115   0.625   1.690   1.537 -0.3395 -2.8819 -0.9777
 3051TIP3   OH2 9116   1.738   0.887   2.723 -0.2908  0.1966  0.1169
 3051TIP3    H1 9117   1.717   0.905   2.631  2.1518  1.2006 -0.3132
 3051TIP3    H2 9118   1.679   0.944   2.772 -2.1073 -0.8483 -0.7522
 3052TIP3   OH2 9119   1.847   3.141   0.783 -0.2341 -0.4646 -0.0154
 3052TIP3    H1 9120   1.758   3.107   0.778 -0.6429  0.6689 -1.0808
 3052TIP3    H2 9121   1.888   3.093   0.856 -2.4347  0.5912  2.0616
 3053TIP3   OH2 9122   0.335   5.638   0.695  0.6025  0.2696  0.0417
 3053TIP3    H1 9123   0.304   5.602   0.612 -0.5316 -2.1409  1.4164
 3053TIP3    H2 9124   0.262   5.690   0.728  0.9993  1.1074 -0.3782
 3054TIP3   OH2 9125   3.072   0.357   1.067  0.5543 -0.0985 -0.1212
 3054TIP3    H1 9126   3.102   0.445   1.048 -0.7765  0.4055 -0.0250
 3054TIP3    H2 9127   3.124   0.329   1.142  2.2845 -0.1427 -1.2740
 3055TIP3   OH2 9128   4.855   2.678   2.168 -0.0797  0.6471 -0.6937
 3055TIP3    H1 9129   4.900   2.753   2.130  0.1675  0.7990 -0.1242
 3055TIP3    H2 9130   4.916   2.605   2.155  0.1816  0.7782 -0.2557
 3056TIP3   OH2 9131   0.545   3.608   0.247  0.1200  0.0346 -0.3174
 3056TIP3    H1 9132   0.575   3.695   0.272 -2.1786  1.2777 -1.6346
 3056TIP3    H2 9133   0.572   3.599   0.155  1.2766 -1.1140  0.1088
 3057TIP3   OH2 9134   1.226   5.831   4.084 -0.1422  0.2348  0.2362
 3057TIP3    H1 9135   1.262   5.749   4.118 -1.0798 -0.1055  0.4423
 3057TIP3    H2 9136   1.135   5.811   4.064  0.0467  0.7884 -1.2852
 3058TIP3   OH2 9137   3.072   3.259   0.061 -0.4443  0.0461 -0.0663
 3058TIP3    H1 9138   3.116   3.174   0.057 -0.0074  0.2231  0.7665
 3058TIP3    H2 9139   3.016   3.254   0.139  1.5127  1.3926  1.5348
 3059TIP3   OH2 9140   6.614   4.564   1.058  0.3227 -0.0603 -0.2622
 3059TIP3    H1 9141   6.580   4.651   1.038  0.7335  0.5077  1.3696
 3059TIP3    H2 9142   6.707   4.578   1.077  0.2976 -0.7791  0.4384
 3060TIP3   OH2 9143   5.822   4.459   0.402  0.0015 -0.1804  0.1457
 3060TIP3    H1 9144   5.911   4.488   0.423 -0.3472  0.3988  0.8585
 3060TIP3    H2 9145   5.832   4.407   0.322  0.8717  0.5109 -0.2059
 3061TIP3   OH2 9146   3.646   5.829   5.832 -0.5866 -0.0836 -0.5373
 3061TIP3    H1 9147   3.720   5.889   5.843  0.2629 -1.5235  3.3115
 3061TIP3    H2 9148   3.671   5.775   5.757  1.3759  0.7174 -0.5338
 3062TIP3   OH2 9149   3.347   3.099   2.061 -0.4894  0.1270  0.5088
 3062TIP3    H1 9150   3.376   3.135   2.145  0.3861  0.3419  0.1291
 3062TIP3    H2 9151   3.366   3.168   1.998 -1.1364 -0.0369  0.1246
 3063TIP3   OH2 9152   4.794   4.883   0.127  0.4666  0.0990  0.1721
 3063TIP3    H1 9153   4.823   4.909   0.040 -0.7600 -0.2104 -0.3559
 3063TIP3    H2 9154   4.846   4.937   0.187  0.8565  0.7963 -0.7663
 3064TIP3   OH2 9155   2.166   6.054   1.126 -0.4598 -0.2028  1.0633
 3064TIP3    H1 9156   2.261   6.055   1.136 -0.1690 -0.3464 -1.1455
 3064TIP3    H2 9157   2.132   6.050   1.215  1.4715  4.5218  2.3270
 3065TIP3   OH2 9158   3.786   5.071   1.934  0.1977  0.2640 -0.5351
 3065TIP3    H1 9159   3.875   5.077   1.899  0.3870 -1.5252 -0.4323
 3065TIP3    H2 9160   3.729   5.072   1.856  0.5612 -2.6081 -0.9500
 3066TIP3   OH2 9161   5.308   0.332   1.802  0.5588 -0.3777  0.0812
 3066TIP3    H1 9162   5.363   0.256   1.820 -0.5310 -1.6745 -1.7106
 3066TIP3    H2 9163   5.370   0.403   1.786  1.6923 -1.4829 -0.6421
 3067TIP3   OH2 9164   5.870   5.419   5.484 -0.2232  0.0929 -0.2153
 3067TIP3    H1 9165   5.912   5.368   5.554 -0.4379 -1.1762 -0.9813
 3067TIP3    H2 9166   5.930   5.413   5.410 -0.4434  0.6417 -0.4452
 3068TIP3   OH2 9167   2.449   3.150   4.047  0.0515  0.2791 -0.0892
 3068TIP3    H1 9168   2.458   3.218   3.980  0.7601  0.1610 -0.1207
 3068TIP3    H2 9169   2.492   3.186   4.124  0.0644  0.0363  0.0170
 3069TIP3   OH2 9170   1.000   0.308   4.529 -0.5440 -0.0559  0.1308
 3069TIP3    H1 9171   0.955   0.388   4.503  1.3826  1.1085  0.2281
 3069TIP3    H2 9172   0.995   0.252   4.451 -0.6685  0.7206 -0.4269
 3070TIP3   OH2 9173   5.790   6.759   0.924  0.0178  0.0701  0.4891
 3070TIP3    H1 9174   5.813   6.852   0.923 -0.1228  0.1543 -1.9643
 3070TIP3    H2 9175   5.857   6.718   0.869 -0.1848 -1.2314  1.1731
 3071TIP3   OH2 9176   7.056   0.508   2.838 -0.0990  0.1562  0.0762
 3071TIP3    H1 9177   7.017   0.584   2.794  0.3366  0.6387  0.4963
 3071TIP3    H2 9178   7.058   0.533   2.931  1.2583  0.1976  0.0699
 3072TIP3   OH2 9179   3.313   0.371   0.268  0.1733  0.0797  0.2551
 3072TIP3    H1 9180   3.297   0.408   0.354 -4.0771 -2.0730  0.6840
 3072TIP3    H2 9181   3.270   0.432   0.207  0.2883 -0.0447  0.0477
 3073TIP3   OH2 9182   3.967   3.595   1.897  0.1814 -0.6645  0.0739
 3073TIP3    H1 9183   3.881   3.577   1.934  0.2360  0.2588  0.6859
 3073TIP3    H2 9184   3.964   3.687   1.872  0.7226 -0.8357 -0.6512
 3074TIP3   OH2 9185   5.296   0.686   2.507  0.0039  0.3116 -0.0711
 3074TIP3    H1 9186   5.281   0.603   2.552  0.3873 -0.0946 -0.6813
 3074TIP3    H2 9187   5.293   0.664   2.414 -0.8884  1.1596 -0.2595
 3075TIP3   OH2 9188   6.789   4.657   0.456 -0.4057  0.0577  0.5561
 3075TIP3    H1 9189   6.728   4.628   0.524  0.3065  1.3793  1.8191
 3075TIP3    H2 9190   6.779   4.752   0.454 -0.6700  0.0334 -1.4853
 3076TIP3   OH2 9191   3.006   4.354   1.413 -0.3811  0.4410  0.2025
 3076TIP3    H1 9192   3.016   4.269   1.369 -0.2635  0.8864 -0.6493
 3076TIP3    H2 9193   3.033   4.338   1.503 -0.4011 -0.4368  0.0585
 3077TIP3   OH2 9194   6.946   0.795   3.958 -0.3194 -0.0082  0.4243
 3077TIP3    H1 9195   6.952   0.888   3.935  1.1858  0.3101  1.8712
 3077TIP3    H2 9196   6.857   0.784   3.992 -0.2268  1.1425  1.0978
 3078TIP3   OH2 9197   4.917   0.295   1.889 -0.2989  0.2185  0.0417
 3078TIP3    H1 9198   4.929   0.202   1.873 -2.1770  0.0460 -0.6303
 3078TIP3    H2 9199   4.959   0.338   1.815  0.8624 -0.0540  0.5216
 3079TIP3   OH2 9200   0.843   4.771   2.540 -0.7553 -0.0841 -0.3105
 3079TIP3    H1 9201   0.924   4.735   2.577 -0.4852  1.0340  0.2140
 3079TIP3    H2 9202   0.867   4.798   2.451 -1.2607 -2.2283 -1.1813
 3080TIP3   OH2 9203   1.042   1.229   1.131 -0.0121  0.1157 -0.9130
 3080TIP3    H1 9204   1.028   1.143   1.092  3.4844 -1.8263  1.5388
 3080TIP3    H2 9205   1.072   1.210   1.220  2.3103  3.8247 -0.7135
 3081TIP3   OH2 9206   6.350   2.016   5.240 -0.7650  0.1590  0.3469
 3081TIP3    H1 9207   6.445   2.016   5.229 -0.9876  1.2017 -2.5770
 3081TIP3    H2 9208   6.336   1.996   5.332  2.3468  1.9869  1.3676
 3082TIP3   OH2 9209   1.665   0.944   3.267  0.1270 -0.2423 -0.3999
 3082TIP3    H1 9210   1.674   1.039   3.280 -2.1291 -0.1067  0.6423
 3082TIP3    H2 9211   1.623   0.936   3.181 -1.1204 -0.1887  0.1903
 3083TIP3   OH2 9212   3.551   2.050   0.144 -0.5679 -0.5600 -0.2276
 3083TIP3    H1 9213   3.523   2.019   0.229  0.9597 -0.5232  0.3201
 3083TIP3    H2 9214   3.480   2.108   0.115 -1.9334 -1.9782  0.1780
 3084TIP3   OH2 9215   4.434   5.920   5.694 -0.0486 -0.1975 -0.2185
 3084TIP3    H1 9216   4.418   5.870   5.774 -0.0495  0.0426 -0.0682
 3084TIP3    H2 9217   4.425   5.856   5.623 -3.9847  0.2779 -0.3825
 3085TIP3   OH2 9218   6.774   4.945   4.945  0.2505  0.1093  0.1282
 3085TIP3    H1 9219   6.858   4.905   4.968  0.3633 -0.4558 -1.1747
 3085TIP3    H2 9220   6.709   4.890   4.989  0.5661  1.0561  1.8557
 3086TIP3   OH2 9221   2.291   5.262   1.418  0.7592  0.5625  0.3179
 3086TIP3    H1 9222   2.352   5.335   1.427  1.4273 -0.1986  2.5588
 3086TIP3    H2 9223   2.248   5.256   1.504 -0.6440 -0.5135 -0.4174
 3087TIP3   OH2 9224   6.602   6.165   0.071  0.2059 -0.1171 -0.3906
 3087TIP3    H1 9225   6.601   6.110   0.149  0.4294 -0.6907 -0.7868
 3087TIP3    H2 9226   6.511   6.190   0.058  0.2814  0.6879  0.5411
 3088TIP3   OH2 9227   4.953   5.096   4.008  0.2163  0.0153  0.2719
 3088TIP3    H1 9228   5.014   5.156   3.964 -0.0019 -0.0969 -0.1879
 3088TIP3    H2 9229   5.004   5.016   4.021  0.4288  0.2120  0.6559
 3089TIP3   OH2 9230   5.511   0.471   0.395 -0.4824  0.0775 -0.5358
 3089TIP3    H1 9231   5.508   0.466   0.299  0.6253 -0.3713 -0.5652
 3089TIP3    H2 9232   5.554   0.389   0.421 -0.5286  0.3251  0.3334
 3090TIP3   OH2 9233   2.886   6.754   1.683  0.2466  0.4041 -0.2344
 3090TIP3    H1 9234   2.853   6.678   1.731 -1.5789  0.9750 -0.5090
 3090TIP3    H2 9235   2.899   6.821   1.751  1.9960 -0.1375  0.0290
 3091TIP3   OH2 9236   5.918   2.565   2.970  0.6529  0.3677  0.0567
 3091TIP3    H1 9237   5.930   2.619   3.048  2.9375 -0.2407  0.2089
 3091TIP3    H2 9238   6.007   2.540   2.944  0.0114  0.6909 -2.8685
 3092TIP3   OH2 9239   3.128   0.293   5.784  0.0061  0.1803  0.2796
 3092TIP3    H1 9240   3.071   0.320   5.712 -0.7681 -1.1724  0.3573
 3092TIP3    H2 9241   3.205   0.350   5.777  0.2513 -0.3689 -1.9939
 3093TIP3   OH2 9242   1.701   1.128   5.234 -0.2827 -0.4032  0.4635
 3093TIP3    H1 9243   1.709   1.036   5.209 -1.7939 -0.5038  0.2596
 3093TIP3    H2 9244   1.672   1.126   5.326  1.5296 -0.0819  1.0775
 3094TIP3   OH2 9245   1.995   4.572   1.676  0.2824  0.5317  0.4928
 3094TIP3    H1 9246   1.978   4.527   1.759  0.5863 -0.8666 -0.1767
 3094TIP3    H2 9247   1.931   4.535   1.615 -0.6411  2.2950  0.3128
 3095TIP3   OH2 9248   5.697   1.751   2.477  0.0585  0.3419 -0.3824
 3095TIP3    H1 9249   5.715   1.750   2.383  2.1814  0.1390 -0.0116
 3095TIP3    H2 9250   5.607   1.718   2.484 -0.3497  0.9017 -2.3639
 3096TIP3   OH2 9251   4.820   4.353   2.057 -0.1576  0.3241 -0.0873
 3096TIP3    H1 9252   4.911   4.371   2.034 -0.1650  0.2885 -0.1449
 3096TIP3    H2 9253   4.787   4.298   1.986 -0.1900  0.2392 -0.0077
 3097TIP3   OH2 9254   2.084   0.941   5.792 -0.3256  0.3314 -0.3500
 3097TIP3    H1 9255   2.034   0.871   5.834 -0.7275  2.2432  2.5672
 3097TIP3    H2 9256   2.018   0.999   5.753 -0.1513  0.6956 -0.1030
 3098TIP3   OH2 9257   1.892   3.154   4.439 -0.0493 -0.6362  0.2835
 3098TIP3    H1 9258   1.938   3.093   4.380 -0.8894 -0.4517 -0.5757
 3098TIP3    H2 9259   1.801   3.150   4.411 -0.5156 -0.7261  1.7460
 3099TIP3   OH2 9260   0.911   5.226   1.254  0.2358  0.0518 -0.2100
 3099TIP3    H1 9261   0.946   5.274   1.179  1.4356 -0.6345 -0.1071
 3099TIP3    H2 9262   0.940   5.275   1.331  2.5082 -1.4025 -0.0443
 3100TIP3   OH2 9263   2.000   3.574   5.253 -0.0214  0.0404  0.0720
 3100TIP3    H1 9264   1.974   3.593   5.163  0.1740 -3.1556 -0.7830
 3100TIP3    H2 9265   2.095   3.578   5.251  0.0016 -0.5579  0.0019
 3101TIP3   OH2 9266   5.209   4.465   1.464  0.0922  0.2320 -0.3404
 3101TIP3    H1 9267   5.154   4.466   1.386 -3.2116  0.7241  1.8025
 3101TIP3    H2 9268   5.194   4.379   1.503  0.3633  0.5869  0.5781
 3102TIP3   OH2 9269   2.717   3.361   0.075 -0.0923 -0.6250  0.1422
 3102TIP3    H1 9270   2.658   3.417   0.023 -1.7054 -1.4608  0.9848
 3102TIP3    H2 9271   2.784   3.421   0.108 -1.7853  0.8858  1.0551
 3103TIP3   OH2 9272   3.771   6.015   3.273 -0.1719 -0.2686  0.2103
 3103TIP3    H1 9273   3.705   6.055   3.330  0.1331  0.4637  0.0607
 3103TIP3    H2 9274   3.756   6.054   3.187  0.7800  0.3156  0.2879
 3104TIP3   OH2 9275   4.356   1.716   4.902  0.0080  0.0579  0.2322
 3104TIP3    H1 9276   4.323   1.627   4.886 -0.5544  0.2531  0.2569
 3104TIP3    H2 9277   4.278   1.772   4.894  0.7323  0.8611 -2.1591
 3105TIP3   OH2 9278   4.096   5.001   3.621 -0.3127 -0.4290 -0.6230
 3105TIP3    H1 9279   4.047   4.936   3.571 -2.8177  0.2931  0.7370
 3105TIP3    H2 9280   4.138   5.056   3.555 -2.2581 -0.4191 -1.9173
 3106TIP3   OH2 9281   5.333   4.149   1.819  0.0676 -0.2099  0.1581
 3106TIP3    H1 9282   5.263   4.129   1.757  0.5692 -0.7640 -0.2416
 3106TIP3    H2 9283   5.400   4.082   1.803  1.1103  0.8506 -0.1286
 3107TIP3   OH2 9284   2.665   6.134   2.804 -0.0240 -0.3712 -0.7326
 3107TIP3    H1 9285   2.736   6.128   2.868  0.7588  1.0373 -1.4076
 3107TIP3    H2 9286   2.604   6.198   2.841 -0.4305 -0.8079 -0.6343
 3108TIP3   OH2 9287   5.794   6.410   3.880 -0.0626 -0.5913 -0.4594
 3108TIP3    H1 9288   5.804   6.336   3.940  1.9400 -0.4118 -0.5157
 3108TIP3    H2 9289   5.881   6.450   3.875 -0.6769  0.6970 -1.8187
 3109TIP3   OH2 9290   1.360   0.240   0.920 -0.1039 -0.0612  0.5648
 3109TIP3    H1 9291   1.336   0.196   1.002  0.5598  0.4418  1.0424
 3109TIP3    H2 9292   1.452   0.216   0.906 -0.6978 -1.6188 -1.0076
 3110TIP3   OH2 9293   2.511   0.605   1.957 -0.2040 -0.2188 -0.0792
 3110TIP3    H1 9294   2.441   0.645   1.905 -0.7783  2.4531  2.4322
 3110TIP3    H2 9295   2.468   0.532   2.002 -0.7576 -0.0565 -0.3322
 3111TIP3   OH2 9296   6.996   6.320   1.187 -0.0707 -0.1766 -0.6034
 3111TIP3    H1 9297   7.069   6.328   1.248  0.2905  0.7208 -1.1384
 3111TIP3    H2 9298   6.925   6.285   1.240  0.7760 -1.2074 -0.1008
 3112TIP3   OH2 9299   1.005   4.595   0.631 -0.1895 -0.2773 -0.1337
 3112TIP3    H1 9300   1.002   4.549   0.548 -0.2851 -1.5454  0.5458
 3112TIP3    H2 9301   1.049   4.678   0.612  0.4541 -0.8681 -1.2858
 3113TIP3   OH2 9302   3.361   4.242   1.343  0.3543  0.6068  0.3121
 3113TIP3    H1 9303   3.429   4.282   1.289  1.1101 -0.8296  0.1457
 3113TIP3    H2 9304   3.398   4.242   1.431  0.8170 -0.6403  0.1355
 3114TIP3   OH2 9305   3.662   3.290   1.724  0.1644 -0.0748  0.1162
 3114TIP3    H1 9306   3.617   3.372   1.746  0.5609 -0.2532  1.6894
 3114TIP3    H2 9307   3.713   3.269   1.802  2.5390 -0.2120 -1.3590
 3115TIP3   OH2 9308   4.857   3.771   2.337  0.1648  0.3656  0.9415
 3115TIP3    H1 9309   4.770   3.735   2.356 -1.3667  3.5955  0.7775
 3115TIP3    H2 9310   4.873   3.835   2.406  1.2986  1.5482 -0.3284
 3116TIP3   OH2 9311   4.054   4.937   5.078  0.3462  0.5722  0.8045
 3116TIP3    H1 9312   4.056   4.897   4.991 -0.1780  0.6652  0.7470
 3116TIP3    H2 9313   4.107   4.879   5.132 -0.2620 -0.1124  0.6798
 3117TIP3   OH2 9314   0.260   2.052   0.963  0.2679 -0.0876 -0.8439
 3117TIP3    H1 9315   0.182   2.098   0.995  0.7832 -0.1443  0.5637
 3117TIP3    H2 9316   0.320   2.052   1.038  0.7072 -2.0976 -1.1551
 3118TIP3   OH2 9317   1.561   3.541   3.481 -0.0233  0.5322  0.8669
 3118TIP3    H1 9318   1.558   3.460   3.533 -0.6944 -0.8677 -1.2069
 3118TIP3    H2 9319   1.487   3.533   3.421  0.5333  2.2208 -0.1051
 3119TIP3   OH2 9320   0.585   2.244   2.032 -0.0720 -0.0287 -0.3418
 3119TIP3    H1 9321   0.630   2.274   1.954  0.3267 -0.2660 -0.2041
 3119TIP3    H2 9322   0.613   2.153   2.043 -2.7736 -1.1499 -1.8757
 3120TIP3   OH2 9323   2.923   1.219   4.412  0.0956  0.3773 -0.0113
 3120TIP3    H1 9324   2.913   1.309   4.444 -0.8506 -0.3294  1.8287
 3120TIP3    H2 9325   2.937   1.167   4.491  2.0808 -0.9410 -1.1486
 3121TIP3   OH2 9326   2.130   3.629   0.211 -0.4126 -0.4664  0.6022
 3121TIP3    H1 9327   2.066   3.638   0.282 -0.6474 -1.5328  0.5438
 3121TIP3    H2 9328   2.170   3.543   0.226 -1.1929 -1.1821 -1.1140
 3122TIP3   OH2 9329   3.351   4.086   0.095  0.3446  0.4092 -0.1872
 3122TIP3    H1 9330   3.442   4.115   0.101  0.0191  1.3380  0.5339
 3122TIP3    H2 9331   3.300   4.159   0.131 -0.4581 -1.3768  2.6636
 3123TIP3   OH2 9332   2.478   0.325   3.905  0.6922 -0.2236 -0.9133
 3123TIP3    H1 9333   2.492   0.230   3.909  2.1575  0.0037  0.5854
 3123TIP3    H2 9334   2.514   0.351   3.820 -1.2853 -1.1994 -2.0958
 3124TIP3   OH2 9335   0.513   0.814   4.983 -0.2793  0.0645  0.0552
 3124TIP3    H1 9336   0.598   0.818   4.940 -0.3071  0.3752  0.0262
 3124TIP3    H2 9337   0.478   0.728   4.959 -0.5190  0.4363 -0.9610
 3125TIP3   OH2 9338   3.072   4.577   3.001  0.2335  0.1862  0.5700
 3125TIP3    H1 9339   3.133   4.641   3.036  0.1552  1.1098 -0.8832
 3125TIP3    H2 9340   3.126   4.521   2.945  0.2709 -0.9473  1.7005
 3126TIP3   OH2 9341   0.106   1.171   3.139 -0.5814 -0.2361  0.6127
 3126TIP3    H1 9342   0.130   1.264   3.138 -0.3275 -0.1978  3.4208
 3126TIP3    H2 9343   0.014   1.170   3.111 -0.3772  0.7550 -0.1569
 3127TIP3   OH2 9344   3.055   3.392   3.448 -0.1401  0.0176 -0.5945
 3127TIP3    H1 9345   2.975   3.397   3.500  1.0423  0.3047  1.2742
 3127TIP3    H2 9346   3.054   3.304   3.411 -0.6572 -0.4853  0.5609
 3128TIP3   OH2 9347   3.817   3.914   5.204 -0.2636 -0.1447  0.3721
 3128TIP3    H1 9348   3.766   3.896   5.284  2.3986 -0.6102  2.0785
 3128TIP3    H2 9349   3.902   3.874   5.220  0.9503  1.2709 -2.0264
 3129TIP3   OH2 9350   5.707   5.411   4.811 -0.1375  0.9826 -0.0119
 3129TIP3    H1 9351   5.723   5.319   4.792 -1.3698  0.8189 -0.3282
 3129TIP3    H2 9352   5.634   5.435   4.754 -0.2836  1.9751  0.5721
 3130TIP3   OH2 9353   5.735   2.914   3.559 -0.0893 -0.4835  0.1138
 3130TIP3    H1 9354   5.810   2.973   3.565  1.4645 -2.4442  0.7845
 3130TIP3    H2 9355   5.665   2.960   3.604  0.7137  1.3547 -0.4303
 3131TIP3   OH2 9356   4.618   1.498   3.388  0.3941  0.5907  0.1310
 3131TIP3    H1 9357   4.539   1.551   3.375  0.1200 -0.3274 -2.3310
 3131TIP3    H2 9358   4.609   1.425   3.328  2.1200 -0.7595  1.4001
 3132TIP3   OH2 9359   6.637   4.210   2.100 -0.1371 -0.3952  0.4107
 3132TIP3    H1 9360   6.611   4.138   2.157 -1.8194 -0.2618 -0.1460
 3132TIP3    H2 9361   6.568   4.215   2.034  0.6849  0.8157 -0.4007
 3133TIP3   OH2 9362   3.699   2.018   2.917  0.1555  0.2923  0.1105
 3133TIP3    H1 9363   3.714   2.105   2.879  0.7304 -0.9035 -2.7339
 3133TIP3    H2 9364   3.784   1.993   2.951  0.1514  0.5822  0.3416
 3134TIP3   OH2 9365   3.126   3.475   1.829  0.1054 -0.5456  0.0005
 3134TIP3    H1 9366   3.199   3.441   1.777 -0.0306 -1.8709  0.6460
 3134TIP3    H2 9367   3.052   3.419   1.808  0.3060 -1.8317  2.3686
 3135TIP3   OH2 9368   5.453  -0.012   4.314 -0.3865  0.4774  0.3324
 3135TIP3    H1 9369   5.446   0.080   4.342  0.2940  0.8244 -0.5850
 3135TIP3    H2 9370   5.490  -0.057   4.389 -1.7684  0.7316  1.1979
 3136TIP3   OH2 9371   0.463   5.624   5.894  0.0707  0.0445 -0.3083
 3136TIP3    H1 9372   0.526   5.634   5.823  1.0362  2.5633  0.7997
 3136TIP3    H2 9373   0.495   5.549   5.944  2.2937  1.2565  0.2295
 3137TIP3   OH2 9374   4.406   0.570   1.685 -0.1046  0.3382  0.5490
 3137TIP3    H1 9375   4.489   0.535   1.653 -0.7553  0.4133 -1.3412
 3137TIP3    H2 9376   4.410   0.558   1.780  1.8970  0.0112  0.4698
 3138TIP3   OH2 9377   2.435   6.603   3.978  0.4014 -0.2181 -0.5578
 3138TIP3    H1 9378   2.373   6.531   3.991  1.9104 -1.5468 -0.4852
 3138TIP3    H2 9379   2.385   6.682   4.003 -0.3458 -1.5130  2.5510
 3139TIP3   OH2 9380   5.430   2.463   5.706 -0.3414 -0.2732  0.2292
 3139TIP3    H1 9381   5.402   2.529   5.770  1.2624  1.6353 -0.9400
 3139TIP3    H2 9382   5.383   2.384   5.732 -1.9628  1.1675  2.0150
 3140TIP3   OH2 9383   1.807   0.923   5.458 -0.1911 -0.0554  0.9916
 3140TIP3    H1 9384   1.733   0.865   5.478 -1.4823  1.1273 -0.1314
 3140TIP3    H2 9385   1.837   0.953   5.543  1.5282 -3.4703  1.7564
 3141TIP3   OH2 9386   5.943   3.090   3.567 -0.0320 -0.0231  0.3040
 3141TIP3    H1 9387   6.026   3.043   3.564  0.4310  0.7375  0.9207
 3141TIP3    H2 9388   5.961   3.174   3.524  0.0433  0.9082  2.0572
 3142TIP3   OH2 9389   6.856   2.437   4.675 -0.4631  0.1157  0.3470
 3142TIP3    H1 9390   6.804   2.405   4.602 -0.7870  1.6484 -0.1124
 3142TIP3    H2 9391   6.797   2.495   4.723  0.8278  2.0569 -0.3032
 3143TIP3   OH2 9392   2.984   2.050   1.486 -0.3460  0.0321 -0.1824
 3143TIP3    H1 9393   2.899   2.078   1.519  1.1761  0.4411  3.9629
 3143TIP3    H2 9394   2.984   1.955   1.498 -0.0537  0.0967  0.3700
 3144TIP3   OH2 9395   2.795   1.199   2.963  0.2028  0.5472 -0.2070
 3144TIP3    H1 9396   2.711   1.241   2.979  0.4558  1.0056 -0.0607
 3144TIP3    H2 9397   2.774   1.119   2.915 -0.4583 -0.2281  1.3211
 3145TIP3   OH2 9398   4.201   5.049   3.385 -0.3666 -0.6028 -0.3756
 3145TIP3    H1 9399   4.213   5.137   3.349 -1.2231 -0.4578 -0.3454
 3145TIP3    H2 9400   4.142   5.006   3.323  1.9260 -2.0138 -1.7002
 3146TIP3   OH2 9401   0.474   4.981   4.639 -0.0282 -0.1367 -0.3943
 3146TIP3    H1 9402   0.446   5.006   4.551 -2.7574  1.3695  0.7822
 3146TIP3    H2 9403   0.530   5.052   4.668 -1.6181  0.9348  0.1556
 3147TIP3   OH2 9404   1.830   3.822   0.398  0.1289  0.0623 -0.1451
 3147TIP3    H1 9405   1.865   3.761   0.462  1.8587 -0.7937 -1.8101
 3147TIP3    H2 9406   1.768   3.771   0.346  0.1842  0.2140 -0.3657
 3148TIP3   OH2 9407   0.680   0.781   0.251  0.0144 -0.3447  0.5888
 3148TIP3    H1 9408   0.627   0.845   0.203 -0.7458 -0.1891  1.5773
 3148TIP3    H2 9409   0.683   0.704   0.194 -1.9655 -0.6446  0.8038
 3149TIP3   OH2 9410   3.076   4.811   5.463  0.2348  0.1713 -0.7727
 3149TIP3    H1 9411   3.155   4.829   5.412  0.4429  0.3623 -0.3875
 3149TIP3    H2 9412   3.109   4.776   5.546 -0.1466 -3.0620 -1.8275
 3150TIP3   OH2 9413   3.626   2.753   4.895  0.0453 -0.1028 -0.2932
 3150TIP3    H1 9414   3.650   2.730   4.985  0.1574 -1.2146 -0.5967
 3150TIP3    H2 9415   3.691   2.818   4.869 -1.0177  1.5717  1.0118
 3151TIP3   OH2 9416   4.607   4.404   0.635 -0.0151 -0.3003  0.0901
 3151TIP3    H1 9417   4.681   4.445   0.680  0.5698 -0.4898 -0.6613
 3151TIP3    H2 9418   4.531   4.455   0.660  0.4724  0.2749  0.4026
 3152TIP3   OH2 9419   1.604   1.865   4.476 -0.0681 -0.5778 -0.2443
 3152TIP3    H1 9420   1.577   1.851   4.386  0.7171  2.2995 -1.0332
 3152TIP3    H2 9421   1.695   1.837   4.479 -0.6357 -2.4728  0.2099
 3153TIP3   OH2 9422   6.770   5.183   3.017  0.1361  0.1562  0.3701
 3153TIP3    H1 9423   6.787   5.251   2.952 -0.1840 -0.5334 -0.4519
 3153TIP3    H2 9424   6.790   5.225   3.101  0.1238  1.1996 -0.1310
 3154TIP3   OH2 9425   2.409   2.725   2.986 -0.1117  0.3064 -0.0733
 3154TIP3    H1 9426   2.481   2.766   3.035 -1.7535  1.3667  1.5776
 3154TIP3    H2 9427   2.336   2.786   2.997 -1.1704 -0.5521 -2.0444
 3155TIP3   OH2 9428   0.667   0.996   2.850  0.2800 -0.5689  0.8426
 3155TIP3    H1 9429   0.627   1.080   2.873  1.1446 -0.0877  0.6420
 3155TIP3    H2 9430   0.610   0.930   2.889  0.2508  0.1477  2.0644
 3156TIP3   OH2 9431   6.044   3.801   3.090 -0.5048  0.0287 -0.1565
 3156TIP3    H1 9432   6.101   3.730   3.120  1.1213  1.4764  0.3362
 3156TIP3    H2 9433   6.007   3.838   3.170 -0.5050  0.3947 -0.3221
 3157TIP3   OH2 9434   1.590   0.360   4.397  0.1381 -0.0036 -0.0579
 3157TIP3    H1 9435   1.657   0.427   4.385  0.6831 -0.5047  0.1266
 3157TIP3    H2 9436   1.511   0.409   4.420  0.3963  0.6070 -0.4532
 3158TIP3   OH2 9437   3.417   1.866   1.660 -0.3838 -0.0609 -0.5579
 3158TIP3    H1 9438   3.503   1.899   1.686 -0.3225 -1.2592  0.8187
 3158TIP3    H2 9439   3.431   1.774   1.638 -1.3498 -0.3290 -0.1111
 3159TIP3   OH2 9440   4.858   3.916   3.169 -0.8274 -0.1747 -0.4058
 3159TIP3    H1 9441   4.770   3.952   3.161 -0.4908  0.9346  0.5439
 3159TIP3    H2 9442   4.906   3.982   3.220  0.1446 -1.4516  0.3892
 3160TIP3   OH2 9443   3.770   6.402   3.375 -0.2923 -0.4123 -0.0809
 3160TIP3    H1 9444   3.738   6.426   3.288 -0.7983 -0.1659  0.1683
 3160TIP3    H2 9445   3.863   6.424   3.373 -0.0392 -1.4698 -0.9324
 3161TIP3   OH2 9446   6.674   1.384   2.832  0.9645  0.1001  0.1942
 3161TIP3    H1 9447   6.705   1.445   2.899  0.6048  0.9465 -0.4021
 3161TIP3    H2 9448   6.723   1.407   2.754  0.4894 -0.0713 -0.1592
 3162TIP3   OH2 9449   1.801   6.121   5.217 -0.5249  0.0439 -0.4680
 3162TIP3    H1 9450   1.817   6.057   5.148  0.9587 -1.1470  0.9012
 3162TIP3    H2 9451   1.816   6.206   5.176  0.7342 -0.6478 -1.5059
 3163TIP3   OH2 9452   2.717   6.622   1.880  0.0007  0.7206 -0.2633
 3163TIP3    H1 9453   2.780   6.639   1.950  0.1049  1.1869 -0.4664
 3163TIP3    H2 9454   2.718   6.527   1.869  0.8408  0.7376 -0.4159
 3164TIP3   OH2 9455   1.426   3.492   4.979  0.5828  0.4188 -0.8258
 3164TIP3    H1 9456   1.345   3.449   4.954  0.2395  2.0060 -2.6792
 3164TIP3    H2 9457   1.459   3.440   5.052 -1.3525 -1.0990 -0.9454
 3165TIP3   OH2 9458   6.374   1.375   4.235 -0.1607 -0.4906  0.2159
 3165TIP3    H1 9459   6.329   1.303   4.277  0.7843 -1.0320  0.3231
 3165TIP3    H2 9460   6.382   1.442   4.303 -1.3727 -0.1046  0.0116
 3166TIP3   OH2 9461   6.553   1.488   3.176 -0.7072 -0.1435 -0.5913
 3166TIP3    H1 9462   6.561   1.528   3.263  1.8067 -0.8949 -0.3637
 3166TIP3    H2 9463   6.642   1.458   3.156 -0.9551  0.9400 -3.9226
 3167TIP3   OH2 9464   6.132   2.153   5.177  0.2656 -0.2483  0.7609
 3167TIP3    H1 9465   6.151   2.205   5.255  0.7998  0.1205  0.3928
 3167TIP3    H2 9466   6.212   2.103   5.162  0.0693 -0.5163  0.5995
 3168TIP3   OH2 9467   5.635   0.338   2.779 -0.2931  1.0276  0.1305
 3168TIP3    H1 9468   5.675   0.417   2.743  0.2323  0.8972  0.4204
 3168TIP3    H2 9469   5.602   0.364   2.865 -1.9489  1.4581 -0.5860
 3169TIP3   OH2 9470   4.331   0.412   2.899 -0.1374  0.0141 -0.5215
 3169TIP3    H1 9471   4.313   0.501   2.931  1.7920 -0.4168  2.0329
 3169TIP3    H2 9472   4.417   0.419   2.857  0.7304 -0.8610  1.0152
 3170TIP3   OH2 9473   1.387   5.747   2.875 -0.2662  0.2944 -0.2025
 3170TIP3    H1 9474   1.453   5.683   2.901 -0.4434 -0.1290 -0.7794
 3170TIP3    H2 9475   1.436   5.818   2.834 -0.2383 -0.5009 -1.5904
 3171TIP3   OH2 9476   7.229   4.616   5.824 -0.0102  1.1166  0.5925
 3171TIP3    H1 9477   7.183   4.700   5.832 -1.1464  0.6203 -0.4660
 3171TIP3    H2 9478   7.203   4.566   5.901 -1.3445  0.8140 -0.0339
 3172TIP3   OH2 9479   2.015   2.484   3.045 -0.8475 -1.1318 -0.3383
 3172TIP3    H1 9480   1.998   2.434   3.125  0.2348  0.6062  1.0735
 3172TIP3    H2 9481   2.091   2.537   3.066 -2.8676  2.3768 -1.0602
 3173TIP3   OH2 9482   4.029   4.624   4.553  0.1024 -0.5879 -0.5592
 3173TIP3    H1 9483   3.941   4.607   4.519 -0.5233  0.9411  0.2181
 3173TIP3    H2 9484   4.035   4.719   4.558  1.7776 -0.6765 -0.5172
 3174TIP3   OH2 9485   1.732   4.019   0.581  0.8078  0.3973 -0.2770
 3174TIP3    H1 9486   1.698   3.932   0.600 -1.5972  1.2694 -0.2680
 3174TIP3    H2 9487   1.776   4.009   0.496 -0.7615 -0.5217 -1.0258
 3175TIP3   OH2 9488   5.496   3.122   0.157 -0.5769  0.1882  0.1195
 3175TIP3    H1 9489   5.430   3.108   0.225  0.0124  1.2210  0.9212
 3175TIP3    H2 9490   5.471   3.205   0.116 -0.3072  0.1112 -0.2048
 3176TIP3   OH2 9491   3.854   4.648   4.049  0.2182 -0.2637 -0.1240
 3176TIP3    H1 9492   3.850   4.565   4.097 -1.7868 -0.7020 -0.9678
 3176TIP3    H2 9493   3.804   4.709   4.103 -1.6006 -0.6255 -1.3155
 3177TIP3   OH2 9494   0.416   1.404   3.569  0.3894 -0.1449  0.3486
 3177TIP3    H1 9495   0.465   1.325   3.592  0.5614 -0.1677 -0.0943
 3177TIP3    H2 9496   0.347   1.409   3.635  1.0612 -0.0345  1.0584
 3178TIP3   OH2 9497   1.091   5.126   4.081 -0.0329  0.2169 -0.4232
 3178TIP3    H1 9498   1.164   5.106   4.023 -0.0131 -1.5740  0.1356
 3178TIP3    H2 9499   1.017   5.078   4.045 -0.4284  0.4103  0.1079
 3179TIP3   OH2 9500   4.144   3.877   3.160 -0.0825 -0.6261  0.4347
 3179TIP3    H1 9501   4.096   3.960   3.159  0.4756 -0.2897  0.9034
 3179TIP3    H2 9502   4.076   3.810   3.158 -0.6203 -0.1637  1.9790
 3180TIP3   OH2 9503   1.665   6.089   3.571  0.0236  0.5490 -0.3499
 3180TIP3    H1 9504   1.669   6.149   3.496 -0.3949  1.0153 -0.0075
 3180TIP3    H2 9505   1.727   6.126   3.634  2.6700 -1.4496 -1.5582
 3181TIP3   OH2 9506   0.441   4.364   4.411 -0.0132  0.1530  0.1966
 3181TIP3    H1 9507   0.473   4.434   4.354 -1.3085  1.8298  1.4166
 3181TIP3    H2 9508   0.512   4.348   4.473  0.3045  0.3348 -0.1191
 3182TIP3   OH2 9509   1.276   5.008   3.911 -0.1286  0.0726 -0.8010
 3182TIP3    H1 9510   1.290   4.914   3.916 -0.9140 -0.0015  1.1904
 3182TIP3    H2 9511   1.321   5.036   3.832  0.8612 -1.8465 -0.9555
 3183TIP3   OH2 9512   3.283   2.278   3.073  0.7294  0.2931  0.0604
 3183TIP3    H1 9513   3.291   2.192   3.032  0.0752 -0.0915  0.7008
 3183TIP3    H2 9514   3.355   2.281   3.136  1.5121  0.7364 -0.8285
 3184TIP3   OH2 9515   6.678   4.136   3.754 -0.1264  0.1852  0.2279
 3184TIP3    H1 9516   6.742   4.203   3.729 -0.3181  0.2221 -0.1772
 3184TIP3    H2 9517   6.598   4.162   3.708 -0.7994  0.8399  1.6788
 3185TIP3   OH2 9518   6.516   2.015   1.535  0.0236  0.3362  0.7026
 3185TIP3    H1 9519   6.431   1.978   1.514  0.0488  1.3018 -1.2994
 3185TIP3    H2 9520   6.579   1.958   1.490  0.2037  1.3648 -0.4124
 3186TIP3   OH2 9521   4.444   3.197   3.415 -0.4545  0.1239  0.4575
 3186TIP3    H1 9522   4.526   3.168   3.374 -1.1701 -1.2350 -0.0547
 3186TIP3    H2 9523   4.471   3.235   3.499  0.6026 -1.3648  0.8232
 3187TIP3   OH2 9524   0.345   6.492   4.220  0.2363 -1.2138  0.2629
 3187TIP3    H1 9525   0.339   6.561   4.153  2.8976 -0.6951  0.4722
 3187TIP3    H2 9526   0.438   6.482   4.237 -0.2782 -1.8841  3.3628
 3188TIP3   OH2 9527   4.330   2.077   4.868 -0.1600  0.5412 -0.0170
 3188TIP3    H1 9528   4.375   2.161   4.877  1.0777 -0.1400  0.3518
 3188TIP3    H2 9529   4.239   2.095   4.893 -0.2399  2.0561 -1.2455
 3189TIP3   OH2 9530   4.718   6.401   4.268  0.7042  1.2760 -0.4316
 3189TIP3    H1 9531   4.785   6.367   4.208  0.5720 -1.6311  0.9233
 3189TIP3    H2 9532   4.647   6.338   4.263  0.6265  0.9667  2.6357
 3190TIP3   OH2 9533   5.068   4.428   0.021 -0.5159  0.3254 -0.1485
 3190TIP3    H1 9534   5.112   4.493   0.076 -0.7349  0.5694 -0.2604
 3190TIP3    H2 9535   5.059   4.351   0.077 -0.1511  0.3524 -0.0538
 3191TIP3   OH2 9536   1.059   1.821   5.626 -0.1332 -0.1089 -0.3901
 3191TIP3    H1 9537   1.001   1.855   5.695  0.1945  1.6428 -0.9279
 3191TIP3    H2 9538   1.031   1.731   5.614 -0.4019 -0.3803  1.8160
 3192TIP3   OH2 9539   0.770   1.817   1.887  0.1687 -0.2339 -0.0179
 3192TIP3    H1 9540   0.819   1.735   1.885 -0.6639 -0.7268 -1.8155
 3192TIP3    H2 9541   0.828   1.882   1.848  0.8146  0.0742  1.3741
 3193TIP3   OH2 9542   0.700   1.097   0.886 -0.0187  0.2509 -0.2315
 3193TIP3    H1 9543   0.730   1.187   0.870  0.0695  0.4086  0.7823
 3193TIP3    H2 9544   0.781   1.049   0.906 -0.2712  0.3744  1.1406
 3194TIP3   OH2 9545   1.508   0.215   4.626 -0.3274  0.4706  0.0536
 3194TIP3    H1 9546   1.420   0.244   4.601 -0.9684  0.5391  2.1902
 3194TIP3    H2 9547   1.563   0.241   4.553 -2.3097 -1.1000 -2.1584
 3195TIP3   OH2 9548   5.129   0.473   3.572  0.1464 -0.8150  0.5292
 3195TIP3    H1 9549   5.139   0.565   3.546 -0.0126 -0.7098  0.8348
 3195TIP3    H2 9550   5.098   0.477   3.662  1.3919 -1.1814  0.9916
 3196TIP3   OH2 9551   4.114   1.089   2.739  0.7104 -0.1041  0.1063
 3196TIP3    H1 9552   4.091   1.048   2.656  0.0672  0.7829 -0.1688
 3196TIP3    H2 9553   4.031   1.100   2.785  1.0409 -0.4155  0.7951
 3197TIP3   OH2 9554   4.106   2.459   2.909 -0.1048 -0.2370  0.2498
 3197TIP3    H1 9555   4.019   2.448   2.948 -0.7327  1.9728 -0.3471
 3197TIP3    H2 9556   4.159   2.499   2.977 -0.2887  0.7084 -0.1524
 3198TIP3   OH2 9557   4.087   1.667   2.829  0.3658 -0.3993  1.0845
 3198TIP3    H1 9558   4.085   1.757   2.795  2.3284 -0.0110  1.8158
 3198TIP3    H2 9559   4.081   1.612   2.751 -0.0023  0.3791  0.5444
 3199TIP3   OH2 9560   2.745   5.370   3.339 -0.3247  0.1873 -0.3626
 3199TIP3    H1 9561   2.703   5.284   3.344 -0.3888  0.2979  2.0055
 3199TIP3    H2 9562   2.777   5.386   3.427  1.4699  1.7478 -1.2278
 3200TIP3   OH2 9563   6.711   2.649   4.315 -0.3286  0.0980  0.6400
 3200TIP3    H1 9564   6.794   2.664   4.359 -0.3461  1.5201  0.2116
 3200TIP3    H2 9565   6.694   2.729   4.266 -1.8951 -0.2114  0.6200
 3201TIP3   OH2 9566   2.323   5.369   2.544  0.1199 -0.1880 -0.0106
 3201TIP3    H1 9567   2.367   5.354   2.460 -0.9411  0.8241 -0.7801
 3201TIP3    H2 9568   2.294   5.282   2.572  0.1058 -0.4827 -0.9176
 3202TIP3   OH2 9569   2.482   1.893   2.301  0.1969  0.4483 -0.4688
 3202TIP3    H1 9570   2.429   1.814   2.304 -0.7427  1.0966  0.7976
 3202TIP3    H2 9571   2.507   1.910   2.392  4.2116 -0.8292 -1.1237
 3203TIP3   OH2 9572   0.816   5.394   4.427  0.9221  0.1267  0.0142
 3203TIP3    H1 9573   0.893   5.338   4.415  0.8352  0.1439 -0.7025
 3203TIP3    H2 9574   0.844   5.479   4.392  1.4694  0.9111  2.2099
 3204TIP3   OH2 9575   4.444   3.156   4.953 -0.1493 -0.6985 -0.0084
 3204TIP3    H1 9576   4.528   3.112   4.957 -0.8515 -2.0459  0.7211
 3204TIP3    H2 9577   4.452   3.217   4.879  1.5252 -0.6076  0.2111
 3205TIP3   OH2 9578   4.153   6.395   3.032 -0.0391 -0.2724 -0.1529
 3205TIP3    H1 9579   4.219   6.463   3.016  0.1651 -0.3604  0.2992
 3205TIP3    H2 9580   4.194   6.314   3.003  0.8561 -0.6457  1.9379
 3206TIP3   OH2 9581   0.522   5.042   5.914  0.1471  0.3842  0.5719
 3206TIP3    H1 9582   0.514   5.039   5.819 -0.1444 -2.6738  0.6075
 3206TIP3    H2 9583   0.528   4.950   5.941 -1.2326  1.0658  3.6312
 3207TIP3   OH2 9584   0.101   2.575   1.206 -0.6752 -0.0968 -0.0492
 3207TIP3    H1 9585   0.007   2.579   1.220 -0.7772  2.3615 -1.0055
 3207TIP3    H2 9586   0.139   2.593   1.292 -1.1183  0.7173 -0.0159
 3208TIP3   OH2 9587   5.580   5.422   2.081  0.2974  0.1208  0.0184
 3208TIP3    H1 9588   5.569   5.327   2.071  0.0230  0.2845 -1.5197
 3208TIP3    H2 9589   5.660   5.442   2.033 -0.8799  0.9592 -1.6898
 3209TIP3   OH2 9590   2.877   1.218   5.583  0.1392 -0.1929 -0.4878
 3209TIP3    H1 9591   2.867   1.126   5.608 -1.0834 -0.4724 -1.8797
 3209TIP3    H2 9592   2.947   1.250   5.639  1.2038 -2.2035 -0.5683
 3210TIP3   OH2 9593   2.511   4.710   4.786  0.0633  0.0528  1.0276
 3210TIP3    H1 9594   2.500   4.688   4.878  0.0632  0.2974  1.0848
 3210TIP3    H2 9595   2.493   4.628   4.740  2.2425 -0.7055  1.3623
 3211TIP3   OH2 9596   2.122   4.810   1.717  0.1719  0.5994 -0.0612
 3211TIP3    H1 9597   2.100   4.726   1.756  0.8992  0.4116 -0.0393
 3211TIP3    H2 9598   2.174   4.789   1.640  0.1054  1.0224 -0.2288
 3212TIP3   OH2 9599   3.985   6.718   5.195 -0.4078 -0.2144 -0.3490
 3212TIP3    H1 9600   3.913   6.778   5.176  0.0734  0.4889  0.0071
 3212TIP3    H2 9601   4.054   6.743   5.134 -0.6647 -1.2799 -1.0974
 3213TIP3   OH2 9602   5.619   6.539   1.901  0.3505  0.1207 -0.3722
 3213TIP3    H1 9603   5.570   6.459   1.881 -0.4125  0.5238 -0.1509
 3213TIP3    H2 9604   5.640   6.576   1.816  0.2285 -0.0285 -0.4693
 3214TIP3   OH2 9605   5.416   3.754   0.434 -0.0508 -0.8048 -0.4512
 3214TIP3    H1 9606   5.471   3.810   0.490  0.0037 -2.5402  1.3384
 3214TIP3    H2 9607   5.332   3.750   0.480 -0.1724 -1.8748 -0.7568
 3215TIP3   OH2 9608   5.170   0.973   2.001  0.4862  0.5211  0.3171
 3215TIP3    H1 9609   5.103   0.966   2.069  0.7952 -0.3706  0.5490
 3215TIP3    H2 9610   5.122   0.963   1.918  0.1200  1.5307  0.3998
 3216TIP3   OH2 9611   0.368   5.843   2.426 -0.1240  0.3677  0.1359
 3216TIP3    H1 9612   0.390   5.899   2.352 -1.1536  0.3993 -0.1670
 3216TIP3    H2 9613   0.385   5.754   2.394 -1.2126  0.3338 -0.4003
 3217TIP3   OH2 9614   4.263   1.464   3.248 -0.3256 -0.1276  0.2683
 3217TIP3    H1 9615   4.211   1.385   3.264 -1.8655  0.8272  0.1586
 3217TIP3    H2 9616   4.248   1.519   3.326 -0.0026  0.4452 -0.0669
 3218TIP3   OH2 9617   5.753   2.287   3.278 -0.0302  0.7446  0.6051
 3218TIP3    H1 9618   5.759   2.307   3.185 -0.9519  0.9845  0.5880
 3218TIP3    H2 9619   5.803   2.206   3.289 -0.6078  0.2535 -0.2537
 3219TIP3   OH2 9620   4.832   3.695   5.360  0.1237 -0.0218  0.5517
 3219TIP3    H1 9621   4.788   3.665   5.280  3.8236 -1.3973 -1.2235
 3219TIP3    H2 9622   4.878   3.775   5.333  1.8840 -0.8152  1.0548
 3220TIP3   OH2 9623   6.178   1.535   4.825 -0.7224  0.2924 -0.5356
 3220TIP3    H1 9624   6.133   1.492   4.751 -2.0487 -0.4149  0.6276
 3220TIP3    H2 9625   6.122   1.610   4.846  1.1185  2.1920 -1.9804
 3221TIP3   OH2 9626   1.567   4.413   0.241  0.2368  0.4317 -0.0738
 3221TIP3    H1 9627   1.553   4.326   0.279 -1.6939  1.3845  1.5287
 3221TIP3    H2 9628   1.612   4.462   0.309 -0.4630  1.2580 -0.1940
 3222TIP3   OH2 9629   2.945   2.915   1.788 -0.1712 -0.1260 -0.1680
 3222TIP3    H1 9630   3.038   2.938   1.790  0.1551 -1.2438 -1.3497
 3222TIP3    H2 9631   2.943   2.824   1.758 -1.5918 -0.5541  1.0597
 3223TIP3   OH2 9632   4.565   6.194   1.677  0.4370  0.1098  0.0429
 3223TIP3    H1 9633   4.547   6.216   1.586  1.9984  2.3005  0.1849
 3223TIP3    H2 9634   4.535   6.104   1.686 -1.4510  0.4270 -2.1173
 3224TIP3   OH2 9635   6.960   3.738   3.874  0.2005 -0.1813 -0.2922
 3224TIP3    H1 9636   7.024   3.669   3.856  1.8055  1.5539 -1.7118
 3224TIP3    H2 9637   6.984   3.808   3.814 -1.8320  1.3444  0.5674
 3225TIP3   OH2 9638   7.172   4.396   0.308 -0.0408 -0.0794 -0.2759
 3225TIP3    H1 9639   7.216   4.320   0.347 -0.4003  0.1707  0.6530
 3225TIP3    H2 9640   7.086   4.362   0.283 -1.6111  0.7410  3.3641
 3226TIP3   OH2 9641   1.356   1.036   3.765  0.0130  0.1916 -0.1740
 3226TIP3    H1 9642   1.397   1.073   3.686 -0.7548  0.3928 -0.4882
 3226TIP3    H2 9643   1.414   0.965   3.791  2.8057  2.9330  1.7756
 3227TIP3   OH2 9644   3.884   6.470   5.198  0.1561  0.2502 -0.0072
 3227TIP3    H1 9645   3.802   6.458   5.151  0.5112  0.2161 -0.6319
 3227TIP3    H2 9646   3.908   6.561   5.181  1.8623 -0.5526 -2.5432
 3228TIP3   OH2 9647   5.951   6.320   4.778  0.4868 -0.4585  0.7264
 3228TIP3    H1 9648   5.924   6.249   4.836 -0.7836  1.2986  2.4248
 3228TIP3    H2 9649   6.046   6.309   4.771  0.4734 -1.6465  1.9094
 3229TIP3   OH2 9650   3.622   3.273   2.130 -0.3929 -0.1439 -0.0444
 3229TIP3    H1 9651   3.612   3.350   2.186 -0.0543 -0.7442  0.8566
 3229TIP3    H2 9652   3.572   3.295   2.051 -0.2050  1.0403  0.1435
 3230TIP3   OH2 9653   0.503   4.119   1.105 -0.1841 -0.3725 -0.2874
 3230TIP3    H1 9654   0.582   4.069   1.123 -1.4965 -3.0002 -1.3152
 3230TIP3    H2 9655   0.453   4.115   1.187  1.0520  2.2054  0.7353
 3231TIP3   OH2 9656   4.717   1.079   4.651  0.6169  0.1946 -0.0880
 3231TIP3    H1 9657   4.657   1.136   4.698  0.2933  0.3011 -0.6217
 3231TIP3    H2 9658   4.749   1.133   4.578 -0.7769 -0.7320 -1.4402
 3232TIP3   OH2 9659   6.867   4.078   1.616 -0.2365  0.3574 -0.2946
 3232TIP3    H1 9660   6.810   4.078   1.693  1.3464 -0.9195  0.9336
 3232TIP3    H2 9661   6.820   4.025   1.552 -1.4800  1.2690 -0.1802
 3233TIP3   OH2 9662   1.321   2.097   1.349  0.4184  0.5888 -0.0281
 3233TIP3    H1 9663   1.233   2.115   1.382  0.8294 -0.8016  1.9951
 3233TIP3    H2 9664   1.349   2.180   1.310 -2.0112  0.8660 -1.3930
 3234TIP3   OH2 9665   6.633   1.400   1.019 -0.1178  0.1885 -0.0839
 3234TIP3    H1 9666   6.625   1.437   0.931 -0.1608 -0.6821 -0.4568
 3234TIP3    H2 9667   6.714   1.349   1.017  1.2092  2.1497  1.1503
 3235TIP3   OH2 9668   1.803   5.618   5.767  0.6767  0.2555  0.1178
 3235TIP3    H1 9669   1.825   5.528   5.790 -0.1873 -0.0969 -0.4051
 3235TIP3    H2 9670   1.740   5.645   5.834 -1.6399 -0.6825 -1.5519
 3236TIP3   OH2 9671   2.581   4.092   3.817  0.2330  0.0817 -0.9619
 3236TIP3    H1 9672   2.666   4.047   3.820  0.6798  0.8925 -1.2414
 3236TIP3    H2 9673   2.603   4.183   3.799 -0.6186  0.5877  0.4712
 3237TIP3   OH2 9674   5.684   3.960   0.186 -0.2945  0.3987 -0.0893
 3237TIP3    H1 9675   5.672   3.938   0.278 -1.2140 -0.9248 -0.5014
 3237TIP3    H2 9676   5.606   3.927   0.142  0.9637 -0.7464 -1.6174
 3238TIP3   OH2 9677   1.747   3.374   0.667  0.1026  0.4005  0.6713
 3238TIP3    H1 9678   1.656   3.361   0.639  0.3908  0.4193 -0.3024
 3238TIP3    H2 9679   1.773   3.288   0.702 -1.0765  1.0366  3.4345
 3239TIP3   OH2 9680   0.132   0.451   0.145  0.4997 -0.1290  0.0728
 3239TIP3    H1 9681   0.145   0.544   0.163  1.0036 -0.0840 -0.4724
 3239TIP3    H2 9682   0.141   0.444   0.050 -0.0690 -0.6544  0.0579
 3240TIP3   OH2 9683   2.515   6.698   2.771  0.0548 -0.0504 -0.5969
 3240TIP3    H1 9684   2.583   6.752   2.731 -0.7174  0.6335 -0.9966
 3240TIP3    H2 9685   2.482   6.644   2.700  0.3032 -0.5310 -0.3578
 3241TIP3   OH2 9686   3.433   1.259   5.608 -0.1081 -0.1356  0.3701
 3241TIP3    H1 9687   3.369   1.321   5.573 -0.2698 -0.8616 -0.6591
 3241TIP3    H2 9688   3.390   1.221   5.685 -0.4791  0.1494  0.3066
 3242TIP3   OH2 9689   1.465   4.061   2.677  0.1254 -0.2817  0.1315
 3242TIP3    H1 9690   1.386   4.092   2.721 -0.7776 -0.0332 -1.5934
 3242TIP3    H2 9691   1.526   4.135   2.685 -0.8002  0.6394 -0.9007
 3243TIP3   OH2 9692   0.239   2.627   2.880 -0.3528  0.7480 -0.1813
 3243TIP3    H1 9693   0.173   2.560   2.859 -0.3536  0.9211 -0.7498
 3243TIP3    H2 9694   0.294   2.632   2.802  1.4203 -0.6215  0.8879
 3244TIP3   OH2 9695   4.877   4.231   3.046  0.1724 -0.8232 -0.4144
 3244TIP3    H1 9696   4.829   4.159   3.005 -3.0602  1.6458 -1.4181
 3244TIP3    H2 9697   4.900   4.199   3.133 -1.9376 -2.7941 -0.4865
 3245TIP3   OH2 9698   1.341   5.906   4.358 -0.4874 -0.3139 -0.1790
 3245TIP3    H1 9699   1.331   5.910   4.263  1.5479 -1.5729 -0.5122
 3245TIP3    H2 9700   1.436   5.911   4.372 -0.7664  0.3589  1.8304
 3246TIP3   OH2 9701   4.322   5.661   4.317  0.5226  0.7217  0.1923
 3246TIP3    H1 9702   4.232   5.629   4.305  0.8359  0.5665 -2.0315
 3246TIP3    H2 9703   4.352   5.616   4.396 -1.6553  1.5397  1.5903
 3247TIP3   OH2 9704   3.255   0.788   3.167 -0.7052 -0.1728 -0.2864
 3247TIP3    H1 9705   3.274   0.740   3.248 -0.6579 -0.8115 -0.6731
 3247TIP3    H2 9706   3.300   0.872   3.178  0.0119 -0.5884 -0.0161
 3248TIP3   OH2 9707   2.485   0.350   0.642  0.1226  0.4410  0.4236
 3248TIP3    H1 9708   2.432   0.297   0.701  0.8422 -0.2178  0.4963
 3248TIP3    H2 9709   2.561   0.295   0.622 -0.3389  0.4383 -1.5088
 3249TIP3   OH2 9710   2.647   2.362   5.835 -0.2369  0.2935 -0.4979
 3249TIP3    H1 9711   2.718   2.298   5.828 -0.1220  0.5087 -1.3923
 3249TIP3    H2 9712   2.594   2.347   5.757 -1.1492  0.1781  0.1309
 3250TIP3   OH2 9713   3.861   3.940   2.315 -0.0888  0.6813  0.1069
 3250TIP3    H1 9714   3.940   3.911   2.269  0.0619  1.7666 -0.3686
 3250TIP3    H2 9715   3.880   3.926   2.407  0.3335  0.1698 -0.0519
 3251TIP3   OH2 9716   0.128   5.114   3.950  0.6761 -0.2569 -0.1843
 3251TIP3    H1 9717   0.096   5.183   4.008  1.0378  0.7780 -1.1680
 3251TIP3    H2 9718   0.059   5.047   3.951  0.9493 -0.5528  1.8648
 3252TIP3   OH2 9719   0.776   2.538   5.224  0.0638 -0.1091  0.2197
 3252TIP3    H1 9720   0.740   2.452   5.207  0.1626 -0.0510 -0.3209
 3252TIP3    H2 9721   0.774   2.548   5.319 -0.5968 -0.4228  0.2425
 3253TIP3   OH2 9722   0.590   2.189   3.655  0.1408  0.1417  0.3860
 3253TIP3    H1 9723   0.568   2.274   3.616  2.6592  1.4325  1.5328
 3253TIP3    H2 9724   0.508   2.159   3.694 -1.2710  1.0724 -1.6859
 3254TIP3   OH2 9725   0.957   2.596   2.217 -0.4548 -0.0309  0.2075
 3254TIP3    H1 9726   1.009   2.517   2.228 -0.6048 -0.4405 -1.6629
 3254TIP3    H2 9727   0.945   2.630   2.306  0.2139 -1.7077  0.9768
 3255TIP3   OH2 9728   0.479   3.709   3.254 -1.0157 -0.7193  0.0112
 3255TIP3    H1 9729   0.390   3.744   3.245 -0.1113  2.2529  1.3762
 3255TIP3    H2 9730   0.487   3.691   3.347 -0.2117 -1.0868 -0.1280
 3256TIP3   OH2 9731   3.385   5.377   5.840 -0.3917 -0.0169  0.1936
 3256TIP3    H1 9732   3.423   5.295   5.870 -0.7937 -0.1084  0.4568
 3256TIP3    H2 9733   3.392   5.373   5.744  0.3584  0.0205  0.2428
 3257TIP3   OH2 9734   1.445   5.732   5.656  0.0846  0.3563 -0.0637
 3257TIP3    H1 9735   1.397   5.814   5.644  0.0875  0.4725  0.6924
 3257TIP3    H2 9736   1.377   5.667   5.676  0.2017  0.4401  0.6134
 3258TIP3   OH2 9737   3.340   5.505   2.009  0.2038 -0.0707  0.7340
 3258TIP3    H1 9738   3.271   5.484   2.072  0.9321 -1.0783  1.2127
 3258TIP3    H2 9739   3.385   5.580   2.047 -0.4894  0.4747  0.5112
 3259TIP3   OH2 9740   3.534   0.020   3.764  0.9132 -0.1668 -0.4653
 3259TIP3    H1 9741   3.610   0.069   3.796  0.4365  0.8931 -0.9187
 3259TIP3    H2 9742   3.504   0.070   3.688 -0.6263 -0.2330  0.0776
 3260TIP3   OH2 9743   6.401   0.907   3.418  0.2982  0.6310 -0.1215
 3260TIP3    H1 9744   6.370   0.977   3.475 -0.2330 -0.5304  1.0688
 3260TIP3    H2 9745   6.485   0.881   3.455  0.0571  0.0247  0.0120
 3261TIP3   OH2 9746   3.225   2.647   1.148  0.6826  0.0976  0.3529
 3261TIP3    H1 9747   3.224   2.626   1.241  0.5906  1.0478  0.5744
 3261TIP3    H2 9748   3.306   2.696   1.135  0.7258 -0.0890 -0.0807
 3262TIP3   OH2 9749   2.877   0.659   1.810 -0.3604  0.0349  0.0832
 3262TIP3    H1 9750   2.943   0.615   1.756 -1.6955 -0.1433 -1.4741
 3262TIP3    H2 9751   2.889   0.621   1.898  2.4835  1.0072  0.2208
 3263TIP3   OH2 9752   5.294   3.822   1.994 -0.2538  0.2507 -0.0439
 3263TIP3    H1 9753   5.209   3.796   2.029 -0.9624  0.3884 -1.5559
 3263TIP3    H2 9754   5.324   3.744   1.947  1.1502 -0.2826  1.6495
 3264TIP3   OH2 9755   4.899   4.516   3.078 -0.2464  0.3703  0.5386
 3264TIP3    H1 9756   4.859   4.430   3.067  0.9618 -0.0743 -0.5863
 3264TIP3    H2 9757   4.834   4.577   3.041 -0.8558 -0.0982  0.8138
 3265TIP3   OH2 9758   1.831   2.199   0.319  0.4397 -0.2994  0.1213
 3265TIP3    H1 9759   1.817   2.251   0.398 -1.7798 -0.2911 -0.2055
 3265TIP3    H2 9760   1.795   2.113   0.340 -0.3363 -0.2466 -0.9107
 3266TIP3   OH2 9761   5.694   3.824   2.370  0.3342 -0.1669  0.2006
 3266TIP3    H1 9762   5.647   3.844   2.289  0.2974 -2.0595 -0.2923
 3266TIP3    H2 9763   5.635   3.851   2.439 -0.4911 -0.3232 -0.4233
 3267TIP3   OH2 9764   2.107   4.449   0.947  0.3394  0.2234 -0.0961
 3267TIP3    H1 9765   2.124   4.533   0.989  1.3061  1.1281 -2.1350
 3267TIP3    H2 9766   2.027   4.417   0.988  0.0920  2.0228  0.9187
 3268TIP3   OH2 9767   5.153   1.913   2.627  0.3436  0.0451  0.6122
 3268TIP3    H1 9768   5.082   1.898   2.564  0.1636  0.7571  0.6345
 3268TIP3    H2 9769   5.169   1.827   2.666  1.3226 -0.6969 -1.2780
 3269TIP3   OH2 9770   4.658   6.128   5.080 -0.0620 -0.1205  0.0854
 3269TIP3    H1 9771   4.732   6.121   5.140 -0.1493  0.9877  0.3527
 3269TIP3    H2 9772   4.677   6.066   5.010  0.4920 -0.7568  0.7958
 3270TIP3   OH2 9773   6.766   1.906   0.807 -0.0495 -0.0441  0.2102
 3270TIP3    H1 9774   6.721   1.923   0.890 -1.6002  1.0660 -0.8186
 3270TIP3    H2 9775   6.740   1.817   0.785  0.2857 -0.3107  0.8470
 3271TIP3   OH2 9776   1.934   1.996   3.550 -0.1920  0.0930  0.0688
 3271TIP3    H1 9777   1.883   1.928   3.506 -0.2461 -0.6422  1.2296
 3271TIP3    H2 9778   2.020   1.993   3.507  0.0340 -1.2020  0.5508
 3272TIP3   OH2 9779   6.973   0.092   0.344 -0.0996 -0.4304  0.4209
 3272TIP3    H1 9780   6.884   0.121   0.368  0.6732  2.9586 -0.3303
 3272TIP3    H2 9781   7.031   0.153   0.390  1.7729 -1.0957 -0.9501
 3273TIP3   OH2 9782   3.569   2.438   2.838 -0.1771  0.0421  0.9820
 3273TIP3    H1 9783   3.567   2.367   2.774  1.2822 -0.4090  1.3826
 3273TIP3    H2 9784   3.486   2.431   2.884 -1.3272  0.4725 -0.9202
 3274TIP3   OH2 9785   0.533   1.188   1.992 -0.0154 -0.1878 -0.5761
 3274TIP3    H1 9786   0.562   1.108   1.949  1.0924 -0.9497  1.4598
 3274TIP3    H2 9787   0.448   1.165   2.030  0.2338 -0.3724 -0.1196
 3275TIP3   OH2 9788   2.960   1.615   3.835 -0.2988 -0.3827 -0.1717
 3275TIP3    H1 9789   3.014   1.633   3.758 -0.8104  0.0831 -0.4379
 3275TIP3    H2 9790   2.873   1.597   3.799 -0.5430 -0.1608  0.2946
 3276TIP3   OH2 9791   1.192   3.369   4.950  0.1459  0.1613 -0.4588
 3276TIP3    H1 9792   1.107   3.359   4.907  0.1013 -0.1491 -0.2992
 3276TIP3    H2 9793   1.221   3.280   4.967 -0.1317  0.2683  0.7184
 3277TIP3   OH2 9794   4.544   4.549   1.729 -0.8268 -0.9544  0.5844
 3277TIP3    H1 9795   4.617   4.601   1.764 -1.1263  0.5496 -0.8947
 3277TIP3    H2 9796   4.587   4.474   1.686  0.1605  1.0295 -2.2296
 3278TIP3   OH2 9797   2.506   0.065   3.917  0.2124 -0.9884  0.4840
 3278TIP3    H1 9798   2.539   0.009   3.847 -0.1346 -2.0816  1.1620
 3278TIP3    H2 9799   2.411   0.053   3.915  0.0174  0.4290 -0.0415
 3279TIP3   OH2 9800   4.529   6.186   4.372 -0.1192  0.5829 -0.1037
 3279TIP3    H1 9801   4.475   6.195   4.450  0.4968  1.3835  0.2389
 3279TIP3    H2 9802   4.551   6.093   4.368 -0.3517  0.5007  0.5377
 3280TIP3   OH2 9803   5.460   0.307   2.035  0.6836 -0.0325 -0.6368
 3280TIP3    H1 9804   5.518   0.253   2.089 -1.0235 -0.2269  1.0996
 3280TIP3    H2 9805   5.494   0.396   2.045  0.1389 -0.0026  1.1733
 3281TIP3   OH2 9806   3.003   6.298   2.925 -0.0470 -0.4438  0.0490
 3281TIP3    H1 9807   2.943   6.351   2.871  1.0968  2.1176  1.1452
 3281TIP3    H2 9808   2.968   6.307   3.014  0.8625 -0.5207  0.4159
 3282TIP3   OH2 9809   6.606   1.188   4.592  0.0317  0.2501  0.0298
 3282TIP3    H1 9810   6.617   1.262   4.651  0.6152  0.6618 -0.5801
 3282TIP3    H2 9811   6.606   1.226   4.504  1.5242 -0.5636 -0.3723
 3283TIP3   OH2 9812   3.278   4.781   2.999 -0.3630  0.3152 -0.2419
 3283TIP3    H1 9813   3.320   4.865   3.015 -2.5585  1.5085 -0.4847
 3283TIP3    H2 9814   3.230   4.792   2.917 -0.0304 -1.4530 -0.7276
 3284TIP3   OH2 9815   3.442   2.446   5.745  0.1059 -0.2336  0.2838
 3284TIP3    H1 9816   3.463   2.359   5.779  1.9085 -0.4614 -1.2658
 3284TIP3    H2 9817   3.492   2.505   5.802  0.0293 -0.3120  0.4357
 3285TIP3   OH2 9818   4.134   0.551   1.593  0.1675 -0.1951 -0.0926
 3285TIP3    H1 9819   4.098   0.546   1.682 -0.1840  2.7386  0.0092
 3285TIP3    H2 9820   4.226   0.571   1.605  0.1798 -0.0680 -0.4025
 3286TIP3   OH2 9821   7.027   2.856   1.125  0.3140 -0.6680  0.1218
 3286TIP3    H1 9822   7.101   2.896   1.170 -0.1056 -1.3035  1.4236
 3286TIP3    H2 9823   7.000   2.923   1.061  1.5724 -0.1672  0.0830
 3287TIP3   OH2 9824   0.213   6.003   1.987  0.0912 -0.1687  0.4785
 3287TIP3    H1 9825   0.133   6.000   1.936 -0.3746  1.9988  0.9658
 3287TIP3    H2 9826   0.189   5.968   2.073 -1.2879  3.1815  1.6354
 3288TIP3   OH2 9827   1.528   6.736   0.455  0.0776  0.2381 -0.0339
 3288TIP3    H1 9828   1.534   6.711   0.547  2.4039  2.6033  0.5573
 3288TIP3    H2 9829   1.562   6.660   0.408 -1.2739 -1.0628  0.9777
 3289TIP3   OH2 9830   1.695   5.049   4.549  0.1247 -0.1182  0.1409
 3289TIP3    H1 9831   1.741   4.966   4.561 -1.3018 -0.7342  1.7380
 3289TIP3    H2 9832   1.618   5.026   4.498 -0.5899  0.0822  1.1027
 3290TIP3   OH2 9833   0.042   2.463   2.800  0.0587 -0.2574  0.5747
 3290TIP3    H1 9834  -0.002   2.485   2.718 -1.8105  1.0470  1.8381
 3290TIP3    H2 9835   0.048   2.367   2.799  0.7998 -0.2250 -1.4011
 3291TIP3   OH2 9836   0.820   4.959   0.038  0.5484  0.0619 -0.6750
 3291TIP3    H1 9837   0.852   4.923   0.121 -0.9190  0.4367  0.0907
 3291TIP3    H2 9838   0.878   4.922  -0.028  1.4235 -0.6734  0.4635
 3292TIP3   OH2 9839   6.164   4.987   1.300 -0.0302  0.4290  0.0534
 3292TIP3    H1 9840   6.139   5.011   1.211 -0.5060  0.1730  0.1133
 3292TIP3    H2 9841   6.199   4.898   1.292  0.6549  0.6943  0.0080
 3293TIP3   OH2 9842   3.143   0.229   1.295  0.1194  0.0383  0.3383
 3293TIP3    H1 9843   3.176   0.150   1.338  0.7590 -0.4272 -0.9602
 3293TIP3    H2 9844   3.084   0.268   1.360 -1.4710 -2.3361  0.4464
 3294TIP3   OH2 9845   4.395   0.474   1.935  0.0947 -0.2749  0.2149
 3294TIP3    H1 9846   4.353   0.426   2.006 -0.5502  0.1042  0.0987
 3294TIP3    H2 9847   4.485   0.487   1.965  0.3030 -1.5708  0.2361
 3295TIP3   OH2 9848   1.768   4.309   1.275 -0.0394 -0.3951 -0.1682
 3295TIP3    H1 9849   1.849   4.291   1.323 -0.0270  0.2316  0.0481
 3295TIP3    H2 9850   1.699   4.268   1.328  0.0711 -0.4490 -0.0661
 3296TIP3   OH2 9851   5.270   1.333   3.002  0.1129 -0.0475 -0.5202
 3296TIP3    H1 9852   5.271   1.239   3.018 -1.6819 -0.6780 -3.4107
 3296TIP3    H2 9853   5.189   1.364   3.044  0.5296  0.1768  0.1364
 3297TIP3   OH2 9854   2.581   3.572   0.795  0.2730  0.0514 -0.5475
 3297TIP3    H1 9855   2.596   3.527   0.878 -0.2372  0.6938 -0.1080
 3297TIP3    H2 9856   2.583   3.665   0.816  1.0158  0.2518 -1.4029
 3298TIP3   OH2 9857   3.419   1.013   2.983  0.1501  0.4556  0.3567
 3298TIP3    H1 9858   3.337   1.054   3.012 -0.4285 -1.7138  2.0266
 3298TIP3    H2 9859   3.391   0.943   2.924  0.8219 -0.1471  0.7421
 3299TIP3   OH2 9860   5.297   4.047   2.667 -0.9333  0.9538  0.3072
 3299TIP3    H1 9861   5.264   3.959   2.687 -0.9614  1.1336  1.0766
 3299TIP3    H2 9862   5.391   4.035   2.656 -0.6317  1.1222  2.3442
 3300TIP3   OH2 9863   5.785   1.204   4.469 -0.7599 -0.3119  0.0317
 3300TIP3    H1 9864   5.879   1.215   4.452 -0.7327 -1.2608 -0.4825
 3300TIP3    H2 9865   5.770   1.251   4.551  0.1283  0.0140  0.0185
 3301TIP3   OH2 9866   0.692   0.432   4.371 -0.3921  0.4946  0.0265
 3301TIP3    H1 9867   0.760   0.440   4.437  0.1529  1.3195 -0.6103
 3301TIP3    H2 9868   0.713   0.352   4.324 -1.3377 -0.6238  1.4419
 3302TIP3   OH2 9869   2.143   4.027   5.124 -0.0340  0.1724 -0.2755
 3302TIP3    H1 9870   2.085   3.960   5.089  0.5717 -0.2796 -0.4394
 3302TIP3    H2 9871   2.089   4.075   5.187 -0.8455  0.3594 -1.0908
 3303TIP3   OH2 9872   6.523   2.907   2.707 -0.0898 -0.2037  0.3962
 3303TIP3    H1 9873   6.467   2.935   2.779  0.8237 -0.0247  1.0483
 3303TIP3    H2 9874   6.587   2.978   2.697 -0.4471 -0.0266 -0.8648
 3304TIP3   OH2 9875   3.951   6.214   1.290  0.5124 -0.3304  0.3147
 3304TIP3    H1 9876   3.924   6.228   1.380  2.8131  0.0979  1.0108
 3304TIP3    H2 9877   3.947   6.119   1.277 -1.6273 -0.2662  0.2032
 3305TIP3   OH2 9878   7.067   6.097   3.213 -0.8132 -0.4335 -0.3930
 3305TIP3    H1 9879   7.137   6.147   3.254 -1.2520 -2.0962  2.7430
 3305TIP3    H2 9880   7.101   6.071   3.128  1.2221  1.1561 -0.1224
 3306TIP3   OH2 9881   4.459   6.241   1.019 -0.3412 -0.1516 -0.3369
 3306TIP3    H1 9882   4.502   6.167   1.062 -0.4564  0.2334  0.4488
 3306TIP3    H2 9883   4.460   6.217   0.926  1.4311 -0.2292 -0.3397
 3307TIP3   OH2 9884   6.256   4.840   4.206  0.2148 -0.7271 -0.2437
 3307TIP3    H1 9885   6.231   4.888   4.285  3.2582 -2.7384  2.1929
 3307TIP3    H2 9886   6.312   4.900   4.157  3.4988 -1.2568  2.4718
 3308TIP3   OH2 9887   3.913   6.458   0.151  0.5801  0.3939 -0.3268
 3308TIP3    H1 9888   4.003   6.488   0.136  0.6271  0.7054  0.5433
 3308TIP3    H2 9889   3.885   6.425   0.066  1.0037  1.6628 -0.9919
 3309TIP3   OH2 9890   4.946   3.117   4.025  0.2257 -0.0173  0.0841
 3309TIP3    H1 9891   4.963   3.085   4.113  0.8348 -0.8059 -0.3013
 3309TIP3    H2 9892   5.022   3.172   4.005  0.1853  0.0019 -0.0169
 3310TIP3   OH2 9893   6.609   5.948   5.150 -0.0077 -0.4963 -0.3662
 3310TIP3    H1 9894   6.550   6.023   5.149  0.5068  0.0978  2.7710
 3310TIP3    H2 9895   6.558   5.877   5.191  0.9519 -0.3543  1.1713
 3311TIP3   OH2 9896   7.008   1.967   2.442 -0.2413  0.4185  0.4444
 3311TIP3    H1 9897   6.968   2.050   2.418 -1.1618  0.6987  2.7736
 3311TIP3    H2 9898   7.012   1.968   2.537 -0.5759 -2.3355  0.5656
 3312TIP3   OH2 9899   1.476   3.536   5.714 -0.1854  0.0435  0.7492
 3312TIP3    H1 9900   1.392   3.558   5.674 -0.1737 -0.7277  0.2862
 3312TIP3    H2 9901   1.541   3.572   5.654 -0.1785 -0.2589  0.5729
 3313TIP3   OH2 9902   4.723   5.004   3.006  0.2146 -0.1054  0.3112
 3313TIP3    H1 9903   4.659   4.947   3.050  1.9079 -1.3314  1.2892
 3313TIP3    H2 9904   4.774   5.043   3.076  1.1301  0.1499 -0.4687
 3314TIP3   OH2 9905   5.093   6.098   2.678 -0.1340 -0.4887  0.6236
 3314TIP3    H1 9906   5.078   6.005   2.661 -0.6138 -0.6080  1.5975
 3314TIP3    H2 9907   5.076   6.141   2.595  1.2155 -1.3774 -0.1486
 3315TIP3   OH2 9908   2.249   4.927   4.819 -0.6776  0.6673  0.6626
 3315TIP3    H1 9909   2.267   5.015   4.851  0.3181  0.7106  0.0252
 3315TIP3    H2 9910   2.300   4.870   4.876 -0.9298  0.5338  0.7588
 3316TIP3   OH2 9911   2.045   2.444   0.807 -0.2688  0.0113  0.3338
 3316TIP3    H1 9912   2.138   2.458   0.788 -0.4067  0.8937  0.2717
 3316TIP3    H2 9913   2.044   2.373   0.871  0.4687  0.1514  0.5091
 3317TIP3   OH2 9914   2.350   3.440   0.812 -0.6275  0.0811 -0.2695
 3317TIP3    H1 9915   2.433   3.479   0.787 -0.6998  0.8493  0.6547
 3317TIP3    H2 9916   2.299   3.438   0.730 -0.1185  0.6501 -0.6087
 3318TIP3   OH2 9917   6.616   4.968   4.709  0.8712  0.3251  0.0388
 3318TIP3    H1 9918   6.664   4.981   4.791 -0.9529 -0.4588  1.3193
 3318TIP3    H2 9919   6.645   4.882   4.678  1.9192  0.8319 -0.3989
 3319TIP3   OH2 9920   2.811   5.003   2.202  0.1088  0.1649 -0.0835
 3319TIP3    H1 9921   2.802   5.007   2.107 -0.0145  0.0169 -0.0775
 3319TIP3    H2 9922   2.814   5.094   2.230  1.6149  0.2357 -0.3731
 3320TIP3   OH2 9923   1.098   3.956   3.037 -0.5346  0.4374 -0.1659
 3320TIP3    H1 9924   1.099   3.882   2.977  1.3120  0.2096  0.0804
 3320TIP3    H2 9925   1.042   3.928   3.109 -0.3193 -0.4982 -0.3454
 3321TIP3   OH2 9926   2.107   0.281   3.774  0.2254 -0.5261 -0.4838
 3321TIP3    H1 9927   2.168   0.277   3.701  0.1686 -0.2186 -0.5529
 3321TIP3    H2 9928   2.054   0.202   3.766 -0.9190  0.3190 -1.7952
 3322TIP3   OH2 9929   6.834   4.958   5.294  0.3133  0.3673 -0.6908
 3322TIP3    H1 9930   6.758   4.981   5.240 -0.0187  0.4121 -0.2172
 3322TIP3    H2 9931   6.821   4.865   5.315  0.0309  0.5356 -0.0667
 3323TIP3   OH2 9932   1.171   2.879   3.806  0.3054  0.2952  0.3868
 3323TIP3    H1 9933   1.174   2.802   3.863 -0.0418  0.5160  0.7072
 3323TIP3    H2 9934   1.237   2.938   3.842  3.2928 -1.2886 -2.0079
 3324TIP3   OH2 9935   3.397   6.373   2.485  0.0285  0.0711  0.4253
 3324TIP3    H1 9936   3.319   6.342   2.530 -0.1034 -0.5965 -0.2319
 3324TIP3    H2 9937   3.454   6.296   2.481  0.7772  0.5784  1.0012
 3325TIP3   OH2 9938   2.159   1.891   3.436 -0.1802 -0.6496  0.0285
 3325TIP3    H1 9939   2.134   1.799   3.435 -1.3796 -0.3890 -2.6156
 3325TIP3    H2 9940   2.254   1.889   3.423 -0.0355 -1.5140  1.1013
 3326TIP3   OH2 9941   5.470   3.061   1.076 -0.0993  0.6472  0.0082
 3326TIP3    H1 9942   5.562   3.048   1.051 -0.2859 -0.4869 -0.1312
 3326TIP3    H2 9943   5.450   3.150   1.045  1.8260  2.2008  2.7871
 3327TIP3   OH2 9944   0.056   0.813   5.536 -0.3992  0.3404 -0.3037
 3327TIP3    H1 9945   0.047   0.726   5.497  0.6079  0.1779 -0.2103
 3327TIP3    H2 9946  -0.026   0.857   5.516 -0.4655 -0.2374 -1.3603
 3328TIP3   OH2 9947   1.342   6.776   2.597 -0.3387 -0.1989 -0.5782
 3328TIP3    H1 9948   1.318   6.849   2.539  1.3519  0.0930 -0.9665
 3328TIP3    H2 9949   1.397   6.719   2.542 -0.8007 -1.2475  0.0185
 3329TIP3   OH2 9950   1.532   5.065   3.460  0.2603 -0.3594 -0.2269
 3329TIP3    H1 9951   1.530   4.988   3.403 -0.1520  0.3394 -1.1914
 3329TIP3    H2 9952   1.456   5.117   3.433  0.0096 -0.0339  1.0204
 3330TIP3   OH2 9953   0.785   3.041   5.828  0.2997  0.2202  0.0883
 3330TIP3    H1 9954   0.776   3.116   5.885 -1.8522  0.3273 -0.3060
 3330TIP3    H2 9955   0.863   3.059   5.776  0.9022  1.2491  1.3146
 3331TIP3   OH2 9956   2.200   1.253   5.325 -0.1096  0.2608  0.3414
 3331TIP3    H1 9957   2.201   1.339   5.283  2.1191  0.0023 -0.2458
 3331TIP3    H2 9958   2.281   1.249   5.375 -0.1837 -1.4851  0.3994
 3332TIP3   OH2 9959   4.578   4.270   3.294  0.1492 -0.0806  0.5746
 3332TIP3    H1 9960   4.641   4.327   3.337 -0.3260  0.2862  0.7977
 3332TIP3    H2 9961   4.517   4.245   3.363  0.3190 -0.8205  0.4631
 3333TIP3   OH2 9962   1.305   3.283   5.770 -0.6166  0.0497  0.2080
 3333TIP3    H1 9963   1.296   3.251   5.680  0.6200 -0.8154  0.3615
 3333TIP3    H2 9964   1.358   3.362   5.762  2.0348 -1.5746  0.3534
 3334TIP3   OH2 9965   3.970   2.770   5.830  0.2747  0.2889  0.2688
 3334TIP3    H1 9966   3.995   2.749   5.740 -1.1794 -0.4384  0.0123
 3334TIP3    H2 9967   3.894   2.715   5.848  0.3663  0.6154  1.8628
 3335TIP3   OH2 9968   4.969   3.576   2.563  0.0018  0.0871 -0.1199
 3335TIP3    H1 9969   4.965   3.530   2.479  0.2506 -1.5904  0.7433
 3335TIP3    H2 9970   5.014   3.658   2.544 -2.8773  1.3443 -2.2677
 3336TIP3   OH2 9971   5.790   6.520   2.521 -0.0014  0.0370 -0.2915
 3336TIP3    H1 9972   5.773   6.500   2.613 -0.7682 -0.4370 -0.5296
 3336TIP3    H2 9973   5.857   6.588   2.523  1.5190 -1.4095  0.5744
 3337TIP3   OH2 9974   7.202   4.455   4.698 -0.1031  0.1590 -0.0121
 3337TIP3    H1 9975   7.276   4.467   4.638 -0.5323  1.3037 -0.3493
 3337TIP3    H2 9976   7.163   4.372   4.672  1.4366 -0.8050  0.6006
 3338TIP3   OH2 9977   3.533   5.162   3.026 -0.2424 -0.0555 -0.3258
 3338TIP3    H1 9978   3.493   5.086   3.067 -3.1210  0.5300 -1.7739
 3338TIP3    H2 9979   3.558   5.218   3.099  0.4446 -1.6470  0.7130
 3339TIP3   OH2 9980   1.288   0.204   3.350 -0.4034  0.0330  0.2367
 3339TIP3    H1 9981   1.308   0.292   3.318 -0.6687  0.2884  0.7529
 3339TIP3    H2 9982   1.350   0.190   3.422 -0.4484 -0.1533  0.2394
 3340TIP3   OH2 9983   2.471   2.140   3.560 -0.3635  0.5071 -0.7959
 3340TIP3    H1 9984   2.389   2.171   3.597  0.3827  0.7698  0.7078
 3340TIP3    H2 9985   2.526   2.218   3.552 -0.3035  0.3733 -1.9989
 3341TIP3   OH2 9986   4.475   1.279   0.039  0.3108  0.0693 -0.6065
 3341TIP3    H1 9987   4.417   1.345   0.001  0.0327 -1.3193 -2.8076
 3341TIP3    H2 9988   4.559   1.293  -0.006  0.1722 -1.1905 -1.2924
 3342TIP3   OH2 9989   2.628   0.583   0.230 -0.8551  0.0812 -0.1524
 3342TIP3    H1 9990   2.574   0.587   0.151 -0.8208  1.0070 -0.1460
 3342TIP3    H2 9991   2.683   0.506   0.218 -2.4690 -1.1596  0.0384
 3343TIP3   OH2 9992   1.247   0.942   3.173 -0.6160 -0.0760  0.5856
 3343TIP3    H1 9993   1.260   1.032   3.205  0.4630  0.2230 -0.5881
 3343TIP3    H2 9994   1.214   0.894   3.249  2.0101  0.5457  2.2845
 3344TIP3   OH2 9995   0.612   4.630   0.359 -0.1126 -0.5066  0.4034
 3344TIP3    H1 9996   0.584   4.638   0.268  0.9607 -0.2408  0.0877
 3344TIP3    H2 9997   0.604   4.536   0.378 -0.0628 -0.6071 -0.0592
 3345TIP3   OH2 9998   3.651   3.324   2.644 -0.4744 -0.5384 -0.2348
 3345TIP3    H1 9999   3.606   3.406   2.624  0.8164 -0.2813 -2.4750
 3345TIP3    H210000   3.582   3.264   2.671 -2.1193  0.0346 -2.8152
 3346TIP3   OH210001   4.922   4.162   0.879  0.1257 -0.4570  0.0870
 3346TIP3    H110002   4.946   4.191   0.966 -2.4041  0.1074  0.6789
 3346TIP3    H210003   4.837   4.203   0.862  0.0957 -1.3034 -2.2637
 3347TIP3   OH210004   2.631   3.851   2.878 -0.4056  0.0711 -0.2886
 3347TIP3    H110005   2.678   3.770   2.862  1.6954  1.2625 -0.4840
 3347TIP3    H210006   2.649   3.905   2.801 -3.8241 -0.0923 -1.3751
 3348TIP3   OH210007   6.071   2.591   3.662 -0.3194  0.2647 -0.3572
 3348TIP3    H110008   6.007   2.555   3.600 -1.1119 -0.6547  0.9242
 3348TIP3    H210009   6.156   2.571   3.623 -0.7492 -2.1294 -0.2284
 3349TIP3   OH210010   0.637   4.425   5.663 -0.1349 -0.5063  0.1120
 3349TIP3    H110011   0.623   4.519   5.671 -0.0757 -0.6263  2.1916
 3349TIP3    H210012   0.647   4.410   5.569  1.4432  1.7796 -0.1553
 3350TIP3   OH210013   4.805   2.947   2.614 -0.2020 -0.6308 -0.4916
 3350TIP3    H110014   4.866   2.938   2.688 -1.2087  1.6689  0.7127
 3350TIP3    H210015   4.838   2.884   2.549  3.3993  0.3731  0.1177
 3351TIP3   OH210016   5.673   3.095   2.757  0.0796  0.5466  0.1891
 3351TIP3    H110017   5.650   3.162   2.821 -1.3104  0.9311 -0.6627
 3351TIP3    H210018   5.764   3.113   2.735  0.0263  1.5292  0.7139
 3352TIP3   OH210019   6.171   2.780   1.860 -0.0127  0.4238 -0.3750
 3352TIP3    H110020   6.102   2.836   1.895  0.5809  0.5488  0.6375
 3352TIP3    H210021   6.126   2.702   1.828 -0.6631  0.7289 -0.2032
 3353TIP3   OH210022   7.147   3.076   4.835 -0.1509  0.0598  0.4810
 3353TIP3    H110023   7.214   3.143   4.825 -0.8747  1.2230  2.6683
 3353TIP3    H210024   7.073   3.107   4.782  0.3766 -0.3142 -0.4963
 3354TIP3   OH210025   1.134   6.628   2.323  0.2550  0.2194  0.3220
 3354TIP3    H110026   1.224   6.636   2.355  0.5879 -1.3153 -0.1264
 3354TIP3    H210027   1.084   6.691   2.375  1.4216  0.4139  1.2465
 3355TIP3   OH210028   4.414   4.268   4.953  0.7701  0.2415 -0.0157
 3355TIP3    H110029   4.342   4.252   4.892  0.6393  1.5261 -0.2146
 3355TIP3    H210030   4.372   4.288   5.036  0.7840  2.9752 -0.5936
 3356TIP3   OH210031   3.029   0.306   4.538 -0.5825 -0.1760  0.0281
 3356TIP3    H110032   3.099   0.364   4.568 -0.0349 -1.6599  1.8233
 3356TIP3    H210033   2.969   0.363   4.489  1.3780  1.3049 -0.7744
 3357TIP3   OH210034   1.099   1.348   5.464  0.5426 -0.3969 -0.1092
 3357TIP3    H110035   1.037   1.358   5.392  1.4750 -0.1942 -0.8953
 3357TIP3    H210036   1.047   1.307   5.534 -0.4592 -0.2860 -0.7588
 3358TIP3   OH210037   3.653   3.583   2.548 -0.2670 -0.3767  0.3273
 3358TIP3    H110038   3.645   3.636   2.627  1.1801  0.7192 -0.2115
 3358TIP3    H210039   3.748   3.572   2.536 -0.4929 -2.3164 -0.1104
 3359TIP3   OH210040   1.142   2.832   5.095 -0.1996 -0.3209 -0.1085
 3359TIP3    H110041   1.113   2.741   5.104 -0.6395 -0.0794  1.2302
 3359TIP3    H210042   1.215   2.840   5.156 -0.8591  0.4881  0.6031
 3360TIP3   OH210043   2.472   0.239   4.398 -0.5029  0.2043 -0.0536
 3360TIP3    H110044   2.501   0.325   4.430 -2.6197  0.6698  0.8412
 3360TIP3    H210045   2.438   0.257   4.311  3.1163 -0.6375 -1.8071
 3361TIP3   OH210046   6.889   5.768   2.650  0.2060  0.3158  0.3253
 3361TIP3    H110047   6.845   5.822   2.585 -1.1241 -2.0328 -0.8659
 3361TIP3    H210048   6.975   5.808   2.661 -1.0953  3.3618  0.5036
 3362TIP3   OH210049   6.531   6.396   0.765 -0.0105  0.3799 -0.5042
 3362TIP3    H110050   6.523   6.422   0.673  0.7538 -1.5490 -1.1749
 3362TIP3    H210051   6.626   6.387   0.779 -0.1924 -1.4062 -0.1982
 3363TIP3   OH210052   2.353   3.210   2.362 -0.6008 -0.0849 -0.0270
 3363TIP3    H110053   2.375   3.298   2.391 -1.9067  0.0126  0.7789
 3363TIP3    H210054   2.304   3.172   2.435  0.3236 -1.6498 -0.1837
 3364TIP3   OH210055   2.960   1.398   2.502 -0.5439  0.5129 -0.2943
 3364TIP3    H110056   2.966   1.490   2.531 -2.5279 -0.0725  2.3803
 3364TIP3    H210057   2.886   1.363   2.552  0.3618 -2.6520 -1.0063
 3365TIP3   OH210058   4.608   0.748   0.019 -0.2030 -0.5062  0.4161
 3365TIP3    H110059   4.677   0.682   0.023  0.7047  0.3821 -0.1356
 3365TIP3    H210060   4.590   0.768   0.111  1.1305  0.0925  0.5724
 3366TIP3   OH210061   1.858   3.385   5.676 -0.4427  0.7988 -0.0168
 3366TIP3    H110062   1.786   3.394   5.613  0.1200 -0.2197 -0.8431
 3366TIP3    H210063   1.824   3.324   5.742 -1.1432  2.1057  0.8595
 3367TIP3   OH210064   0.975   5.487   4.812  0.4786 -0.5415  0.2909
 3367TIP3    H110065   1.050   5.475   4.754  1.2814 -0.3876  1.2664
 3367TIP3    H210066   0.964   5.582   4.816 -0.4578 -0.5919 -0.6847
 3368TIP3   OH210067   4.447   3.340   4.080 -0.0674  0.1100 -0.2873
 3368TIP3    H110068   4.416   3.376   3.997 -0.1261 -0.6446 -0.6002
 3368TIP3    H210069   4.521   3.284   4.056  0.6915  0.8170  0.3072
 3369TIP3   OH210070   2.789   6.307   3.482 -0.4108 -0.1235 -0.1523
 3369TIP3    H110071   2.788   6.323   3.576 -2.0235  0.7792 -0.2885
 3369TIP3    H210072   2.719   6.243   3.468  1.0499 -1.7180 -0.5483
 3370TIP3   OH210073   2.297   6.517   5.496 -0.3702 -0.4677  0.2221
 3370TIP3    H110074   2.251   6.466   5.562 -0.9759 -0.1203  0.0783
 3370TIP3    H210075   2.232   6.581   5.466  0.4091  0.4561  0.4705
 3371TIP3   OH210076   0.918   2.676   4.188  0.0528 -0.1678 -0.0733
 3371TIP3    H110077   0.911   2.663   4.093 -0.3178  0.2246 -0.1045
 3371TIP3    H210078   0.941   2.590   4.222 -2.2615 -0.9303 -0.2674
 3372TIP3   OH210079   0.797   6.144   2.121  0.1224 -0.1141 -0.4234
 3372TIP3    H110080   0.788   6.107   2.209  0.8555  0.2076 -0.2079
 3372TIP3    H210081   0.884   6.183   2.120  0.0660  0.0076 -1.2516
 3373TIP3   OH210082   6.487   2.542   1.245 -0.4315 -0.0344  0.2649
 3373TIP3    H110083   6.433   2.464   1.260  0.3121 -0.2584  1.9845
 3373TIP3    H210084   6.541   2.520   1.170 -0.4326 -1.0763  0.5569
 3374TIP3   OH210085   7.099   6.325   5.678 -0.1706 -0.2763  0.3174
 3374TIP3    H110086   7.186   6.285   5.673 -1.3778 -3.2588  0.7618
 3374TIP3    H210087   7.103   6.399   5.618  2.6916 -0.2220  0.4302
 3375TIP3   OH210088   3.186   5.496   0.493  0.0525  0.2909 -0.4988
 3375TIP3    H110089   3.177   5.571   0.551 -1.2910  0.1850 -0.5390
 3375TIP3    H210090   3.234   5.530   0.417  0.8650  0.6957  0.1851
 3376TIP3   OH210091   6.564   1.996   4.423 -0.7234  0.0049  0.4892
 3376TIP3    H110092   6.641   2.007   4.367 -0.8950 -3.6064 -0.7245
 3376TIP3    H210093   6.492   2.034   4.373 -0.1822  0.7811  0.2906
 3377TIP3   OH210094   3.592   4.225   0.075  0.4672 -0.4981 -0.1440
 3377TIP3    H110095   3.559   4.314   0.080  0.9485 -0.2770 -0.7988
 3377TIP3    H210096   3.667   4.224   0.134 -0.8005 -1.0650  1.5298
 3378TIP3   OH210097   1.913   1.628   1.405 -0.2994  0.1281  0.2238
 3378TIP3    H110098   1.963   1.552   1.374  0.1226  0.6921 -0.4957
 3378TIP3    H210099   1.963   1.704   1.375  1.1144  0.7898  3.7821
 3379TIP3   OH210100   1.193   1.331   4.121 -0.4585  0.4289  0.2119
 3379TIP3    H110101   1.136   1.345   4.046  0.1779 -1.6620 -0.7478
 3379TIP3    H210102   1.144   1.273   4.178 -0.2648  0.6479  0.6045
 3380TIP3   OH210103   2.985   1.584   4.894 -0.2123  0.0442  0.1511
 3380TIP3    H110104   3.011   1.494   4.914  0.3868  0.4933  1.4966
 3380TIP3    H210105   2.896   1.592   4.929 -0.4536 -0.1472 -0.3983
 3381TIP3   OH210106   0.769   3.949   1.480 -0.8598  0.6914 -0.1039
 3381TIP3    H110107   0.686   3.914   1.447 -0.7529 -0.4509  0.7808
 3381TIP3    H210108   0.754   3.961   1.574 -0.4032  1.6471 -0.1378
 3382TIP3   OH210109   3.239   3.378   5.303  0.1364 -0.4590 -0.5163
 3382TIP3    H110110   3.310   3.341   5.251  0.5612 -0.3419 -0.0250
 3382TIP3    H210111   3.187   3.302   5.330 -1.2194 -0.4000 -2.6934
 3383TIP3   OH210112   7.165   2.226   1.870 -0.1236 -0.3050  0.4409
 3383TIP3    H110113   7.127   2.309   1.899  1.5457  0.5763  0.2672
 3383TIP3    H210114   7.259   2.245   1.861  0.7012 -2.7543  2.4327
 3384TIP3   OH210115   0.717   6.229   1.625  0.5168  0.4065 -1.0209
 3384TIP3    H110116   0.780   6.161   1.599  0.5218  0.2658 -0.6470
 3384TIP3    H210117   0.743   6.306   1.574  1.2477  0.4674 -0.5793
 3385TIP3   OH210118   6.038   5.018   1.544  0.5915  0.6731 -0.0254
 3385TIP3    H110119   6.095   4.999   1.618 -0.6157  0.6218  0.9104
 3385TIP3    H210120   6.086   4.983   1.468  0.8719 -1.2715  0.9809
 3386TIP3   OH210121   4.414   3.107   3.091  0.1814 -0.4675  0.2720
 3386TIP3    H110122   4.403   3.202   3.095  1.8879 -0.2022 -0.2895
 3386TIP3    H210123   4.504   3.093   3.121 -0.2659 -1.9856  0.9890
 3387TIP3   OH210124   1.264   4.210   0.284 -0.0764  0.3430 -0.0918
 3387TIP3    H110125   1.329   4.163   0.233  1.1749  0.0359  1.6775
 3387TIP3    H210126   1.183   4.161   0.270  0.9810 -1.8866  0.9531
 3388TIP3   OH210127   4.682   0.519   3.348  0.1941  0.0061  0.0785
 3388TIP3    H110128   4.602   0.538   3.299 -0.0966 -3.1684 -0.8626
 3388TIP3    H210129   4.652   0.511   3.439  0.0289  1.8731  0.2218
 3389TIP3   OH210130   2.668   6.368   1.811 -0.4175  0.2528 -0.1251
 3389TIP3    H110131   2.582   6.369   1.853 -0.4641 -0.6705 -0.1718
 3389TIP3    H210132   2.704   6.282   1.833  0.7951  0.8842  0.4880
 3390TIP3   OH210133   6.387   5.148   4.548  0.7913 -0.3627 -0.8940
 3390TIP3    H110134   6.436   5.080   4.594  0.0185  0.3039  1.0276
 3390TIP3    H210135   6.362   5.210   4.616  2.6079  2.6360 -2.7068
 3391TIP3   OH210136   2.772   0.921   2.883 -0.1515  0.0702  0.0229
 3391TIP3    H110137   2.822   0.891   2.807 -0.7418  2.7589 -1.5614
 3391TIP3    H210138   2.738   0.840   2.923 -1.3036 -1.4713 -3.6191
 3392TIP3   OH210139   3.570   1.207   3.891  1.2868 -0.0429  0.4537
 3392TIP3    H110140   3.527   1.124   3.911  0.6794  0.4950  1.4784
 3392TIP3    H210141   3.552   1.262   3.968  2.4204  0.7462  0.1773
 3393TIP3   OH210142   6.946   5.853   1.495  0.0447 -0.0410 -0.0693
 3393TIP3    H110143   6.915   5.858   1.404 -1.9453  0.5287  0.5884
 3393TIP3    H210144   6.945   5.943   1.526  0.1079 -0.2979  0.7077
 3394TIP3   OH210145   1.402   1.526   5.144 -0.3584 -0.1085 -0.1360
 3394TIP3    H110146   1.415   1.464   5.216 -2.4154  0.4706  0.8158
 3394TIP3    H210147   1.454   1.491   5.072  0.6384 -1.4760  1.1890
 3395TIP3   OH210148   4.241   1.629   0.830 -0.3782  0.6360 -0.5130
 3395TIP3    H110149   4.209   1.565   0.893 -1.0475  0.8467 -0.6266
 3395TIP3    H210150   4.189   1.612   0.751 -0.4902  1.2429 -0.5750
 3396TIP3   OH210151   1.517   3.052   0.434  0.1780  0.1377  0.4357
 3396TIP3    H110152   1.608   3.031   0.414 -0.0740  1.0599 -1.9545
 3396TIP3    H210153   1.468   3.032   0.354 -1.4726  1.1445  1.1236
 3397TIP3   OH210154   1.022   4.535   2.508 -0.0791  0.2674 -0.0543
 3397TIP3    H110155   1.029   4.472   2.580 -0.6681 -1.0977 -1.1423
 3397TIP3    H210156   1.113   4.548   2.480 -0.0721 -2.2317 -1.5178
 3398TIP3   OH210157   1.447   2.865   3.349 -0.2309  0.2952  0.3922
 3398TIP3    H110158   1.533   2.853   3.390 -0.1643 -3.3892 -0.4462
 3398TIP3    H210159   1.395   2.910   3.415  2.2683  2.7607  0.9013
 3399TIP3   OH210160   5.856   1.008   4.989  0.3071  0.1183  0.1452
 3399TIP3    H110161   5.836   0.968   4.905 -1.7752  0.0764  0.5992
 3399TIP3    H210162   5.922   1.075   4.969  0.9100 -0.8614 -1.2539
 3400TIP3   OH210163   4.422   5.697   2.143 -0.2071 -0.1592  0.6622
 3400TIP3    H110164   4.514   5.721   2.134 -0.6875  1.5206 -0.1183
 3400TIP3    H210165   4.422   5.624   2.205  1.8227 -1.4771 -0.7889
 3401TIP3   OH210166   2.811   1.298   3.274 -0.3477 -0.2055  0.3008
 3401TIP3    H110167   2.772   1.356   3.340 -1.1613  1.5589 -1.6233
 3401TIP3    H210168   2.735   1.257   3.231  0.0282  0.4966 -1.0904
 3402TIP3   OH210169   6.575   3.542   3.536 -0.1272 -0.0991 -0.3425
 3402TIP3    H110170   6.629   3.506   3.607  1.4181 -0.1988 -1.5188
 3402TIP3    H210171   6.619   3.515   3.456  0.1802  2.9627 -1.3254
 3403TIP3   OH210172   2.444   6.370   5.281 -0.7030 -0.3018 -0.0911
 3403TIP3    H110173   2.502   6.427   5.232 -2.1035 -0.5415 -2.1603
 3403TIP3    H210174   2.393   6.429   5.337  0.0247  0.1242  0.1240
 3404TIP3   OH210175   1.693   5.011   5.614  0.0217 -0.5316 -0.5496
 3404TIP3    H110176   1.656   5.096   5.592  0.2274 -0.2280  0.2489
 3404TIP3    H210177   1.723   4.975   5.531 -0.5312 -0.0503 -0.9638
 3405TIP3   OH210178   0.222   4.250   0.835  0.5489 -0.1429  0.4433
 3405TIP3    H110179   0.147   4.308   0.822 -0.0554 -1.2606 -1.4279
 3405TIP3    H210180   0.298   4.306   0.823  0.0419  0.8021  1.4115
 3406TIP3   OH210181   3.294   5.233   1.409  0.1497 -0.4028  0.2764
 3406TIP3    H110182   3.224   5.268   1.355  1.5375  1.8730 -0.1919
 3406TIP3    H210183   3.252   5.211   1.493 -1.2990 -0.2275 -0.3783
 3407TIP3   OH210184   4.289   4.497   1.845  0.1776 -0.5928  0.1714
 3407TIP3    H110185   4.260   4.584   1.873 -0.0657  0.0046 -1.8074
 3407TIP3    H210186   4.384   4.503   1.840  0.2961 -0.9472  1.5320
 3408TIP3   OH210187   4.140   3.058   2.406  0.6198  0.2332 -0.0983
 3408TIP3    H110188   4.198   2.988   2.435  1.7435 -0.4258 -3.5014
 3408TIP3    H210189   4.056   3.014   2.390  0.3346  0.3770  0.9317
 3409TIP3   OH210190   4.590   3.850   0.378  0.5263  0.3180  0.8482
 3409TIP3    H110191   4.648   3.926   0.379  1.0012 -0.0389  0.9856
 3409TIP3    H210192   4.502   3.887   0.378  0.7506  0.8695  0.5201
 3410TIP3   OH210193   2.743   4.719   2.841 -0.0332 -0.1823 -0.0712
 3410TIP3    H110194   2.679   4.695   2.908  1.3702 -0.4341  1.2388
 3410TIP3    H210195   2.805   4.647   2.841  0.7432  0.4758 -0.6685
 3411TIP3   OH210196   4.845   0.472   4.176  1.1198 -0.6503 -0.1534
 3411TIP3    H110197   4.913   0.481   4.243  1.1888  0.6929 -0.3705
 3411TIP3    H210198   4.841   0.558   4.135  0.7829 -1.3304 -1.6025
 3412TIP3   OH210199   2.113   6.260   0.039  0.2377  0.3455  0.2099
 3412TIP3    H110200   2.118   6.224   0.128 -1.2350 -1.8259 -0.5153
 3412TIP3    H210201   2.204   6.266   0.011  0.6394 -0.6277  1.2258
 3413TIP3   OH210202   6.108   4.928   0.118  0.2167 -0.3345 -0.3455
 3413TIP3    H110203   6.194   4.884   0.120 -0.7673 -2.3649 -0.0163
 3413TIP3    H210204   6.119   4.998   0.054  1.7285 -1.4675 -1.4183
 3414TIP3   OH210205   2.489   5.459   0.638  0.0491 -0.6582  0.1781
 3414TIP3    H110206   2.420   5.517   0.670  0.1103 -1.3639  1.6893
 3414TIP3    H210207   2.463   5.436   0.549 -0.8250  0.3639  0.1602
 3415TIP3   OH210208   5.801   6.488   4.644  0.0762 -0.3678 -0.0052
 3415TIP3    H110209   5.724   6.486   4.700  0.1100  0.2255  0.0668
 3415TIP3    H210210   5.868   6.439   4.693  1.1784  2.9536  2.1045
 3416TIP3   OH210211   2.720   5.214   2.550 -0.4095 -0.0527 -0.2662
 3416TIP3    H110212   2.769   5.133   2.536 -0.2066 -0.5433  2.5391
 3416TIP3    H210213   2.628   5.187   2.544 -0.3456 -0.1579 -0.8073
 3417TIP3   OH210214   5.702   2.921   0.375 -0.2596 -0.1085 -0.0598
 3417TIP3    H110215   5.779   2.978   0.376  0.2916 -0.7984 -1.3649
 3417TIP3    H210216   5.630   2.979   0.350  0.1244  0.2209 -0.4211
 3418TIP3   OH210217   7.094   6.321   1.672  0.1844 -0.5252  0.9261
 3418TIP3    H110218   7.153   6.326   1.747 -1.6457  0.4580  2.3716
 3418TIP3    H210219   7.034   6.395   1.683 -0.9880 -1.1584 -0.7665
 3419TIP3   OH210220   4.747   2.271   5.854  0.1519  0.4402  0.4122
 3419TIP3    H110221   4.765   2.360   5.884  0.2374  0.6736 -0.3146
 3419TIP3    H210222   4.755   2.217   5.933  1.5125  0.8715  0.5931
 3420TIP3   OH210223   0.808   3.552   5.099  0.7477 -0.5036 -0.1475
 3420TIP3    H110224   0.716   3.576   5.101  0.0450 -2.4688 -2.9041
 3420TIP3    H210225   0.846   3.602   5.027  1.7153 -0.1506  0.5788
 3421TIP3   OH210226   5.254   1.567   5.166  0.1774 -0.0277  0.1753
 3421TIP3    H110227   5.311   1.511   5.114 -2.3644 -1.6556 -1.0229
 3421TIP3    H210228   5.260   1.531   5.255  0.5226 -0.5507 -0.0540
 3422TIP3   OH210229   3.783   1.685   2.571  0.2517 -0.3257 -0.3981
 3422TIP3    H110230   3.715   1.683   2.503  0.7726 -1.1496 -0.9152
 3422TIP3    H210231   3.738   1.654   2.650 -0.8656  2.4700  0.1580
 3423TIP3   OH210232   4.170   6.092   2.283  0.3465 -0.8296  0.1915
 3423TIP3    H110233   4.229   6.056   2.349  2.6745  1.5201 -0.4203
 3423TIP3    H210234   4.137   6.173   2.322 -0.2661 -0.6994 -0.5596
 3424TIP3   OH210235   6.521   4.816   4.459  0.4318 -0.6489 -0.1838
 3424TIP3    H110236   6.607   4.849   4.432  0.0212 -0.4884 -1.3652
 3424TIP3    H210237   6.493   4.760   4.386 -0.1662 -1.2603  0.4985
 3425TIP3   OH210238   2.387   6.513   3.270  0.0793  0.2709 -0.3088
 3425TIP3    H110239   2.378   6.480   3.360 -0.3452 -0.5938 -0.6593
 3425TIP3    H210240   2.476   6.548   3.266  0.4353 -0.5706  0.1626
 3426TIP3   OH210241   3.964   2.638   4.138  0.2653  0.0213 -0.2869
 3426TIP3    H110242   3.994   2.720   4.098  1.2293  0.6183  1.5012
 3426TIP3    H210243   3.869   2.646   4.141  0.3839  1.7851  1.1023
 3427TIP3   OH210244   0.433   6.654   4.027  0.4937 -0.7915 -0.2258
 3427TIP3    H110245   0.513   6.611   3.995  0.5785 -0.4464 -0.4894
 3427TIP3    H210246   0.448   6.747   4.009 -0.0132 -0.7374 -0.3691
 3428TIP3   OH210247   4.376   2.512   4.096 -0.0741  0.6453  0.0039
 3428TIP3    H110248   4.394   2.604   4.074 -1.1225  1.3639  1.8489
 3428TIP3    H210249   4.310   2.517   4.165  0.7262 -1.4671  1.0134
 3429TIP3   OH210250   4.933   1.933   5.604 -0.1057  0.2292 -0.4635
 3429TIP3    H110251   4.866   1.898   5.663 -0.6437 -0.4765 -1.4612
 3429TIP3    H210252   5.013   1.888   5.631 -0.2665  0.1822 -0.0452
 3430TIP3   OH210253   3.436   3.658   3.731  0.1279 -0.6292  0.2835
 3430TIP3    H110254   3.512   3.705   3.696  0.0039 -0.2467  0.5204
 3430TIP3    H210255   3.367   3.672   3.666 -0.5362  1.2924  1.3061
 3431TIP3   OH210256   2.947   2.400   5.655  0.1006  0.0466 -0.0307
 3431TIP3    H110257   2.905   2.487   5.650  1.8828  1.0911  1.7684
 3431TIP3    H210258   3.006   2.406   5.729  0.3505 -2.7442  0.0981
 3432TIP3   OH210259   1.869   1.389   2.520  0.9913  0.2913  0.4711
 3432TIP3    H110260   1.795   1.391   2.581  1.0511 -2.2861  0.7367
 3432TIP3    H210261   1.830   1.365   2.436  1.4027 -0.1065  0.3894
 3433TIP3   OH210262   0.971   2.944   4.236 -0.2844  0.3950  0.2232
 3433TIP3    H110263   0.952   2.851   4.223  1.8937  0.1467 -1.8654
 3433TIP3    H210264   1.064   2.948   4.259 -0.6104  2.0185  1.5023
 3434TIP3   OH210265   3.012   2.432   3.629  0.1680 -0.0742 -0.7286
 3434TIP3    H110266   3.077   2.479   3.681 -0.5267  0.5162 -0.3804
 3434TIP3    H210267   2.928   2.469   3.656 -0.2949 -0.6216 -1.3830
 3435TIP3   OH210268   4.201   1.531   5.704 -0.4673 -0.0120  0.2587
 3435TIP3    H110269   4.230   1.455   5.755 -1.9128  0.2139  1.4913
 3435TIP3    H210270   4.161   1.493   5.626 -2.0053 -0.6158  1.2943
 3436TIP3   OH210271   4.594   5.531   5.421 -0.2062 -0.0709  0.4946
 3436TIP3    H110272   4.590   5.463   5.354  1.2681  0.6857 -0.4075
 3436TIP3    H210273   4.626   5.486   5.499 -0.0447 -0.5776  0.1413
 3437TIP3   OH210274   3.421   2.750   4.701 -0.2460 -0.1077  0.1845
 3437TIP3    H110275   3.472   2.729   4.779 -1.0275 -0.0767  0.7099
 3437TIP3    H210276   3.332   2.763   4.733 -0.0126  3.1643 -0.2327
 3438TIP3   OH210277   3.324   1.030   3.933  0.3003 -0.1383  0.4149
 3438TIP3    H110278   3.273   1.111   3.931 -2.9486 -1.9795 -1.3832
 3438TIP3    H210279   3.274   0.972   3.990  0.2927 -2.0455 -1.3959
 3439TIP3   OH210280   3.798   6.456   4.896 -0.2927  0.0604  0.0830
 3439TIP3    H110281   3.822   6.370   4.862  0.9088  0.2813  0.3262
 3439TIP3    H210282   3.705   6.448   4.917  0.0880 -1.6123  1.3435
 3440TIP3   OH210283   0.510   3.773   4.424  0.0223 -0.1133 -0.2201
 3440TIP3    H110284   0.496   3.783   4.330  0.2618 -0.2363 -0.2689
 3440TIP3    H210285   0.525   3.679   4.436  1.3348  0.0699 -0.2401
 3441TIP3   OH210286   4.358   6.174   4.686 -0.2528  0.5824  0.4633
 3441TIP3    H110287   4.353   6.254   4.634  1.4983  0.2065 -0.3504
 3441TIP3    H210288   4.306   6.110   4.636  0.6750  0.4711 -0.4067
 3442TIP3   OH210289   5.461   6.071   4.104  0.1643 -0.0730  0.0603
 3442TIP3    H110290   5.521   5.997   4.096  1.0428  0.6954 -0.8038
 3442TIP3    H210291   5.437   6.091   4.014  1.6904  2.0540  0.0463
 3443TIP3   OH210292   4.579   3.657   1.803  0.4371  0.8148 -0.4045
 3443TIP3    H110293   4.531   3.666   1.721  0.7754 -1.1357 -0.8663
 3443TIP3    H210294   4.628   3.576   1.793  0.9820  0.8681  1.4946
 3444TIP3   OH210295   7.187   3.788   5.718 -0.5735 -0.3604  0.6731
 3444TIP3    H110296   7.111   3.826   5.763  0.0342  1.0368  0.5729
 3444TIP3    H210297   7.261   3.838   5.751 -0.0037  0.1180 -1.2170
 3445TIP3   OH210298   3.576   1.800   0.011 -0.1781  0.5569 -0.2252
 3445TIP3    H110299   3.513   1.740   0.051 -1.1541  1.7886  0.1579
 3445TIP3    H210300   3.570   1.880   0.063  0.1928  1.4101 -1.4416
 3446TIP3   OH210301   3.758   3.958   2.843  0.2455 -0.1806  0.7295
 3446TIP3    H110302   3.697   4.028   2.867 -0.0285 -0.4644  0.8638
 3446TIP3    H210303   3.840   3.983   2.886  0.1529  0.0643  0.7683
 3447TIP3   OH210304   3.917   0.462   0.307 -0.8432  0.5090  0.1371
 3447TIP3    H110305   3.980   0.399   0.272 -0.5506  1.1329 -0.4761
 3447TIP3    H210306   3.968   0.543   0.317 -1.6076  1.1012 -0.6501
 3448TIP3   OH210307   2.728   1.741   3.515  0.2244 -0.5710 -0.4531
 3448TIP3    H110308   2.728   1.731   3.610  3.7469 -0.8801 -0.3552
 3448TIP3    H210309   2.710   1.834   3.501  0.3321 -0.3886  0.5595
 3449TIP3   OH210310   3.866   0.300   1.498 -0.2605  0.0816 -0.0544
 3449TIP3    H110311   3.857   0.374   1.558  0.4206  0.2934 -0.2062
 3449TIP3    H210312   3.791   0.307   1.440 -0.1215  0.7409 -0.1595
 3450TIP3   OH210313   5.927   4.767   1.173 -0.2478  0.5285  0.4238
 3450TIP3    H110314   5.899   4.830   1.240 -1.7370  1.6998 -1.2190
 3450TIP3    H210315   6.001   4.810   1.130 -0.2624  0.4681  0.3379
 3451TIP3   OH210316   4.929   1.562   1.228  0.4670  0.7005 -0.5705
 3451TIP3    H110317   4.963   1.556   1.317 -1.6017  0.2049  0.2485
 3451TIP3    H210318   4.852   1.505   1.228  1.2737 -0.5403 -3.1209
 3452TIP3   OH210319   6.464   2.005   3.640 -0.1699  0.0616 -0.6321
 3452TIP3    H110320   6.553   1.970   3.627 -0.2104  0.0529 -0.8740
 3452TIP3    H210321   6.409   1.927   3.646 -0.3465  0.0926 -1.7558
 3453TIP3   OH210322   1.219   5.901   5.677 -0.2130  0.1534 -0.3322
 3453TIP3    H110323   1.148   5.839   5.661  0.5174 -0.5844 -0.7765
 3453TIP3    H210324   1.175   5.983   5.697 -1.1929 -0.3706 -0.2816
 3454TIP3   OH210325   1.559   4.802   4.829  0.2143  0.6721 -0.0373
 3454TIP3    H110326   1.573   4.824   4.921  2.6726  2.4800 -0.7199
 3454TIP3    H210327   1.619   4.729   4.812 -0.2772  0.3025 -0.1951
 3455TIP3   OH210328   1.933   0.522   0.417  0.4598  0.0805  0.8008
 3455TIP3    H110329   1.914   0.576   0.494 -0.4803  1.6996 -0.5191
 3455TIP3    H210330   2.026   0.539   0.399  0.7418 -0.4634  1.6632
 3456TIP3   OH210331   5.591   0.533   3.794  0.3844  0.0138  0.1430
 3456TIP3    H110332   5.601   0.628   3.791  0.9785  0.0237  1.5821
 3456TIP3    H210333   5.514   0.519   3.848 -0.8238 -0.3236 -1.5771
 3457TIP3   OH210334   6.110   5.063   4.846 -0.1128 -0.6379  0.2005
 3457TIP3    H110335   6.182   5.018   4.890  0.6701 -0.4418 -0.8298
 3457TIP3    H210336   6.106   5.149   4.888 -0.3852 -0.9950  0.9136
 3458TIP3   OH210337   3.289   1.511   2.689  0.3985  0.9157  0.0992
 3458TIP3    H110338   3.267   1.488   2.779 -0.1788 -1.0233 -0.4956
 3458TIP3    H210339   3.220   1.573   2.663 -0.1209  0.5647  0.6080
 3459TIP3   OH210340   4.009   5.771   2.710  0.0079 -0.2265 -0.5253
 3459TIP3    H110341   4.030   5.839   2.645 -0.4101  0.8828  0.4542
 3459TIP3    H210342   3.992   5.693   2.658 -1.0681  0.8091 -1.8375
 3460TIP3   OH210343   4.581   4.438   4.559  0.0547 -0.1083 -0.1310
 3460TIP3    H110344   4.531   4.516   4.537 -0.6832 -0.7142 -0.6663
 3460TIP3    H210345   4.599   4.446   4.652  0.0941  0.7579 -0.2064
 3461TIP3   OH210346   4.109   3.715   3.575  0.2801  0.2926  0.7845
 3461TIP3    H110347   4.173   3.647   3.552  0.1751  0.2463  0.6350
 3461TIP3    H210348   4.024   3.675   3.558  0.2277  0.6166  0.2805
 3462TIP3   OH210349   3.711   6.578   1.215 -0.6629  0.0743  0.4920
 3462TIP3    H110350   3.802   6.583   1.244 -0.9100  2.2942  1.0576
 3462TIP3    H210351   3.709   6.506   1.152  1.7046  0.6079 -0.2704
 3463TIP3   OH210352   2.590   2.410   3.063  0.2484  0.3244  0.0602
 3463TIP3    H110353   2.639   2.469   3.121  1.0850  0.5845 -0.8624
 3463TIP3    H210354   2.561   2.339   3.119  2.2986 -0.1920  0.5532
 3464TIP3   OH210355   3.044   1.003   2.301  0.3032  0.0382  0.3918
 3464TIP3    H110356   3.127   1.049   2.285  0.8971 -0.8326  0.8937
 3464TIP3    H210357   3.034   0.945   2.226 -0.3102  0.7736 -0.1077
 3465TIP3   OH210358   5.555   2.333   1.809  0.3301  0.2185  0.8769
 3465TIP3    H110359   5.514   2.401   1.862 -0.5386 -0.8689  1.6529
 3465TIP3    H210360   5.557   2.370   1.720  1.0220  1.7200  1.4908
 3466TIP3   OH210361   5.724   3.717   3.186  0.8353  0.0657 -0.3019
 3466TIP3    H110362   5.654   3.657   3.211  0.3281  1.1020  0.8703
 3466TIP3    H210363   5.757   3.683   3.103 -0.8287 -0.6441 -0.6996
 3467TIP3   OH210364   3.151   6.231   0.108 -0.0222  0.2095 -0.0228
 3467TIP3    H110365   3.063   6.216   0.073  0.6379 -0.6609 -1.4018
 3467TIP3    H210366   3.186   6.302   0.054  0.5916 -0.3603 -0.3934
 3468TIP3   OH210367   2.003   3.543   2.037 -0.7259 -0.2435 -0.0054
 3468TIP3    H110368   1.910   3.545   2.056 -0.6360 -0.5796  0.5094
 3468TIP3    H210369   2.023   3.630   2.003 -1.4325 -0.5165 -1.1709
 3469TIP3   OH210370   4.386   4.508   3.720  0.2839 -0.0325  0.0258
 3469TIP3    H110371   4.406   4.533   3.810  0.5715  0.7736 -0.2594
 3469TIP3    H210372   4.338   4.425   3.729  2.0952 -1.0715  0.8267
 3470TIP3   OH210373   3.730   5.412   1.295 -0.5720  0.0739 -0.0744
 3470TIP3    H110374   3.758   5.469   1.223 -0.4504  0.9117  0.6110
 3470TIP3    H210375   3.647   5.375   1.265  0.1315 -0.6429 -1.1853
 3471TIP3   OH210376   0.838   2.851   4.765 -0.2542  0.0657 -0.1072
 3471TIP3    H110377   0.819   2.757   4.765  0.7468 -0.1488  0.2608
 3471TIP3    H210378   0.813   2.881   4.677 -0.3812 -0.5882 -0.2973
 3472TIP3   OH210379   4.598   3.310   1.150 -0.3679  0.2297 -0.0252
 3472TIP3    H110380   4.591   3.380   1.086 -0.0284 -1.1423 -1.6390
 3472TIP3    H210381   4.638   3.351   1.227  4.4962  0.9342 -2.5168
 3473TIP3   OH210382   1.958   6.354   2.588  0.2126 -0.3539  0.3591
 3473TIP3    H110383   1.907   6.350   2.669  1.1125  0.3310  0.9809
 3473TIP3    H210384   2.044   6.386   2.615  0.4147  0.2646 -0.9209
 3474TIP3   OH210385   4.425   2.759   3.569  0.2881  0.3860  0.9347
 3474TIP3    H110386   4.512   2.797   3.579  0.7627 -0.3953  0.0369
 3474TIP3    H210387   4.431   2.672   3.609 -0.2020  0.4827  1.2318
 3475TIP3   OH210388   0.088   0.106   4.704 -0.3570 -0.0728 -0.5933
 3475TIP3    H110389   0.072   0.054   4.783  0.5257  0.5053 -0.0080
 3475TIP3    H210390   0.182   0.124   4.706 -0.7173  2.0496 -0.4274
 3476TIP3   OH210391   4.096   1.279   2.116  0.2506 -0.4864  0.2751
 3476TIP3    H110392   4.073   1.344   2.050  1.1220  0.1450  0.5674
 3476TIP3    H210393   4.099   1.196   2.069 -3.2372 -0.7704  0.3519
 3477TIP3   OH210394   6.144   3.528   4.663 -0.4113  1.0804 -0.4272
 3477TIP3    H110395   6.071   3.575   4.703  1.8911  2.5248  2.5271
 3477TIP3    H210396   6.188   3.593   4.608  0.0368  0.9731 -0.2030
 3478TIP3   OH210397   0.835   6.159   5.193 -0.0791 -0.0207 -0.3525
 3478TIP3    H110398   0.844   6.091   5.127 -0.0719 -1.2367  0.8650
 3478TIP3    H210399   0.755   6.206   5.168  0.6210  0.3782 -1.9289
 3479TIP3   OH210400   2.789   2.894   3.301 -0.1837  0.5642  0.0965
 3479TIP3    H110401   2.876   2.893   3.263 -0.9454 -0.5089 -1.7597
 3479TIP3    H210402   2.785   2.816   3.356 -0.0307  0.5404  0.0719
 3480TIP3   OH210403   5.919   2.942   0.638 -0.0409  0.5001  0.5219
 3480TIP3    H110404   5.980   2.899   0.578 -1.3535  0.7736 -1.0729
 3480TIP3    H210405   5.975   2.995   0.694  1.2540  0.2120 -0.4476
 3481TIP3   OH210406   3.630   1.027   3.428 -0.3661  0.1548 -0.3226
 3481TIP3    H110407   3.584   1.025   3.512  1.7872 -0.9388  0.9300
 3481TIP3    H210408   3.573   1.078   3.370 -2.6112 -0.2995  1.3600
 3482TIP3   OH210409   0.020   3.044   1.827 -0.4620  0.3519 -0.5541
 3482TIP3    H110410  -0.032   3.116   1.791 -0.7682 -0.1728 -1.2067
 3482TIP3    H210411   0.108   3.058   1.791 -0.7006 -0.0127 -1.3163
 3483TIP3   OH210412   6.338   2.987   0.237  0.0320 -0.4130  0.4548
 3483TIP3    H110413   6.410   2.993   0.300 -0.5442 -1.2620  1.2362
 3483TIP3    H210414   6.369   3.033   0.159  0.7769  0.6409  1.3543
 3484TIP3   OH210415   2.154   1.445   1.334 -0.1587 -0.0508 -0.1874
 3484TIP3    H110416   2.207   1.390   1.276 -0.0236  0.1835 -0.2899
 3484TIP3    H210417   2.072   1.397   1.345 -0.8970  0.7013 -1.9875
 3485TIP3   OH210418   5.477   6.552   1.113 -0.4258 -1.1165  0.6959
 3485TIP3    H110419   5.463   6.459   1.093  0.2645 -0.7420 -1.9442
 3485TIP3    H210420   5.422   6.598   1.050  1.1082  0.2515  0.2847
 3486TIP3   OH210421   1.684   5.243   4.960 -0.6805 -0.8212  0.4123
 3486TIP3    H110422   1.670   5.336   4.943  0.9112 -0.3027  1.7127
 3486TIP3    H210423   1.600   5.202   4.938 -1.3195  0.8689 -0.4592
 3487TIP3   OH210424   6.347   4.338   0.861 -0.1875 -0.2097 -0.2859
 3487TIP3    H110425   6.280   4.279   0.894 -1.0653 -0.1685 -1.8897
 3487TIP3    H210426   6.412   4.281   0.821  1.2599 -0.3087  2.0370
 3488TIP3   OH210427   3.674   4.543   0.539  0.4997  0.5983  0.1554
 3488TIP3    H110428   3.637   4.568   0.623 -0.8268  2.3826 -0.9008
 3488TIP3    H210429   3.691   4.625   0.494  1.6651 -0.3007 -1.1380
 3489TIP3   OH210430   3.603   1.574   3.284  0.5121  0.5620 -0.3537
 3489TIP3    H110431   3.570   1.578   3.374  0.9112 -1.7233 -0.0548
 3489TIP3    H210432   3.542   1.518   3.238  2.3570 -1.4761 -0.4896
 3490TIP3   OH210433   0.471   3.374   5.804 -0.2515  0.3897  0.5919
 3490TIP3    H110434   0.432   3.409   5.884 -0.0691  2.4021 -0.1421
 3490TIP3    H210435   0.416   3.298   5.782  0.8360 -1.4572  3.5966
 3491TIP3   OH210436   0.776   2.880   3.034  0.2894  0.0928 -0.2811
 3491TIP3    H110437   0.818   2.877   2.948  2.5764  2.6377  0.5992
 3491TIP3    H210438   0.693   2.926   3.017  0.4286  0.0319 -1.2114
 3492TIP3   OH210439   5.218   1.512   3.943  0.6804  0.3660 -0.0183
 3492TIP3    H110440   5.240   1.541   3.854  0.1181 -0.1964 -0.3476
 3492TIP3    H210441   5.303   1.495   3.984  0.9175 -0.3167 -0.7720
 3493TIP3   OH210442   3.994   1.029   3.091  0.4162  0.4190 -0.8737
 3493TIP3    H110443   3.942   1.109   3.078  1.0266  1.1661  0.8819
 3493TIP3    H210444   3.947   0.981   3.159  0.0092 -0.7913 -1.9840
 3494TIP3   OH210445   1.176   1.259   5.869  0.8233  0.2984 -0.0967
 3494TIP3    H110446   1.147   1.349   5.887  0.9721  0.2103  0.5936
 3494TIP3    H210447   1.272   1.264   5.873  0.8176 -0.3656  2.4098
 3495TIP3   OH210448   5.302   3.259   4.938  0.0774 -0.2725  1.0808
 3495TIP3    H110449   5.263   3.276   5.024  0.2026  0.8722  0.9269
 3495TIP3    H210450   5.383   3.311   4.938 -0.6918  0.9962 -0.3039
 3496TIP3   OH210451   3.042   1.361   0.698 -0.8955 -0.3876  0.3526
 3496TIP3    H110452   2.951   1.339   0.718 -0.7941 -1.2573 -0.0604
 3496TIP3    H210453   3.066   1.426   0.763 -1.8537 -0.0561  0.3896
 3497TIP3   OH210454   0.329   1.051   4.473  0.4256 -0.2114 -0.4902
 3497TIP3    H110455   0.248   1.002   4.487 -1.9643  3.5202  0.2051
 3497TIP3    H210456   0.361   1.070   4.562  0.6937  0.3712 -0.7066
 3498TIP3   OH210457   2.610   0.860   5.221  0.3803  0.4245 -0.7129
 3498TIP3    H110458   2.533   0.885   5.169 -0.4916 -0.2271  0.2251
 3498TIP3    H210459   2.576   0.847   5.309  1.4883 -0.3666 -0.3830
 3499TIP3   OH210460   1.470   2.499   1.664 -0.1696  0.1339 -0.7710
 3499TIP3    H110461   1.444   2.412   1.695  0.0851  0.4879  0.5176
 3499TIP3    H210462   1.564   2.503   1.684 -0.6141  1.5356  1.3849
 3500TIP3   OH210463   1.559   6.154   3.054 -0.8669 -0.4718 -0.1314
 3500TIP3    H110464   1.494   6.140   2.985  0.4608 -0.8957 -1.3758
 3500TIP3    H210465   1.633   6.099   3.027  1.1493  2.1802 -0.3757
 3501TIP3   OH210466   2.461   5.807   5.312  0.5077 -0.1817  0.0591
 3501TIP3    H110467   2.546   5.829   5.274  0.7034 -0.9061  0.0772
 3501TIP3    H210468   2.464   5.845   5.400  0.1821  1.2069 -0.4903
 3502TIP3   OH210469   0.127   3.519   0.132 -0.4118 -0.0470  0.3789
 3502TIP3    H110470   0.087   3.433   0.118  0.5549 -0.4373 -0.0900
 3502TIP3    H210471   0.152   3.548   0.044  1.1288 -0.2224  0.7274
 3503TIP3   OH210472   3.941   0.285   5.539 -0.2431  0.1484  0.5372
 3503TIP3    H110473   3.945   0.336   5.619  0.7614  1.1276 -0.1115
 3503TIP3    H210474   4.032   0.266   5.517 -0.5640 -1.5811  0.5185
 3504TIP3   OH210475   4.925   5.465   5.380 -0.0213 -0.0065  0.2979
 3504TIP3    H110476   4.910   5.412   5.302  1.6719 -0.5429  0.2942
 3504TIP3    H210477   4.926   5.402   5.452  0.1708  0.2648  0.5344
 3505TIP3   OH210478   4.075   2.649   3.445  0.0808  0.1638  0.1093
 3505TIP3    H110479   4.111   2.697   3.520  1.2124  1.2720 -1.0961
 3505TIP3    H210480   4.074   2.558   3.473 -1.4182  0.7319  2.2028
 3506TIP3   OH210481   2.668   2.301   4.458 -0.0509 -0.0871 -0.1152
 3506TIP3    H110482   2.649   2.389   4.426 -0.7312  1.1193  3.1826
 3506TIP3    H210483   2.600   2.245   4.419 -0.8215  1.2373 -0.7262
 3507TIP3   OH210484   4.866   0.876   0.367  0.3609  0.0294 -0.2381
 3507TIP3    H110485   4.868   0.844   0.457 -1.3658 -0.2996 -0.2824
 3507TIP3    H210486   4.939   0.831   0.324 -0.3610 -1.8396  0.3767
 3508TIP3   OH210487   6.138   2.746   5.688  0.1627  0.8535  0.1530
 3508TIP3    H110488   6.139   2.839   5.663  0.0631  0.9956  0.6699
 3508TIP3    H210489   6.206   2.738   5.755  0.1255  0.5665  0.1587
 3509TIP3   OH210490   2.205   5.479   3.683  0.2227 -0.3199  1.1408
 3509TIP3    H110491   2.218   5.391   3.717 -1.6495 -0.9982  0.2283
 3509TIP3    H210492   2.293   5.511   3.663  0.8575 -2.5422  0.1033
 3510TIP3   OH210493   1.815   1.883   5.081  0.2563  0.3233  0.2962
 3510TIP3    H110494   1.763   1.939   5.138 -0.4307 -0.1907  0.1887
 3510TIP3    H210495   1.906   1.910   5.097  0.0906  0.1161  1.7134
 3511TIP3   OH210496   1.362   0.321   2.698 -0.7737 -0.1291  0.0311
 3511TIP3    H110497   1.286   0.358   2.653 -1.3574 -1.9774 -0.5845
 3511TIP3    H210498   1.437   0.348   2.644 -1.3328 -1.1176 -1.3003
 3512TIP3   OH210499   2.560   2.273   0.866  0.1742 -0.0039 -0.3938
 3512TIP3    H110500   2.535   2.202   0.807  1.1426 -1.0091  0.3721
 3512TIP3    H210501   2.494   2.270   0.936 -0.1259  0.2393 -0.6646
 3513TIP3   OH210502   0.989   0.836   1.911  0.0872  0.2628 -0.0246
 3513TIP3    H110503   1.024   0.925   1.919  1.6841 -0.0350 -2.5503
 3513TIP3    H210504   1.044   0.784   1.970  0.4657  0.6565 -0.0212
 3514TIP3   OH210505   7.186   3.698   4.831 -0.6161  0.2751 -0.4512
 3514TIP3    H110506   7.226   3.740   4.907 -0.7914 -3.0667  1.7407
 3514TIP3    H210507   7.093   3.690   4.855 -0.8681  0.0223 -1.4556
 3515TIP3   OH210508   5.461   4.611   3.043 -0.6354  0.1364  0.0966
 3515TIP3    H110509   5.476   4.587   3.135 -0.6758  2.6002  0.8145
 3515TIP3    H210510   5.369   4.588   3.028 -1.0308  0.9400  1.1265
 3516TIP3   OH210511   0.852   0.631   3.752 -0.5783  0.0712 -0.0693
 3516TIP3    H110512   0.925   0.638   3.813 -1.6712 -0.3733  1.3539
 3516TIP3    H210513   0.838   0.537   3.741 -2.0931  0.1018  1.1845
 3517TIP3   OH210514   3.243   6.097   3.990  0.3529  0.5989 -0.3279
 3517TIP3    H110515   3.247   6.002   3.975 -2.2697  0.0781  1.5135
 3517TIP3    H210516   3.276   6.135   3.909  0.5247 -1.8901 -1.5369
 3518TIP3   OH210517   3.975   3.060   5.481  0.5076 -0.3281  0.1935
 3518TIP3    H110518   3.939   3.037   5.567  0.1333  0.9367  0.3911
 3518TIP3    H210519   3.926   3.006   5.419  0.2046 -0.6403  0.6951
 3519TIP3   OH210520   3.369   0.424   3.051  0.0684 -0.0971  0.6179
 3519TIP3    H110521   3.369   0.360   2.980 -1.0573  1.5141 -0.8927
 3519TIP3    H210522   3.308   0.388   3.116  0.6184 -1.2647  0.5224
 3520TIP3   OH210523   0.637   1.743   4.270 -0.0405 -0.3669 -0.0424
 3520TIP3    H110524   0.572   1.801   4.229 -0.4204 -0.5781  0.2488
 3520TIP3    H210525   0.645   1.775   4.360  0.9337  0.2148 -0.3242
 3521TIP3   OH210526   5.394   3.656   0.178 -0.0176 -0.2279 -0.1059
 3521TIP3    H110527   5.385   3.680   0.270 -1.1713  0.5659 -0.4037
 3521TIP3    H210528   5.437   3.732   0.138  0.3658 -0.5188 -0.2501
 3522TIP3   OH210529   4.858   4.821   1.584 -0.0024 -0.5868  0.4246
 3522TIP3    H110530   4.778   4.865   1.555  1.1337  0.5746 -1.1366
 3522TIP3    H210531   4.895   4.880   1.650  0.4669 -0.1761 -0.1845
 3523TIP3   OH210532   6.732   1.904   3.418 -0.2924  0.2733  0.0541
 3523TIP3    H110533   6.716   1.978   3.359  0.2933 -0.4198 -1.0116
 3523TIP3    H210534   6.805   1.857   3.377  0.0203 -0.3189  1.2633
 3524TIP3   OH210535   2.416   2.405   3.414 -0.1025  0.2062 -0.5450
 3524TIP3    H110536   2.501   2.444   3.435  0.4429 -0.9623 -0.5273
 3524TIP3    H210537   2.429   2.363   3.329 -0.5956 -0.1719 -0.4378
 3525TIP3   OH210538   3.825   1.667   5.530  0.6465 -0.1048 -0.0696
 3525TIP3    H110539   3.772   1.589   5.548  1.1736 -0.5352 -0.3512
 3525TIP3    H210540   3.876   1.644   5.453 -0.3519  1.1117 -1.1311
 3526TIP3   OH210541   3.844   6.235   1.568 -0.2314 -0.9864  0.0839
 3526TIP3    H110542   3.755   6.270   1.569  0.4635  1.0674 -1.9944
 3526TIP3    H210543   3.888   6.279   1.641 -0.0364  0.7671 -1.0256
 3527TIP3   OH210544   0.644   0.606   0.467  0.0010 -0.5554 -0.0169
 3527TIP3    H110545   0.552   0.610   0.495  0.1784 -0.4658  0.5631
 3527TIP3    H210546   0.651   0.670   0.397 -0.2722 -0.2359  0.2467
 3528TIP3   OH210547   0.299   4.347   4.754 -0.5141 -0.5128 -0.4268
 3528TIP3    H110548   0.267   4.406   4.685  1.7444 -0.1469 -1.2422
 3528TIP3    H210549   0.299   4.402   4.833 -0.8165 -0.1866 -0.6486
 3529TIP3   OH210550   1.051   4.587   3.172  0.1472 -0.5743  0.2161
 3529TIP3    H110551   1.074   4.576   3.264  2.2377 -2.5557 -0.4701
 3529TIP3    H210552   1.030   4.499   3.141 -0.5135  0.0494 -1.2360
 3530TIP3   OH210553  -0.015   3.820   4.353  0.0266  0.6269  0.1361
 3530TIP3    H110554  -0.013   3.865   4.437 -0.9459 -0.1514  0.5887
 3530TIP3    H210555   0.046   3.870   4.298  0.4516  1.3190  1.1995
 3531TIP3   OH210556   0.522   4.023   2.274  0.6470  0.2121  0.6442
 3531TIP3    H110557   0.465   3.978   2.211  1.1049 -0.8721  0.9661
 3531TIP3    H210558   0.527   4.113   2.243  0.5809 -0.2153 -0.6759
 3532TIP3   OH210559   2.355   4.428   2.767  0.6270 -0.5910  0.5995
 3532TIP3    H110560   2.418   4.450   2.698  1.3860 -1.2458  1.0655
 3532TIP3    H210561   2.405   4.377   2.830 -0.5617 -1.8536  0.5843
 3533TIP3   OH210562   0.344   5.628   2.836  0.2028  0.4461 -0.3149
 3533TIP3    H110563   0.311   5.565   2.772  0.9566 -0.3917  0.0970
 3533TIP3    H210564   0.301   5.711   2.812  0.5059  0.1771 -1.9305
 3534TIP3   OH210565   3.555   1.537   5.439  0.5943  0.2758 -0.5583
 3534TIP3    H110566   3.485   1.601   5.452  2.0223  2.0098 -1.0785
 3534TIP3    H210567   3.561   1.490   5.522  1.6461  3.0538  1.0434
 3535TIP3   OH210568   4.874   2.898   3.796 -0.0034 -0.0274 -0.3070
 3535TIP3    H110569   4.908   2.826   3.743 -1.8332 -0.7312 -0.5941
 3535TIP3    H210570   4.937   2.969   3.783 -0.1869 -0.2606 -3.1934
 3536TIP3   OH210571   3.083   5.089   0.413 -0.5302 -0.4181  0.4251
 3536TIP3    H110572   3.046   5.002   0.431 -2.2314  0.2993  0.6225
 3536TIP3    H210573   3.134   5.110   0.491 -3.2249  0.3008  2.1331
 3537TIP3   OH210574   0.866   2.178   5.472  0.1292 -0.5355 -0.0012
 3537TIP3    H110575   0.942   2.121   5.478 -0.7271 -1.6380  0.9147
 3537TIP3    H210576   0.806   2.131   5.414  0.1423  0.3332 -0.7372
 3538TIP3   OH210577   2.686   0.866   4.963 -0.1736  0.3770  0.0928
 3538TIP3    H110578   2.658   0.860   5.054  0.4211  1.4577  0.3630
 3538TIP3    H210579   2.697   0.775   4.935  2.6652 -0.0316  2.0861
 3539TIP3   OH210580   0.010   2.939   1.280 -0.3282 -0.2262  0.3094
 3539TIP3    H110581   0.048   3.002   1.218 -1.1239  0.5577  0.5971
 3539TIP3    H210582   0.076   2.934   1.350  0.3505 -0.7491 -0.3463
 3540TIP3   OH210583   5.374   2.393   0.471 -0.1710 -0.2281  0.6311
 3540TIP3    H110584   5.366   2.457   0.541 -3.0194  0.2933 -0.0199
 3540TIP3    H210585   5.300   2.333   0.486 -0.0722 -0.8525 -1.1786
 3541TIP3   OH210586   5.550   3.368   5.011  0.4811 -0.3429  0.3669
 3541TIP3    H110587   5.538   3.347   5.103 -1.3971  1.2730  0.5725
 3541TIP3    H210588   5.570   3.462   5.010  0.1565 -0.2609 -0.8632
 3542TIP3   OH210589   4.016   2.519   2.223  0.1161 -0.2909  0.6291
 3542TIP3    H110590   3.981   2.561   2.302 -0.0494 -0.2434  0.5299
 3542TIP3    H210591   3.947   2.528   2.158 -0.7770 -2.5678  1.1899
 3543TIP3   OH210592   6.259   2.082   5.513 -0.1443 -0.4842 -0.2605
 3543TIP3    H110593   6.192   2.145   5.540  1.9888  1.1256  1.7430
 3543TIP3    H210594   6.222   1.997   5.534 -1.3635  0.3735  1.3015
 3544TIP3   OH210595   5.932   5.111   0.189 -0.0033  0.0714 -0.6873
 3544TIP3    H110596   5.989   5.187   0.200  0.0167  0.3122 -2.2233
 3544TIP3    H210597   5.991   5.038   0.169 -0.0859 -0.1521 -0.1218
 3545TIP3   OH210598   3.301   0.524   3.343 -0.3219  0.4608 -0.4200
 3545TIP3    H110599   3.306   0.511   3.437  1.9189  0.4870 -0.4904
 3545TIP3    H210600   3.336   0.444   3.304 -0.4708  0.7562 -1.1992
 3546TIP3   OH210601   3.398   0.589   0.725  0.6700  0.0396  0.4100
 3546TIP3    H110602   3.322   0.636   0.758  1.8935  1.5887  1.1813
 3546TIP3    H210603   3.370   0.552   0.641 -1.3822 -0.7899  1.3892
 3547TIP3   OH210604   1.752   3.583   5.045 -0.2909 -0.1431 -0.1849
 3547TIP3    H110605   1.820   3.632   4.999  1.9859 -1.9246  1.0301
 3547TIP3    H210606   1.712   3.527   4.978 -0.0810  0.4231 -0.7866
 3548TIP3   OH210607   6.613   6.084   0.367 -0.1717  0.2875  0.8979
 3548TIP3    H110608   6.614   6.178   0.389  3.9915  0.3712  1.1224
 3548TIP3    H210609   6.632   6.040   0.449 -2.6566 -0.8892  0.9078
 3549TIP3   OH210610   3.165   0.018   1.667  0.2493 -0.0427 -0.0393
 3549TIP3    H110611   3.094   0.078   1.691  0.1432 -0.5350  0.9626
 3549TIP3    H210612   3.203  -0.008   1.751  0.4384 -1.1876 -0.4575
 3550TIP3   OH210613   5.931   6.008   4.521 -0.3046 -0.0027 -0.1161
 3550TIP3    H110614   5.894   5.930   4.481 -1.4650 -0.3459  1.5510
 3550TIP3    H210615   5.855   6.061   4.546  0.4283  0.8257  0.4190
 3551TIP3   OH210616   6.413   4.612   2.780 -0.4106  0.0856 -0.0812
 3551TIP3    H110617   6.382   4.681   2.722  0.3787  0.3759 -0.1663
 3551TIP3    H210618   6.393   4.531   2.733  2.2974  0.3475 -1.9116
 3552TIP3   OH210619   0.273   5.198   5.866  0.0341  0.6221  0.2379
 3552TIP3    H110620   0.349   5.162   5.912 -0.2232 -0.1224  0.0999
 3552TIP3    H210621   0.221   5.121   5.842  0.7575  0.8343 -2.3835
 3553TIP3   OH210622   5.375   6.700   2.355 -0.5251  0.1021 -0.4528
 3553TIP3    H110623   5.371   6.723   2.262 -1.2495  0.1465 -0.4133
 3553TIP3    H210624   5.372   6.784   2.401 -1.7403  0.0256 -0.3529
 3554TIP3   OH210625   4.015   2.902   3.062 -0.1698  0.7094  0.1897
 3554TIP3    H110626   3.960   2.824   3.077  1.1971 -0.2440  0.3895
 3554TIP3    H210627   4.016   2.946   3.147 -1.0286  1.0264  0.0522
 3555TIP3   OH210628   3.095   2.212   4.716  0.0794  0.4779 -0.4883
 3555TIP3    H110629   3.118   2.296   4.676  1.5876 -0.1046 -0.9343
 3555TIP3    H210630   3.002   2.219   4.735  0.2577  2.4456 -0.0365
 3556TIP3   OH210631   5.942   3.177   0.060  0.1915 -0.0814 -0.2526
 3556TIP3    H110632   5.975   3.134  -0.019  1.0650  1.6314 -0.8504
 3556TIP3    H210633   5.985   3.262   0.062 -1.2834  0.6917  1.0498
 3557TIP3   OH210634   0.139   0.063   0.628 -0.1659  0.3032 -0.6195
 3557TIP3    H110635   0.105   0.058   0.539  0.9375  1.8150 -1.1620
 3557TIP3    H210636   0.133  -0.027   0.661 -1.1339 -0.1724 -1.9943
 3558TIP3   OH210637   5.257   5.733   4.014 -0.5157 -0.6682  0.8083
 3558TIP3    H110638   5.329   5.728   3.951  0.6969  0.6734  2.0114
 3558TIP3    H210639   5.227   5.642   4.022 -0.3655 -0.9491 -1.2695
 3559TIP3   OH210640   2.629   5.899   3.286 -0.0325  0.2983 -0.3552
 3559TIP3    H110641   2.614   5.808   3.259 -0.1906  0.5736 -1.2279
 3559TIP3    H210642   2.722   5.903   3.309 -0.2185 -0.2907  0.5467
 3560TIP3   OH210643   3.344   1.770   5.676  0.3144 -0.3573  0.1381
 3560TIP3    H110644   3.273   1.737   5.621 -0.7134  0.8488  0.7136
 3560TIP3    H210645   3.361   1.858   5.642  0.8098 -0.2365  0.6915
 3561TIP3   OH210646   4.053   5.405   5.619 -0.2620  0.2419 -0.4888
 3561TIP3    H110647   4.076   5.316   5.591 -0.8252  0.3838 -1.4603
 3561TIP3    H210648   4.132   5.439   5.660  0.2000 -0.4462 -0.7876
 3562TIP3   OH210649   5.774   1.235   2.826 -0.3081  0.2184  0.5109
 3562TIP3    H110650   5.801   1.144   2.820 -0.7499  0.0181  1.3829
 3562TIP3    H210651   5.678   1.232   2.829 -0.3800  0.7983 -0.6930
 3563TIP3   OH210652   1.849   0.700   1.054 -0.2950  0.0373  0.6609
 3563TIP3    H110653   1.934   0.746   1.053  0.2365 -0.8910 -0.6881
 3563TIP3    H210654   1.796   0.749   0.990 -1.0043  0.9609  1.9153
 3564TIP3   OH210655   3.427   4.017   2.688 -0.4200 -0.4494  0.5411
 3564TIP3    H110656   3.506   4.067   2.671 -0.1909 -0.3088  1.9207
 3564TIP3    H210657   3.406   3.976   2.604  0.4543  0.4296 -0.1302
 3565TIP3   OH210658   0.444   1.890   0.037 -0.9908  0.5814 -0.0331
 3565TIP3    H110659   0.531   1.920   0.065 -1.1917  0.6168  0.5617
 3565TIP3    H210660   0.450   1.795   0.041 -1.0138  0.5854  0.1289
 3566TIP3   OH210661   0.422   0.913   1.567 -0.4431 -0.2670  0.0089
 3566TIP3    H110662   0.422   0.931   1.473  0.4553  0.1225  0.0707
 3566TIP3    H210663   0.332   0.888   1.586 -1.1063  1.4544 -0.6268
 3567TIP3   OH210664   6.750   4.077   2.366 -0.0195  0.4066 -0.5744
 3567TIP3    H110665   6.844   4.089   2.376  0.0709 -0.0235 -0.8571
 3567TIP3    H210666   6.741   3.988   2.332 -0.5871  0.1054  0.3299
 3568TIP3   OH210667   2.774   1.876   1.862 -0.4176  0.2134  0.6098
 3568TIP3    H110668   2.700   1.904   1.809 -0.3439  0.9247  0.8724
 3568TIP3    H210669   2.738   1.866   1.950 -0.2162  0.4966  0.7256
 3569TIP3   OH210670   1.619   0.979   3.653 -0.7249 -0.4162  0.2503
 3569TIP3    H110671   1.679   0.951   3.722 -0.6413  0.7139  0.6551
 3569TIP3    H210672   1.615   0.905   3.592 -1.4066 -1.7686  1.8529
 3570TIP3   OH210673   3.460   2.172   4.299  0.2365 -0.2231 -0.8901
 3570TIP3    H110674   3.378   2.200   4.257 -0.3866 -2.0791 -0.9928
 3570TIP3    H210675   3.461   2.219   4.383 -1.4626 -0.9212 -0.4367
 3571TIP3   OH210676   5.925   2.117   2.211  0.5973 -0.4505 -0.4246
 3571TIP3    H110677   5.977   2.094   2.288 -0.3089  1.2984  0.7856
 3571TIP3    H210678   5.879   2.037   2.188 -1.5414 -0.3805  2.8708
 3572TIP3   OH210679   3.133   5.616   1.761 -0.0009  0.1965  1.0721
 3572TIP3    H110680   3.189   5.693   1.773  1.3762 -0.6498  0.3991
 3572TIP3    H210681   3.176   5.547   1.811  0.8935 -1.0598 -1.2388
 3573TIP3   OH210682   0.517   1.870   3.340  0.1595 -0.4469 -0.1531
 3573TIP3    H110683   0.437   1.870   3.287 -2.5580 -0.1781  3.5644
 3573TIP3    H210684   0.515   1.786   3.387  1.2627  0.2051  1.1237
 3574TIP3   OH210685   1.215   6.007   1.675  0.4240 -0.5884 -0.6224
 3574TIP3    H110686   1.208   5.944   1.746  1.3898 -0.2823 -0.2429
 3574TIP3    H210687   1.149   6.073   1.695  0.2054 -0.8765 -0.3911
 3575TIP3   OH210688   6.283   4.516   1.371 -0.4901  0.3262 -0.7319
 3575TIP3    H110689   6.266   4.425   1.345 -0.2361 -0.5504  1.8883
 3575TIP3    H210690   6.335   4.509   1.451 -0.9089  2.7849 -0.1607
 3576TIP3   OH210691   6.573   2.929   2.038 -0.4170  0.4875 -0.2343
 3576TIP3    H110692   6.478   2.916   2.032 -0.4408 -0.2471  1.2028
 3576TIP3    H210693   6.599   2.879   2.115  1.4231 -0.8412 -1.6189
 3577TIP3   OH210694   2.632   5.040   1.685  0.7837 -0.2654 -0.1677
 3577TIP3    H110695   2.541   5.013   1.695  0.8367 -1.5112 -2.4686
 3577TIP3    H210696   2.627   5.131   1.658  0.2641 -0.1190  0.3973
 3578TIP3   OH210697   4.028   3.314   5.040 -0.2588 -0.2929 -0.1589
 3578TIP3    H110698   4.004   3.316   4.948  1.3357  0.5666 -0.6035
 3578TIP3    H210699   4.121   3.289   5.040  0.1472  1.0235  1.0929
 3579TIP3   OH210700   1.304   1.755   5.001  0.2925 -0.3392  0.5558
 3579TIP3    H110701   1.231   1.716   4.953 -1.0595  1.7985  0.7532
 3579TIP3    H210702   1.357   1.680   5.027  1.2257 -1.7006 -4.2565
 3580TIP3   OH210703   1.385   4.975   1.801  1.1406 -0.2634  0.7004
 3580TIP3    H110704   1.447   5.033   1.755  0.5174  0.6041  0.9385
 3580TIP3    H210705   1.351   5.028   1.872 -0.4576 -0.4590  0.1154
 3581TIP3   OH210706   4.697   4.792   5.177  0.5247 -0.1598 -0.4895
 3581TIP3    H110707   4.755   4.842   5.120 -0.3102  0.6602 -0.6523
 3581TIP3    H210708   4.755   4.732   5.224  1.3924  0.0722 -1.2266
 3582TIP3   OH210709   1.859   5.699   4.487  0.1966 -0.0562 -0.0882
 3582TIP3    H110710   1.771   5.662   4.472  0.1394 -0.5290  1.2729
 3582TIP3    H210711   1.908   5.675   4.409 -0.5253 -0.9592 -0.2892
 3583TIP3   OH210712   5.823   1.974   5.927 -0.0106 -0.0487 -0.1732
 3583TIP3    H110713   5.786   2.035   5.864 -1.4623 -0.3530  0.3224
 3583TIP3    H210714   5.858   1.902   5.874 -1.8962 -0.6773 -0.6784
 3584TIP3   OH210715   1.649   0.033   4.788 -0.6540 -0.2810  0.3293
 3584TIP3    H110716   1.591   0.103   4.756 -1.1630 -0.7157  0.2965
 3584TIP3    H210717   1.591  -0.040   4.806 -0.2220 -0.4514  1.0975
 3585TIP3   OH210718   2.330   2.126   0.710 -0.2333  0.0789  0.3395
 3585TIP3    H110719   2.397   2.058   0.718 -0.9837 -0.8089 -0.6703
 3585TIP3    H210720   2.291   2.111   0.624 -2.7083 -0.3595  1.4667
 3586TIP3   OH210721   5.632   3.271   2.976 -0.4312 -0.0674  0.3228
 3586TIP3    H110722   5.594   3.230   3.054 -1.1361 -0.0245  0.0094
 3586TIP3    H210723   5.561   3.324   2.940 -1.3991 -2.9435 -2.4316
 3587TIP3   OH210724   1.377   6.432   0.548  0.1761 -0.2278 -0.3281
 3587TIP3    H110725   1.447   6.382   0.507  0.1806  1.4933 -2.6144
 3587TIP3    H210726   1.419   6.513   0.577 -0.4965 -0.0343  0.1451
 3588TIP3   OH210727   2.602   3.763   1.230 -0.0038  0.4865 -0.5172
 3588TIP3    H110728   2.682   3.755   1.178  0.2436  2.8339 -0.5944
 3588TIP3    H210729   2.534   3.724   1.176  0.7272  0.3142 -1.3350
 3589TIP3   OH210730   6.670   4.390   3.049  0.2466  0.2983  0.8549
 3589TIP3    H110731   6.582   4.420   3.070  0.2670  1.0694 -0.0550
 3589TIP3    H210732   6.705   4.458   2.991  1.0578 -0.4964  0.3757
 3590TIP3   OH210733   6.631   3.977   5.455 -0.6407 -0.5550 -0.6974
 3590TIP3    H110734   6.638   4.038   5.382 -3.1105 -0.8750 -1.2898
 3590TIP3    H210735   6.656   3.892   5.418 -2.6357 -0.8670 -1.4924
 3591TIP3   OH210736   5.882   3.853   4.229  0.0305  0.1990 -0.4287
 3591TIP3    H110737   5.934   3.777   4.204  0.6897  0.2422  0.7281
 3591TIP3    H210738   5.911   3.874   4.318 -1.8502  0.3423  0.1919
 3592TIP3   OH210739   0.238   6.563   0.875  0.1914  0.0753  0.0086
 3592TIP3    H110740   0.249   6.479   0.919 -0.1809 -0.2036 -0.4297
 3592TIP3    H210741   0.149   6.590   0.898  0.3670  0.4341  0.2849
 3593TIP3   OH210742   4.299   1.333   5.854 -0.7172 -0.6399  1.0254
 3593TIP3    H110743   4.324   1.298   5.939  2.1768 -0.0755  0.5253
 3593TIP3    H210744   4.370   1.306   5.795 -0.8645  1.8117 -0.4320
 3594TIP3   OH210745   0.240   4.900   4.204  0.0455 -0.5267 -0.0783
 3594TIP3    H110746   0.153   4.940   4.203  0.1968 -0.0064 -3.3449
 3594TIP3    H210747   0.227   4.812   4.169  0.7850 -0.5441 -0.3353
 3595TIP3   OH210748   4.938   6.109   1.597  0.0956 -0.1019 -0.1371
 3595TIP3    H110749   4.945   6.202   1.577 -0.5056 -0.5292 -2.6229
 3595TIP3    H210750   4.867   6.077   1.541 -0.0988 -1.9666  1.0670
 3596TIP3   OH210751   4.494   4.426   1.032 -0.5222 -0.6091  0.3380
 3596TIP3    H110752   4.573   4.480   1.022 -1.6416  1.0412 -0.0456
 3596TIP3    H210753   4.498   4.394   1.122  0.8307 -0.9966  0.1695
 3597TIP3   OH210754   3.815   3.200   0.539 -0.4698 -0.1554  0.0969
 3597TIP3    H110755   3.833   3.236   0.625  0.4746  0.8193 -0.4834
 3597TIP3    H210756   3.785   3.110   0.556  2.2026 -0.9181  1.3565
 3598TIP3   OH210757   4.996   6.567   5.241  0.0769 -0.1734  0.4915
 3598TIP3    H110758   4.980   6.518   5.322 -1.8834  1.6825  1.3107
 3598TIP3    H210759   4.929   6.537   5.180  1.8375 -1.9161 -0.7053
 3599TIP3   OH210760   3.731   3.334   3.618 -0.4559 -0.1692  0.4387
 3599TIP3    H110761   3.716   3.259   3.560  0.6239 -1.3799  1.6593
 3599TIP3    H210762   3.733   3.297   3.706  1.1070  1.1131  1.0128
 3600TIP3   OH210763   0.270   5.868   2.702  0.5856 -0.5682  0.0162
 3600TIP3    H110764   0.326   5.876   2.625  2.4608  1.6171  1.4731
 3600TIP3    H210765   0.294   5.942   2.757 -3.2466  0.0580  1.1469
 3601TIP3   OH210766   6.894   3.970   2.727 -0.1731 -0.0287 -0.1350
 3601TIP3    H110767   6.896   4.014   2.812 -1.7092  2.2273 -1.1617
 3601TIP3    H210768   6.985   3.972   2.697  0.0004  1.4097  0.4002
 3602TIP3   OH210769   5.844   0.069   0.003 -0.5134  0.6444  0.6498
 3602TIP3    H110770   5.820   0.162   0.006 -1.3398  0.4878 -0.4391
 3602TIP3    H210771   5.936   0.066   0.031 -0.4216  1.8072  0.4983
 3603TIP3   OH210772   2.158   4.903   4.194 -0.2587  0.4235 -0.3879
 3603TIP3    H110773   2.088   4.910   4.259  0.8457  3.2653  0.6716
 3603TIP3    H210774   2.228   4.855   4.239 -0.4895  0.0028 -0.4721
 3604TIP3   OH210775   7.214   5.596   2.772  0.2671  0.2967  0.0546
 3604TIP3    H110776   7.143   5.540   2.740  2.1062 -2.2572  0.1192
 3604TIP3    H210777   7.275   5.601   2.699  1.2586  0.1718  0.8457
 3605TIP3   OH210778   6.297   5.928   0.049  0.0177 -0.4471  0.1153
 3605TIP3    H110779   6.375   5.873   0.042 -0.9550 -1.9667  0.6398
 3605TIP3    H210780   6.294   5.953   0.141  0.6356  0.7976 -0.1877
 3606TIP3   OH210781   1.022   4.206   1.054 -0.2066 -0.0234 -0.3672
 3606TIP3    H110782   1.002   4.128   1.003  1.1395 -1.2609  0.9081
 3606TIP3    H210783   1.105   4.238   1.018 -0.0960  0.0464 -0.0621
 3607TIP3   OH210784   0.549   1.204   2.638  0.3850 -0.4480 -0.1428
 3607TIP3    H110785   0.455   1.222   2.634  0.4983  0.2139  0.0221
 3607TIP3    H210786   0.556   1.127   2.693 -0.1850 -1.5764 -1.5834
 3608TIP3   OH210787   6.832   6.815   3.722  0.6754  0.0454 -0.3239
 3608TIP3    H110788   6.871   6.751   3.662  0.6982  0.5968 -0.9051
 3608TIP3    H210789   6.738   6.800   3.716  0.6679  0.1983 -0.6171
 3609TIP3   OH210790   3.909   2.719   0.337  0.0674  0.0798 -0.1362
 3609TIP3    H110791   3.877   2.635   0.371  1.1304 -0.1231  0.4340
 3609TIP3    H210792   3.833   2.759   0.295 -0.9363 -0.3373  1.2048
 3610TIP3   OH210793   4.268   5.787   1.113 -0.1198 -0.2694  0.2662
 3610TIP3    H110794   4.188   5.752   1.152 -1.3920  0.7376 -1.3079
 3610TIP3    H210795   4.255   5.882   1.113  2.0360  0.1217  1.8825
 3611TIP3   OH210796   3.371   0.556   1.450  0.3770 -0.3902 -0.1841
 3611TIP3    H110797   3.398   0.647   1.444 -0.7344 -0.0026  0.3515
 3611TIP3    H210798   3.346   0.532   1.360 -1.3539  0.5202  0.0069
 3612TIP3   OH210799   3.585   3.751   5.586  0.0808  0.1033 -0.2686
 3612TIP3    H110800   3.513   3.688   5.582  0.3166 -0.2450  0.5758
 3612TIP3    H210801   3.546   3.829   5.626  0.2694 -0.2717  0.6971
 3613TIP3   OH210802   1.029   0.217   5.581  0.0024  0.0630 -0.3440
 3613TIP3    H110803   0.964   0.147   5.579  0.1551 -0.0759 -0.5624
 3613TIP3    H210804   1.113   0.172   5.567  0.0401  0.3525 -1.1343
 3614TIP3   OH210805   4.779   1.985   1.084 -0.3716  0.3021 -0.4546
 3614TIP3    H110806   4.815   1.975   1.172  0.6303  0.2887 -0.8623
 3614TIP3    H210807   4.793   1.901   1.042  0.5711  0.7852 -1.1378
 3615TIP3   OH210808   0.960   4.281   0.591 -0.0625  0.2441 -0.2837
 3615TIP3    H110809   0.930   4.370   0.575 -0.6937  0.6334  2.4512
 3615TIP3    H210810   1.054   4.283   0.574  0.0838  1.6887  0.5534
 3616TIP3   OH210811   4.017   0.990   4.140 -0.3140  0.5443  0.2295
 3616TIP3    H110812   4.030   1.065   4.082  1.6177 -0.3716 -0.6222
 3616TIP3    H210813   4.082   0.926   4.111 -0.4193 -0.6118  2.3435
 3617TIP3   OH210814   4.478   1.913   2.613  0.1844  0.0606 -0.0516
 3617TIP3    H110815   4.389   1.881   2.596 -0.9356  1.4484  2.6671
 3617TIP3    H210816   4.478   2.003   2.580  1.7378 -0.8978 -3.0536
 3618TIP3   OH210817   3.925   1.893   0.595  0.0308 -0.1892 -0.0060
 3618TIP3    H110818   3.864   1.964   0.615  1.2599  0.7139  0.6562
 3618TIP3    H210819   3.888   1.816   0.638 -0.7986  0.2737  0.1160
 3619TIP3   OH210820   1.199   3.681   3.308 -0.0305  0.1729  0.1729
 3619TIP3    H110821   1.233   3.703   3.221  0.9042  0.0740  0.4941
 3619TIP3    H210822   1.244   3.599   3.330 -0.7619 -0.1544  0.4783
 3620TIP3   OH210823   0.167   6.618   5.653  0.4233  0.2227  0.6552
 3620TIP3    H110824   0.104   6.607   5.724  0.1272 -1.0342  0.2306
 3620TIP3    H210825   0.127   6.683   5.595 -0.4957 -0.5641  0.3889
 3621TIP3   OH210826   5.564   0.781   0.298 -0.3593  0.5888 -0.0475
 3621TIP3    H110827   5.649   0.771   0.255  0.3052 -0.1204  1.3762
 3621TIP3    H210828   5.544   0.694   0.332 -0.6403  1.2139  1.4390
 3622TIP3   OH210829   4.666   1.392   1.536 -0.1425 -0.2262 -0.2583
 3622TIP3    H110830   4.715   1.465   1.574  2.8371 -1.4749 -1.4283
 3622TIP3    H210831   4.640   1.422   1.449  1.2082 -0.5248 -0.7955
 3623TIP3   OH210832   6.158   4.274   5.344 -0.3400 -0.1204 -0.3942
 3623TIP3    H110833   6.238   4.223   5.332 -0.7602 -0.7445 -0.5673
 3623TIP3    H210834   6.151   4.286   5.439  0.6236  1.0307 -0.4404
 3624TIP3   OH210835   2.364   0.785   2.882 -0.0807  0.5166 -0.0937
 3624TIP3    H110836   2.287   0.755   2.929  0.2613  0.6928  0.5912
 3624TIP3    H210837   2.396   0.708   2.836 -0.0951  0.2065  0.4130
 3625TIP3   OH210838   3.517   5.208   0.642  0.4027  0.0562 -0.1348
 3625TIP3    H110839   3.567   5.289   0.633  0.7014 -0.0993  0.1422
 3625TIP3    H210840   3.512   5.173   0.553  1.7923 -0.5353 -0.0046
 3626TIP3   OH210841   2.739   1.665   0.587  0.3105 -0.6995  0.4338
 3626TIP3    H110842   2.737   1.739   0.527  1.5258 -0.4719  0.6433
 3626TIP3    H210843   2.713   1.702   0.672 -1.6289 -1.0655  0.0639
 3627TIP3   OH210844   0.136   0.911   1.944 -0.4598 -0.7335  0.1338
 3627TIP3    H110845   0.179   0.826   1.948 -0.7986 -0.8582  1.3943
 3627TIP3    H210846   0.098   0.915   1.856  0.1160 -1.6010 -0.1629
 3628TIP3   OH210847   0.680   3.969   5.014 -0.0738  0.2963 -0.6703
 3628TIP3    H110848   0.669   4.064   5.008  0.1201  0.3621  0.0008
 3628TIP3    H210849   0.775   3.956   5.021 -0.1984  0.1847  1.3406
 3629TIP3   OH210850   5.702   0.004   1.817  0.0958 -0.3610  0.3514
 3629TIP3    H110851   5.743   0.090   1.809 -1.1467  0.4636  2.1741
 3629TIP3    H210852   5.764  -0.047   1.870 -0.1937  0.1549  1.1989
 3630TIP3   OH210853   4.141   0.866   2.935 -0.1149  0.0675 -1.1160
 3630TIP3    H110854   4.110   0.903   2.852  0.3592 -0.5596 -1.5810
 3630TIP3    H210855   4.074   0.892   2.999 -0.6909  0.2272 -1.7644
 3631TIP3   OH210856   3.835   5.194   2.535 -0.1788 -0.0700 -0.0531
 3631TIP3    H110857   3.806   5.125   2.595 -0.6287  0.4391  0.3308
 3631TIP3    H210858   3.820   5.275   2.583 -2.8128  0.5523 -1.6970
 3632TIP3   OH210859   5.700   4.332   3.329 -0.1073  0.7543 -0.3665
 3632TIP3    H110860   5.706   4.412   3.382 -0.6579  0.3505  0.3224
 3632TIP3    H210861   5.791   4.304   3.319  0.0603  1.2477 -0.2601
 3633TIP3   OH210862   2.805   2.501   5.229 -0.1996  0.3616  0.0714
 3633TIP3    H110863   2.870   2.506   5.158  0.6860 -0.3806  0.8062
 3633TIP3    H210864   2.792   2.592   5.256 -1.9254  0.9023 -2.2054
 3634TIP3   OH210865   3.801   3.780   1.143  0.2534  0.5973  0.6199
 3634TIP3    H110866   3.896   3.781   1.131  0.2814 -0.8848  0.5757
 3634TIP3    H210867   3.788   3.731   1.224 -0.4891  0.5432  0.4716
 3635TIP3   OH210868   3.048   3.846   4.017  0.4793 -0.7849 -0.0939
 3635TIP3    H110869   3.004   3.858   3.933  0.1736 -0.7518  0.0690
 3635TIP3    H210870   3.128   3.798   3.996  0.6023 -0.4266 -0.4564
 3636TIP3   OH210871   1.827   0.131   1.370  0.2426 -0.5507 -0.1106
 3636TIP3    H110872   1.799   0.127   1.462  1.8045 -0.5181  0.4017
 3636TIP3    H210873   1.759   0.084   1.322 -0.0546 -1.5152  1.1963
 3637TIP3   OH210874   5.453   0.963   3.577  0.1615  0.1780  0.3131
 3637TIP3    H110875   5.370   1.002   3.550  0.4933  0.3397 -0.5312
 3637TIP3    H210876   5.463   0.987   3.669 -0.7321  0.1372  0.4245
 3638TIP3   OH210877   6.098   1.986   2.393 -0.1453 -0.1879 -0.6827
 3638TIP3    H110878   6.128   2.004   2.482 -3.1293 -1.9238  0.8606
 3638TIP3    H210879   6.161   1.923   2.359  0.2205 -0.6975  0.8338
 3639TIP3   OH210880   5.172   3.784   2.524 -0.0486 -0.4310  1.0354
 3639TIP3    H110881   5.228   3.735   2.463 -2.3555 -3.6805  1.2647
 3639TIP3    H210882   5.141   3.859   2.473  0.6104 -1.2936 -0.7207
 3640TIP3   OH210883   0.221   2.941   3.311 -0.9798  0.0690 -0.1820
 3640TIP3    H110884   0.219   2.970   3.220  2.2717  2.4992  0.3374
 3640TIP3    H210885   0.310   2.908   3.324 -1.4778 -0.5809  2.0276
 3641TIP3   OH210886   5.560   0.361   3.542 -0.1902 -0.0041 -0.2924
 3641TIP3    H110887   5.546   0.428   3.476  1.7165  0.3851 -0.3405
 3641TIP3    H210888   5.516   0.396   3.620 -0.6022  0.5264 -0.7474
 3642TIP3   OH210889   1.121   4.890   4.466  0.4718 -0.2604 -0.1125
 3642TIP3    H110890   1.201   4.937   4.489 -0.0138  0.1851  0.7271
 3642TIP3    H210891   1.077   4.875   4.549 -0.1827 -0.7473 -0.5368
 3643TIP3   OH210892   2.728   4.136   1.224  0.4089 -0.1168 -0.1158
 3643TIP3    H110893   2.732   4.048   1.188 -1.8037 -0.3830  0.1359
 3643TIP3    H210894   2.790   4.187   1.172  1.8342 -1.8214 -0.1677
 3644TIP3   OH210895   6.501   5.735   3.452  0.1583 -0.1045  0.2940
 3644TIP3    H110896   6.473   5.644   3.462  0.3417 -0.1713  0.1915
 3644TIP3    H210897   6.498   5.771   3.540  0.8267 -0.4228  0.4485
 3645TIP3   OH210898   4.153   0.106   5.921 -0.1517 -0.2757 -0.2020
 3645TIP3    H110899   4.140   0.040   5.852  1.5250 -0.6218 -0.2196
 3645TIP3    H210900   4.133   0.189   5.878 -2.1387 -0.7206 -0.2244
 3646TIP3   OH210901   3.098   2.301   2.366  0.1740 -0.3430 -0.4150
 3646TIP3    H110902   3.011   2.264   2.380 -0.6837  2.0148  1.2396
 3646TIP3    H210903   3.147   2.276   2.445  0.9641 -1.5025 -1.2533
 3647TIP3   OH210904   5.390   1.542   0.511 -0.0358 -0.0940 -0.3093
 3647TIP3    H110905   5.390   1.555   0.606 -0.3799  0.1695 -0.3429
 3647TIP3    H210906   5.467   1.591   0.480  1.4710 -2.0900  0.0657
 3648TIP3   OH210907   6.662   6.312   2.743 -0.3370 -0.0828  0.4412
 3648TIP3    H110908   6.736   6.318   2.802  1.5004 -2.3805 -1.4134
 3648TIP3    H210909   6.630   6.222   2.752 -2.7912  0.7526  0.9730
 3649TIP3   OH210910   4.989   5.710   0.247 -0.2568  0.5503 -0.0410
 3649TIP3    H110911   5.018   5.791   0.289  2.8363 -0.4286 -0.0711
 3649TIP3    H210912   4.960   5.738   0.160 -0.4074  1.7582  0.3798
 3650TIP3   OH210913   1.483   6.279   5.600  0.3030 -0.0474 -0.6476
 3650TIP3    H110914   1.532   6.242   5.674  0.0927 -1.3769 -1.1479
 3650TIP3    H210915   1.528   6.361   5.580  1.2183 -0.3625  0.0560
 3651TIP3   OH210916   2.611   6.600   5.413  0.2005 -0.3717 -0.3855
 3651TIP3    H110917   2.516   6.606   5.401  0.0862  0.2115  0.6413
 3651TIP3    H210918   2.648   6.651   5.341 -0.4263  3.0112  1.4582
 3652TIP3   OH210919   5.102   0.939   1.394 -0.1250  0.1040 -0.0504
 3652TIP3    H110920   5.035   1.003   1.370  0.7064  1.2017  0.4714
 3652TIP3    H210921   5.138   0.909   1.311  1.4626  2.5072 -0.3586
 3653TIP3   OH210922   4.332   0.295   3.243  0.5354  0.2014 -0.0053
 3653TIP3    H110923   4.314   0.200   3.240  2.3765 -0.1705 -0.8169
 3653TIP3    H210924   4.261   0.331   3.296 -2.0762 -1.1818 -2.2985
 3654TIP3   OH210925   2.814   4.915   4.829  0.2812 -0.4532 -0.7998
 3654TIP3    H110926   2.735   4.925   4.776  1.0708  0.0026 -1.9483
 3654TIP3    H210927   2.836   4.822   4.822  1.0120 -0.2001 -2.2723
 3655TIP3   OH210928   5.371   5.757   0.257  0.4526  0.0440 -0.0766
 3655TIP3    H110929   5.423   5.779   0.334  1.2746 -0.9670 -0.3256
 3655TIP3    H210930   5.289   5.804   0.270  1.0247  0.8216  0.8385
 3656TIP3   OH210931   1.160   5.652   1.795  0.2373 -0.7400 -0.1643
 3656TIP3    H110932   1.198   5.703   1.866 -0.9311 -0.5719  0.3556
 3656TIP3    H210933   1.221   5.664   1.722 -0.0833  1.5754 -0.1288
 3657TIP3   OH210934   3.764   2.791   0.853 -0.2409 -0.0979 -0.0708
 3657TIP3    H110935   3.791   2.752   0.769  0.9052 -0.2353  0.3492
 3657TIP3    H210936   3.779   2.885   0.842  0.7808 -0.2109  0.2841
 3658TIP3   OH210937   1.495   3.325   5.168 -0.7758 -0.3729  0.5755
 3658TIP3    H110938   1.563   3.355   5.228 -0.1453  1.7183 -1.0724
 3658TIP3    H210939   1.540   3.268   5.107 -0.3228  1.3370 -0.7659
 3659TIP3   OH210940   4.483   3.356   5.374  0.2180  0.4557 -0.6103
 3659TIP3    H110941   4.531   3.278   5.402 -1.8727 -0.0811  1.8858
 3659TIP3    H210942   4.526   3.428   5.420 -1.1761 -0.0269  1.6325
 3660TIP3   OH210943   2.848   5.399   1.321  0.8107 -0.1548 -0.2307
 3660TIP3    H110944   2.778   5.447   1.278  0.1301 -1.2779 -0.4084
 3660TIP3    H210945   2.907   5.467   1.355 -1.0171  0.8597  1.0568
 3661TIP3   OH210946   2.540   0.088   0.579  0.0735  0.2361 -0.5686
 3661TIP3    H110947   2.602   0.029   0.620  0.5868  0.3062 -1.2248
 3661TIP3    H210948   2.456   0.043   0.585  0.2691 -0.0731 -0.1041
 3662TIP3   OH210949   5.730   4.122   1.759  0.0183  0.6176  0.0944
 3662TIP3    H110950   5.650   4.100   1.807 -0.2130  0.0172 -0.5544
 3662TIP3    H210951   5.701   4.183   1.690  0.0967  0.2877 -0.2296
 3663TIP3   OH210952   7.202   6.020   1.849 -0.0356 -0.1835  0.2762
 3663TIP3    H110953   7.163   6.096   1.893  0.6105  0.6216 -0.5006
 3663TIP3    H210954   7.241   6.056   1.769  1.2196 -1.1474  0.4220
 3664TIP3   OH210955   0.464   3.828   4.162  0.8088  0.1026 -0.0894
 3664TIP3    H110956   0.486   3.741   4.128  1.2836  0.4517 -0.6762
 3664TIP3    H210957   0.536   3.884   4.136  1.5080  0.2723  2.0078
 3665TIP3   OH210958   5.328   3.124   2.942  0.2461 -0.1744 -0.3238
 3665TIP3    H110959   5.371   3.102   2.859 -0.2341 -1.1858 -0.3132
 3665TIP3    H210960   5.240   3.152   2.917  0.4024  0.4198 -0.2230
 3666TIP3   OH210961   5.454   4.912   3.384  0.3955  0.3584  0.3657
 3666TIP3    H110962   5.495   4.908   3.470 -0.4078 -0.4932  0.7171
 3666TIP3    H210963   5.417   5.000   3.380 -0.7253 -0.0333  1.4536
 3667TIP3   OH210964   3.904   4.411   0.424 -0.3214  0.3268  0.3531
 3667TIP3    H110965   3.997   4.427   0.443 -0.0311  0.6187 -1.1583
 3667TIP3    H210966   3.859   4.487   0.460  0.1165  0.5248  0.4906
 3668TIP3   OH210967   5.725   3.649   0.333  0.0632  0.7653  0.2266
 3668TIP3    H110968   5.819   3.651   0.350  0.0479 -1.4914  0.8171
 3668TIP3    H210969   5.712   3.570   0.281 -1.7017  0.2314  1.4191
 3669TIP3   OH210970   1.934   6.261   1.910 -0.7824  0.3410 -0.1181
 3669TIP3    H110971   1.887   6.341   1.933  1.4826  1.4618  0.9442
 3669TIP3    H210972   1.945   6.214   1.993 -0.8721 -0.3856 -0.5033
 3670TIP3   OH210973   1.025   0.975   1.011  0.5499  0.1948  0.4196
 3670TIP3    H110974   1.115   0.946   0.993  0.3835 -0.5060  0.6661
 3670TIP3    H210975   0.988   0.904   1.063 -0.8564 -0.6018 -1.5447
 3671TIP3   OH210976   4.173   3.549   3.061  0.7585 -0.3957 -0.6188
 3671TIP3    H110977   4.196   3.642   3.062  2.1178 -0.6816  1.7167
 3671TIP3    H210978   4.191   3.521   2.971 -2.2058  2.0879 -2.1408
 3672TIP3   OH210979   0.408   4.938   2.602  0.3647  0.2894  0.4447
 3672TIP3    H110980   0.489   4.989   2.602  2.1901 -2.4000  0.9456
 3672TIP3    H210981   0.402   4.904   2.512  0.4332 -0.4203  0.7042
 3673TIP3   OH210982   0.189   1.967   5.113  0.4209  0.5977  0.0637
 3673TIP3    H110983   0.097   1.990   5.102  0.1018 -0.6373 -0.0812
 3673TIP3    H210984   0.187   1.875   5.142  1.6029  0.5179 -0.0569
 3674TIP3   OH210985   4.343   3.362   3.109 -0.3584 -0.1553  0.1369
 3674TIP3    H110986   4.267   3.420   3.109 -1.2840 -1.3349  0.9045
 3674TIP3    H210987   4.406   3.406   3.167 -0.0337  1.2822 -1.2105
 3675TIP3   OH210988   5.128   5.667   5.339 -0.2168 -0.1997  0.4555
 3675TIP3    H110989   5.128   5.758   5.368  0.4226  0.5069 -1.5613
 3675TIP3    H210990   5.113   5.616   5.419 -0.4177  1.6458  1.6616
 3676TIP3   OH210991   5.256   2.152   1.964  0.6738  0.2067  0.5903
 3676TIP3    H110992   5.250   2.071   1.912 -0.9285  0.3720  0.4530
 3676TIP3    H210993   5.333   2.140   2.018  1.2787 -0.8080 -0.4497
 3677TIP3   OH210994   4.976   1.697   2.908  0.1778 -0.0461 -0.4319
 3677TIP3    H110995   4.977   1.622   2.849 -3.9236 -1.1399  0.5681
 3677TIP3    H210996   5.000   1.661   2.993  0.0387  0.1750 -0.2978
 3678TIP3   OH210997   2.526   4.502   2.582  0.4416 -0.4810  0.3135
 3678TIP3    H110998   2.598   4.562   2.564  0.7688 -1.0746 -0.4041
 3678TIP3    H210999   2.556   4.418   2.548 -1.0151 -0.5040 -0.9936
 3679TIP3   OH211000   5.918   0.951   0.950  0.0238 -0.0488  0.2459
 3679TIP3    H111001   5.979   0.916   1.015  0.0681 -0.6987 -0.1356
 3679TIP3    H211002   5.854   0.881   0.937  0.2584 -0.1038 -0.7275
 3680TIP3   OH211003   5.975   2.070   0.176 -0.1193 -0.1663  0.1819
 3680TIP3    H111004   5.958   2.036   0.264  0.1161  1.9253  1.0971
 3680TIP3    H211005   5.888   2.086   0.139 -0.2299  0.2877  0.6198
 3681TIP3   OH211006   0.533   5.845   3.649  0.6663 -0.2398 -0.1039
 3681TIP3    H111007   0.569   5.797   3.724  1.7326  1.6871  0.7013
 3681TIP3    H211008   0.601   5.909   3.627 -0.1095  0.0049 -2.0055
 3682TIP3   OH211009   4.450   1.916   5.064  0.3625 -0.1570  0.2534
 3682TIP3    H111010   4.423   1.839   5.014 -0.7130 -0.2718  0.9680
 3682TIP3    H211011   4.443   1.989   5.001  0.2370 -0.4769 -0.1086
 3683TIP3   OH211012   0.183   5.256   2.338  0.5026  0.3344 -0.0273
 3683TIP3    H111013   0.150   5.166   2.337 -0.9373  0.8157  0.7818
 3683TIP3    H211014   0.195   5.278   2.246  0.3791 -0.5032 -0.2574
 3684TIP3   OH211015   1.542   2.065   2.520 -0.5201  0.2734  0.0693
 3684TIP3    H111016   1.611   2.107   2.572 -0.9812  2.1654 -0.7749
 3684TIP3    H211017   1.515   1.990   2.573  1.0795  0.4093  1.1463
 3685TIP3   OH211018   1.947   2.331   4.022  0.0241 -0.0021  0.7863
 3685TIP3    H111019   1.859   2.339   3.987  0.3307 -1.3489 -0.3580
 3685TIP3    H211020   2.005   2.343   3.947  0.7346 -1.4102  1.0631
 3686TIP3   OH211021   4.681   6.586   3.071 -0.3574 -0.5288  0.7072
 3686TIP3    H111022   4.664   6.622   2.984  0.2769  0.1791  0.8670
 3686TIP3    H211023   4.605   6.532   3.089 -0.2867 -1.0741 -0.4884
 3687TIP3   OH211024   0.256   0.591   0.965 -0.7106  0.2010  1.1607
 3687TIP3    H111025   0.177   0.592   1.019 -1.1714  3.3413  0.6073
 3687TIP3    H211026   0.229   0.630   0.882  0.9575 -0.6640  0.1680
 3688TIP3   OH211027   4.864   5.418   1.069 -0.3327  0.8137 -0.4012
 3688TIP3    H111028   4.790   5.369   1.032 -1.3138  2.7463 -1.1069
 3688TIP3    H211029   4.901   5.466   0.995  3.1248 -1.7089 -0.5982
 3689TIP3   OH211030   4.764   2.084   5.102 -0.4986  0.0804 -0.1538
 3689TIP3    H111031   4.790   2.175   5.089 -3.8206  1.1378 -0.2720
 3689TIP3    H211032   4.765   2.071   5.197  0.9105 -0.1239 -0.1742
 3690TIP3   OH211033   5.211   3.125   0.849 -0.2141 -0.1059  0.0961
 3690TIP3    H111034   5.152   3.059   0.813 -0.0287 -0.3499  0.2431
 3690TIP3    H211035   5.159   3.171   0.915  0.2424 -1.3784  1.3847
 3691TIP3   OH211036   2.503   0.881   5.483  0.3797 -0.1774  0.2232
 3691TIP3    H111037   2.489   0.959   5.537  0.9027  0.0754 -0.0045
 3691TIP3    H211038   2.432   0.822   5.509  0.4955  0.0220  1.0374
 3692TIP3   OH211039   5.426   5.710   5.551 -0.0946  0.0889 -0.0532
 3692TIP3    H111040   5.422   5.690   5.458  2.0589  1.2344 -0.4411
 3692TIP3    H211041   5.509   5.672   5.581  0.0059  1.1117  1.0345
 3693TIP3   OH211042   0.224   2.396   3.887  0.0404 -0.1464  0.3950
 3693TIP3    H111043   0.223   2.438   3.801  0.4083 -1.1291 -0.0994
 3693TIP3    H211044   0.169   2.452   3.942  0.1541  0.7238 -0.3647
 3694TIP3   OH211045   4.948   5.165   4.754 -0.3049  0.5641 -0.2436
 3694TIP3    H111046   4.989   5.159   4.840  0.3718  0.1544 -0.5871
 3694TIP3    H211047   4.856   5.142   4.769 -0.0618 -0.0962  0.2739
 3695TIP3   OH211048   4.668   1.444   2.739  0.0374  0.1398 -0.2544
 3695TIP3    H111049   4.713   1.361   2.754  0.0750  0.5640  2.5875
 3695TIP3    H211050   4.611   1.427   2.664  1.1436 -1.9716 -0.6974
 3696TIP3   OH211051   5.867   0.749   3.075 -0.6781  0.4103  0.3753
 3696TIP3    H111052   5.905   0.701   3.002 -1.0515  0.3350  0.2298
 3696TIP3    H211053   5.937   0.807   3.104 -0.7811  1.0284 -0.5627
 3697TIP3   OH211054   4.346   2.730   5.537 -0.4524 -0.2956 -0.5312
 3697TIP3    H111055   4.285   2.708   5.608 -0.2749 -1.6285 -0.7663
 3697TIP3    H211056   4.344   2.826   5.532 -0.9719 -0.2180  0.8232
 3698TIP3   OH211057   2.948   4.298   5.442 -0.7947 -0.5119  0.0704
 3698TIP3    H111058   2.995   4.379   5.421 -0.4576 -0.9339 -0.8444
 3698TIP3    H211059   2.890   4.285   5.367  1.3051 -2.7180 -1.3056
 3699TIP3   OH211060   5.652   6.571   4.180 -0.1377 -0.1255 -0.4231
 3699TIP3    H111061   5.560   6.594   4.168 -0.1307  0.1703  0.0780
 3699TIP3    H211062   5.652   6.477   4.196 -0.3414 -0.1470 -0.5505
 3700TIP3   OH211063   5.620   0.041   5.441 -0.3454 -0.0007 -0.0384
 3700TIP3    H111064   5.634   0.133   5.419 -0.3128 -0.1434 -0.6381
 3700TIP3    H211065   5.593   0.042   5.533  0.7541  0.5168  0.2991
 3701TIP3   OH211066   5.379   0.292   0.657 -0.2831 -0.3525 -0.2469
 3701TIP3    H111067   5.431   0.372   0.651  0.7093 -1.0265 -1.0228
 3701TIP3    H211068   5.298   0.319   0.700  0.3147  0.9211  0.1272
 3702TIP3   OH211069   6.029   2.310   0.729  0.2058  0.0404  0.0162
 3702TIP3    H111070   6.108   2.257   0.735 -0.6092 -1.0741  1.7793
 3702TIP3    H211071   6.039   2.359   0.648  1.6592 -1.7435 -0.9557
 3703TIP3   OH211072   1.831   0.610   0.158  0.1354  0.3335 -0.0501
 3703TIP3    H111073   1.906   0.670   0.156  0.5311 -0.1527 -0.0956
 3703TIP3    H211074   1.840   0.564   0.241 -1.1717  1.5718  0.8336
 3704TIP3   OH211075   4.551   1.192   1.688  0.1391 -0.1808  0.5772
 3704TIP3    H111076   4.561   1.243   1.768 -1.0290  2.0786 -0.6041
 3704TIP3    H211077   4.603   1.240   1.623 -1.4281 -0.1341 -0.7100
 3705TIP3   OH211078   4.204   6.758   3.279 -0.4283 -0.5645 -0.0761
 3705TIP3    H111079   4.177   6.747   3.370  1.7101  0.5316  0.7759
 3705TIP3    H211080   4.295   6.727   3.277 -0.5158 -0.8284 -1.9215
 3706TIP3   OH211081   5.063   1.951   0.177  0.3835 -0.4308  0.1202
 3706TIP3    H111082   5.049   1.905   0.094  0.5584  0.1057 -0.2170
 3706TIP3    H211083   5.156   1.972   0.177  0.9395 -2.6108  1.6211
 3707TIP3   OH211084   5.006   0.867   5.344 -0.6898 -0.7788  0.0269
 3707TIP3    H111085   4.938   0.902   5.402 -0.9564 -0.2097 -0.6077
 3707TIP3    H211086   5.020   0.937   5.280  0.7418 -0.7483  0.3377
 3708TIP3   OH211087   7.204   0.612   1.644 -0.0851  0.1327  0.0277
 3708TIP3    H111088   7.131   0.670   1.663 -1.3067 -1.3552  0.1036
 3708TIP3    H211089   7.249   0.601   1.727 -1.0209 -0.5616  0.4527
 3709TIP3   OH211090   5.091   1.559   0.492  0.4423  0.2113  0.1494
 3709TIP3    H111091   5.185   1.543   0.483  0.6069  0.0938  1.6826
 3709TIP3    H211092   5.074   1.637   0.440  1.5104  0.5597  0.2932
 3710TIP3   OH211093   4.985   1.416   3.798  0.0938 -0.2415  0.5106
 3710TIP3    H111094   4.895   1.439   3.817 -0.3589 -1.2200 -0.3388
 3710TIP3    H211095   5.037   1.466   3.861 -0.9613  1.1915  0.2884
 3711TIP3   OH211096   5.469   0.967   2.344  0.7037 -0.0843  0.2431
 3711TIP3    H111097   5.468   1.056   2.309 -0.3713  0.4702  1.6113
 3711TIP3    H211098   5.452   0.911   2.268  0.9547  0.8886 -0.5559
 3712TIP3   OH211099   2.432   5.588   2.169  0.1597  0.6879  0.0396
 3712TIP3    H111100   2.493   5.528   2.212 -1.0982 -1.0359 -0.4663
 3712TIP3    H211101   2.477   5.616   2.090  0.7090  0.2737  0.2001
 3713TIP3   OH211102  -0.011   5.369   4.648  0.8713 -0.0438 -0.0081
 3713TIP3    H111103  -0.031   5.366   4.554  1.5894 -0.8249 -0.1429
 3713TIP3    H211104   0.085   5.369   4.652  0.8494  0.3156  0.7248
 3714TIP3   OH211105   0.784   0.280   4.164 -0.1432 -0.4522 -0.3102
 3714TIP3    H111106   0.829   0.216   4.221 -0.1539  1.2405  1.7423
 3714TIP3    H211107   0.847   0.298   4.095  0.5826 -1.3532  0.0829
 3715TIP3   OH211108   5.311   5.422   2.408 -0.2354 -0.5807 -0.1851
 3715TIP3    H111109   5.286   5.353   2.346  1.0538 -1.0513 -0.2285
 3715TIP3    H211110   5.407   5.425   2.402 -0.0472 -0.8100  1.9495
 3716TIP3   OH211111   5.876   4.221   5.564  0.3537 -0.4090  0.0188
 3716TIP3    H111112   5.967   4.238   5.587  0.7342  0.1363 -1.7494
 3716TIP3    H211113   5.830   4.302   5.586  0.7273  0.1353 -1.1319
 3717TIP3   OH211114   4.526   2.350   5.708 -0.2938 -0.1368  0.4646
 3717TIP3    H111115   4.593   2.302   5.755 -0.6048  0.5425  1.6467
 3717TIP3    H211116   4.481   2.284   5.655  0.2079 -0.8797  0.9565
 3718TIP3   OH211117   4.279   4.901   0.364 -0.2292 -0.1378  0.7016
 3718TIP3    H111118   4.275   4.874   0.272  0.5570  0.1779  0.5671
 3718TIP3    H211119   4.360   4.861   0.397  0.5276  1.3465  0.7169
 3719TIP3   OH211120   5.745   4.010   2.052  0.2067 -0.9815 -0.0497
 3719TIP3    H111121   5.699   4.001   2.136 -0.7193 -1.4499 -0.5919
 3719TIP3    H211122   5.748   3.921   2.017 -0.8882 -0.5681 -1.2658
 3720TIP3   OH211123   1.237   0.055   5.500 -0.1280  0.3200 -0.4100
 3720TIP3    H111124   1.227  -0.039   5.519  0.6217  0.7371  2.4556
 3720TIP3    H211125   1.306   0.058   5.433  0.3668 -1.1450 -0.0192
 3721TIP3   OH211126   3.898   5.252   3.006  0.0385  0.3995  0.4213
 3721TIP3    H111127   3.969   5.316   3.001  0.1847  0.4483  2.2118
 3721TIP3    H211128   3.863   5.263   3.095 -2.0255  0.1609 -0.3244
 3722TIP3   OH211129   7.033   3.849   5.082 -0.1847 -0.1503  0.1606
 3722TIP3    H111130   6.962   3.792   5.053 -0.3181 -0.0376  0.2643
 3722TIP3    H211131   6.999   3.893   5.160  0.4744 -1.0928  1.0109
 3723TIP3   OH211132   6.925   2.624   0.346 -0.2482  0.3269 -0.1039
 3723TIP3    H111133   6.908   2.690   0.279  0.5909  1.0677  0.3878
 3723TIP3    H211134   7.017   2.638   0.370  0.0434 -1.2393 -0.2243
 3724TIP3   OH211135   5.724   5.775   4.752  0.1031  0.3445 -0.1251
 3724TIP3    H111136   5.655   5.751   4.691 -0.6229  0.4118  0.6607
 3724TIP3    H211137   5.731   5.701   4.812 -0.8484  1.2600  1.1617
 3725TIP3   OH211138   1.561   0.919   1.136 -0.2144 -0.0897 -0.1512
 3725TIP3    H111139   1.466   0.925   1.145  0.0014  1.6740  1.8468
 3725TIP3    H211140   1.586   0.842   1.187 -0.6061 -1.1164 -1.4599
 3726TIP3   OH211141   6.204   0.770   1.347  0.1098 -0.7685 -0.0353
 3726TIP3    H111142   6.182   0.843   1.404 -0.5793  0.7776 -2.1656
 3726TIP3    H211143   6.284   0.733   1.385 -0.1192  0.3861  1.6863
 3727TIP3   OH211144   1.628   5.819   2.711  0.4645  0.4296  0.0017
 3727TIP3    H111145   1.697   5.882   2.690  0.2122  0.5605 -0.4426
 3727TIP3    H211146   1.675   5.742   2.743  0.8718  0.2011 -1.1026
 3728TIP3   OH211147   3.857   2.559   4.960  0.1208 -0.4296 -0.3279
 3728TIP3    H111148   3.773   2.581   5.002 -0.1209 -0.8536 -0.5841
 3728TIP3    H211149   3.852   2.465   4.944  0.9463 -0.5880  0.3004
 3729TIP3   OH211150   1.093   0.540   0.695 -0.0691 -0.3513 -0.7238
 3729TIP3    H111151   1.103   0.635   0.706 -1.2943 -0.1567 -1.2169
 3729TIP3    H211152   1.025   0.530   0.629  0.2414 -1.5828 -0.8754
 3730TIP3   OH211153   5.097   0.025   0.748 -0.1136  0.1443 -0.3604
 3730TIP3    H111154   5.154   0.096   0.777  1.2047 -1.0877  0.2041
 3730TIP3    H211155   5.148  -0.021   0.680 -0.2714 -1.1548  0.3585
 3731TIP3   OH211156   4.789   1.661   0.540  0.5760  0.1936 -0.1827
 3731TIP3    H111157   4.828   1.574   0.548  0.8142  0.2093 -1.1162
 3731TIP3    H211158   4.863   1.720   0.528  0.3652  0.4298 -0.3378
 3732TIP3   OH211159   6.212   3.953   4.292 -0.0519 -0.4307  0.1404
 3732TIP3    H111160   6.215   3.873   4.344 -0.4015  0.6954  1.9817
 3732TIP3    H211161   6.195   4.022   4.355 -0.8619  0.9886 -1.5362
 3733TIP3   OH211162   1.029   6.212   3.748 -0.0024  0.0862 -0.0919
 3733TIP3    H111163   1.001   6.233   3.837 -0.4472 -0.2811 -0.1459
 3733TIP3    H211164   1.029   6.297   3.703 -0.9261  0.1186 -0.0594
 3734TIP3   OH211165   4.526   6.451   3.348  0.6441 -0.2160  0.0369
 3734TIP3    H111166   4.462   6.430   3.416  1.3580 -0.8274  0.5264
 3734TIP3    H211167   4.473   6.459   3.268 -0.1070 -0.1976  0.5234
 3735TIP3   OH211168   7.001   2.672   4.402 -0.3077 -0.0354  0.0572
 3735TIP3    H111169   6.988   2.733   4.475 -0.8769 -1.1050  0.8926
 3735TIP3    H211170   7.096   2.661   4.396 -0.2604 -0.0471  0.7544
 3736TIP3   OH211171   4.090   4.499   4.819 -0.0936 -0.6284  0.6647
 3736TIP3    H111172   4.076   4.573   4.878 -1.8873  0.5307 -1.0495
 3736TIP3    H211173   4.099   4.539   4.732  0.1854 -2.3608 -0.1606
 3737TIP3   OH211174   1.451   5.942   3.469 -0.1405  0.6915 -0.4547
 3737TIP3    H111175   1.514   5.999   3.514  0.3077  0.6444 -1.0133
 3737TIP3    H211176   1.374   5.942   3.526  1.0631 -0.8416  1.2561
 3738TIP3   OH211177   0.869   0.141   3.889 -0.1512  0.5794  0.1977
 3738TIP3    H111178   0.889   0.055   3.926 -0.1778  0.3302 -0.3537
 3738TIP3    H211179   0.908   0.203   3.950  1.4271  0.1283 -0.3122
 3739TIP3   OH211180   4.561   6.356   2.560 -0.0928  0.2371  0.2444
 3739TIP3    H111181   4.533   6.296   2.491 -0.3719  1.0609 -0.3693
 3739TIP3    H211182   4.483   6.407   2.581 -0.4820 -1.1341  2.3977
 3740TIP3   OH211183   2.420   1.492   3.901  0.0064 -0.0872 -0.1787
 3740TIP3    H111184   2.369   1.415   3.926 -0.6210 -0.6696 -2.8767
 3740TIP3    H211185   2.356   1.562   3.893  0.6835  1.1018  3.1203
 3741TIP3   OH211186   7.011   0.637   0.493 -0.2522 -0.1445 -0.0112
 3741TIP3    H111187   7.095   0.639   0.539 -0.3192  1.7360  0.1224
 3741TIP3    H211188   7.017   0.708   0.429 -1.9852  0.5762  0.5406
 3742TIP3   OH211189   1.572   1.402   4.973  0.2634 -0.1009 -0.2136
 3742TIP3    H111190   1.608   1.315   4.953  1.0245  0.6358 -2.3340
 3742TIP3    H211191   1.649   1.457   4.985 -0.2094  0.4888  0.1194
 3743TIP3   OH211192   3.277   3.620   1.362  0.4183  0.1108 -0.2890
 3743TIP3    H111193   3.230   3.537   1.365 -3.0597  1.7132 -3.0657
 3743TIP3    H211194   3.359   3.599   1.318  0.2897 -2.0592  0.3955
 3744TIP3   OH211195   1.172   0.137   2.273 -0.3196  0.4401  0.4371
 3744TIP3    H111196   1.112   0.128   2.346 -1.0203 -2.2355 -0.3835
 3744TIP3    H211197   1.238   0.070   2.288 -0.7319 -0.4702 -1.5743
 3745TIP3   OH211198   3.404   5.780   2.062 -0.1330  0.4273  0.6011
 3745TIP3    H111199   3.411   5.803   1.970  0.7333  0.0203  0.5558
 3745TIP3    H211200   3.489   5.803   2.099  0.6617 -2.1983  0.6360
 3746TIP3   OH211201   4.130   4.799   5.334 -0.1952 -0.6013 -0.7785
 3746TIP3    H111202   4.205   4.840   5.377 -0.5594 -0.5104 -0.2184
 3746TIP3    H211203   4.155   4.707   5.325  0.6596 -0.2528 -2.1255
 3747TIP3   OH211204   0.269   6.737   2.591 -0.1453 -0.6005 -0.0647
 3747TIP3    H111205   0.241   6.669   2.652 -1.4700  0.9358  1.0941
 3747TIP3    H211206   0.259   6.696   2.504 -2.4387 -1.3771  0.5094
 3748TIP3   OH211207   4.218   1.604   1.604 -0.4222 -0.5921 -0.4675
 3748TIP3    H111208   4.276   1.673   1.571  0.7202 -0.2149  2.1113
 3748TIP3    H211209   4.142   1.650   1.640  0.2890 -0.6065  1.1554
 3749TIP3   OH211210   3.962   2.048   1.706 -0.7065 -0.0174 -0.5180
 3749TIP3    H111211   3.949   2.026   1.614 -0.7506 -1.3431 -0.2152
 3749TIP3    H211212   3.944   2.142   1.711  0.2949  0.2813 -2.0374
 3750TIP3   OH211213   4.091   3.950   4.067 -0.1443  0.6670  0.1507
 3750TIP3    H111214   4.027   4.010   4.106 -0.4327  0.7600 -0.4572
 3750TIP3    H211215   4.115   3.892   4.139 -1.1105  0.4615  0.3239
 3751TIP3   OH211216   3.647   6.102   3.997 -0.1919 -0.4354 -0.5278
 3751TIP3    H111217   3.622   6.177   3.943  3.7893  0.7703 -0.9682
 3751TIP3    H211218   3.595   6.112   4.077  0.1838  2.7983 -0.5775
 3752TIP3   OH211219   3.199   5.048   2.977  0.2263 -0.1101 -0.0628
 3752TIP3    H111220   3.204   5.143   2.989  1.6218 -0.1015 -0.5098
 3752TIP3    H211221   3.112   5.024   3.008 -0.1974  1.3333 -0.0805
 3753TIP3   OH211222   1.404   1.555   2.765 -0.2926 -0.5491 -0.2519
 3753TIP3    H111223   1.469   1.529   2.700 -0.1576  1.3176 -0.9365
 3753TIP3    H211224   1.453   1.608   2.828 -1.2682  2.0770 -1.5274
 3754TIP3   OH211225   6.913   6.545   1.734  0.0766  0.1008  0.5908
 3754TIP3    H111226   6.887   6.538   1.826 -4.9595 -1.7185 -0.6788
 3754TIP3    H211227   6.930   6.638   1.721  1.1100  0.3829  3.2840
 3755TIP3   OH211228   3.842  -0.004  -0.022  0.2783  0.3866 -0.0494
 3755TIP3    H111229   3.896   0.045   0.039  0.3937  0.4892 -0.2342
 3755TIP3    H211230   3.753   0.007   0.011  0.3028  0.7171 -0.0912
 3756TIP3   OH211231   5.512   3.591   2.258  0.3199  0.1570 -0.1540
 3756TIP3    H111232   5.469   3.570   2.175  0.0690  0.3184 -0.0672
 3756TIP3    H211233   5.598   3.551   2.252  0.1474 -0.1882 -0.3228
 3757TIP3   OH211234   0.680   1.075   5.201 -0.0876  0.1977 -0.6171
 3757TIP3    H111235   0.649   1.050   5.114  1.9109  2.2404 -2.0423
 3757TIP3    H211236   0.732   1.000   5.231 -1.9268 -1.0877 -0.5107
 3758TIP3   OH211237   0.904   1.206   2.911  0.1043  0.4581  0.2228
 3758TIP3    H111238   0.817   1.167   2.920 -0.3965  1.5727  0.3536
 3758TIP3    H211239   0.892   1.297   2.938  1.4187  0.5023  0.7104
 3759TIP3   OH211240   0.192   5.953   3.390 -0.2123 -0.7894 -0.5500
 3759TIP3    H111241   0.286   5.935   3.399 -0.4103 -1.1136  1.2606
 3759TIP3    H211242   0.154   5.870   3.361 -0.0724 -1.0006 -0.1395
 3760TIP3   OH211243   1.358   4.276   3.090 -0.1312  0.0931 -0.4475
 3760TIP3    H111244   1.290   4.313   3.033  0.8310  0.5451 -1.3378
 3760TIP3    H211245   1.342   4.182   3.088 -0.5313  0.1662 -0.9289
 3761TIP3   OH211246   0.702   6.154   3.215  0.0287 -0.4116 -0.3172
 3761TIP3    H111247   0.628   6.096   3.198  0.1165 -0.6188 -0.0091
 3761TIP3    H211248   0.667   6.242   3.205 -0.7326 -0.4482  1.5945
 3762TIP3   OH211249   6.638   2.758   1.332 -0.4529 -0.3579 -0.4664
 3762TIP3    H111250   6.601   2.787   1.414 -0.3060 -0.6210 -0.3044
 3762TIP3    H211251   6.583   2.684   1.305 -0.2940 -0.4907 -0.4303
 3763TIP3   OH211252   5.380   4.211   4.145 -0.1043  0.3537  0.1631
 3763TIP3    H111253   5.412   4.273   4.080  0.4757  0.7585  0.8241
 3763TIP3    H211254   5.458   4.183   4.192 -0.6855  1.4681  1.8916
 3764TIP3   OH211255   6.919   3.275   0.264  0.8810 -0.2765  0.0385
 3764TIP3    H111256   6.841   3.265   0.209 -0.0604  0.6454  1.1619
 3764TIP3    H211257   6.926   3.191   0.310 -0.1652  0.0342  0.8055
 3765TIP3   OH211258   0.553   4.361   4.703 -0.1291 -0.0408 -0.2923
 3765TIP3    H111259   0.461   4.346   4.724 -0.1808 -0.3434 -0.7285
 3765TIP3    H211260   0.557   4.453   4.678 -0.1706  0.1749  0.4645
 3766TIP3   OH211261   5.830   0.893   4.737  0.1329 -0.2670 -0.1900
 3766TIP3    H111262   5.873   0.808   4.736  0.8866  0.0919  0.1804
 3766TIP3    H211263   5.743   0.877   4.702 -0.0481 -1.3565  0.6838
 3767TIP3   OH211264   2.645   4.436   1.648  0.0919  0.4297 -0.3645
 3767TIP3    H111265   2.573   4.500   1.647 -0.7225 -0.4468  0.3749
 3767TIP3    H211266   2.701   4.462   1.575 -0.9291  1.1955 -0.9021
 3768TIP3   OH211267   4.147   2.698   4.736  0.1584 -0.6680  0.4619
 3768TIP3    H111268   4.116   2.687   4.646 -2.0940 -1.1952  1.2349
 3768TIP3    H211269   4.145   2.793   4.751 -1.7497 -0.6926  0.6408
 3769TIP3   OH211270   3.751   1.579   4.461  0.7665 -0.0857 -0.0374
 3769TIP3    H111271   3.768   1.550   4.550  2.0396  1.9573  0.4667
 3769TIP3    H211272   3.656   1.586   4.455  0.5301 -2.2245  0.4312
 3770TIP3   OH211273   6.632   1.005   5.030 -0.8310 -0.1167 -0.1365
 3770TIP3    H111274   6.605   0.919   4.997 -1.3156 -0.0888  0.1735
 3770TIP3    H211275   6.727   1.000   5.034 -0.8398 -0.5504 -0.3626
 3771TIP3   OH211276   4.314   5.169   1.184 -0.4478  0.1513 -0.1527
 3771TIP3    H111277   4.228   5.210   1.178 -0.3155  0.5616  0.6459
 3771TIP3    H211278   4.335   5.170   1.277 -0.2970 -1.4589 -0.1432
 3772TIP3   OH211279   1.321   5.034   0.212 -0.2563 -0.1623  0.3572
 3772TIP3    H111280   1.283   4.948   0.193 -0.5276 -0.2038  1.0718
 3772TIP3    H211281   1.359   5.062   0.129 -0.9829 -0.5572 -0.1197
 3773TIP3   OH211282   1.607   5.023   2.107  0.1978 -0.3005 -0.2337
 3773TIP3    H111283   1.574   5.005   2.195  0.3586 -1.4275 -0.3956
 3773TIP3    H211284   1.540   5.079   2.068 -0.9197 -1.5013 -0.1040
 3774TIP3   OH211285   0.844   6.707   0.401  0.0027 -0.0156  0.7492
 3774TIP3    H111286   0.857   6.613   0.412 -0.6066 -0.0036  1.7182
 3774TIP3    H211287   0.931   6.745   0.410  0.1711 -0.4394  0.8962
 3775TIP3   OH211288   1.592   2.782   1.917  0.2190 -0.1039 -0.1696
 3775TIP3    H111289   1.606   2.768   1.824  1.8975 -1.0729  0.1944
 3775TIP3    H211290   1.666   2.836   1.945 -0.7550  0.9712  0.4616
 3776TIP3   OH211291   0.977   5.176   1.866 -0.2033  0.3365  0.4622
 3776TIP3    H111292   0.925   5.129   1.931  1.4816 -1.6642  0.4556
 3776TIP3    H211293   1.024   5.108   1.818  0.7924  1.9244 -0.9620
 3777TIP3   OH211294   1.326   4.108   3.951  0.0295 -0.2882 -0.4150
 3777TIP3    H111295   1.409   4.120   3.904  0.5188 -2.4319 -0.1766
 3777TIP3    H211296   1.260   4.110   3.882  0.3648  0.3632 -0.7310
 3778TIP3   OH211297   3.152   6.621   0.536 -0.7262 -0.2956  0.0855
 3778TIP3    H111298   3.059   6.624   0.557 -1.0222 -0.4849 -1.1645
 3778TIP3    H211299   3.163   6.538   0.489  0.2575 -0.7290  1.0226
 3779TIP3   OH211300   5.121   2.412   3.402  0.1659  0.4538 -0.2147
 3779TIP3    H111301   5.158   2.411   3.491  3.2618  0.6115 -1.3709
 3779TIP3    H211302   5.108   2.505   3.383 -0.3967  0.4247 -0.0151
 3780TIP3   OH211303   4.037   3.967   3.762 -0.7858  0.0300 -0.5981
 3780TIP3    H111304   4.095   3.902   3.722 -0.8363 -1.6962  1.8355
 3780TIP3    H211305   4.064   3.969   3.854 -0.1541  4.3043 -0.7003
 3781TIP3   OH211306   4.944   6.267   4.158  0.0695  0.2003 -0.0081
 3781TIP3    H111307   4.986   6.243   4.241  3.0103  2.6536 -0.6186
 3781TIP3    H211308   4.951   6.187   4.105  0.7486 -0.5311  1.1257
 3782TIP3   OH211309   6.206   4.709   1.198  0.3994 -0.4055 -0.1509
 3782TIP3    H111310   6.241   4.669   1.119  0.5320 -0.9686  0.1882
 3782TIP3    H211311   6.236   4.652   1.269 -1.3459 -0.9898  0.1438
 3783TIP3   OH211312   1.518   6.634   0.711 -0.2651  0.1532  0.3087
 3783TIP3    H111313   1.456   6.627   0.783  0.7864  1.2863  1.3707
 3783TIP3    H211314   1.595   6.676   0.749  1.3917 -1.6847 -0.8172
 3784TIP3   OH211315   5.927   3.962   1.630 -0.0999  0.4445 -0.0170
 3784TIP3    H111316   5.842   4.003   1.639 -0.9594 -0.9583 -1.2784
 3784TIP3    H211317   5.958   3.989   1.544  1.0363  1.4414  0.6768
 3785TIP3   OH211318   4.979   3.467   4.134  0.0982 -0.6560 -0.0538
 3785TIP3    H111319   5.052   3.441   4.077 -0.1242  0.4881 -0.8902
 3785TIP3    H211320   4.912   3.499   4.075  0.1341  1.2470  0.8457
 3786TIP3   OH211321   1.871   5.153   1.192 -0.3583  0.5259 -0.0168
 3786TIP3    H111322   1.913   5.079   1.148 -0.0960 -0.4777  1.8202
 3786TIP3    H211323   1.819   5.113   1.263  0.4822  2.1184  1.5828
 3787TIP3   OH211324   3.897   0.546   2.142  0.0540 -0.0551 -0.1722
 3787TIP3    H111325   3.975   0.601   2.136  0.9045 -1.1494  0.4661
 3787TIP3    H211326   3.930   0.458   2.159 -1.3556 -0.2276  2.2687
 3788TIP3   OH211327   4.809   3.495   2.820  0.2279  0.5102 -0.3071
 3788TIP3    H111328   4.827   3.487   2.727  0.6694  0.9026 -0.2570
 3788TIP3    H211329   4.781   3.407   2.847  0.5698  0.2779 -0.7064
 3789TIP3   OH211330   4.881   2.465   1.876 -0.3288  0.2331 -0.0921
 3789TIP3    H111331   4.859   2.408   1.802  0.1996  0.8254 -0.7094
 3789TIP3    H211332   4.968   2.438   1.903 -0.1592  0.6116 -0.2564
 3790TIP3   OH211333   7.063   6.393   2.516  0.7616 -0.0147  0.4453
 3790TIP3    H111334   7.128   6.338   2.471  0.7396 -1.1101  1.6993
 3790TIP3    H211335   6.979   6.354   2.493  0.5358  1.1061 -0.7727
 3791TIP3   OH211336   2.739   2.910   0.750 -0.0390  0.2422 -1.1108
 3791TIP3    H111337   2.676   2.865   0.693 -1.0819 -0.1709  0.3018
 3791TIP3    H211338   2.824   2.872   0.727 -0.5063 -0.2855 -2.0071
 3792TIP3   OH211339   2.164   2.544   3.665  0.1073  0.1928  0.0615
 3792TIP3    H111340   2.191   2.487   3.592 -0.4732  1.2211 -0.9907
 3792TIP3    H211341   2.072   2.521   3.680  0.6854 -1.2798  1.7196
 3793TIP3   OH211342   2.379   2.864   2.361  0.3995 -0.5690  0.3918
 3793TIP3    H111343   2.432   2.899   2.289 -0.2347 -0.6889 -0.1444
 3793TIP3    H211344   2.294   2.907   2.350  0.5343  0.0177  1.5555
 3794TIP3   OH211345   1.578   4.134   1.950  0.1773  0.2091  0.5047
 3794TIP3    H111346   1.590   4.128   1.855 -0.7402  0.4209  0.3660
 3794TIP3    H211347   1.573   4.043   1.979 -2.8534  0.0881 -0.1235
 3795TIP3   OH211348   4.181   1.922   3.855 -0.3086  0.0346  0.2949
 3795TIP3    H111349   4.193   1.835   3.893  0.0411 -0.2224 -0.3748
 3795TIP3    H211350   4.211   1.983   3.922  1.6829 -0.4623 -0.0806
 3796TIP3   OH211351   1.561   1.378   1.949 -0.2634 -0.4700  0.6756
 3796TIP3    H111352   1.502   1.453   1.956  0.8410  0.3330  1.6924
 3796TIP3    H211353   1.585   1.357   2.039 -1.1563 -2.5676  0.4793
 3797TIP3   OH211354   3.627   1.411   2.119 -0.0642  0.7285 -0.1386
 3797TIP3    H111355   3.614   1.338   2.059 -0.2075  1.5117 -1.0914
 3797TIP3    H211356   3.675   1.374   2.192  1.6688  0.0844 -1.5298
 3798TIP3   OH211357   4.869   0.324   3.489 -0.2902  0.6989 -0.2789
 3798TIP3    H111358   4.799   0.385   3.467 -0.7330 -0.1329 -1.2357
 3798TIP3    H211359   4.929   0.375   3.544 -1.6342  1.4288  0.5586
 3799TIP3   OH211360   1.518   1.709   2.953 -0.1485  0.1857  0.1631
 3799TIP3    H111361   1.590   1.749   2.904 -0.7795  1.1327  0.0050
 3799TIP3    H211362   1.562   1.651   3.015  0.6439 -1.9662 -2.2371
 3800TIP3   OH211363   6.040   1.543   2.398  0.0245 -0.4250 -0.6377
 3800TIP3    H111364   6.033   1.467   2.457  0.5231  0.5653  0.7638
 3800TIP3    H211365   5.967   1.599   2.422 -0.6959 -0.7098 -2.0863
 3801TIP3   OH211366   1.376   0.695   0.333 -0.5470  0.7674 -0.1431
 3801TIP3    H111367   1.462   0.685   0.372  0.3476 -1.8351 -2.4014
 3801TIP3    H211368   1.345   0.605   0.320 -3.8238  1.5900  0.8905
 3802TIP3   OH211369   1.395   3.908   5.618 -0.4176 -0.1053  0.1885
 3802TIP3    H111370   1.395   3.903   5.714 -0.7295 -1.0508  0.1482
 3802TIP3    H211371   1.307   3.936   5.595 -0.6971 -1.0088  0.1361
 3803TIP3   OH211372   0.144   6.155   1.058 -0.1826  0.2280  0.0017
 3803TIP3    H111373   0.184   6.221   1.114  1.1112 -0.4277 -0.1228
 3803TIP3    H211374   0.191   6.161   0.975  0.0607 -0.9577  0.0435
 3804TIP3   OH211375   3.162   0.706   4.770 -0.0702 -0.0022 -0.5937
 3804TIP3    H111376   3.214   0.693   4.691  1.6133  0.2292  0.4283
 3804TIP3    H211377   3.173   0.799   4.791  1.2294 -0.4701  1.0264
 3805TIP3   OH211378   0.644   5.488   1.614 -0.5251  0.0239 -0.4849
 3805TIP3    H111379   0.712   5.518   1.675 -0.3198 -0.1097 -0.6465
 3805TIP3    H211380   0.600   5.568   1.585  0.9665  0.3197 -2.0432
 3806TIP3   OH211381   5.518   4.373   4.723 -0.0438 -0.0625  0.4039
 3806TIP3    H111382   5.475   4.311   4.665  0.1028  0.1741  0.0397
 3806TIP3    H211383   5.498   4.342   4.811  2.3247 -2.2417  0.2760
 3807TIP3   OH211384   3.957   5.138   4.909  0.4714 -0.3399  0.5850
 3807TIP3    H111385   3.981   5.114   4.820 -0.1755 -0.0578  0.3253
 3807TIP3    H211386   3.993   5.068   4.964 -1.0825 -1.7595 -0.1135
 3808TIP3   OH211387   1.921   6.123   4.783  0.0178 -0.0307 -0.0287
 3808TIP3    H111388   1.884   6.046   4.741 -2.9734  0.7139  1.0500
 3808TIP3    H211389   1.966   6.088   4.860 -0.3783 -0.7692 -0.1217
 3809TIP3   OH211390   2.155   5.844   4.580 -0.3959  0.4087 -0.1836
 3809TIP3    H111391   2.144   5.938   4.597  2.6908  0.5309  2.0237
 3809TIP3    H211392   2.202   5.839   4.497 -2.0619  0.6254 -1.2007
 3810TIP3   OH211393   2.623   3.766   4.782 -0.0212  0.2843  0.0843
 3810TIP3    H111394   2.544   3.765   4.728  1.1935 -1.4112 -1.8346
 3810TIP3    H211395   2.683   3.706   4.738  2.2180  1.1877  1.6796
 3811TIP3   OH211396   5.739   4.557   3.507  0.4607 -0.2660 -0.0323
 3811TIP3    H111397   5.799   4.626   3.537  0.7395 -0.5348  0.0228
 3811TIP3    H211398   5.661   4.569   3.562  0.6944 -0.2998  0.3047
 3812TIP3   OH211399   2.080   5.394   2.903 -0.1334 -0.2978 -0.4390
 3812TIP3    H111400   2.117   5.481   2.914 -3.8566  1.2555  1.0606
 3812TIP3    H211401   2.096   5.350   2.986  2.0029 -1.3358 -1.2883
 3813TIP3   OH211402   0.159   0.887   3.044 -0.0185  0.2937  0.2226
 3813TIP3    H111403   0.241   0.866   3.090 -0.1034  0.4534  0.4516
 3813TIP3    H211404   0.100   0.917   3.114 -0.0853  0.7199 -0.0165
 3814TIP3   OH211405   1.976   6.228   0.697  0.2517 -0.0282 -0.0641
 3814TIP3    H111406   1.963   6.133   0.695  0.1177 -0.0311  0.6751
 3814TIP3    H211407   2.041   6.242   0.765  0.5043  0.3935 -0.3873
 3815TIP3   OH211408   3.408   1.422   3.156 -0.6586  0.5978  0.3573
 3815TIP3    H111409   3.325   1.424   3.204 -0.2313 -0.4268  1.1819
 3815TIP3    H211410   3.396   1.484   3.084 -1.1822  2.4838  2.0038
 3816TIP3   OH211411   5.653   2.833   2.655 -0.0723 -0.1414  0.5861
 3816TIP3    H111412   5.657   2.928   2.662 -1.7239  0.1809 -1.6008
 3816TIP3    H211413   5.742   2.806   2.634  0.1915  1.0626  0.0854
 3817TIP3   OH211414   2.387   1.813   5.777  0.1474  0.3166 -0.1422
 3817TIP3    H111415   2.372   1.830   5.684 -3.0778  0.1023  0.2379
 3817TIP3    H211416   2.382   1.718   5.786  3.0980  0.0702 -0.0318
 3818TIP3   OH211417   4.355   6.303   5.531 -0.4273 -0.4240 -0.1844
 3818TIP3    H111418   4.360   6.217   5.488 -0.9791 -0.5564  0.0153
 3818TIP3    H211419   4.291   6.352   5.480  1.7280  0.8073 -1.9030
 3819TIP3   OH211420   2.851   5.903   1.837  0.1643 -0.0496  0.0120
 3819TIP3    H111421   2.785   5.835   1.853  0.0314  0.0384 -0.1652
 3819TIP3    H211422   2.818   5.979   1.885  0.3324 -0.1178  0.2424
 3820TIP3   OH211423   4.843   0.264   3.928  0.4739 -0.3873  0.0084
 3820TIP3    H111424   4.812   0.215   4.004  1.4186 -1.0398 -0.0074
 3820TIP3    H211425   4.853   0.197   3.860  2.1752 -0.2603  0.1116
 3821TIP3   OH211426   5.574   1.273   1.584 -0.0370  0.3859  0.2023
 3821TIP3    H111427   5.645   1.263   1.648  0.8603 -1.6818 -1.0284
 3821TIP3    H211428   5.613   1.324   1.513  0.2120 -0.5943 -0.3903
 3822TIP3   OH211429   2.207   4.888   0.824  0.6955 -0.2145 -0.7515
 3822TIP3    H111430   2.272   4.942   0.869  0.8810  0.3930 -1.7086
 3822TIP3    H211431   2.240   4.799   0.831 -0.2929 -0.4574  2.0489
 3823TIP3   OH211432   7.195   1.403   0.502  0.0391  0.2501  0.0291
 3823TIP3    H111433   7.218   1.475   0.443  0.8582  0.6244  0.7828
 3823TIP3    H211434   7.101   1.415   0.518 -0.0683  0.4852 -0.7243
 3824TIP3   OH211435   6.604   6.657   2.351 -0.2171  0.0171  0.1573
 3824TIP3    H111436   6.547   6.593   2.394  1.8454 -0.4020  2.4853
 3824TIP3    H211437   6.639   6.710   2.422  2.6487 -0.0772 -1.0385
 3825TIP3   OH211438   5.756   1.295   4.761 -0.1409  0.1353 -0.1217
 3825TIP3    H111439   5.763   1.326   4.851  0.4020  0.5285 -0.2911
 3825TIP3    H211440   5.702   1.217   4.766 -0.5842  0.4766  0.4694
 3826TIP3   OH211441   0.374   2.324   0.035  0.2079 -0.6250  0.1993
 3826TIP3    H111442   0.410   2.412   0.032 -1.2446  0.0027  0.4701
 3826TIP3    H211443   0.312   2.320  -0.037 -0.9657 -0.8426  1.1865
 3827TIP3   OH211444   4.867   4.571   4.596  0.2572  0.2678  0.2132
 3827TIP3    H111445   4.846   4.623   4.673  1.2016  0.7363  0.1628
 3827TIP3    H211446   4.810   4.494   4.603 -0.2070  0.6666  0.9703
 3828TIP3   OH211447   2.359   4.058   0.781  0.3993 -0.2377  0.0587
 3828TIP3    H111448   2.433   4.111   0.812 -0.9482  2.0457 -0.3604
 3828TIP3    H211449   2.360   4.070   0.686 -0.7810  0.2883  0.0910
 3829TIP3   OH211450   1.334   2.384   0.561 -0.8286 -0.5812  0.8703
 3829TIP3    H111451   1.391   2.310   0.583  1.0645  0.2843 -0.7817
 3829TIP3    H211452   1.271   2.348   0.498  0.2008 -0.7902 -0.0726
 3830TIP3   OH211453   3.537   6.483   1.838 -0.2782  0.2110 -0.4149
 3830TIP3    H111454   3.577   6.482   1.752  0.5829  2.1819 -0.0972
 3830TIP3    H211455   3.527   6.576   1.859 -0.7140 -0.2096  1.4823
 3831TIP3   OH211456   4.807   5.384   2.161 -0.3335 -0.2060 -0.1441
 3831TIP3    H111457   4.794   5.415   2.251  0.2054  1.5510 -0.6405
 3831TIP3    H211458   4.731   5.327   2.144 -1.0624  0.3868  1.0072
 3832TIP3   OH211459   1.034   2.163   4.713  0.0350 -0.4950  0.3596
 3832TIP3    H111460   1.063   2.238   4.766 -1.1938 -0.2377  0.6856
 3832TIP3    H211461   0.977   2.114   4.771 -0.6737 -0.6650 -0.4684
 3833TIP3   OH211462   1.831   1.816   0.372  0.1749  0.3494 -0.7776
 3833TIP3    H111463   1.908   1.842   0.422 -0.3518  0.8974 -0.2305
 3833TIP3    H211464   1.825   1.721   0.383 -0.7120  0.6005  1.3911
 3834TIP3   OH211465   7.053   6.362   3.981  0.6661 -0.0749 -0.1901
 3834TIP3    H111466   7.137   6.334   4.017  0.5462 -0.3460 -0.1196
 3834TIP3    H211467   7.039   6.304   3.906 -0.2394 -1.1432  0.7730
 3835TIP3   OH211468   3.750   1.747   1.480 -0.3243  0.0231 -0.1274
 3835TIP3    H111469   3.838   1.780   1.462  1.6922 -4.2752  0.6519
 3835TIP3    H211470   3.747   1.735   1.575 -1.9936  0.5798 -0.0742
 3836TIP3   OH211471   3.115   3.785   5.406 -0.1234 -0.3919  0.7364
 3836TIP3    H111472   3.123   3.867   5.359 -0.2428 -0.6478  0.2611
 3836TIP3    H211473   3.152   3.719   5.346 -0.5465 -0.7634  0.8763
 3837TIP3   OH211474   0.826   2.316   2.313 -0.3074 -0.3518  0.1483
 3837TIP3    H111475   0.767   2.357   2.249 -1.0114 -1.7038 -0.1178
 3837TIP3    H211476   0.897   2.279   2.260 -0.1544 -0.2767  0.2980
 3838TIP3   OH211477   0.870   1.058   2.148  0.2984  0.3404 -0.0468
 3838TIP3    H111478   0.829   1.022   2.227  0.1970  0.0748 -0.2219
 3838TIP3    H211479   0.960   1.026   2.151  0.0656 -0.3510 -0.4724
 3839TIP3   OH211480   4.991   2.905   5.615  0.1479  0.0154  0.0384
 3839TIP3    H111481   4.956   2.945   5.694 -1.0761  0.2015 -0.5689
 3839TIP3    H211482   4.914   2.886   5.561  0.9571  0.0600 -1.1847
 3840TIP3   OH211483   4.056   3.222   2.128 -0.4260  0.5879 -0.1826
 3840TIP3    H111484   4.062   3.199   2.220 -0.4584  1.6502  0.0987
 3840TIP3    H211485   4.114   3.161   2.083 -1.7859 -1.1346  0.3102
 3841TIP3   OH211486   6.851   5.725   4.531 -0.2098  0.0908 -0.1516
 3841TIP3    H111487   6.891   5.806   4.501  0.4725 -0.8304 -1.9389
 3841TIP3    H211488   6.802   5.693   4.455 -1.4157 -0.6100  0.8729
 3842TIP3   OH211489   1.780   4.413   3.987  0.1453  0.6389  0.1614
 3842TIP3    H111490   1.820   4.337   3.944 -0.3317  0.4651  0.0223
 3842TIP3    H211491   1.717   4.447   3.923 -1.6248 -0.4719  1.2166
 3843TIP3   OH211492   4.956   1.357   0.249 -0.0115 -0.4530 -0.1500
 3843TIP3    H111493   5.039   1.355   0.296 -0.0723  0.5651  0.0140
 3843TIP3    H211494   4.929   1.265   0.245  1.2701 -0.8313 -0.4882
 3844TIP3   OH211495   2.140   3.938   1.408 -0.4438 -0.2515  0.1007
 3844TIP3    H111496   2.190   4.013   1.441  0.2186 -0.0630 -1.2777
 3844TIP3    H211497   2.205   3.870   1.394 -1.1739 -1.5158  2.3653
 3845TIP3   OH211498   0.353   1.855   2.115  0.3004 -0.1663  0.4439
 3845TIP3    H111499   0.381   1.850   2.206  1.9538  0.1253 -0.0105
 3845TIP3    H211500   0.292   1.782   2.104  2.7216 -2.4101  0.9362
 3846TIP3   OH211501   3.648   4.313   4.635  0.4149 -0.0763  0.0481
 3846TIP3    H111502   3.658   4.343   4.544  0.1552 -0.3940 -0.0877
 3846TIP3    H211503   3.738   4.304   4.667  0.5038  0.8917  0.1113
 3847TIP3   OH211504   1.234   3.984   2.130  0.0449 -0.4341 -0.1147
 3847TIP3    H111505   1.286   3.988   2.211 -0.3344  1.3943  0.0823
 3847TIP3    H211506   1.297   4.002   2.060 -0.0107  0.2578 -0.0020
 3848TIP3   OH211507   4.093   6.244   4.021  0.2939 -0.7483  0.1786
 3848TIP3    H111508   4.015   6.237   3.967 -1.5848 -0.4947  2.6910
 3848TIP3    H211509   4.129   6.156   4.024 -0.0771 -0.9368 -0.6922
 3849TIP3   OH211510   3.223   3.950   4.677  0.2355 -0.5813  0.7320
 3849TIP3    H111511   3.296   3.959   4.739  0.0628 -1.3385  1.0561
 3849TIP3    H211512   3.206   3.856   4.673  0.1814 -0.5389 -0.4130
 3850TIP3   OH211513   0.262   4.551   5.706  0.4559 -0.5231  0.1624
 3850TIP3    H111514   0.172   4.583   5.708  1.5612  3.0115  1.4317
 3850TIP3    H211515   0.283   4.529   5.797  0.6241 -2.3164 -0.2713
 3851TIP3   OH211516   4.181   3.103   1.721  0.7825  0.0198  0.5140
 3851TIP3    H111517   4.248   3.076   1.658 -1.0209  2.9165 -3.0365
 3851TIP3    H211518   4.108   3.043   1.706  0.7560  0.0027  0.7050
 3852TIP3   OH211519   4.313   5.051   0.681 -0.4665  0.0338  0.4159
 3852TIP3    H111520   4.289   4.966   0.720  1.7324  0.8964  4.1309
 3852TIP3    H211521   4.367   5.028   0.605 -1.9957 -1.8038 -0.1995
 3853TIP3   OH211522   0.762   5.338   5.116  0.3930  0.6548 -0.3007
 3853TIP3    H111523   0.743   5.331   5.023  0.1575 -0.3940 -0.1977
 3853TIP3    H211524   0.834   5.276   5.130  0.5534  0.9473  0.1769
 3854TIP3   OH211525   5.741   1.867   0.049 -0.1886  0.1107  0.6550
 3854TIP3    H111526   5.777   1.802  -0.011  1.4107  0.3727  1.2767
 3854TIP3    H211527   5.663   1.826   0.086  0.8945 -1.5406  1.1858
 3855TIP3   OH211528   2.509   1.558   0.120 -0.5498 -0.3449  0.1632
 3855TIP3    H111529   2.485   1.486   0.179 -0.1604  1.7070  3.0851
 3855TIP3    H211530   2.440   1.623   0.132  0.2489  0.6857 -0.6181
 3856TIP3   OH211531   5.187   6.394   1.820 -0.2627  0.1065 -0.5875
 3856TIP3    H111532   5.224   6.364   1.737  1.7336  0.3545  0.1397
 3856TIP3    H211533   5.107   6.441   1.796  0.4175  0.4255 -2.3832
 3857TIP3   OH211534   2.790   3.184   4.772 -0.5200  0.3126  0.7301
 3857TIP3    H111535   2.794   3.279   4.768  0.5369  0.2716  0.5815
 3857TIP3    H211536   2.759   3.157   4.685 -1.2858  0.5268  0.9246
 3858TIP3   OH211537   4.210   0.370   2.666 -0.4841 -0.4855  0.3133
 3858TIP3    H111538   4.249   0.377   2.754  0.6369 -2.5768  0.0548
 3858TIP3    H211539   4.122   0.404   2.677  0.7857  2.9593  1.3135
 3859TIP3   OH211540   4.438   3.895   3.489  0.0689 -0.4725 -0.2075
 3859TIP3    H111541   4.487   3.870   3.567  0.0794  2.1074  0.7214
 3859TIP3    H211542   4.391   3.975   3.514 -0.7900 -0.1590 -2.5186
 3860TIP3   OH211543   6.901   5.606   3.173  0.7540  0.1920 -0.1178
 3860TIP3    H111544   6.900   5.595   3.078 -1.1506 -0.5279 -0.0598
 3860TIP3    H211545   6.815   5.574   3.201  1.0719  0.9224  1.7915
 3861TIP3   OH211546   6.345   5.957   0.776  0.4422  0.5096 -0.6275
 3861TIP3    H111547   6.345   6.038   0.726  1.0374  2.0618  1.7227
 3861TIP3    H211548   6.437   5.935   0.788  0.3293  0.4391  0.1868
 3862TIP3   OH211549   3.715   5.492   4.937  0.7908  0.1504  0.6768
 3862TIP3    H111550   3.801   5.529   4.959  1.1445 -0.4809  0.3752
 3862TIP3    H211551   3.710   5.496   4.842 -0.6465  2.6679  0.7695
 3863TIP3   OH211552   5.602   5.041   5.280  0.3693  0.7654 -0.2687
 3863TIP3    H111553   5.548   5.091   5.219 -0.6254  0.6460  0.4868
 3863TIP3    H211554   5.639   4.970   5.226 -2.5618 -0.9141 -0.3115
 3864TIP3   OH211555   5.400   3.014   1.683  0.0328  0.0785  0.3537
 3864TIP3    H111556   5.313   3.024   1.721  0.6472  0.3247  1.7652
 3864TIP3    H211557   5.395   3.062   1.600 -0.5466  2.1216  1.4789
 3865TIP3   OH211558   0.101   1.422   3.434 -0.1426 -0.6099  0.4939
 3865TIP3    H111559   0.146   1.505   3.445 -2.7098  1.0588 -0.6998
 3865TIP3    H211560   0.170   1.361   3.408  1.7097  1.2732  0.7078
 3866TIP3   OH211561   3.268   4.961   2.481  0.3315  0.2950  0.7782
 3866TIP3    H111562   3.203   4.892   2.496  1.3353 -1.1063 -0.8893
 3866TIP3    H211563   3.300   4.984   2.568 -0.9868 -0.3683  1.4662
 3867TIP3   OH211564   1.635   5.555   4.495 -0.1707  0.4101  0.0089
 3867TIP3    H111565   1.646   5.460   4.490  1.6457  0.6404 -1.3153
 3867TIP3    H211566   1.652   5.577   4.587 -0.5389 -0.5197  0.3084
 3868TIP3   OH211567   6.613   0.442   0.130 -0.0386 -0.2153 -0.2259
 3868TIP3    H111568   6.688   0.383   0.121  1.8865  2.3127 -3.3297
 3868TIP3    H211569   6.547   0.405   0.072  0.7584  0.0479 -1.3423
 3869TIP3   OH211570   7.135   6.456   4.722  0.3900  0.0600  0.0149
 3869TIP3    H111571   7.180   6.418   4.646  0.5703 -0.6853  0.4816
 3869TIP3    H211572   7.197   6.445   4.794 -0.1860 -0.1615  0.4834
 3870TIP3   OH211573   2.886   4.293   4.394  0.3266 -0.0843 -0.3790
 3870TIP3    H111574   2.942   4.229   4.438 -0.9968 -0.8453  0.2299
 3870TIP3    H211575   2.863   4.356   4.462 -0.4510 -0.3923 -0.3494
 3871TIP3   OH211576   5.520   0.057   5.694 -0.1339  0.6001 -0.1574
 3871TIP3    H111577   5.466   0.038   5.770 -0.2978  1.6451  0.0032
 3871TIP3    H211578   5.542   0.150   5.702  0.0713  0.6657 -1.2428
 3872TIP3   OH211579   1.591   2.608   2.473 -0.1731 -0.1189 -0.1301
 3872TIP3    H111580   1.685   2.611   2.453 -0.4517  0.0327 -1.5195
 3872TIP3    H211581   1.577   2.681   2.534  0.2730  1.2237 -1.5648
 3873TIP3   OH211582   2.216   2.895   1.964 -0.5133 -0.1536 -0.5904
 3873TIP3    H111583   2.184   2.962   2.025  0.5650 -0.1906  0.0434
 3873TIP3    H211584   2.309   2.915   1.953 -0.3347 -1.1319 -0.9395
 3874TIP3   OH211585   6.274   0.781   5.645  0.3633 -0.1468  0.5742
 3874TIP3    H111586   6.179   0.764   5.642  0.1481  1.0704 -2.1539
 3874TIP3    H211587   6.312   0.697   5.673 -1.3497 -1.7382 -1.4706
 3875TIP3   OH211588   4.666   2.173   1.972  0.2509  0.1624 -0.7018
 3875TIP3    H111589   4.610   2.133   1.905  0.3713 -1.3836  0.0969
 3875TIP3    H211590   4.755   2.148   1.947  0.3146 -0.2210 -0.1039
 3876TIP3   OH211591   4.187   0.233   3.664 -0.3517 -0.2220  0.1411
 3876TIP3    H111592   4.097   0.245   3.632 -0.8166 -0.7606  1.1853
 3876TIP3    H211593   4.177   0.176   3.740  0.8712 -0.1587  0.3580
 3877TIP3   OH211594   3.337   6.081   2.716  0.2708  0.2239 -0.0206
 3877TIP3    H111595   3.298   6.071   2.803 -1.2259  4.1489 -0.0725
 3877TIP3    H211596   3.264   6.077   2.655  0.7889  1.0927 -0.7334
 3878TIP3   OH211597   1.183   4.988   3.521 -0.0568 -0.3051  0.3336
 3878TIP3    H111598   1.101   5.007   3.475  0.3837 -1.3832 -0.9658
 3878TIP3    H211599   1.166   4.906   3.568  0.5275 -1.0207 -0.6683
 3879TIP3   OH211600   0.909   1.152   5.842 -0.1476  0.2036 -0.1394
 3879TIP3    H111601   0.910   1.149   5.746  0.3307 -1.9282 -0.1176
 3879TIP3    H211602   0.998   1.178   5.866  0.5514 -1.8437 -0.2995
 3880TIP3   OH211603   6.866   5.104   2.040  0.2652 -0.5695 -0.0917
 3880TIP3    H111604   6.913   5.186   2.027 -0.5431 -0.2729 -1.2647
 3880TIP3    H211605   6.784   5.115   1.991  0.0081 -1.9531 -0.0071
 3881TIP3   OH211606   4.741   2.450   0.088  0.7842  0.4896  0.1901
 3881TIP3    H111607   4.786   2.393   0.151 -0.2581 -0.3141  0.2179
 3881TIP3    H211608   4.806   2.465   0.020  1.5507  0.4369  0.8856
 3882TIP3   OH211609   5.135   2.913   2.361  0.0632  0.6197  0.2896
 3882TIP3    H111610   5.109   2.934   2.271  0.7376 -1.3847 -0.4322
 3882TIP3    H211611   5.065   2.858   2.394 -0.0337  1.0979  0.8923
 3883TIP3   OH211612   2.862   5.153   0.262  0.1836  0.3838  0.2241
 3883TIP3    H111613   2.877   5.065   0.228  1.2326  0.4776  0.4014
 3883TIP3    H211614   2.929   5.164   0.330  1.1197  1.8997 -0.8822
 3884TIP3   OH211615   6.004   6.069   5.203 -0.1930  0.3523  0.1735
 3884TIP3    H111616   6.037   6.024   5.281  0.0018  0.0445 -0.0823
 3884TIP3    H211617   6.076   6.063   5.140 -0.2822  0.7583  0.0320
 3885TIP3   OH211618   6.423   0.055   2.529  0.0175 -0.1759  0.1860
 3885TIP3    H111619   6.487   0.119   2.499  0.1707 -0.4436 -0.0589
 3885TIP3    H211620   6.338   0.088   2.498 -0.0621  0.5755  1.1537
 3886TIP3   OH211621   2.333   2.370   0.456 -0.2289 -0.0366 -0.6120
 3886TIP3    H111622   2.283   2.293   0.481  0.9481 -0.1332  1.7419
 3886TIP3    H211623   2.395   2.339   0.391  0.8304 -1.3608  0.9418
 3887TIP3   OH211624   3.480   1.026   5.170 -0.3445 -0.1149  0.7017
 3887TIP3    H111625   3.421   1.045   5.243 -0.4863 -0.6238  0.7228
 3887TIP3    H211626   3.425   0.983   5.105 -0.0350 -0.4363  0.6498
 3888TIP3   OH211627   3.140   2.867   0.514 -0.0461 -0.2108 -0.3756
 3888TIP3    H111628   3.056   2.911   0.499 -0.6958 -1.7037 -1.3572
 3888TIP3    H211629   3.118   2.774   0.514  1.9045 -0.7462 -2.6973
 3889TIP3   OH211630   2.796   4.950   1.506  0.3434  0.4675 -0.6703
 3889TIP3    H111631   2.806   5.026   1.449  0.6264  0.2984 -0.8479
 3889TIP3    H211632   2.749   4.984   1.583 -1.2894  0.4079 -1.5883
 3890TIP3   OH211633   2.558   2.026   5.817  0.0299 -0.2125 -0.2708
 3890TIP3    H111634   2.589   2.054   5.903  2.0869  0.0664 -1.0313
 3890TIP3    H211635   2.529   1.936   5.830  1.6421 -0.6654  0.4589
 3891TIP3   OH211636   0.979   1.546   2.556  0.3391  0.3821 -0.1009
 3891TIP3    H111637   0.950   1.631   2.588 -0.6434 -0.5891  1.7302
 3891TIP3    H211638   1.024   1.505   2.630 -0.8924 -1.4335 -0.2780
 3892TIP3   OH211639   4.382   3.505   0.363 -0.5189 -0.2265  0.1595
 3892TIP3    H111640   4.318   3.463   0.421 -1.4833  0.9562 -0.0142
 3892TIP3    H211641   4.344   3.590   0.344  1.6140  0.9345  0.8667
 3893TIP3   OH211642   0.669   6.504   2.159 -0.3753  0.2152 -0.6763
 3893TIP3    H111643   0.679   6.599   2.170 -1.2296  0.3951 -1.3816
 3893TIP3    H211644   0.733   6.481   2.092 -0.7616  0.4372 -1.1225
 3894TIP3   OH211645   5.525   2.439   2.685 -0.2763 -0.0375 -0.3998
 3894TIP3    H111646   5.431   2.449   2.702 -0.8377  1.9982 -3.7834
 3894TIP3    H211647   5.537   2.346   2.669 -1.8350 -0.2592 -0.4452
 3895TIP3   OH211648   6.307   1.677   0.439 -0.0878 -0.2227  0.3748
 3895TIP3    H111649   6.335   1.703   0.351  2.7241  0.2899  1.3054
 3895TIP3    H211650   6.347   1.591   0.452  0.2010  0.0533  1.4060
 3896TIP3   OH211651   3.178   6.522   4.271 -0.1175  0.1155 -0.5451
 3896TIP3    H111652   3.229   6.601   4.290 -1.4099  0.4510  2.0384
 3896TIP3    H211653   3.219   6.454   4.324 -1.1792 -0.0194  0.1583
 3897TIP3   OH211654   0.202   3.043   3.027  0.4645 -0.1988 -0.2710
 3897TIP3    H111655   0.215   3.131   2.991 -1.1118 -0.5800 -1.9163
 3897TIP3    H211656   0.153   2.996   2.959 -0.9481 -1.5663  1.5805
 3898TIP3   OH211657   4.631   2.406   3.129 -0.0125  0.2287 -0.0545
 3898TIP3    H111658   4.710   2.375   3.172  1.0522  1.5305 -1.0031
 3898TIP3    H211659   4.576   2.439   3.201  1.2484  1.3256  0.4399
 3899TIP3   OH211660   1.191   4.463   1.097 -0.1699  0.7233 -0.2982
 3899TIP3    H111661   1.184   4.475   1.002 -1.5146  0.5340 -0.2389
 3899TIP3    H211662   1.103   4.438   1.125  0.0909  1.2644  1.0788
 3900TIP3   OH211663   0.048   3.913   4.601 -0.1591  0.7905  0.1456
 3900TIP3    H111664   0.106   3.988   4.612  1.0001 -0.2712  1.6640
 3900TIP3    H211665   0.103   3.837   4.620 -1.8357 -0.3075  0.8614
 3901TIP3   OH211666   2.233   6.198   3.188 -0.3130  0.0926 -0.2809
 3901TIP3    H111667   2.262   6.203   3.279 -0.2898 -2.3186 -0.0966
 3901TIP3    H211668   2.312   6.177   3.139 -0.8066 -1.4570 -0.4490
 3902TIP3   OH211669   6.862   0.115   5.536 -0.4580  0.1366 -0.1190
 3902TIP3    H111670   6.919   0.076   5.603 -1.4362 -0.0125  0.6516
 3902TIP3    H211671   6.808   0.043   5.505 -0.6946  0.4087 -0.3500
 3903TIP3   OH211672   6.760   5.748   3.742 -0.6109  0.2224 -0.4975
 3903TIP3    H111673   6.848   5.777   3.766 -0.9802  1.5756 -0.6941
 3903TIP3    H211674   6.771   5.703   3.658  0.3110 -2.3434  0.8708
 3904TIP3   OH211675   4.354   6.035   5.057 -0.0229 -0.3536  0.7083
 3904TIP3    H111676   4.259   6.029   5.060 -0.0552 -1.4199 -0.9539
 3904TIP3    H211677   4.377   6.004   4.970  1.8181  0.4865  0.8528
 3905TIP3   OH211678   0.540   6.269   2.849  0.5360 -0.2956  0.5132
 3905TIP3    H111679   0.554   6.272   2.754 -1.1060 -0.3052  0.2323
 3905TIP3    H211680   0.469   6.331   2.865 -0.1187 -1.2542  1.5403
 3906TIP3   OH211681   2.745   1.295   5.378 -0.1654  0.1510 -0.1277
 3906TIP3    H111682   2.759   1.210   5.335 -0.6582 -0.0012  0.0000
 3906TIP3    H211683   2.804   1.294   5.453  0.5445  0.3291 -0.6761
 3907TIP3   OH211684   4.593   1.421   2.301 -0.4921  0.4769 -0.0637
 3907TIP3    H111685   4.534   1.376   2.241  0.5206 -2.6606  1.1080
 3907TIP3    H211686   4.548   1.416   2.386 -0.3805  1.8383  0.0971
 3908TIP3   OH211687   3.465   2.377   0.232  0.0472  0.2082 -0.2746
 3908TIP3    H111688   3.542   2.415   0.275  0.6273 -0.2889 -0.8471
 3908TIP3    H211689   3.391   2.425   0.269  0.5228 -0.1478  1.2186
 3909TIP3   OH211690   0.465   2.705   3.578 -0.0487  0.4790  0.5436
 3909TIP3    H111691   0.556   2.732   3.581  0.1902 -0.0322 -1.0675
 3909TIP3    H211692   0.425   2.762   3.512 -1.4274  2.0878  2.6444
 3910TIP3   OH211693   4.474   0.166   2.198 -0.5877 -0.0265 -0.0899
 3910TIP3    H111694   4.507   0.078   2.217 -0.3273  0.4452  1.9686
 3910TIP3    H211695   4.530   0.199   2.128  0.5917 -0.7890  0.4692
 3911TIP3   OH211696   2.765   4.780   1.916  0.7076  0.5528  0.1603
 3911TIP3    H111697   2.738   4.867   1.888  0.3972  0.8257  1.2721
 3911TIP3    H211698   2.803   4.740   1.837 -1.0617  0.8986 -0.9071
 3912TIP3   OH211699   3.643   3.662   5.280 -0.1254 -0.8730 -0.0391
 3912TIP3    H111700   3.617   3.685   5.369 -3.7795 -0.6978 -0.9928
 3912TIP3    H211701   3.576   3.701   5.225  1.1513 -2.2859 -2.7889
 3913TIP3   OH211702   7.103   2.365   3.229 -0.5143 -0.1014 -0.1051
 3913TIP3    H111703   7.157   2.428   3.180 -0.5125 -0.1990 -0.2278
 3913TIP3    H211704   7.159   2.289   3.240 -0.0665  0.3875  1.1454
 3914TIP3   OH211705   3.053   4.100   4.496  0.0026  0.5164 -0.3166
 3914TIP3    H111706   2.978   4.049   4.529 -0.3133  0.3727 -1.2362
 3914TIP3    H211707   3.127   4.071   4.549 -0.4925  0.2837  0.2599
 3915TIP3   OH211708   2.099   4.595   0.438  0.4707 -0.6243 -0.1238
 3915TIP3    H111709   2.107   4.657   0.511 -0.3162 -2.2337  1.3948
 3915TIP3    H211710   2.088   4.651   0.361  0.6937  1.1278  1.0498
 3916TIP3   OH211711   0.669   6.662   0.209 -0.0346  0.0293  0.2252
 3916TIP3    H111712   0.676   6.746   0.162 -0.7493  2.6833  4.3085
 3916TIP3    H211713   0.716   6.677   0.291 -1.6294 -3.0067  1.8538
 3917TIP3   OH211714   0.002   6.784   2.431 -0.6508  0.0655 -0.0301
 3917TIP3    H111715   0.087   6.746   2.411 -0.3521  1.0673 -0.7537
 3917TIP3    H211716  -0.062   6.723   2.394 -0.1566  1.2498 -3.1741
 3918TIP3   OH211717   5.561   0.806   0.690  0.2651  0.1423 -0.1497
 3918TIP3    H111718   5.531   0.728   0.736  1.5711  0.4296  1.2786
 3918TIP3    H211719   5.626   0.774   0.628 -0.9762 -0.1607 -1.3400
 3919TIP3   OH211720   3.075   5.597   4.699  0.4359 -0.5072 -1.1837
 3919TIP3    H111721   3.166   5.583   4.725  0.6173  0.7106 -1.1354
 3919TIP3    H211722   3.078   5.667   4.635 -0.7017  1.5035  0.8324
 3920TIP3   OH211723   1.631   2.587   4.534  0.6174  0.7442  0.0561
 3920TIP3    H111724   1.724   2.594   4.557  0.7354  1.8433 -0.6716
 3920TIP3    H211725   1.597   2.676   4.543  0.0278  0.6772 -1.2812
 3921TIP3   OH211726   1.437   5.675   2.256  0.2418 -0.5919 -0.4418
 3921TIP3    H111727   1.397   5.588   2.256 -0.4929 -0.2991  1.0066
 3921TIP3    H211728   1.501   5.672   2.328  1.4198 -0.4280 -1.4490
 3922TIP3   OH211729   0.990   1.223   3.371  0.2184 -0.1703  0.1501
 3922TIP3    H111730   0.951   1.169   3.302  0.2676  1.2834 -1.0595
 3922TIP3    H211731   1.082   1.231   3.345  0.1445  0.7343  0.1306
 3923TIP3   OH211732   4.152   5.862   3.732 -0.0511 -0.3711 -0.0482
 3923TIP3    H111733   4.197   5.779   3.715 -0.0095 -0.5035  0.6707
 3923TIP3    H211734   4.218   5.929   3.716  0.2273 -0.5332  0.4167
 3924TIP3   OH211735   2.194   4.033   3.905 -0.2678  0.7372  0.1806
 3924TIP3    H111736   2.274   3.981   3.906  0.8405  2.2705 -1.6469
 3924TIP3    H211737   2.123   3.968   3.902  0.8674 -0.6411  1.4651
 3925TIP3   OH211738   1.384   0.279   5.641 -1.0167  0.5938 -0.2382
 3925TIP3    H111739   1.454   0.213   5.643 -0.6634  0.8457 -2.1982
 3925TIP3    H211740   1.321   0.248   5.705  0.0648 -0.6043  0.2984
 3926TIP3   OH211741   3.527   5.215   1.247 -0.4563 -0.4246  0.0622
 3926TIP3    H111742   3.444   5.214   1.293 -0.8075  1.8112 -0.3980
 3926TIP3    H211743   3.503   5.222   1.154  0.2236 -0.0080 -0.0932
 3927TIP3   OH211744   0.902   0.688   2.176 -0.1450  0.1417 -0.3572
 3927TIP3    H111745   0.943   0.633   2.243 -2.8373  0.4180  1.6867
 3927TIP3    H211746   0.934   0.652   2.093  2.6298 -0.7993  0.9687
 3928TIP3   OH211747   4.623   6.627   4.478 -0.2545  0.0036  0.3016
 3928TIP3    H111748   4.558   6.600   4.412  0.1421 -0.9044  0.2746
 3928TIP3    H211749   4.573   6.630   4.560 -0.6591  0.7483  0.0411
 3929TIP3   OH211750   5.396   2.990   4.874  0.0391  0.6191 -0.0525
 3929TIP3    H111751   5.352   3.062   4.919  0.0101  0.3511  0.3569
 3929TIP3    H211752   5.325   2.931   4.846  0.0807  0.6116 -0.1449
 3930TIP3   OH211753   0.722   1.273   5.404  0.5374 -0.4514  0.0861
 3930TIP3    H111754   0.698   1.237   5.318  1.2438  0.3961 -0.4732
 3930TIP3    H211755   0.795   1.332   5.387  0.4707 -0.0047  1.2305
 3931TIP3   OH211756   1.929   5.568   5.153  0.0730  0.2111 -0.2054
 3931TIP3    H111757   1.840   5.587   5.121  1.0430  1.5912 -2.3106
 3931TIP3    H211758   1.932   5.611   5.239 -0.9756  1.0914 -0.5702
 3932TIP3   OH211759   1.055   6.463   3.604  0.6076  0.0295  0.3024
 3932TIP3    H111760   1.017   6.516   3.674  0.8006  1.4858 -0.6422
 3932TIP3    H211761   1.047   6.517   3.526  0.7431 -1.3943 -0.7441
 3933TIP3   OH211762   7.113   5.607   4.736 -0.7223  0.0481 -0.5242
 3933TIP3    H111763   7.113   5.607   4.832 -0.7096  1.0106 -0.5124
 3933TIP3    H211764   7.124   5.515   4.712  0.2196 -0.0998  0.3968
 3934TIP3   OH211765   6.538   5.846   2.870 -1.0388  0.2708  0.1344
 3934TIP3    H111766   6.545   5.847   2.965 -0.9104 -0.4302  0.1331
 3934TIP3    H211767   6.472   5.779   2.851 -1.0859  0.4266 -0.2709
 3935TIP3   OH211768   4.036   0.341   4.826 -0.1983  0.2331  0.2048
 3935TIP3    H111769   4.077   0.350   4.740 -0.5013 -0.6423 -0.0405
 3935TIP3    H211770   4.029   0.247   4.840  0.3166  0.3531  1.4278
 3936TIP3   OH211771   3.657   5.706   0.779  0.0894  0.2777  0.3681
 3936TIP3    H111772   3.611   5.641   0.833 -1.1655  2.2496  1.8194
 3936TIP3    H211773   3.590   5.736   0.717 -0.1135  1.8863  1.3173
 3937TIP3   OH211774   0.436   5.858   4.698 -0.1467  0.4251  0.4738
 3937TIP3    H111775   0.418   5.946   4.731 -0.7062  0.5154 -0.0610
 3937TIP3    H211776   0.356   5.833   4.652 -0.1929 -0.5823  1.0874
 3938TIP3   OH211777   0.040   4.282   3.363 -0.4222  0.2453  0.5733
 3938TIP3    H111778   0.109   4.344   3.383  1.0666 -1.0016 -0.4503
 3938TIP3    H211779   0.031   4.285   3.268 -1.1912 -0.2196  0.6214
 3939TIP3   OH211780   5.730   5.992   5.864  0.1720  0.2102 -0.0395
 3939TIP3    H111781   5.782   6.016   5.788  0.2081  0.5010  0.0732
 3939TIP3    H211782   5.641   6.016   5.841  0.2136  0.4979  0.0877
 3940TIP3   OH211783   2.623   2.552   4.339  0.7214  0.0355 -0.3168
 3940TIP3    H111784   2.566   2.571   4.414  2.4674  0.4280  0.9899
 3940TIP3    H211785   2.620   2.631   4.286  1.4566  0.7804  0.7160
 3941TIP3   OH211786   5.461   3.817   3.177 -0.0475  0.0311  0.0977
 3941TIP3    H111787   5.424   3.841   3.092 -0.7029 -0.4240  0.2443
 3941TIP3    H211788   5.555   3.832   3.168 -0.3059  1.5687 -0.1635
 3942TIP3   OH211789   1.681   6.263   4.130  0.2894 -0.0290 -0.2522
 3942TIP3    H111790   1.774   6.272   4.110  0.6417  0.0343  1.3409
 3942TIP3    H211791   1.669   6.169   4.142  0.2852  0.0256  0.1729
 3943TIP3   OH211792   5.386   5.405   3.562 -0.0491 -0.0133  0.4047
 3943TIP3    H111793   5.453   5.357   3.609 -0.1969 -2.1941 -1.4557
 3943TIP3    H211794   5.434   5.458   3.499  0.0472  1.5213  1.6910
 3944TIP3   OH211795   6.243   0.615   5.177  0.2212 -0.5645  0.2754
 3944TIP3    H111796   6.194   0.584   5.100  2.3210  0.0241 -1.4107
 3944TIP3    H211797   6.312   0.671   5.140  2.5467 -1.8216  2.4326
 3945TIP3   OH211798   0.688   2.508   2.996  0.2272  0.1848 -0.3119
 3945TIP3    H111799   0.763   2.550   2.955  0.9636 -1.9836 -1.3732
 3945TIP3    H211800   0.623   2.500   2.926  0.2954 -0.7922 -0.2860
 3946TIP3   OH211801   4.154   6.039   5.856  0.0130 -0.7496  0.0528
 3946TIP3    H111802   4.220   5.988   5.904  0.9933  0.8248  0.4455
 3946TIP3    H211803   4.108   6.088   5.924  0.0774  0.0036 -0.4354
 3947TIP3   OH211804   2.192   5.664   0.235 -0.2023  0.3220  0.1837
 3947TIP3    H111805   2.167   5.639   0.146 -0.4212 -0.1487  0.3749
 3947TIP3    H211806   2.164   5.755   0.243  0.1747  0.4916 -0.3599
 3948TIP3   OH211807   0.963   6.139   3.307 -0.0575 -0.0157 -0.3347
 3948TIP3    H111808   0.998   6.051   3.290 -2.7561 -1.6648  1.8630
 3948TIP3    H211809   0.873   6.135   3.276  0.2128  2.6233 -1.7483
 3949TIP3   OH211810   4.107   4.644   1.667  0.4110 -0.3102  0.4375
 3949TIP3    H111811   4.032   4.588   1.689  0.8141 -0.9277  0.2616
 3949TIP3    H211812   4.143   4.670   1.752 -0.0446  0.0446  0.5228
 3950TIP3   OH211813   3.825   4.251   3.803  0.2039  0.7413 -0.0482
 3950TIP3    H111814   3.765   4.215   3.868 -0.8144  1.2636 -0.6739
 3950TIP3    H211815   3.889   4.182   3.789 -1.0246 -0.3665 -0.3521
 3951TIP3   OH211816   0.464   1.603   1.471 -0.6635  0.2198 -0.0656
 3951TIP3    H111817   0.392   1.666   1.472 -0.6929  0.1927 -0.4519
 3951TIP3    H211818   0.426   1.524   1.510 -0.4676  0.6019  0.9421
 3952TIP3   OH211819   2.936   3.935   2.441  0.3278 -0.0784  0.5705
 3952TIP3    H111820   3.015   3.892   2.407  0.8475  0.0774  1.5243
 3952TIP3    H211821   2.965   3.973   2.524 -0.5073  0.8427  0.4446
 3953TIP3   OH211822   4.823   5.119   3.736  0.0981  0.1333 -0.8320
 3953TIP3    H111823   4.749   5.119   3.675 -0.0798 -0.9925 -0.6455
 3953TIP3    H211824   4.807   5.194   3.794 -0.3634  0.4952 -1.4156
 3954TIP3   OH211825   2.237   3.918   2.814 -0.8425 -0.3020 -0.5613
 3954TIP3    H111826   2.232   4.011   2.835  0.5953 -0.3383  0.0102
 3954TIP3    H211827   2.301   3.913   2.743 -0.7254 -0.8871 -0.4151
 3955TIP3   OH211828   5.272   1.043   4.925 -0.3058  0.0081  0.6639
 3955TIP3    H111829   5.337   0.992   4.877 -1.3304 -1.9694  1.2614
 3955TIP3    H211830   5.234   1.101   4.859  1.5363  0.7302  0.1666
 3956TIP3   OH211831   2.433   3.888   1.412  0.0008 -0.1713  0.0811
 3956TIP3    H111832   2.480   3.960   1.454 -0.3120 -0.1734  0.4432
 3956TIP3    H211833   2.497   3.847   1.353  0.1025  0.5657 -0.3272
 3957TIP3   OH211834   1.065   6.068   2.991  0.1211  0.2480 -0.6277
 3957TIP3    H111835   1.026   5.980   2.986  0.2596  0.2090 -1.0895
 3957TIP3    H211836   0.992   6.128   2.976  0.0156  0.2186 -0.2557
 3958TIP3   OH211837   6.913   1.054   2.475 -0.0591  0.4593 -0.5434
 3958TIP3    H111838   6.899   1.051   2.569  1.3214  0.6065 -0.3188
 3958TIP3    H211839   6.834   1.095   2.441 -0.6694  0.2057  0.5200
 3959TIP3   OH211840   6.033   4.301   0.699 -0.0593 -0.5470 -0.2849
 3959TIP3    H111841   5.968   4.255   0.752  0.6731  0.0538  1.1850
 3959TIP3    H211842   6.035   4.390   0.734  0.7778 -0.2597 -1.0152
 3960TIP3   OH211843   6.945   3.061   0.467 -0.0076 -0.2349 -0.0963
 3960TIP3    H111844   6.863   3.035   0.509  0.9509 -0.4957  1.7445
 3960TIP3    H211845   7.004   3.078   0.541  1.1614  1.3749 -1.3446
 3961TIP3   OH211846   2.532   1.236   3.138  0.1849 -0.0552  0.7113
 3961TIP3    H111847   2.494   1.160   3.094  0.4937 -0.1469  0.6024
 3961TIP3    H211848   2.463   1.266   3.198  0.7261 -1.6071  2.2093
 3962TIP3   OH211849   1.362   6.005   2.586  0.1451  0.0388 -0.0845
 3962TIP3    H111850   1.301   6.024   2.515 -1.4965 -0.0706  1.2480
 3962TIP3    H211851   1.328   5.925   2.626  0.1834  0.8899  1.7251
 3963TIP3   OH211852   7.240   1.049   2.202 -0.6947  0.1865  0.1035
 3963TIP3    H111853   7.179   1.025   2.133 -0.2424 -1.1354  0.1321
 3963TIP3    H211854   7.205   1.008   2.281 -0.6345  0.7775  0.4397
 3964TIP3   OH211855   0.074   3.569   1.024 -0.4808  0.0139 -0.2048
 3964TIP3    H111856   0.145   3.513   0.993  0.1961  0.1801  0.9679
 3964TIP3    H211857   0.089   3.576   1.119 -1.3797  1.0110 -0.1175
 3965TIP3   OH211858   0.048   4.140   4.357 -0.6111  0.3941  0.4666
 3965TIP3    H111859   0.125   4.113   4.406  1.1001  1.0665 -1.7066
 3965TIP3    H211860   0.067   4.229   4.330 -1.5561  0.1090 -1.2436
 3966TIP3   OH211861   4.061   4.476   5.686  0.1058 -0.3874 -0.3823
 3966TIP3    H111862   4.142   4.470   5.636  0.7193 -0.6849  0.6128
 3966TIP3    H211863   3.992   4.457   5.622  1.0104 -3.3265 -0.6422
 3967TIP3   OH211864   2.633  -0.002   1.656  0.2434  0.2651 -0.1114
 3967TIP3    H111865   2.607   0.046   1.735  2.3637  0.6566  0.4120
 3967TIP3    H211866   2.551  -0.026   1.615 -0.9791 -0.4707  2.5174
 3968TIP3   OH211867   3.882   4.262   2.078 -0.1497  0.0341 -0.7795
 3968TIP3    H111868   3.910   4.187   2.025  1.1565  1.4136 -2.1504
 3968TIP3    H211869   3.950   4.271   2.144 -0.9307 -0.6915  0.1419
 3969TIP3   OH211870   2.770   0.110   3.061 -0.3634 -0.3186 -0.2530
 3969TIP3    H111871   2.824   0.150   2.993 -1.7857  0.0274 -1.2159
 3969TIP3    H211872   2.756   0.181   3.125  2.4052 -1.1111  1.3682
 3970TIP3   OH211873   1.998   2.704   1.957  0.3670  0.3731 -0.0581
 3970TIP3    H111874   2.080   2.748   1.981  1.3741 -0.8292 -1.1313
 3970TIP3    H211875   1.933   2.774   1.955  1.3422  1.3572  0.8650
 3971TIP3   OH211876   6.378   2.150   0.462  0.3250 -0.4857  0.2279
 3971TIP3    H111877   6.387   2.231   0.411 -0.1764 -1.3895 -1.3606
 3971TIP3    H211878   6.334   2.089   0.403  1.2859 -2.1500  1.1583
 3972TIP3   OH211879   4.686   2.277   3.903 -0.6841 -0.1983  0.4231
 3972TIP3    H111880   4.591   2.267   3.914 -1.0367 -1.4745 -2.7593
 3972TIP3    H211881   4.719   2.188   3.896  0.4740  0.2602 -0.2346
 3973TIP3   OH211882   5.226   3.615   2.299 -0.2311  0.4982 -0.5866
 3973TIP3    H111883   5.197   3.524   2.312  0.5717  0.2201 -0.7003
 3973TIP3    H211884   5.321   3.609   2.289 -0.0485  1.4706  0.4263
 3974TIP3   OH211885   2.779   4.603   5.505  0.3162  0.5882 -0.2697
 3974TIP3    H111886   2.849   4.548   5.539  0.3536  1.1446  0.5869
 3974TIP3    H211887   2.733   4.547   5.443 -0.1880 -0.7319  1.2121
 3975TIP3   OH211888   3.236   2.682   5.056 -0.7157  0.1797  0.2619
 3975TIP3    H111889   3.272   2.768   5.032 -1.5267  0.4347 -0.0687
 3975TIP3    H211890   3.279   2.660   5.139  2.2918 -0.7746 -1.3855
 3976TIP3   OH211891   1.150   3.323   2.451 -0.5159 -0.5509 -0.3161
 3976TIP3    H111892   1.233   3.310   2.406 -1.2494 -0.3873 -1.7666
 3976TIP3    H211893   1.160   3.406   2.498 -0.2794  0.1006 -1.4896
 3977TIP3   OH211894   3.916   6.620   1.561  0.0857  0.4736  0.3786
 3977TIP3    H111895   3.947   6.610   1.471  0.9883 -0.9676  0.8179
 3977TIP3    H211896   3.964   6.695   1.595  0.2270  0.6184 -0.1279
 3978TIP3   OH211897   6.079   1.091   2.813 -0.0955 -0.6538 -0.3499
 3978TIP3    H111898   6.112   1.034   2.883  1.4897  1.0200  0.3369
 3978TIP3    H211899   6.138   1.166   2.814 -3.5791  2.3362  0.5493
 3979TIP3   OH211900   1.577   1.035   5.737  0.6968 -0.9659  0.3875
 3979TIP3    H111901   1.564   1.089   5.814 -1.8949 -0.9284 -0.0134
 3979TIP3    H211902   1.593   0.947   5.772 -0.9392 -1.0459  1.0107
 3980TIP3   OH211903   2.377   2.091   5.416  0.5579  0.9191 -0.1479
 3980TIP3    H111904   2.468   2.093   5.386  0.2330  2.6283 -1.1325
 3980TIP3    H211905   2.384   2.100   5.512  1.4366  0.6300 -0.1747
 3981TIP3   OH211906   5.904   5.464   2.439  0.1208  0.2669 -0.2287
 3981TIP3    H111907   5.915   5.524   2.513 -0.1296  0.6827 -0.5200
 3981TIP3    H211908   5.934   5.515   2.363 -0.8274  0.3135 -0.5943
 3982TIP3   OH211909   0.965   5.888   5.366  0.0887 -0.4447 -0.3794
 3982TIP3    H111910   0.875   5.919   5.348  0.0967 -0.5679 -0.6435
 3982TIP3    H211911   1.020   5.948   5.315  0.2293  0.2943  0.6168
 3983TIP3   OH211912   2.048   2.980   3.447 -0.1606  0.0728 -0.1574
 3983TIP3    H111913   2.019   3.069   3.466 -1.8363 -0.1469 -1.5194
 3983TIP3    H211914   2.017   2.928   3.521  2.0033  0.7461  1.3516
 3984TIP3   OH211915   5.830   4.682   3.063  0.4787  0.4104 -0.2279
 3984TIP3    H111916   5.773   4.749   3.026 -0.9688 -0.4311  0.3757
 3984TIP3    H211917   5.840   4.707   3.155  2.5684  1.4961 -0.6816
 3985TIP3   OH211918   5.743   2.916   4.561 -0.2723  0.2341 -0.0770
 3985TIP3    H111919   5.817   2.898   4.618  0.0205 -1.6249 -0.9757
 3985TIP3    H211920   5.688   2.977   4.611 -0.0054 -1.2513  2.1587
 3986TIP3   OH211921   0.751   4.024   4.283 -0.5031 -0.3655  0.0075
 3986TIP3    H111922   0.827   4.000   4.337 -0.4449  0.6717  0.3973
 3986TIP3    H211923   0.748   3.956   4.215  0.2352 -0.9201  0.5115
 3987TIP3   OH211924   0.132   6.321   3.878  0.4937  0.0772 -0.2628
 3987TIP3    H111925   0.128   6.331   3.973 -1.4654 -0.0526 -0.2919
 3987TIP3    H211926   0.107   6.230   3.862 -1.3413  0.6530 -0.9637
 3988TIP3   OH211927   4.137   4.586   3.620 -0.1337 -0.1540 -0.3039
 3988TIP3    H111928   4.115   4.579   3.713  2.0330  0.1182  0.2822
 3988TIP3    H211929   4.228   4.558   3.615 -0.0252  0.4138 -2.2680
 3989TIP3   OH211930   5.248   5.037   1.982 -0.0334 -0.1161 -0.2106
 3989TIP3    H111931   5.172   5.016   1.928  0.2511 -0.0981 -0.6253
 3989TIP3    H211932   5.212   5.076   2.061 -0.5942 -2.1823  0.6140
 3990TIP3   OH211933   6.630   0.896   2.946  1.0190  0.4792 -0.2879
 3990TIP3    H111934   6.548   0.934   2.978 -0.0580  0.6361 -2.9988
 3990TIP3    H211935   6.687   0.970   2.929 -0.1014  0.8483 -2.9662
 3991TIP3   OH211936   4.524   1.400   5.321  0.1379 -0.4562  0.1674
 3991TIP3    H111937   4.568   1.478   5.289 -1.0270  0.1537  0.0134
 3991TIP3    H211938   4.476   1.367   5.245 -1.7724  0.3814  0.9497
 3992TIP3   OH211939   3.042   6.213   4.144  0.3389 -0.4394 -0.0935
 3992TIP3    H111940   3.125   6.202   4.096  1.2048  1.3284  0.9035
 3992TIP3    H211941   3.066   6.200   4.236 -0.0038  2.0864  0.4214
 3993TIP3   OH211942   0.028   2.208   5.922  0.0212 -0.4367  0.5888
 3993TIP3    H111943   0.068   2.195   5.836 -0.4283  1.6672  0.0015
 3993TIP3    H211944  -0.059   2.170   5.914  0.0883 -0.5078  0.1864
 3994TIP3   OH211945   4.134   3.458   2.786  0.2595 -0.1638 -0.6711
 3994TIP3    H111946   4.222   3.494   2.781  0.7930 -1.1778  0.9308
 3994TIP3    H211947   4.141   3.371   2.747  0.1064 -0.4606 -0.0491
 3995TIP3   OH211948   0.475   5.112   1.795  0.0142 -0.1244 -0.3754
 3995TIP3    H111949   0.397   5.166   1.790  0.3232  0.4530  0.6006
 3995TIP3    H211950   0.524   5.132   1.716 -1.4008 -1.4716 -1.6636
 3996TIP3   OH211951   3.687   6.173   3.505  0.2047 -0.5466  0.4635
 3996TIP3    H111952   3.655   6.234   3.572 -0.0266 -0.8724  0.6548
 3996TIP3    H211953   3.723   6.229   3.436 -2.9492 -0.0026 -0.9212
 3997TIP3   OH211954   5.538   4.996   4.030  0.2070 -0.2459 -0.4584
 3997TIP3    H111955   5.523   5.089   4.049 -1.1014 -0.1911 -1.6501
 3997TIP3    H211956   5.614   4.995   3.972  2.9866 -0.2829  2.8321
 3998TIP3   OH211957   6.538   5.287   2.071  0.4112 -0.2108 -0.1275
 3998TIP3    H111958   6.443   5.286   2.077  0.2136  1.3623 -1.9983
 3998TIP3    H211959   6.568   5.312   2.159 -0.9038 -0.3110  0.3632
 3999TIP3   OH211960   0.033   2.556   2.530 -0.0141  0.1118 -0.0106
 3999TIP3    H111961   0.068   2.478   2.486 -2.3553 -0.8656 -0.2729
 3999TIP3    H211962   0.103   2.621   2.522  0.6430 -0.7910 -3.0075
 4000TIP3   OH211963   0.823   2.615   2.766  0.0819  0.2949 -0.0183
 4000TIP3    H111964   0.861   2.700   2.746 -0.6009  0.7835  0.6516
 4000TIP3    H211965   0.869   2.553   2.710  0.7415  1.0768 -0.3565
 4001TIP3   OH211966   4.401   2.758   3.991  0.1511 -0.3392  0.0564
 4001TIP3    H111967   4.344   2.733   3.918 -0.7722 -1.3415  1.0815
 4001TIP3    H211968   4.401   2.853   3.989 -0.7461 -0.3310 -0.5891
 4002TIP3   OH211969   7.037   1.755   0.798 -0.1436  0.5876 -0.0833
 4002TIP3    H111970   6.951   1.783   0.766  0.6370  2.2599 -0.8515
 4002TIP3    H211971   7.063   1.824   0.859  1.4136  1.0656 -1.2280
 4003TIP3   OH211972   2.117   3.316   5.027  0.1992  0.5891 -0.1467
 4003TIP3    H111973   2.079   3.253   5.087 -1.0461 -0.0061 -1.5017
 4003TIP3    H211974   2.199   3.342   5.069  0.3133 -1.2330  0.8889
 4004TIP3   OH211975   4.492   4.764   5.911  0.6782  0.4432 -0.3411
 4004TIP3    H111976   4.575   4.728   5.877  0.8777 -0.1256  0.6907
 4004TIP3    H211977   4.429   4.748   5.841  0.6990 -2.2217  0.1122
 4005TIP3   OH211978   4.645   0.144   0.067  0.2123 -0.1643 -0.1212
 4005TIP3    H111979   4.597   0.069   0.031 -0.9288  1.1368 -1.4625
 4005TIP3    H211980   4.610   0.156   0.155 -0.5865 -0.4038 -0.3956
 4006TIP3   OH211981   5.047   3.023   0.350  0.5559 -0.1967  0.5109
 4006TIP3    H111982   4.986   3.074   0.297  0.6606 -0.9809 -0.4096
 4006TIP3    H211983   5.001   3.007   0.432 -0.8141 -1.4062 -0.4430
 4007TIP3   OH211984   6.161   6.483   2.561 -0.1112  0.3768  0.2469
 4007TIP3    H111985   6.169   6.501   2.468  0.8986 -1.3496 -0.0377
 4007TIP3    H211986   6.249   6.458   2.589 -0.6529 -0.4058  1.3641
 4008TIP3   OH211987   2.116   3.616   0.660  0.5448  0.0029 -0.6015
 4008TIP3    H111988   2.187   3.656   0.712  0.1829  0.5730 -0.5418
 4008TIP3    H211989   2.151   3.612   0.571  1.5454 -1.8501 -0.1992
 4009TIP3   OH211990   4.172   2.558   0.582  0.4690  0.1258  0.6366
 4009TIP3    H111991   4.258   2.527   0.609  0.8717 -0.0729 -0.8155
 4009TIP3    H211992   4.185   2.593   0.494 -0.7809  0.7932  0.6948
 4010TIP3   OH211993   6.128   2.621   4.334  0.1353  0.0577  0.3765
 4010TIP3    H111994   6.076   2.636   4.412 -0.0733 -0.9872  0.4630
 4010TIP3    H211995   6.219   2.631   4.363  0.0136  1.5211  0.3080
 4011TIP3   OH211996   1.529   5.929   1.398  0.2855 -0.3538  0.5607
 4011TIP3    H111997   1.470   5.878   1.342  1.0438  0.3625 -0.9365
 4011TIP3    H211998   1.582   5.863   1.442  0.6488 -0.9251 -0.6738
 4012TIP3   OH211999   4.756   3.041   1.493  0.3912  0.5400 -0.2730
 4012TIP3    H112000   4.764   2.956   1.537  1.9648  0.4395 -0.6922
 4012TIP3    H212001   4.669   3.040   1.453  0.1728 -0.6388  0.2043
 4013TIP3   OH212002   6.165   5.378   3.361  0.4264 -0.3351 -0.5530
 4013TIP3    H112003   6.125   5.383   3.274  0.1526 -1.8396 -0.5390
 4013TIP3    H212004   6.119   5.307   3.405  0.4899  0.4661  0.8814
 4014TIP3   OH212005   4.463   5.456   2.970  0.5735 -0.3550  0.0094
 4014TIP3    H112006   4.529   5.399   2.930 -0.4905 -2.7006  1.3496
 4014TIP3    H212007   4.437   5.516   2.901  1.2059 -2.0497 -1.7706
 4015TIP3   OH212008   5.002   3.087   3.604 -0.2045  0.5724 -0.2399
 4015TIP3    H112009   5.000   3.005   3.554 -1.8646 -0.0033  0.6864
 4015TIP3    H212010   5.060   3.144   3.553  2.0390 -1.5467 -0.2546
 4016TIP3   OH212011   4.897   4.002   2.066  0.0618  0.1603  0.3081
 4016TIP3    H112012   4.819   3.975   2.018 -0.7063  0.5029  1.3438
 4016TIP3    H212013   4.946   4.055   2.003 -1.1515  0.9967  0.0300
 4017TIP3   OH212014   4.310   2.886   2.155 -0.5132  0.2250 -0.6971
 4017TIP3    H112015   4.260   2.933   2.089  0.3780  0.6801 -1.0654
 4017TIP3    H212016   4.289   2.930   2.237 -1.6192 -0.3377 -0.6616
 4018TIP3   OH212017   2.132   4.675   3.497  1.0486  0.2972  0.2400
 4018TIP3    H112018   2.082   4.757   3.494  2.9700  1.4971 -1.2783
 4018TIP3    H212019   2.193   4.688   3.570 -0.0067 -0.6838  1.3372
 4019TIP3   OH212020   6.815   2.685   3.017 -0.0962 -0.3512  0.0651
 4019TIP3    H112021   6.909   2.704   3.012 -0.5615  2.2686 -0.3323
 4019TIP3    H212022   6.801   2.656   3.107  0.9828  0.0683  0.3888
 4020TIP3   OH212023   6.656   0.966   2.652 -0.2528 -0.4643 -0.6462
 4020TIP3    H112024   6.610   1.043   2.683 -2.1258 -1.7494 -0.0492
 4020TIP3    H212025   6.743   0.972   2.690 -0.8280  0.6387  0.5527
 4021TIP3   OH212026   5.752   3.743   2.017 -0.4404  0.1951 -0.7334
 4021TIP3    H112027   5.688   3.702   1.958 -1.9876 -0.1049  1.0510
 4021TIP3    H212028   5.761   3.681   2.089  1.8180  0.3071 -0.8409
 4022TIP3   OH212029   0.127   5.615   1.121  0.6291  0.2321  0.1245
 4022TIP3    H112030   0.085   5.668   1.188 -1.5015  0.7798 -1.5390
 4022TIP3    H212031   0.189   5.674   1.078  0.3840  0.5276  0.1796
 4023TIP3   OH212032   0.612   0.656   3.317 -0.1735  0.0139  0.1047
 4023TIP3    H112033   0.667   0.582   3.342  0.3707  0.2252 -0.4314
 4023TIP3    H212034   0.671   0.713   3.268 -0.4446  1.0752  0.9901
 4024TIP3   OH212035   0.023   4.837   2.944  0.1272  0.1462 -0.4757
 4024TIP3    H112036   0.070   4.883   3.014 -1.2354  1.0196 -0.0985
 4024TIP3    H212037  -0.019   4.906   2.893 -0.4291 -0.5808 -1.0331
 4025TIP3   OH212038   2.677   4.199   2.689  0.2691 -0.1938 -0.1267
 4025TIP3    H112039   2.735   4.225   2.760  1.0900  1.3949 -1.3233
 4025TIP3    H212040   2.709   4.247   2.613 -1.1961 -1.0786 -1.3573
 4026TIP3   OH212041   0.763   0.728   1.423  0.2235  0.5865  0.5511
 4026TIP3    H112042   0.697   0.662   1.400  0.4406  0.5932 -0.0991
 4026TIP3    H212043   0.741   0.752   1.513 -1.3009  1.3464  0.0191
 4027TIP3   OH212044   3.225   4.577   2.369  0.1110  0.0727 -0.3100
 4027TIP3    H112045   3.203   4.493   2.329  0.6971 -0.9285  1.3650
 4027TIP3    H212046   3.193   4.643   2.307 -0.1072 -1.3779 -1.7865
 4028TIP3   OH212047   0.923   5.436   0.311  0.0081  0.2068 -0.6550
 4028TIP3    H112048   0.931   5.347   0.345  0.2818 -0.1037 -1.4967
 4028TIP3    H212049   0.951   5.429   0.219 -0.6923  1.0041 -0.9476
 4029TIP3   OH212050   3.175   4.485   2.106 -0.6430 -0.6748  0.4844
 4029TIP3    H112051   3.217   4.414   2.057 -0.8457 -0.2945 -0.2473
 4029TIP3    H212052   3.151   4.549   2.040  0.3290  0.5006  1.2271
 4030TIP3   OH212053   2.778   4.110   4.035 -0.2673 -0.3612 -0.4644
 4030TIP3    H112054   2.851   4.068   3.989  0.7472 -1.3811  1.9140
 4030TIP3    H212055   2.759   4.188   3.982  2.7639  0.1344 -1.0596
 4031TIP3   OH212056   2.677   0.578   2.801 -0.0173 -0.6199  0.5955
 4031TIP3    H112057   2.677   0.609   2.892  3.1889  0.3524  0.3730
 4031TIP3    H212058   2.707   0.487   2.808  1.3796 -0.1980  0.5042
 4032TIP3   OH212059   4.415   0.022   5.173  0.3652  0.5426 -0.0672
 4032TIP3    H112060   4.447  -0.024   5.096 -0.1904 -2.3870  1.3264
 4032TIP3    H212061   4.355   0.088   5.138  1.1815  0.2525 -2.1759
 4033TIP3   OH212062   1.854   3.866   1.527 -0.4632  0.3953 -0.2498
 4033TIP3    H112063   1.941   3.828   1.532 -0.6270  0.1125  0.9565
 4033TIP3    H212064   1.830   3.861   1.435  0.4723 -0.2482 -0.4683
 4034TIP3   OH212065   3.566   5.667   1.724  0.5305  0.0562  0.5606
 4034TIP3    H112066   3.644   5.712   1.693  0.4804  0.6413  1.2716
 4034TIP3    H212067   3.587   5.574   1.717  0.4189  0.1493 -1.4837
 4035TIP3   OH212068   4.337   5.607   1.699  0.4924 -0.5770 -0.0518
 4035TIP3    H112069   4.350   5.524   1.745  0.1138  0.0391  1.1906
 4035TIP3    H212070   4.425   5.644   1.692  0.6344 -0.9707 -0.4138
 4036TIP3   OH212071   1.976   3.512   0.022  0.1302  0.3779 -0.1664
 4036TIP3    H112072   2.009   3.422   0.016  0.6683  0.6514 -1.7782
 4036TIP3    H212073   2.037   3.556   0.081  0.2908 -0.1359  0.0558
 4037TIP3   OH212074   6.284   5.969   1.399  0.2824 -0.1235 -0.5813
 4037TIP3    H112075   6.308   5.876   1.400 -1.3712 -0.5914  0.6025
 4037TIP3    H212076   6.190   5.969   1.382 -0.1013  1.1962  1.2334
 4038TIP3   OH212077   1.043   0.474   2.813  0.7309 -0.0945 -0.4949
 4038TIP3    H112078   1.012   0.545   2.869 -0.2781 -0.3595 -0.6956
 4038TIP3    H212079   1.073   0.407   2.874 -1.1047 -0.7125 -0.2186
 4039TIP3   OH212080   7.042   5.772   0.918 -0.2596  0.5478 -0.3349
 4039TIP3    H112081   7.053   5.781   1.013  0.6838  0.4786 -0.4276
 4039TIP3    H212082   6.951   5.795   0.902 -0.1633  1.5412  0.4669
 4040TIP3   OH212083   2.430   1.010   1.092  0.2860 -0.2744  0.4734
 4040TIP3    H112084   2.439   0.916   1.074  2.1531  0.0475 -0.5553
 4040TIP3    H212085   2.519   1.038   1.114 -0.1373  1.3544  0.1940
 4041TIP3   OH212086   5.404   5.782   2.965 -0.0155  0.5622  0.1596
 4041TIP3    H112087   5.410   5.810   2.874 -3.6419 -1.5159 -0.8892
 4041TIP3    H212088   5.358   5.853   3.009  2.4364  1.9396  0.7240
 4042TIP3   OH212089   1.775   4.430   0.850 -0.2013  0.5602  0.0396
 4042TIP3    H112090   1.680   4.426   0.837 -0.2833  1.3151  0.3676
 4042TIP3    H212091   1.786   4.488   0.925  0.5939  2.1020 -1.1984
 4043TIP3   OH212092   0.504   3.058   0.579  0.5876 -0.1947 -0.7662
 4043TIP3    H112093   0.582   3.084   0.627  0.2518 -0.9656  0.2360
 4043TIP3    H212094   0.526   2.972   0.543  0.3623 -0.2220 -0.8397
 4044TIP3   OH212095   5.382   2.929   3.385  0.7704 -0.3013  0.2489
 4044TIP3    H112096   5.459   2.986   3.382 -0.9401  2.2030  0.6095
 4044TIP3    H212097   5.375   2.894   3.296  1.3511  0.8814 -0.2981
 4045TIP3   OH212098   1.013   5.554   0.589 -0.1802  0.3715  0.7525
 4045TIP3    H112099   1.019   5.633   0.535  1.9218 -0.4567 -0.3539
 4045TIP3    H212100   1.098   5.511   0.578 -0.3010 -0.7396  3.3876
 4046TIP3   OH212101   0.781   5.799   4.506  0.1635 -0.0981  1.1082
 4046TIP3    H112102   0.862   5.838   4.539  0.6031  0.7166 -0.8228
 4046TIP3    H212103   0.737   5.766   4.585  0.7977  2.3668  2.6253
 4047TIP3   OH212104   3.960   1.904   0.957 -0.2641  0.5540  0.1845
 4047TIP3    H112105   4.054   1.886   0.958 -0.3635 -0.0101 -0.0651
 4047TIP3    H212106   3.952   1.983   0.903  0.1259  1.0241  0.7935
 4048TIP3   OH212107   6.896   5.780   2.241  0.1496  0.5405  0.5172
 4048TIP3    H112108   6.811   5.822   2.258 -0.7579 -0.6984 -0.7227
 4048TIP3    H212109   6.901   5.775   2.146  2.2582  1.7770  0.5171
 4049TIP3   OH212110   0.575   2.652   3.947 -0.4419  0.2602 -0.1740
 4049TIP3    H112111   0.548   2.735   3.985 -2.1447 -0.2005 -0.2815
 4049TIP3    H212112   0.655   2.672   3.899 -1.0817  1.9516 -0.6172
 4050TIP3   OH212113   2.604   1.645   4.483  0.1543 -0.1539 -0.0999
 4050TIP3    H112114   2.538   1.715   4.477 -0.4059 -0.7406 -1.0418
 4050TIP3    H212115   2.554   1.564   4.466  0.4287 -1.0144  2.6380
 4051TIP3   OH212116   5.510   5.160   2.006 -0.7587  0.5547  0.2391
 4051TIP3    H112117   5.559   5.142   1.926 -1.7756  0.9787 -0.5057
 4051TIP3    H212118   5.428   5.112   1.995 -1.0722  0.9373  0.8519
 4052TIP3   OH212119   2.650   1.094   0.395  0.0267 -0.5243  0.2757
 4052TIP3    H112120   2.686   1.161   0.337  0.1641 -0.8796 -0.0542
 4052TIP3    H212121   2.668   1.011   0.350 -0.2072 -0.7777  0.6436
 4053TIP3   OH212122   0.826   3.417   4.005 -0.0900  0.2068  0.1681
 4053TIP3    H112123   0.920   3.430   4.023 -0.7044  2.4793  2.4045
 4053TIP3    H212124   0.805   3.334   4.047  0.5661  0.6910  1.5441
 4054TIP3   OH212125   0.720   4.961   1.457 -0.5065  0.2987  0.1235
 4054TIP3    H112126   0.699   5.031   1.518  1.1656  0.8360  0.1478
 4054TIP3    H212127   0.652   4.896   1.470 -1.2891  1.2798  1.1325
 4055TIP3   OH212128   2.541   4.480   0.450 -0.0624  0.6271 -0.1163
 4055TIP3    H112129   2.505   4.567   0.468  0.4182  0.5719  1.1992
 4055TIP3    H212130   2.465   4.423   0.448 -0.2694  0.8790  0.3092
 4056TIP3   OH212131   3.341   6.044   4.351 -0.0700 -0.0855  0.5461
 4056TIP3    H112132   3.375   6.128   4.320 -0.3999 -0.0954  0.1426
 4056TIP3    H212133   3.255   6.036   4.309  0.0617 -0.7352  0.3856
 4057TIP3   OH212134   6.038   0.806   1.848  0.2855 -0.3816  0.4034
 4057TIP3    H112135   6.106   0.796   1.915  0.5409  0.2248  0.2343
 4057TIP3    H212136   5.967   0.749   1.879 -0.1911  0.9914  1.9829
 4058TIP3   OH212137   5.774   3.578   1.220  0.1623 -0.3732  0.2352
 4058TIP3    H112138   5.829   3.520   1.168  1.2081  2.3369 -1.9626
 4058TIP3    H212139   5.701   3.600   1.162  1.9265  3.6169 -0.8199
 4059TIP3   OH212140   3.552   1.195   4.486  0.1619 -0.7705 -0.3041
 4059TIP3    H112141   3.487   1.168   4.551 -1.2114 -0.9673 -1.7001
 4059TIP3    H212142   3.517   1.276   4.449 -0.5400 -2.0744 -2.6960
 4060TIP3   OH212143   4.756   6.498   2.344 -0.1491  0.6810 -0.0186
 4060TIP3    H112144   4.672   6.522   2.383 -0.7374  0.6748 -1.2472
 4060TIP3    H212145   4.743   6.409   2.312  0.2429  0.7820 -0.4605
 4061TIP3   OH212146   0.697   4.213   4.900  0.1847 -0.4038 -0.6365
 4061TIP3    H112147   0.770   4.257   4.943 -0.9312 -0.5284  1.5033
 4061TIP3    H212148   0.673   4.271   4.828  1.6459  0.1828 -0.6900
 4062TIP3   OH212149   5.933   1.175   0.650  0.4687 -0.1993  0.3242
 4062TIP3    H112150   5.844   1.150   0.677  0.0389  2.3659  1.5535
 4062TIP3    H212151   5.929   1.270   0.638  3.3267  0.1743  1.5448
 4063TIP3   OH212152   6.605   1.373   3.637 -0.2426  0.2667  0.3424
 4063TIP3    H112153   6.688   1.377   3.683  0.8682  1.2568 -1.6076
 4063TIP3    H212154   6.586   1.463   3.612 -0.1105 -0.3021 -2.1565
 4064TIP3   OH212155   3.104   4.726   3.308  0.2257 -0.1799 -0.1926
 4064TIP3    H112156   3.199   4.735   3.315  0.0835  0.2304  1.6623
 4064TIP3    H212157   3.078   4.797   3.248  0.7369  2.3826  2.3718
 4065TIP3   OH212158   3.430   3.942   1.077 -0.0343 -0.2501  0.0067
 4065TIP3    H112159   3.434   3.939   1.173  3.2558  1.4877  0.0791
 4065TIP3    H212160   3.343   3.978   1.058 -0.0604  1.2219  2.4476
 4066TIP3   OH212161   3.164   4.887   2.215  0.5474  0.4385 -0.3461
 4066TIP3    H112162   3.202   4.927   2.293  2.5853  0.6715 -1.3944
 4066TIP3    H212163   3.194   4.942   2.143 -1.8329  0.6072 -1.2767
 4067TIP3   OH212164   2.031   2.875   2.818  0.1316 -0.4473 -0.1773
 4067TIP3    H112165   1.962   2.883   2.884 -0.3091 -1.7535 -0.4547
 4067TIP3    H212166   2.113   2.879   2.867 -0.1252  0.6532  0.2018
 4068TIP3   OH212167   2.421   5.701   0.493  0.2104  0.1455 -0.3419
 4068TIP3    H112168   2.433   5.673   0.402  0.2464  2.2838 -1.0592
 4068TIP3    H212169   2.403   5.795   0.487  0.4978  0.4052  1.8993
 4069TIP3   OH212170   7.168   0.813   4.937 -0.6539  0.0321 -0.3678
 4069TIP3    H112171   7.235   0.744   4.936 -1.4969 -0.8317  0.5723
 4069TIP3    H212172   7.148   0.828   4.845  0.2338 -0.2911 -0.6230
 4070TIP3   OH212173   0.481   2.602   2.400 -0.7582  0.2443  0.2880
 4070TIP3    H112174   0.481   2.576   2.307 -1.0929  0.0259  0.3453
 4070TIP3    H212175   0.573   2.598   2.426 -0.7326 -0.3280  0.1351
 4071TIP3   OH212176   2.936   0.062   3.873 -0.2257  0.2117  0.1657
 4071TIP3    H112177   3.017   0.079   3.920 -0.1231  0.2502 -0.0217
 4071TIP3    H212178   2.912   0.147   3.835  0.1568 -0.0014 -0.5727
 4072TIP3   OH212179   5.433   2.585   5.145  0.3124 -0.8899  0.0637
 4072TIP3    H112180   5.429   2.537   5.062  1.5344  0.7030 -0.9787
 4072TIP3    H212181   5.355   2.639   5.145 -0.8543 -2.4756  1.0512
 4073TIP3   OH212182   5.653   1.099   5.659 -0.7694  0.1660  0.1752
 4073TIP3    H112183   5.707   1.023   5.636 -1.8280  0.2131 -2.9317
 4073TIP3    H212184   5.575   1.090   5.604 -1.9944  2.2946  1.4542
 4074TIP3   OH212185   4.001   6.616   1.288 -0.3274 -0.5554  0.6583
 4074TIP3    H112186   4.032   6.672   1.217 -2.9909 -0.4980 -0.5544
 4074TIP3    H212187   4.052   6.535   1.278  1.7104  0.6286  0.8374
 4075TIP3   OH212188   2.198   2.238   3.812 -0.3667 -0.0347 -0.3570
 4075TIP3    H112189   2.153   2.156   3.836  0.8366 -0.8134 -0.6892
 4075TIP3    H212190   2.180   2.248   3.718 -1.1678  0.5165 -0.1546
 4076TIP3   OH212191   0.882   6.760   5.241 -0.1404 -0.1178 -0.2683
 4076TIP3    H112192   0.837   6.837   5.276  0.4311  0.6085 -1.1100
 4076TIP3    H212193   0.823   6.687   5.262 -1.3393  0.7001 -0.6409
 4077TIP3   OH212194   0.357   6.179   0.326 -0.7462  0.1047 -0.6753
 4077TIP3    H112195   0.338   6.101   0.274  1.6059 -0.2853 -1.0572
 4077TIP3    H212196   0.406   6.145   0.401 -0.2658  1.1398 -0.5110
 4078TIP3   OH212197   6.978   5.941   3.634  0.2512  0.6294 -0.0213
 4078TIP3    H112198   6.986   5.936   3.539  3.1053  0.6199  0.1359
 4078TIP3    H212199   7.058   5.901   3.667 -0.3642  1.2344  2.3871
 4079TIP3   OH212200   3.492   1.583   5.823 -0.1261 -0.1187 -0.6534
 4079TIP3    H112201   3.438   1.652   5.784 -0.5244 -0.3100 -0.4390
 4079TIP3    H212202   3.535   1.626   5.897 -2.0684 -0.6377  0.8504
 4080TIP3   OH212203   5.042   2.019   0.572  0.0627 -0.4933  0.3276
 4080TIP3    H112204   4.981   1.984   0.636 -1.0724 -0.4699 -0.6981
 4080TIP3    H212205   5.120   1.964   0.579 -1.2094 -2.5091 -0.4099
 4081TIP3   OH212206   6.323   2.512   3.529 -0.7978 -0.0522  0.4726
 4081TIP3    H112207   6.351   2.426   3.496 -1.9567 -0.5624  0.7794
 4081TIP3    H212208   6.368   2.521   3.613  0.1328  0.1097 -0.0279
 4082TIP3   OH212209   0.315   5.674   5.475 -0.4009  0.0870  0.4156
 4082TIP3    H112210   0.289   5.764   5.493  0.2555  0.1583  1.0322
 4082TIP3    H212211   0.317   5.632   5.561  2.4774  0.3372  0.5718
 4083TIP3   OH212212   6.276   4.049   2.741 -0.1743  0.7686 -0.3647
 4083TIP3    H112213   6.271   3.996   2.820  1.2340 -1.2089 -1.5273
 4083TIP3    H212214   6.332   4.123   2.765  0.1582  0.2446  0.5222
 4084TIP3   OH212215   2.843   3.902   5.179 -0.1254  0.1130 -0.2258
 4084TIP3    H112216   2.749   3.888   5.167 -0.1860 -0.4288  0.8000
 4084TIP3    H212217   2.882   3.862   5.101 -0.7311  0.1783 -0.5712
 4085TIP3   OH212218   0.866   5.779   0.162 -0.5228 -0.2472 -0.2531
 4085TIP3    H112219   0.895   5.718   0.095  1.8279 -0.9610  1.3071
 4085TIP3    H212220   0.817   5.846   0.113  0.2907 -1.2114 -2.5442
 4086TIP3   OH212221   0.313   6.514   5.437  0.1238 -0.0545  0.3595
 4086TIP3    H112222   0.325   6.420   5.428  0.6806  0.0189  0.2623
 4086TIP3    H212223   0.261   6.525   5.516 -1.4826 -0.5270 -0.5884
 4087TIP3   OH212224   1.686   4.081   4.047 -0.1475  0.2344 -0.5260
 4087TIP3    H112225   1.769   4.129   4.042  0.3587 -0.5978 -0.4481
 4087TIP3    H212226   1.689   4.022   3.972 -0.6738  0.1920 -0.5153
 4088TIP3   OH212227   1.555   0.100   4.296 -0.3502  0.2238  0.4931
 4088TIP3    H112228   1.553   0.184   4.342  0.3354  1.0365 -0.9042
 4088TIP3    H212229   1.547   0.123   4.203  0.1298 -1.2404  0.0650
 4089TIP3   OH212230   0.912   4.962   5.377  0.5244 -0.3548  0.5246
 4089TIP3    H112231   0.828   5.001   5.401  0.4666  0.5323 -0.9950
 4089TIP3    H212232   0.976   5.005   5.434  0.3698  1.5538 -0.6483
 4090TIP3   OH212233   6.527   4.636   5.500  0.1654  0.2951 -0.5413
 4090TIP3    H112234   6.556   4.609   5.413 -0.7093 -2.0039 -0.1859
 4090TIP3    H212235   6.431   4.638   5.493  0.0982  0.3293  0.3078
 4091TIP3   OH212236   5.374   1.208   1.768 -0.3203 -0.4140  0.1893
 4091TIP3    H112237   5.280   1.191   1.774 -0.1783 -0.8380  2.0653
 4091TIP3    H212238   5.403   1.158   1.693 -1.7415  0.5478 -1.0605
 4092TIP3   OH212239   5.415   6.536   0.798  0.0845 -0.4720 -0.6620
 4092TIP3    H112240   5.461   6.540   0.714  1.3032 -1.3257 -0.0653
 4092TIP3    H212241   5.453   6.460   0.843 -0.0043  0.3857  0.9571
 4093TIP3   OH212242   4.252   0.769   0.698  0.0508  0.2983  0.7009
 4093TIP3    H112243   4.297   0.690   0.669 -1.7069 -0.1920 -0.9050
 4093TIP3    H212244   4.322   0.834   0.707  1.1695 -0.5547 -1.1784
 4094TIP3   OH212245   6.865   6.664   0.848  0.0248 -0.2375 -0.5294
 4094TIP3    H112246   6.860   6.706   0.934 -2.9712  0.3342 -0.8766
 4094TIP3    H212247   6.916   6.584   0.863  0.0467  0.1187  1.6443
 4095TIP3   OH212248   1.493   5.166   1.255  0.7691  0.1002  0.5766
 4095TIP3    H112249   1.467   5.126   1.172  0.3449 -1.0734  1.2403
 4095TIP3    H212250   1.559   5.107   1.290  0.8839  0.5412  1.1126
 4096TIP3   OH212251   5.009   1.294   2.614  0.7266 -0.1212  0.3321
 4096TIP3    H112252   4.943   1.332   2.556  0.4256 -1.8895 -0.5440
 4096TIP3    H212253   4.995   1.337   2.698 -1.3555 -0.2359  0.0934
 4097TIP3   OH212254   0.669   4.134   3.667  0.6586 -0.0940 -0.3611
 4097TIP3    H112255   0.686   4.132   3.573  1.5538  0.3558 -0.2210
 4097TIP3    H212256   0.593   4.191   3.677  2.1383  2.0649 -0.6340
 4098TIP3   OH212257   5.776   3.173   1.897  0.5968  0.1536  0.0399
 4098TIP3    H112258   5.713   3.181   1.826 -0.1013  0.0547  0.6413
 4098TIP3    H212259   5.839   3.243   1.881  0.6260 -0.0694 -0.8504
 4099TIP3   OH212260   2.098   5.195   3.159 -0.2595  0.1004  0.4990
 4099TIP3    H112261   2.168   5.259   3.177  0.5321 -1.3809  3.2106
 4099TIP3    H212262   2.021   5.230   3.204  0.0172 -0.5154  1.4794
 4100TIP3   OH212263   1.575   1.734   1.900  0.7507  0.2795 -0.4115
 4100TIP3    H112264   1.617   1.820   1.902  0.1572  0.5669 -0.1474
 4100TIP3    H212265   1.486   1.751   1.869  0.4105 -0.1419  0.3225
 4101TIP3   OH212266   0.962   3.577   0.965  0.1504  0.0839 -0.0333
 4101TIP3    H112267   0.989   3.597   0.875  1.2914 -0.1644  0.2382
 4101TIP3    H212268   1.031   3.519   0.998  0.3096  1.0108  1.3450
 4102TIP3   OH212269   0.332   5.193   0.993 -0.7990 -0.1312  0.2225
 4102TIP3    H112270   0.355   5.285   0.988  0.0610 -0.4066 -1.2675
 4102TIP3    H212271   0.238   5.193   1.015 -1.3052  1.1469 -1.7080
 4103TIP3   OH212272   3.388   2.987   5.255  0.6025 -0.2909  0.2407
 4103TIP3    H112273   3.335   3.050   5.205  0.8621  0.1953  0.5654
 4103TIP3    H212274   3.395   3.026   5.342 -0.4690 -1.5046  0.8849
 4104TIP3   OH212275   0.006   4.712   1.092 -0.3158 -0.3069 -0.0511
 4104TIP3    H112276   0.057   4.775   1.142 -0.9374  0.8536 -0.8227
 4104TIP3    H212277  -0.006   4.753   1.006 -1.2427 -1.2163 -0.3905
 4105TIP3   OH212278   1.972   3.701   5.492 -0.5631  0.0784 -0.1384
 4105TIP3    H112279   1.934   3.779   5.451  2.5689  0.9602 -1.6814
 4105TIP3    H212280   2.006   3.650   5.419  2.3827  0.1141  1.0547
 4106TIP3   OH212281   7.081   0.870   0.890 -0.1144 -0.3000 -0.6812
 4106TIP3    H112282   7.070   0.965   0.887  1.1776 -0.1055 -0.0349
 4106TIP3    H212283   7.053   0.845   0.977  1.0622 -0.2682 -0.2723
 4107TIP3   OH212284   6.004   3.503   2.358  0.4478 -0.1419  0.3690
 4107TIP3    H112285   5.956   3.553   2.424 -1.9567 -1.0636 -0.5796
 4107TIP3    H212286   6.025   3.420   2.400  0.4852 -0.0596  0.5142
 4108TIP3   OH212287   6.232   1.731   2.594 -0.3576 -0.3484 -0.0302
 4108TIP3    H112288   6.139   1.711   2.583 -0.3276 -0.3487 -0.2993
 4108TIP3    H212289   6.236   1.789   2.670 -0.5180 -0.8107  0.3299
 4109TIP3   OH212290   3.442   2.287   1.326 -0.2230  0.3970 -0.0384
 4109TIP3    H112291   3.519   2.231   1.328 -1.1902 -0.9729  0.1489
 4109TIP3    H212292   3.420   2.303   1.418 -1.1440 -0.6575 -0.0514
 4110TIP3   OH212293   0.657   3.238   2.314 -0.6912 -0.0758 -0.2275
 4110TIP3    H112294   0.620   3.317   2.353  0.3600 -0.5389  1.8618
 4110TIP3    H212295   0.747   3.262   2.292 -0.4471 -0.5795  0.1729
 4111TIP3   OH212296   6.347   1.458   5.645  0.3608 -0.0438 -0.4073
 4111TIP3    H112297   6.408   1.411   5.587  0.7073 -0.4780  0.2966
 4111TIP3    H212298   6.263   1.414   5.632  0.3850  0.0121 -0.7558
 4112TIP3   OH212299   4.845   3.817   1.381 -0.2585 -0.1380  0.1325
 4112TIP3    H112300   4.756   3.811   1.347 -0.5552 -1.2819  1.0688
 4112TIP3    H212301   4.857   3.909   1.403 -0.6743  0.3027 -1.3689
 4113TIP3   OH212302   3.989   0.535   5.671 -0.0311 -0.0370 -0.0326
 4113TIP3    H112303   3.896   0.556   5.681 -0.6384 -2.4290 -0.0714
 4113TIP3    H212304   4.024   0.541   5.760 -0.7588 -1.2302  0.3693
 4114TIP3   OH212305   5.063   4.358   1.074  0.2610 -0.5168  0.1934
 4114TIP3    H112306   5.050   4.277   1.123 -0.8415 -1.4431 -1.5056
 4114TIP3    H212307   5.069   4.427   1.140 -1.8964 -1.5889  1.6191
 4115TIP3   OH212308   5.892   1.012   3.992  0.2928  0.4049  0.1081
 4115TIP3    H112309   5.934   1.097   4.003  1.1229 -0.2295  2.7328
 4115TIP3    H212310   5.864   0.988   4.080  0.7392 -2.3265 -0.4014
 4116TIP3   OH212311   0.836   0.025   5.608  0.2417  0.9800  0.5546
 4116TIP3    H112312   0.814  -0.068   5.611  2.7735  0.3223  0.6793
 4116TIP3    H212313   0.820   0.056   5.697  0.7509  0.2901  0.9000
 4117TIP3   OH212314   2.291   3.009   1.652 -0.6285 -0.3317  0.2032
 4117TIP3    H112315   2.206   3.019   1.694 -0.8469  2.4914 -0.6873
 4117TIP3    H212316   2.272   3.003   1.559  0.1072 -1.0652  0.0861
 4118TIP3   OH212317   0.723   5.203   3.741 -0.4939  0.6308  0.2828
 4118TIP3    H112318   0.808   5.164   3.723 -2.4023 -2.3694 -4.0039
 4118TIP3    H212319   0.676   5.135   3.790 -1.2446  1.0844  0.2119
 4119TIP3   OH212320   1.886   5.803   3.587 -0.1576 -0.1713 -0.2734
 4119TIP3    H112321   1.954   5.744   3.554 -1.7393 -0.7433 -2.7957
 4119TIP3    H212322   1.906   5.887   3.545 -1.0734 -0.3871 -1.1635
 4120TIP3   OH212323   5.727   1.606   2.926 -0.1091 -0.0522  0.2415
 4120TIP3    H112324   5.712   1.640   2.838 -0.3112 -1.1318 -0.1543
 4120TIP3    H212325   5.656   1.543   2.940  1.3433 -1.7817  0.1752
 4121TIP3   OH212326   5.691   6.624   3.600 -0.0274  0.1566 -0.2751
 4121TIP3    H112327   5.774   6.661   3.630 -0.2568  1.1136 -0.7640
 4121TIP3    H212328   5.632   6.633   3.675 -0.1014  0.9011 -0.4053
 4122TIP3   OH212329   0.096   6.360   0.559  0.2730 -0.0329  0.0579
 4122TIP3    H112330   0.032   6.420   0.519  0.2214  0.3064  0.6322
 4122TIP3    H212331   0.086   6.278   0.511 -0.0932  0.2353 -0.3292
 4123TIP3   OH212332   3.064   1.290   3.319 -0.1469  0.8087 -0.3634
 4123TIP3    H112333   2.969   1.287   3.306 -0.2860 -1.4511  0.6557
 4123TIP3    H212334   3.075   1.302   3.413  0.4697 -1.7405 -0.0400
 4124TIP3   OH212335   0.441   4.684   5.177 -0.1562  0.1078 -0.0613
 4124TIP3    H112336   0.414   4.774   5.159 -1.5569 -0.2527  0.1423
 4124TIP3    H212337   0.380   4.653   5.244 -0.2298 -1.2701 -0.7278
 4125TIP3   OH212338   5.933   1.800   4.355  0.0033  0.1142  0.1367
 4125TIP3    H112339   5.885   1.748   4.418  0.4461 -0.1478  0.2642
 4125TIP3    H212340   5.898   1.774   4.270  1.8976 -2.2929 -0.0435
 4126TIP3   OH212341   5.084   4.865   3.136  0.3929  0.2079  0.7473
 4126TIP3    H112342   5.011   4.926   3.145  0.2063  0.0439  0.3763
 4126TIP3    H212343   5.079   4.836   3.045  0.7749  0.0123  0.7895
 4127TIP3   OH212344   5.958   3.443   5.868 -0.0320  0.1791 -0.3401
 4127TIP3    H112345   5.992   3.530   5.848  0.1214 -0.5207 -3.8741
 4127TIP3    H212346   5.893   3.457   5.937  0.2821  3.0061 -0.5160
 4128TIP3   OH212347   0.435   1.878   1.747 -0.4151  1.1663  0.5872
 4128TIP3    H112348   0.374   1.804   1.747  0.0355  0.7818 -0.1114
 4128TIP3    H212349   0.516   1.842   1.784 -1.0997  2.1316  3.2423
 4129TIP3   OH212350   5.618   6.260   1.292 -0.3911 -0.0778  0.3699
 4129TIP3    H112351   5.598   6.170   1.314  1.6455 -0.0932  2.5657
 4129TIP3    H212352   5.634   6.303   1.376 -2.4886  2.7010 -0.5037
 4130TIP3   OH212353   2.770   3.619   0.316 -0.2051  0.1263  0.0913
 4130TIP3    H112354   2.815   3.601   0.233 -0.4496 -0.5311  0.0968
 4130TIP3    H212355   2.706   3.687   0.294 -1.1298 -0.9099 -0.5519
 4131TIP3   OH212356   6.802   2.109   4.318 -0.1265 -0.0769  0.5542
 4131TIP3    H112357   6.781   2.171   4.248 -0.8424 -0.0284  0.8000
 4131TIP3    H212358   6.895   2.121   4.335 -0.6684  2.5532  2.1380
 4132TIP3   OH212359   2.593   4.775   0.286 -0.3130 -0.2339 -0.5925
 4132TIP3    H112360   2.618   4.844   0.347 -2.0301  1.0982 -1.3062
 4132TIP3    H212361   2.660   4.707   0.297  1.5095  1.5795  0.0557
 4133TIP3   OH212362   7.206   1.690   4.177  0.5417 -0.2652 -0.4403
 4133TIP3    H112363   7.154   1.726   4.249 -1.2723 -0.3496 -1.6612
 4133TIP3    H212364   7.286   1.744   4.177 -0.8039  1.8524 -0.3465
 4134TIP3   OH212365   6.214   2.919   1.537  0.4747  0.1834  0.0657
 4134TIP3    H112366   6.197   2.979   1.464  1.1353  0.5560  0.2111
 4134TIP3    H212367   6.128   2.882   1.557 -0.0071  1.2893  0.1475
 4135TIP3   OH212368   1.304   0.959   4.260  0.1850 -0.0664  0.4299
 4135TIP3    H112369   1.268   0.879   4.300  2.4027 -1.6153 -0.4620
 4135TIP3    H212370   1.278   1.029   4.320 -1.2892 -1.5277  1.6167
 4136TIP3   OH212371   6.763   5.789   5.430  0.7630 -0.6405  0.1225
 4136TIP3    H112372   6.719   5.707   5.409 -0.3166  0.1718 -0.9131
 4136TIP3    H212373   6.840   5.791   5.373 -1.0094  0.5585 -2.4001
 4137TIP3   OH212374   7.033   2.808   3.251 -0.3135 -0.0562  0.0062
 4137TIP3    H112375   7.088   2.741   3.208 -1.5310 -0.5728 -0.8029
 4137TIP3    H212376   7.016   2.872   3.182 -2.1065 -0.7811 -0.3022
 4138TIP3   OH212377   3.389   2.167   2.346  0.1897 -0.2148 -0.1353
 4138TIP3    H112378   3.354   2.209   2.425 -1.6392 -1.0262 -0.4655
 4138TIP3    H212379   3.386   2.236   2.279 -0.4610 -0.1760 -0.0692
 4139TIP3   OH212380   2.196   4.955   5.540  0.1629  0.3126 -0.1201
 4139TIP3    H112381   2.118   4.993   5.580 -0.3342 -0.8313  0.0286
 4139TIP3    H212382   2.222   4.884   5.599  1.1163  0.4572 -0.3465
 4140TIP3   OH212383   4.718   6.733   2.807  0.1445 -0.1249  0.0288
 4140TIP3    H112384   4.628   6.759   2.825  0.3472  0.3289  0.4076
 4140TIP3    H212385   4.771   6.806   2.839  0.6739 -0.6385  0.3418
 4141TIP3   OH212386  -0.013   2.084   0.302 -0.0734 -0.2241 -0.3872
 4141TIP3    H112387   0.037   2.084   0.220 -0.6573 -1.3760 -0.7722
 4141TIP3    H212388   0.049   2.055   0.368  0.0620 -0.5763 -0.6638
 4142TIP3   OH212389   2.211   2.307   2.574 -0.6039  0.1871  0.0867
 4142TIP3    H112390   2.148   2.303   2.502  0.0453 -0.4302 -0.4639
 4142TIP3    H212391   2.190   2.388   2.620 -2.4500 -0.4863  0.5198
 4143TIP3   OH212392   6.717   0.306   0.817  0.1609  0.1991 -0.9792
 4143TIP3    H112393   6.640   0.318   0.761 -2.3957  0.4819  2.2995
 4143TIP3    H212394   6.700   0.360   0.894  1.8136 -2.6347  1.6168
 4144TIP3   OH212395   4.050   0.876   5.297 -0.2282  0.5248  0.5075
 4144TIP3    H112396   4.001   0.912   5.223  0.8119 -0.2830 -0.6178
 4144TIP3    H212397   3.983   0.840   5.356 -1.0596 -3.0720 -2.2816
 4145TIP3   OH212398   6.322   0.783   2.389  0.0653 -0.3794 -0.0014
 4145TIP3    H112399   6.313   0.812   2.298  0.0007  2.9621  0.9099
 4145TIP3    H212400   6.407   0.817   2.416 -0.1047 -0.9456  1.2982
 4146TIP3   OH212401   1.347   4.343   4.253 -0.3312 -0.5354 -0.3661
 4146TIP3    H112402   1.276   4.286   4.281  1.0049 -2.5248 -0.8007
 4146TIP3    H212403   1.308   4.400   4.187 -2.1711  0.4466  1.4540
 4147TIP3   OH212404   5.422   1.677   5.590  0.8417 -0.0673  0.1398
 4147TIP3    H112405   5.328   1.696   5.597  0.8526 -0.3727  1.3234
 4147TIP3    H212406   5.457   1.748   5.537 -0.1175 -0.1477 -0.6144
 4148TIP3   OH212407   4.833   5.388   3.772 -0.5317 -0.1636 -0.1630
 4148TIP3    H112408   4.906   5.368   3.831 -1.9985 -0.9038  1.4782
 4148TIP3    H212409   4.859   5.469   3.728  1.4204 -0.5961  0.0851
 4149TIP3   OH212410   5.446   1.469   1.831  0.2207 -0.3757  0.5990
 4149TIP3    H112411   5.433   1.377   1.809 -0.1476 -0.5320  1.4174
 4149TIP3    H212412   5.489   1.507   1.755  1.0113 -1.3819  0.5308
 4150TIP3   OH212413   4.043   1.764   3.500 -0.3445 -0.0480  0.2529
 4150TIP3    H112414   4.008   1.690   3.450  0.8541 -0.4882  0.0029
 4150TIP3    H212415   3.993   1.765   3.581 -0.5666 -0.9737  0.1410
 4151TIP3   OH212416   1.238   6.174   4.753 -0.2075 -0.4095 -0.2651
 4151TIP3    H112417   1.142   6.163   4.753 -0.5992  2.2534 -1.1777
 4151TIP3    H212418   1.252   6.255   4.801  1.7536 -1.3614  0.8710
 4152TIP3   OH212419   5.939   5.898   3.487 -0.5317 -0.0938  0.0162
 4152TIP3    H112420   5.969   5.912   3.577  0.3068 -0.9179 -0.1250
 4152TIP3    H212421   5.946   5.804   3.473 -1.0216 -0.0197 -0.7948
 4153TIP3   OH212422   2.025   0.360   5.002 -0.0308  0.2133 -0.6490
 4153TIP3    H112423   1.946   0.396   4.960  0.1875  1.4215 -0.0658
 4153TIP3    H212424   2.001   0.351   5.094  0.2249 -0.2748 -0.6293
 4154TIP3   OH212425   1.267   2.027   1.061 -0.6709 -0.5031  1.1270
 4154TIP3    H112426   1.251   2.067   0.975 -1.1894 -0.7597  1.1052
 4154TIP3    H212427   1.316   2.094   1.109  0.8357 -0.8551  0.1747
 4155TIP3   OH212428   5.221   5.683   1.957  0.2529 -0.6321 -0.0684
 4155TIP3    H112429   5.290   5.740   1.990  0.5246 -0.9549 -0.0796
 4155TIP3    H212430   5.250   5.594   1.977 -0.3889 -0.7538  0.3654
 4156TIP3   OH212431   2.231   6.578   1.913  0.1995 -0.5899 -0.3375
 4156TIP3    H112432   2.166   6.646   1.929  1.4272  0.2120  1.5517
 4156TIP3    H212433   2.311   6.625   1.893  0.5816 -1.5291 -1.0740
 4157TIP3   OH212434   6.721   0.654   4.358 -0.4460  0.5683 -0.5804
 4157TIP3    H112435   6.657   0.611   4.416  1.2615 -1.7463 -0.2836
 4157TIP3    H212436   6.764   0.719   4.414  1.0045 -1.4660  0.8010
 4158TIP3   OH212437   5.599   2.023   4.567 -0.1867 -0.4769 -0.0776
 4158TIP3    H112438   5.681   2.054   4.605  0.4433 -0.6239 -1.2677
 4158TIP3    H212439   5.546   1.997   4.642  1.0319 -0.8226  0.6888
 4159TIP3   OH212440   3.565   5.283   3.929 -0.4239  0.0991  0.2235
 4159TIP3    H112441   3.503   5.258   3.998 -0.1207  0.0444  0.4744
 4159TIP3    H212442   3.629   5.339   3.973  1.2248 -1.9498  0.5714
 4160TIP3   OH212443   2.989   4.352   4.949  0.1389 -0.1391 -0.2567
 4160TIP3    H112444   3.009   4.348   4.855 -1.2216 -0.7215 -0.5431
 4160TIP3    H212445   2.995   4.261   4.979  0.3652  0.0165  0.1764
 4161TIP3   OH212446   0.714   1.478   2.973 -0.3289 -0.1739 -0.3048
 4161TIP3    H112447   0.765   1.544   2.926 -0.4093  0.4564  0.4755
 4161TIP3    H212448   0.648   1.529   3.021 -0.7497 -0.8667 -0.1403
 4162TIP3   OH212449   0.336   2.203   0.730 -0.1945  0.4956 -0.1587
 4162TIP3    H112450   0.242   2.212   0.717 -0.3879 -0.2192  0.6296
 4162TIP3    H212451   0.344   2.162   0.816  0.6363 -3.7504 -1.9853
 4163TIP3   OH212452   4.174   1.973   1.211  0.4674  0.4965 -0.6302
 4163TIP3    H112453   4.211   1.933   1.132  2.1525  2.0224 -0.6700
 4163TIP3    H212454   4.249   2.014   1.255 -0.7161  1.1376  0.8919
 4164TIP3   OH212455   0.935   0.837   0.557 -0.2151  1.1475 -0.2437
 4164TIP3    H112456   1.030   0.841   0.546  0.0712  1.4546  1.8203
 4164TIP3    H212457   0.916   0.744   0.565 -0.2941  0.9947 -1.8740
 4165TIP3   OH212458   3.207   2.450   4.642 -0.4848  0.4970  0.6377
 4165TIP3    H112459   3.272   2.473   4.710  2.9064  0.3295 -2.2568
 4165TIP3    H212460   3.167   2.534   4.619  0.9960  1.1692  0.3807
 4166TIP3   OH212461   4.777   4.034   0.322  0.1355  0.2775 -0.1965
 4166TIP3    H112462   4.775   4.119   0.366  1.5673  0.2718 -0.0753
 4166TIP3    H212463   4.772   4.055   0.229  2.3023  0.6708 -0.2824
 4167TIP3   OH212464   5.781   3.348   3.551  0.0266  0.2557 -0.2733
 4167TIP3    H112465   5.818   3.373   3.636  0.9437 -0.3198 -0.4956
 4167TIP3    H212466   5.715   3.282   3.572 -0.4225  0.7945  0.0617
 4168TIP3   OH212467   0.279   3.947   5.744  0.0658  0.3202  0.1026
 4168TIP3    H112468   0.276   4.042   5.741 -0.1179  0.2944 -1.0301
 4168TIP3    H212469   0.298   3.921   5.654 -0.4568 -0.7302  0.2842
 4169TIP3   OH212470   1.188   5.804   2.603 -0.0529 -0.2141  0.3943
 4169TIP3    H112471   1.150   5.777   2.519 -0.6085 -0.5813  0.7558
 4169TIP3    H212472   1.141   5.751   2.668 -2.2367  2.5607  1.2982
 4170TIP3   OH212473   2.414   5.021   5.364  0.3664 -0.1398  0.1640
 4170TIP3    H112474   2.447   5.076   5.435 -1.7244  2.1715 -0.4855
 4170TIP3    H212475   2.341   4.973   5.403  0.3282 -0.2037  0.0134
 4171TIP3   OH212476   1.354   3.550   5.428 -0.5367 -0.1174 -0.5506
 4171TIP3    H112477   1.288   3.537   5.360 -0.8975 -0.8343 -0.0778
 4171TIP3    H212478   1.318   3.618   5.484  0.4129  1.5512 -1.8574
 4172TIP3   OH212479   4.130   0.116   3.892  0.7178  0.0875 -0.2869
 4172TIP3    H112480   4.070   0.042   3.898  1.0597 -0.2983 -1.3977
 4172TIP3    H212481   4.142   0.145   3.983  0.1270 -0.8427  0.1010
 4173TIP3   OH212482   0.895   1.775   1.215 -0.1048 -0.7038  0.5581
 4173TIP3    H112483   0.923   1.688   1.244  1.4993  0.4335  2.7592
 4173TIP3    H212484   0.977   1.826   1.210 -1.1199  1.0105  0.5869
 4174TIP3   OH212485   4.810   4.971   2.742 -0.3799 -0.1640  0.5770
 4174TIP3    H112486   4.854   4.890   2.717 -0.4089 -0.2437  0.7802
 4174TIP3    H212487   4.787   4.959   2.834  0.6001  0.5090  0.9238
 4175TIP3   OH212488   3.629   1.056   5.812 -1.0219 -0.1941  0.5809
 4175TIP3    H112489   3.641   1.149   5.835 -0.9318 -0.1018  0.1712
 4175TIP3    H212490   3.555   1.028   5.866 -1.7985  0.4272 -0.1337
 4176TIP3   OH212491   5.710   2.748   3.357  0.1120  0.3999  0.4817
 4176TIP3    H112492   5.748   2.825   3.400  2.1946 -1.2103  1.7334
 4176TIP3    H212493   5.666   2.700   3.428  0.5442 -0.5237  0.1428
 4177TIP3   OH212494   2.559   5.752   1.409 -0.6963  0.0716 -0.0553
 4177TIP3    H112495   2.599   5.710   1.485 -3.3290 -0.3067  1.2321
 4177TIP3    H212496   2.577   5.845   1.421  1.6676 -0.2347 -0.7572
 4178TIP3   OH212497   3.944   1.978   3.749 -0.3418  0.2507 -0.7241
 4178TIP3    H112498   4.025   1.955   3.793  0.1107  2.2696 -0.3685
 4178TIP3    H212499   3.875   1.960   3.813 -0.1786 -1.1864 -0.9235
 4179TIP3   OH212500   1.052   6.446   4.657  0.1972 -0.2247 -0.4619
 4179TIP3    H112501   0.960   6.423   4.668  0.7318 -1.5067  2.2323
 4179TIP3    H212502   1.061   6.530   4.701  0.5824 -0.8562  0.6970
 4180TIP3   OH212503   4.291   0.503   4.240 -0.4053  0.4822 -0.1294
 4180TIP3    H112504   4.375   0.511   4.195  0.3823  2.4986  1.5724
 4180TIP3    H212505   4.242   0.580   4.213 -1.0344  0.2195  0.2440
 4181TIP3   OH212506   5.974   1.389   2.155  0.6001 -0.0338  0.4730
 4181TIP3    H112507   5.994   1.413   2.246  1.7618  0.5048  0.1039
 4181TIP3    H212508   5.989   1.295   2.151 -1.8740 -0.5417  1.4144
 4182TIP3   OH212509   4.367   5.089   1.856 -0.0424  0.6147 -0.3470
 4182TIP3    H112510   4.422   5.056   1.927 -0.5880 -0.0066 -0.2063
 4182TIP3    H212511   4.401   5.047   1.777 -0.2347  0.3252 -0.2768
 4183TIP3   OH212512   6.598   3.516   4.825 -0.9147 -0.4120  0.2547
 4183TIP3    H112513   6.564   3.452   4.887  0.5564 -0.1550  1.3565
 4183TIP3    H212514   6.674   3.474   4.785 -1.6900 -0.4817 -1.2439
 4184TIP3   OH212515   4.653   3.223   2.831 -0.3972  0.4677  0.3357
 4184TIP3    H112516   4.636   3.129   2.838 -0.3592  0.3581 -0.7837
 4184TIP3    H212517   4.630   3.244   2.740  2.8302  0.8448 -0.5198
 4185TIP3   OH212518   1.358   5.643   1.602 -0.4024 -0.1709  0.1188
 4185TIP3    H112519   1.421   5.613   1.668 -1.0450  1.4511  1.5509
 4185TIP3    H212520   1.395   5.614   1.518  0.7606 -1.7466  1.1268
 4186TIP3   OH212521   1.614   3.562   1.301 -0.7335 -0.1070 -0.2852
 4186TIP3    H112522   1.617   3.638   1.243 -2.3348 -1.4195 -2.2268
 4186TIP3    H212523   1.523   3.534   1.300 -0.6688 -0.6607  2.3314
 4187TIP3   OH212524   0.620   4.413   3.729  0.2555  0.0174  0.3833
 4187TIP3    H112525   0.552   4.435   3.666  0.8263  0.3053 -0.1468
 4187TIP3    H212526   0.594   4.457   3.810  1.0026  2.1090 -0.4498
 4188TIP3   OH212527   2.132   4.500   2.157 -0.0385  0.2239  0.3398
 4188TIP3    H112528   2.055   4.450   2.184 -0.3908  1.1864  1.1796
 4188TIP3    H212529   2.133   4.576   2.215  1.7176  0.0835  0.5476
 4189TIP3   OH212530   5.881   1.582   3.567 -0.3484  0.5048 -0.2891
 4189TIP3    H112531   5.943   1.509   3.566 -0.5898  0.2829  0.1298
 4189TIP3    H212532   5.934   1.659   3.586 -0.3886  0.0952  1.7408
 4190TIP3   OH212533   2.953   5.694   3.658 -0.1828  0.0917  0.7136
 4190TIP3    H112534   2.950   5.611   3.611 -0.5781  0.5129 -0.0397
 4190TIP3    H212535   3.046   5.712   3.671 -0.1063 -1.3732  2.5775
 4191TIP3   OH212536   6.747   5.677   4.796  0.1810  0.9918  0.2144
 4191TIP3    H112537   6.769   5.647   4.707  1.8290 -1.3432  1.3063
 4191TIP3    H212538   6.826   5.721   4.826  0.7541 -0.8140  1.5051
 4192TIP3   OH212539   1.436   3.010   0.186 -1.0887  0.1515  0.8508
 4192TIP3    H112540   1.366   2.964   0.139  0.0769 -1.6613  0.7894
 4192TIP3    H212541   1.482   3.058   0.117 -1.3473  0.1019  0.6400
 4193TIP3   OH212542   1.849   4.628   5.181  0.0335 -0.0801  0.4928
 4193TIP3    H112543   1.905   4.693   5.224 -0.4262 -0.4000  1.6316
 4193TIP3    H212544   1.910   4.560   5.152  0.3420  0.0122  0.9061
 4194TIP3   OH212545   5.769   6.741   2.820  0.4631 -0.3085  0.0094
 4194TIP3    H112546   5.851   6.730   2.772  1.0911 -0.3205  1.0411
 4194TIP3    H212547   5.776   6.678   2.892 -0.6674 -0.6392 -0.1647
 4195TIP3   OH212548   0.172   5.377   0.735 -0.3592  0.1658 -0.8944
 4195TIP3    H112549   0.148   5.378   0.828  0.5610 -0.6485 -0.6272
 4195TIP3    H212550   0.229   5.452   0.723 -2.0602  1.4686 -1.2882
 4196TIP3   OH212551   5.712   2.472   3.962  0.2073 -0.7026  0.0312
 4196TIP3    H112552   5.690   2.464   4.055  1.7291  0.1215  0.4968
 4196TIP3    H212553   5.639   2.431   3.917 -0.9209 -0.4732  1.5609
 4197TIP3   OH212554   1.762   6.135   0.139  0.3135  0.1906 -0.4066
 4197TIP3    H112555   1.779   6.150   0.232  0.1901  0.2057 -0.3864
 4197TIP3    H212556   1.794   6.046   0.122  0.3228  0.1831 -0.3468
 4198TIP3   OH212557   2.739   6.380   5.548  0.1490  0.0319  0.1580
 4198TIP3    H112558   2.743   6.304   5.490 -2.9326 -0.6963  0.7260
 4198TIP3    H212559   2.680   6.441   5.504  3.3047  2.7053 -0.7802
 4199TIP3   OH212560   1.103   5.527   2.768 -0.1997 -0.1754  0.4888
 4199TIP3    H112561   1.050   5.466   2.717  0.6498 -1.1452  0.7167
 4199TIP3    H212562   1.040   5.572   2.824 -1.4538  2.2975 -2.6148
 4200TIP3   OH212563   5.995   4.297   2.530 -0.0908 -0.6608 -0.2956
 4200TIP3    H112564   5.963   4.208   2.519  0.4284 -0.8066 -0.7014
 4200TIP3    H212565   6.069   4.303   2.469 -0.1041  0.0352 -0.2478
 4201TIP3   OH212566   3.138   1.103   0.861 -0.5316 -0.5964  0.8222
 4201TIP3    H112567   3.132   1.189   0.820  0.1076 -1.2210 -0.6467
 4201TIP3    H212568   3.191   1.117   0.939 -3.1355  0.9383  2.4402
 4202TIP3   OH212569   0.989   1.010   3.073  0.2509  0.8266 -0.2348
 4202TIP3    H112570   0.978   1.079   3.008 -0.5927  0.4760 -0.4692
 4202TIP3    H212571   1.084   0.996   3.076  0.4145  1.8127 -0.3594
 4203TIP3   OH212572   6.938   4.857   3.411  0.5874 -0.4300 -0.2369
 4203TIP3    H112573   6.939   4.916   3.487  0.4128  0.1084 -0.6471
 4203TIP3    H212574   6.849   4.862   3.378  0.3811 -1.4813  0.1457
 4204TIP3   OH212575   5.437   5.699   0.925 -0.3116  0.2456  0.1258
 4204TIP3    H112576   5.482   5.680   0.843  3.4940  1.2768  1.7146
 4204TIP3    H212577   5.382   5.775   0.905  1.1704  1.0113 -1.3620
 4205TIP3   OH212578   3.575   4.434   4.076  0.3826  0.7891 -0.2046
 4205TIP3    H112579   3.605   4.433   3.985 -1.3474 -3.1722 -0.9522
 4205TIP3    H212580   3.480   4.424   4.069  0.0895  1.5648  2.0867
 4206TIP3   OH212581   6.089   2.673   0.502 -0.2317 -0.5177  0.2448
 4206TIP3    H112582   5.995   2.654   0.494 -0.1726 -0.8673  0.3700
 4206TIP3    H212583   6.121   2.676   0.412 -0.9577  2.7204 -0.0190
 4207TIP3   OH212584   6.981   3.404   1.963 -0.2273  0.3809 -0.1900
 4207TIP3    H112585   6.920   3.382   2.034 -1.5950 -1.8328 -1.9312
 4207TIP3    H212586   7.061   3.358   1.986 -0.2181  0.7330  0.5348
 4208TIP3   OH212587   7.011   0.224   5.061  0.1515  0.3331  0.0171
 4208TIP3    H112588   7.067   0.285   5.013  0.2020  1.2425  1.1989
 4208TIP3    H212589   6.933   0.274   5.083 -1.4196 -1.0428 -1.9879
 4209TIP3   OH212590   3.886   1.713   3.016  0.0319  0.0839  0.1752
 4209TIP3    H112591   3.921   1.801   3.027 -2.0333  1.3890 -2.4187
 4209TIP3    H212592   3.934   1.677   2.941 -1.8190  0.7120 -1.4205
 4210TIP3   OH212593   7.171   2.133   0.681  0.2156 -0.2571 -0.1522
 4210TIP3    H112594   7.198   2.221   0.653 -0.2505 -0.1999 -0.4232
 4210TIP3    H212595   7.253   2.087   0.698  0.4686  0.1220 -0.3420
 4211TIP3   OH212596   2.871   1.361   4.661 -0.0116  0.6111 -0.0593
 4211TIP3    H112597   2.871   1.333   4.752 -1.2332  1.4701  0.2208
 4211TIP3    H212598   2.780   1.382   4.642  0.6309  3.1738 -0.6288
 4212TIP3   OH212599   0.156   4.027   2.308  0.2006  0.3265  0.7739
 4212TIP3    H112600   0.184   4.112   2.341  0.1450  0.8340 -0.4298
 4212TIP3    H212601   0.232   3.991   2.263 -0.6803  1.3001 -1.6950
 4213TIP3   OH212602   5.217   1.942   5.612 -0.6360  0.2759 -0.2617
 4213TIP3    H112603   5.196   2.035   5.605 -0.4576  0.2683 -1.0085
 4213TIP3    H212604   5.310   1.940   5.634 -0.7561  0.2788  0.2488
 4214TIP3   OH212605   4.194   6.553   5.672  0.1171 -0.4435 -0.5552
 4214TIP3    H112606   4.275   6.557   5.621  0.0641 -2.5863 -0.9236
 4214TIP3    H212607   4.140   6.623   5.636  1.6741  0.8779 -0.4643
 4215TIP3   OH212608   2.092   4.885   2.786  0.7212 -0.2251  0.3935
 4215TIP3    H112609   2.012   4.902   2.736  0.1980 -2.6734  0.2813
 4215TIP3    H212610   2.074   4.919   2.873 -0.4318 -0.6915  0.3494
 4216TIP3   OH212611   4.847   0.574   1.728 -0.3375 -0.4733  0.3276
 4216TIP3    H112612   4.864   0.659   1.688 -2.1662 -0.2221  0.0167
 4216TIP3    H212613   4.925   0.522   1.706  0.3346  0.7750 -0.3853
 4217TIP3   OH212614   0.018   2.346   4.292  1.2154  0.3232 -0.5223
 4217TIP3    H112615  -0.055   2.394   4.253  1.3720  0.7430 -0.3069
 4217TIP3    H212616   0.040   2.280   4.227 -0.4014 -0.8784  0.0964
 4218TIP3   OH212617   6.979   6.058   0.435 -0.3215  0.3399  0.6143
 4218TIP3    H112618   7.063   6.095   0.409  1.3022 -2.2609  1.7318
 4218TIP3    H212619   6.927   6.058   0.355  1.3194  0.5479 -0.5035
 4219TIP3   OH212620   5.665   4.764   5.843 -0.1869  0.2855  0.3346
 4219TIP3    H112621   5.692   4.672   5.834 -0.4929  0.0175  1.8645
 4219TIP3    H212622   5.708   4.793   5.924 -0.3807  1.3896  0.0516
 4220TIP3   OH212623   5.463   5.211   5.734  0.1541  0.3275  0.3726
 4220TIP3    H112624   5.517   5.254   5.800  0.1121  0.2875  0.4336
 4220TIP3    H212625   5.522   5.152   5.688  0.3858  0.9781 -0.2016
 4221TIP3   OH212626   6.021   5.396   3.124 -0.0978  0.2950 -0.0094
 4221TIP3    H112627   6.040   5.473   3.072  0.4063  0.9413  1.0842
 4221TIP3    H212628   5.931   5.409   3.155  0.3140  0.9713  0.9866
 4222TIP3   OH212629   4.562   1.661   0.881  0.0154 -0.0127 -0.4936
 4222TIP3    H112630   4.548   1.579   0.929 -1.7339  0.6538  0.1758
 4222TIP3    H212631   4.474   1.693   0.861  0.6470  1.9586 -0.3181
 4223TIP3   OH212632   2.389   3.859   0.026 -0.1130 -0.2714 -0.0878
 4223TIP3    H112633   2.310   3.912   0.012 -0.4343 -0.7569 -0.1283
 4223TIP3    H212634   2.449   3.917   0.074 -0.0281  0.5090 -1.1136
 4224TIP3   OH212635   3.580   3.408   0.675 -0.5635 -0.0019 -0.1274
 4224TIP3    H112636   3.640   3.386   0.746  1.2342  1.0091 -1.2535
 4224TIP3    H212637   3.543   3.324   0.648 -0.5613 -0.5111  1.3507
 4225TIP3   OH212638   0.892   4.334   5.042 -0.4552 -0.4572 -0.8221
 4225TIP3    H112639   0.896   4.428   5.057 -2.7678 -0.6232  1.3374
 4225TIP3    H212640   0.977   4.302   5.072 -0.8597  0.6090  1.7365
 4226TIP3   OH212641   4.142   0.159   5.077 -0.5372 -0.2432 -0.1269
 4226TIP3    H112642   4.112   0.100   5.008 -0.3297  1.7046 -1.9619
 4226TIP3    H212643   4.062   0.199   5.111 -0.4422  1.7393 -2.0498
 4227TIP3   OH212644   2.877   0.130   5.186 -0.2064 -0.4902 -0.3795
 4227TIP3    H112645   2.808   0.179   5.231  0.6150 -0.5794  1.0480
 4227TIP3    H212646   2.890   0.052   5.241 -0.1364 -1.3414 -1.5568
 4228TIP3   OH212647   4.198   5.355   2.522  0.3077 -0.2406  0.0740
 4228TIP3    H112648   4.283   5.393   2.546 -0.0754  0.8140 -0.1887
 4228TIP3    H212649   4.203   5.265   2.552  1.1764  0.0672  0.9118
 4229TIP3   OH212650   6.608   6.679   2.949  0.2249  0.7277  0.8339
 4229TIP3    H112651   6.678   6.614   2.949 -0.9342 -0.5701  0.6492
 4229TIP3    H212652   6.571   6.675   3.038  0.4136  1.4389  0.9482
 4230TIP3   OH212653   4.681   5.767   3.272  0.4608 -0.1157  0.3313
 4230TIP3    H112654   4.638   5.785   3.356  1.5745 -0.1376  0.9187
 4230TIP3    H212655   4.647   5.681   3.246 -0.9021  0.4649  0.0786
 4231TIP3   OH212656   4.288   5.607   3.716 -0.2733 -0.5001  0.1576
 4231TIP3    H112657   4.297   5.633   3.808 -2.0763  0.7981  0.0171
 4231TIP3    H212658   4.256   5.516   3.720  1.5704 -1.1759  0.7293
 4232TIP3   OH212659   2.003   6.666   2.898  0.8477 -0.3412 -0.1845
 4232TIP3    H112660   1.957   6.751   2.895  1.1246 -0.2272 -1.3716
 4232TIP3    H212661   2.095   6.689   2.911  0.8675 -0.4783 -0.0802
 4233TIP3   OH212662   6.008   6.632   5.039 -0.4883  0.0136 -0.4329
 4233TIP3    H112663   6.064   6.666   4.968 -0.1070 -0.2596 -0.2683
 4233TIP3    H212664   5.941   6.699   5.050  0.6981  1.1299  0.4213
 4234TIP3   OH212665   5.481   5.998   0.446 -0.2166  0.0884  0.2898
 4234TIP3    H112666   5.554   6.003   0.384  1.2500 -0.7523  1.8465
 4234TIP3    H212667   5.449   6.088   0.453 -0.4967  0.2027 -1.6923
 4235TIP3   OH212668   2.211   2.831   2.610  0.0096  0.1082 -0.0656
 4235TIP3    H112669   2.147   2.849   2.680 -1.0888 -0.4785 -0.8878
 4235TIP3    H212670   2.202   2.905   2.550  0.3969  0.2256  0.0205
 4236TIP3   OH212671   6.079   0.380   3.419 -0.4129  0.2629 -0.4096
 4236TIP3    H112672   6.051   0.331   3.342 -0.5043  0.9956 -0.8573
 4236TIP3    H212673   6.004   0.435   3.442  0.3369  1.6566 -1.1407
 4237TIP3   OH212674   0.650   5.599   2.628  0.1540  0.4271  0.3337
 4237TIP3    H112675   0.570   5.546   2.621  0.5886 -0.2156  0.1232
 4237TIP3    H212676   0.719   5.535   2.643  0.5820  1.0111  0.9144
 4238TIP3   OH212677   0.822   2.475   0.685  0.4250 -0.1004 -0.3724
 4238TIP3    H112678   0.740   2.472   0.734  1.7822 -0.4246  2.0471
 4238TIP3    H212679   0.887   2.503   0.749  2.0494  1.3136 -2.4965
 4239TIP3   OH212680   3.886   5.535   2.608 -0.6272  0.2070 -0.5651
 4239TIP3    H112681   3.921   5.519   2.520 -0.0236  0.9790 -0.4807
 4239TIP3    H212682   3.792   5.519   2.599 -0.6244  0.5888 -1.4384
 4240TIP3   OH212683   5.798   5.242   2.734  0.0937  0.0891 -0.2090
 4240TIP3    H112684   5.845   5.207   2.809  0.0605 -1.6048 -0.9382
 4240TIP3    H212685   5.867   5.274   2.675  0.1576  0.6342  0.1550
 4241TIP3   OH212686   6.866   0.431   5.186 -0.4746 -0.0913 -0.0268
 4241TIP3    H112687   6.955   0.466   5.181 -0.0047 -1.2440 -0.2619
 4241TIP3    H212688   6.809   0.507   5.177  0.4894  0.6367 -0.1368
 4242TIP3   OH212689   5.250   2.663   1.099  0.3321  0.3531  0.5569
 4242TIP3    H112690   5.159   2.663   1.070  0.1565 -0.0981  1.0931
 4242TIP3    H212691   5.288   2.742   1.059  0.1611 -0.3432 -1.0606
 4243TIP3   OH212692   1.972   0.981   3.229  0.2053  0.1689  0.3347
 4243TIP3    H112693   2.025   1.047   3.184 -1.0867 -0.3149 -2.0772
 4243TIP3    H212694   1.882   1.001   3.202 -0.3617 -1.6355  0.7917
 4244TIP3   OH212695   6.181   4.551   3.706 -0.2493  0.2282  0.4418
 4244TIP3    H112696   6.134   4.468   3.697 -1.5252  0.9455  0.3941
 4244TIP3    H212697   6.234   4.540   3.785 -0.7270 -0.4803  0.6713
 4245TIP3   OH212698   4.494   0.621   3.959 -0.3375  0.2128 -0.4665
 4245TIP3    H112699   4.570   0.594   3.908  0.1771  1.3506 -0.3433
 4245TIP3    H212700   4.427   0.556   3.939  1.2325 -1.9400  0.9508
 4246TIP3   OH212701   7.179   2.807   5.382  0.4617  0.7736 -0.1547
 4246TIP3    H112702   7.177   2.803   5.287 -0.6862  0.7371 -0.1408
 4246TIP3    H212703   7.272   2.815   5.404  0.9675 -1.4757 -1.1712
 4247TIP3   OH212704   7.236   4.132   0.383  0.4839 -0.0405  0.8267
 4247TIP3    H112705   7.266   4.074   0.312 -0.3707  0.5113 -0.0212
 4247TIP3    H212706   7.141   4.118   0.386  0.0727  2.1748 -0.2347
 4248TIP3   OH212707   0.840   1.473   4.455  0.4566  0.0190 -0.0465
 4248TIP3    H112708   0.860   1.479   4.548  0.3547  0.5852 -0.0572
 4248TIP3    H212709   0.856   1.381   4.433 -1.4290 -0.6076  0.9514
 4249TIP3   OH212710   1.366   0.664   3.527 -0.0618 -0.1586  0.0394
 4249TIP3    H112711   1.398   0.739   3.477  0.5693 -0.0812  0.5465
 4249TIP3    H212712   1.395   0.588   3.477 -2.8141 -0.1044 -1.8082
 4250TIP3   OH212713   1.390   4.616   0.866  0.3426  0.1416  0.1242
 4250TIP3    H112714   1.480   4.633   0.838  1.5759 -3.5380  1.2908
 4250TIP3    H212715   1.357   4.551   0.804 -0.5487 -0.5205  1.2466
 4251TIP3   OH212716   3.987   4.708   0.683 -0.5412  0.3911  0.1418
 4251TIP3    H112717   4.054   4.760   0.726 -0.8449  2.1461 -1.3412
 4251TIP3    H212718   3.907   4.761   0.691 -1.6088 -1.2674  1.1617
 4252TIP3   OH212719   2.409   5.924   3.911 -0.4547  0.0482  0.3197
 4252TIP3    H112720   2.362   5.929   3.995 -2.2271  1.8213 -0.6659
 4252TIP3    H212721   2.497   5.897   3.934 -1.2344 -0.7809  2.6149
 4253TIP3   OH212722   6.939   1.280   2.289 -0.2785 -0.2464  0.4572
 4253TIP3    H112723   6.881   1.355   2.296  0.2583  0.0977  1.5853
 4253TIP3    H212724   6.882   1.208   2.260 -0.4833  0.9024 -2.2128
 4254TIP3   OH212725   6.333   1.306   4.730  0.0534 -0.0732 -0.9403
 4254TIP3    H112726   6.406   1.350   4.685  0.3325  0.4292 -0.0142
 4254TIP3    H212727   6.299   1.372   4.790 -0.6348 -0.5769 -0.7719
 4255TIP3   OH212728   3.327   3.384   0.875 -0.4098  0.5524  0.0672
 4255TIP3    H112729   3.345   3.430   0.792 -0.2355 -0.9661 -0.7646
 4255TIP3    H212730   3.234   3.401   0.891 -0.8464 -0.4048 -1.2770
 4256TIP3   OH212731   2.942   0.866   1.566 -0.2850 -0.0757  0.0256
 4256TIP3    H112732   2.883   0.837   1.636  0.4421 -1.1136  0.2256
 4256TIP3    H212733   2.888   0.923   1.512 -0.4494  2.1796  2.3533
 4257TIP3   OH212734   4.139   0.391   1.270 -0.0481  0.7512 -0.4245
 4257TIP3    H112735   4.196   0.462   1.297 -0.2071  0.9073 -0.4996
 4257TIP3    H212736   4.075   0.383   1.341  0.1709  0.4607 -0.2575
 4258TIP3   OH212737   4.789   0.644   2.189  0.2872 -1.0753 -0.4998
 4258TIP3    H112738   4.760   0.732   2.215  0.3106 -1.3460  0.4720
 4258TIP3    H212739   4.758   0.635   2.099  1.6732  0.5440 -1.1906
 4259TIP3   OH212740   4.938   5.521   4.558 -0.4801 -0.6987  0.0105
 4259TIP3    H112741   4.879   5.513   4.483  0.6462 -0.8590 -0.8978
 4259TIP3    H212742   4.881   5.536   4.633 -1.5867  0.5879 -1.0409
 4260TIP3   OH212743   2.358   6.537   0.273 -0.2104 -0.2392 -0.1758
 4260TIP3    H112744   2.416   6.582   0.334  0.9433 -0.1676 -1.2822
 4260TIP3    H212745   2.409   6.462   0.243 -0.2486  0.4243 -1.9937
 4261TIP3   OH212746   2.780   3.632   5.261  0.6758  0.0000  0.4947
 4261TIP3    H112747   2.787   3.604   5.352 -0.8891 -0.4201  0.5149
 4261TIP3    H212748   2.750   3.723   5.265  1.6804  0.3474  0.3916
 4262TIP3   OH212749   5.917   4.726   1.736  0.3026 -0.0370 -0.6724
 4262TIP3    H112750   6.008   4.725   1.766  0.5393  1.1964 -1.2845
 4262TIP3    H212751   5.902   4.638   1.701  0.2744 -1.2708  2.1993
 4263TIP3   OH212752   4.969   4.040   3.930 -0.0395 -0.3495 -0.3677
 4263TIP3    H112753   5.016   4.064   4.010  0.0533  0.2190 -0.5859
 4263TIP3    H212754   5.023   4.074   3.859 -0.9690  0.6954 -0.6109
 4264TIP3   OH212755   5.710   3.842   5.645 -0.5192  0.0158  0.3463
 4264TIP3    H112756   5.724   3.878   5.733  0.9383 -0.5448  0.3772
 4264TIP3    H212757   5.787   3.787   5.630 -0.4503  0.5834 -1.5373
 4265TIP3   OH212758   7.111   5.365   5.747  0.4993 -0.0187  0.0922
 4265TIP3    H112759   7.126   5.307   5.822  2.1451 -0.4660 -0.5411
 4265TIP3    H212760   7.091   5.450   5.786  0.2136 -0.5043  1.0319
 4266TIP3   OH212761   2.962   0.355   5.565 -0.1142 -0.3426  0.4433
 4266TIP3    H112762   2.984   0.435   5.612 -1.6995 -0.7423  2.0151
 4266TIP3    H212763   2.875   0.371   5.529 -0.5936 -1.4308  1.0527
 4267TIP3   OH212764   2.159   0.533   3.411 -0.0342 -0.6971  0.0894
 4267TIP3    H112765   2.118   0.448   3.423 -1.2309  0.0412  1.5815
 4267TIP3    H212766   2.087   0.592   3.389  0.9269 -0.2307 -2.1143
 4268TIP3   OH212767   2.874   1.967   4.156 -0.1367 -0.1767 -0.5686
 4268TIP3    H112768   2.883   1.900   4.088 -0.3942 -0.5109 -0.2764
 4268TIP3    H212769   2.844   2.045   4.109  1.0008  0.0053 -1.0536
 4269TIP3   OH212770   7.125   0.970   5.179 -0.5682 -0.4726  0.2732
 4269TIP3    H112771   7.091   1.053   5.147  0.7563  0.5603  1.4693
 4269TIP3    H212772   7.157   0.925   5.100  0.9293  1.2143 -0.1383
 4270TIP3   OH212773   6.842   4.636   3.606 -0.1962 -0.2688 -0.1588
 4270TIP3    H112774   6.847   4.705   3.539  0.2780 -0.3665 -0.2276
 4270TIP3    H212775   6.885   4.561   3.566  1.2507  0.0474  0.7202
 4271TIP3   OH212776   1.291   4.135   4.495  0.1489  0.4709  0.1629
 4271TIP3    H112777   1.300   4.072   4.567 -1.1691  0.1416  0.0604
 4271TIP3    H212778   1.324   4.218   4.532 -0.3416  0.2686  1.0899
 4272TIP3   OH212779   5.193   5.403   5.292 -0.1588 -0.6682  0.0786
 4272TIP3    H112780   5.142   5.480   5.319 -0.1489 -1.0624  1.2953
 4272TIP3    H212781   5.251   5.386   5.366 -0.9630 -2.5378  0.3279
 4273TIP3   OH212782   3.274   4.529   1.071 -0.4022 -0.4905  0.7602
 4273TIP3    H112783   3.345   4.586   1.101 -0.8357  0.1881  0.5173
 4273TIP3    H212784   3.259   4.555   0.980 -1.6019  0.0349  1.0889
 4274TIP3   OH212785   6.061   6.384   3.001 -0.0296 -0.3829  0.7624
 4274TIP3    H112786   5.974   6.423   2.990 -0.3863 -1.6014 -1.4238
 4274TIP3    H212787   6.121   6.457   2.993 -0.7740  0.1081 -0.6458
 4275TIP3   OH212788   6.139   0.160   5.059  0.1647  0.7966  0.8450
 4275TIP3    H112789   6.084   0.237   5.047  2.0849  2.0732 -0.3444
 4275TIP3    H212790   6.222   0.194   5.091  1.2190 -0.6928 -0.1324
 4276TIP3   OH212791   5.149   2.399   1.934 -0.5877 -0.2586 -0.3135
 4276TIP3    H112792   5.185   2.311   1.944  0.9861  0.2644 -1.1151
 4276TIP3    H212793   5.208   2.443   1.872 -2.4497  0.7480 -1.4823
 4277TIP3   OH212794   0.768   6.559   1.599  0.2382  0.8352  0.2478
 4277TIP3    H112795   0.702   6.528   1.537 -0.4702  0.6290  1.0855
 4277TIP3    H212796   0.756   6.654   1.602 -0.3256  0.7554  0.7219
 4278TIP3   OH212797   0.775   5.234   3.301 -0.0452  0.1859  0.3379
 4278TIP3    H112798   0.721   5.157   3.282  0.2210  0.4874 -1.9560
 4278TIP3    H212799   0.712   5.300   3.331 -1.0828  0.5223 -2.2474
 4279TIP3   OH212800   2.967   5.902   0.325  0.0477  0.5436 -0.0870
 4279TIP3    H112801   3.014   5.821   0.304 -0.1838  0.5898 -0.8409
 4279TIP3    H212802   2.875   5.875   0.331  0.0312  0.6614  0.1615
 4280TIP3   OH212803   1.405   2.836   4.987 -0.3406  0.0654 -0.6090
 4280TIP3    H112804   1.441   2.839   5.076  0.1636  0.9150 -0.8328
 4280TIP3    H212805   1.459   2.770   4.942  1.5244  1.8578 -1.1581
 4281TIP3   OH212806   4.725   6.024   4.846  0.5499  0.3572  0.1891
 4281TIP3    H112807   4.666   6.001   4.775  1.5874 -1.1016 -0.2454
 4281TIP3    H212808   4.765   6.107   4.819  0.2372  0.2916 -0.4814
 4282TIP3   OH212809   1.005   1.640   1.960 -0.2517  0.1734 -0.2451
 4282TIP3    H112810   0.976   1.604   2.043 -0.3576  0.5510 -0.1157
 4282TIP3    H212811   0.997   1.568   1.898 -4.0633  0.9035 -0.8549
 4283TIP3   OH212812   5.706   1.865   0.383 -0.4240 -0.2869  0.3175
 4283TIP3    H112813   5.654   1.793   0.417 -1.6167 -0.9521 -2.6002
 4283TIP3    H212814   5.645   1.918   0.332  1.3530 -0.0382 -1.7169
 4284TIP3   OH212815   5.065   0.479   3.905  0.1740 -0.3991  0.4728
 4284TIP3    H112816   4.979   0.443   3.926 -0.3327  0.4128 -0.1515
 4284TIP3    H212817   5.066   0.565   3.948 -0.5005  0.8652 -1.9115
 4285TIP3   OH212818   1.028   0.496   0.222 -0.0465 -0.0953  0.1665
 4285TIP3    H112819   1.104   0.468   0.273 -0.0584 -0.4895 -0.0288
 4285TIP3    H212820   1.066   0.536   0.143 -0.0349 -2.1928 -0.9515
 4286TIP3   OH212821   6.042   5.872   3.119  0.2373  0.1263  0.2213
 4286TIP3    H112822   6.123   5.834   3.154 -1.4554 -3.0338  1.0452
 4286TIP3    H212823   5.992   5.898   3.196 -1.2477 -1.8624 -0.0071
 4287TIP3   OH212824   2.073   6.386   5.143 -0.1557  0.5431  0.0627
 4287TIP3    H112825   2.136   6.411   5.076 -0.7816 -0.4790 -0.9477
 4287TIP3    H212826   1.994   6.361   5.094 -0.5795 -0.3773  1.1613
 4288TIP3   OH212827   5.320   4.311   5.508 -0.8919  0.5072  0.1490
 4288TIP3    H112828   5.327   4.215   5.507  0.3592  0.5830 -1.1801
 4288TIP3    H212829   5.381   4.340   5.441 -1.1429  2.2654  0.6416
 4289TIP3   OH212830   7.003   6.437   0.945 -0.4769  0.4539  0.3568
 4289TIP3    H112831   6.994   6.398   1.032 -1.2420 -0.1250  0.0196
 4289TIP3    H212832   7.074   6.388   0.904 -1.5975 -0.7960 -0.1592
 4290TIP3   OH212833   2.113   5.689   0.964 -0.0743  0.0672 -0.1621
 4290TIP3    H112834   2.136   5.773   0.923  0.4537  0.3364  0.6543
 4290TIP3    H212835   2.032   5.707   1.011  0.3637  0.3076  0.5259
 4291TIP3   OH212836   3.713   0.095   0.389  0.5473  0.0152 -0.7454
 4291TIP3    H112837   3.786   0.042   0.420  0.1731 -0.0771 -0.0059
 4291TIP3    H212838   3.744   0.133   0.307  2.1739  1.5810  0.5295
 4292TIP3   OH212839   3.508   2.231   2.644  0.2747 -0.3329  0.1556
 4292TIP3    H112840   3.417   2.260   2.632 -0.0173 -1.3152 -0.1129
 4292TIP3    H212841   3.504   2.136   2.633  1.0892 -0.5691  1.6270
 4293TIP3   OH212842   5.286   1.374   0.057 -0.3174  0.3941 -0.5638
 4293TIP3    H112843   5.305   1.294   0.106  1.1796  1.3892  0.5798
 4293TIP3    H212844   5.224   1.421   0.113 -1.7010 -0.2150 -1.5359
 4294TIP3   OH212845   2.034   2.931   4.883 -0.2864  0.1872 -0.2583
 4294TIP3    H112846   1.943   2.942   4.910  0.0275  0.9262  0.5664
 4294TIP3    H212847   2.048   2.999   4.817  0.6837  2.7487  2.3544
 4295TIP3   OH212848   2.050   4.078   0.160 -0.0503  0.1700  0.5365
 4295TIP3    H112849   2.109   4.046   0.228  1.7164  0.8529 -0.6120
 4295TIP3    H212850   2.021   4.163   0.191  0.3910  0.2863  0.6317
 4296TIP3   OH212851   0.375   2.004   5.569  0.2942  0.0151  0.0174
 4296TIP3    H112852   0.300   1.990   5.627 -0.2494 -0.9901 -0.9048
 4296TIP3    H212853   0.445   2.034   5.628 -0.3385 -0.6511  1.1480
 4297TIP3   OH212854   3.863   2.607   3.271  0.1292  0.0026  0.0947
 4297TIP3    H112855   3.907   2.641   3.349 -1.5859 -0.9814  1.5695
 4297TIP3    H212856   3.871   2.512   3.277  0.8944 -0.0731 -1.5402
 4298TIP3   OH212857   5.409   4.864   5.865  0.0940  0.4222 -0.1482
 4298TIP3    H112858   5.486   4.809   5.878  0.0669  0.3660 -0.2240
 4298TIP3    H212859   5.441   4.954   5.875  0.4345  0.4682 -1.4084
 4299TIP3   OH212860   6.001   1.777   4.746 -0.4064  0.0707 -0.3538
 4299TIP3    H112861   5.980   1.841   4.814  0.9971 -0.3228  0.4960
 4299TIP3    H212862   6.043   1.830   4.677  0.7763  0.1070  0.3586
 4300TIP3   OH212863   0.300   1.173   5.494 -0.4192 -0.0513 -0.2813
 4300TIP3    H112864   0.232   1.162   5.428  1.0219  0.6527 -1.9512
 4300TIP3    H212865   0.367   1.108   5.471  0.7781  1.1988 -0.4574
 4301TIP3   OH212866   1.056   4.415   4.349  0.4605 -0.3328  0.4806
 4301TIP3    H112867   1.011   4.386   4.429  0.1715  1.1879  0.8972
 4301TIP3    H212868   1.022   4.359   4.280 -1.8339  0.5135  0.8458
 4302TIP3   OH212869   0.583   6.502   2.652 -0.2246 -0.0036  0.3249
 4302TIP3    H112870   0.595   6.579   2.596  2.4873 -0.1188  0.6099
 4302TIP3    H212871   0.651   6.441   2.624 -0.7478 -1.2916  1.7337
 4303TIP3   OH212872   6.679   6.554   5.612  0.5481  0.4198 -0.3785
 4303TIP3    H112873   6.599   6.531   5.658 -0.9782  1.0589 -2.5382
 4303TIP3    H212874   6.746   6.557   5.680 -1.5543  1.4334  1.7898
 4304TIP3   OH212875   5.442   3.737   5.588  0.3626  0.4487  0.0417
 4304TIP3    H112876   5.525   3.773   5.621  0.9686 -1.5441  0.8819
 4304TIP3    H212877   5.468   3.681   5.515 -0.6551  2.3086 -1.8603
 4305TIP3   OH212878   4.198   6.221   2.671 -0.0053  0.0087 -0.0938
 4305TIP3    H112879   4.233   6.133   2.661 -0.0034 -0.1752  1.3309
 4305TIP3    H212880   4.120   6.210   2.725 -0.4885  0.7852 -0.6116
 4306TIP3   OH212881   1.172   6.310   0.388 -0.4309 -0.1987  0.0523
 4306TIP3    H112882   1.225   6.349   0.457  0.5158 -1.9960  0.4094
 4306TIP3    H212883   1.121   6.383   0.352  0.7869  1.2038  1.0636
 4307TIP3   OH212884   5.101   6.161   4.369 -0.2524  0.0888 -0.5463
 4307TIP3    H112885   5.188   6.186   4.400 -1.5730  3.9021  0.6499
 4307TIP3    H212886   5.064   6.109   4.440 -0.0568  1.2019  0.3995
 4308TIP3   OH212887   2.543   0.499   5.227 -0.1842 -0.0013 -0.2847
 4308TIP3    H112888   2.608   0.534   5.167  0.6749  1.3006  1.3137
 4308TIP3    H212889   2.464   0.551   5.209  0.4763  1.3964  0.6103
 4309TIP3   OH212890   1.542   3.188   4.515  0.1532 -0.2062 -0.0188
 4309TIP3    H112891   1.563   3.187   4.421 -1.7090 -0.9046 -0.4759
 4309TIP3    H212892   1.553   3.279   4.541  1.9876 -0.2400 -0.5843
 4310TIP3   OH212893   3.531   4.428   0.279 -0.0489  0.1877 -0.5391
 4310TIP3    H112894   3.596   4.449   0.345 -1.2233 -1.4509  1.2562
 4310TIP3    H212895   3.502   4.339   0.301 -1.2127 -0.0499 -2.6817
 4311TIP3   OH212896   1.792   5.442   2.523  1.0427  0.4447  0.1473
 4311TIP3    H112897   1.748   5.518   2.559  0.4377  0.4961 -0.6649
 4311TIP3    H212898   1.722   5.388   2.488  1.4431 -0.6295  0.9607
 4312TIP3   OH212899   2.395   2.313   1.110  0.0741  0.4641  0.1014
 4312TIP3    H112900   2.325   2.252   1.131 -0.8904  1.1926 -0.9272
 4312TIP3    H212901   2.359   2.399   1.128  0.8738  0.8338  0.0023
 4313TIP3   OH212902   4.596   3.891   1.567  0.6609  0.0145 -0.5363
 4313TIP3    H112903   4.512   3.852   1.540 -1.4220  1.4578  3.0991
 4313TIP3    H212904   4.595   3.978   1.528  0.0785  0.2802  0.0441
 4314TIP3   OH212905   1.987   1.284   3.407 -0.6276 -0.1685 -0.2660
 4314TIP3    H112906   2.052   1.341   3.366 -0.9605 -0.0572 -0.6369
 4314TIP3    H212907   1.920   1.271   3.340 -0.8210 -0.5605  0.0002
 4315TIP3   OH212908   5.239   2.740   2.597 -0.2363  0.3345 -0.4902
 4315TIP3    H112909   5.253   2.672   2.532  0.2378  1.6060 -1.7578
 4315TIP3    H212910   5.151   2.772   2.581  0.0518  0.9722 -0.8269
 4316TIP3   OH212911   0.985   2.255   3.023 -0.0452 -0.1863  0.0509
 4316TIP3    H112912   0.957   2.273   3.113  1.9735 -2.2645  1.1833
 4316TIP3    H212913   1.021   2.338   2.992  1.6578 -0.0557  2.1632
 4317TIP3   OH212914   1.078   3.221   1.608 -0.2682 -0.2788  0.0745
 4317TIP3    H112915   1.117   3.194   1.691  1.3481  0.5823 -0.3673
 4317TIP3    H212916   1.130   3.175   1.542 -1.1170 -0.4310 -0.5014
 4318TIP3   OH212917   5.169   2.229   0.892 -0.5141  0.0914  0.2272
 4318TIP3    H112918   5.261   2.234   0.866 -0.9122 -0.8650 -1.5286
 4318TIP3    H212919   5.172   2.224   0.988  1.2622 -0.0868  0.2112
 4319TIP3   OH212920   0.221   2.608   2.250 -0.5928 -0.1066  0.5211
 4319TIP3    H112921   0.215   2.692   2.295  0.3214  0.3328 -0.1442
 4319TIP3    H212922   0.147   2.608   2.189 -0.8647  0.0158  0.8524
 4320TIP3   OH212923   6.252   0.642   0.204  0.2353 -0.5250 -0.0323
 4320TIP3    H112924   6.268   0.612   0.294  0.5782 -1.7162 -0.4718
 4320TIP3    H212925   6.319   0.710   0.190  1.4979 -1.7189 -0.0386
 4321TIP3   OH212926   1.532   3.649   2.430 -0.5466 -0.7399  0.1476
 4321TIP3    H112927   1.574   3.574   2.471  1.1331 -0.3188 -0.7324
 4321TIP3    H212928   1.581   3.724   2.462  0.2915 -0.3306 -1.9459
 4322TIP3   OH212929   2.123   6.782   0.973 -0.1149 -0.2295 -0.1864
 4322TIP3    H112930   2.214   6.752   0.968  0.5033  1.1731  1.6385
 4322TIP3    H212931   2.076   6.709   1.013 -0.0291 -1.2916 -1.8864
 4323TIP3   OH212932   2.944   4.641   0.591  0.3497  0.3968  0.1423
 4323TIP3    H112933   2.930   4.547   0.579  1.0311  0.2557  0.4058
 4323TIP3    H212934   2.862   4.674   0.627 -0.0978  0.0048 -0.5026
 4324TIP3   OH212935   4.975   3.107   0.619  0.6174 -0.7291 -0.0441
 4324TIP3    H112936   4.880   3.116   0.624  0.6885  0.2778 -0.1666
 4324TIP3    H212937   5.006   3.195   0.594  1.5810 -1.0270  0.0497
 4325TIP3   OH212938   3.842   3.266   5.251 -0.6227 -0.6811  0.2995
 4325TIP3    H112939   3.904   3.255   5.179 -0.0861  1.0311  0.4534
 4325TIP3    H212940   3.892   3.243   5.330 -0.1901  0.5390  0.4068
 4326TIP3   OH212941   4.160   6.417   1.247 -0.1820  0.1431 -0.4057
 4326TIP3    H112942   4.247   6.386   1.272 -0.4163  0.1699  0.4792
 4326TIP3    H212943   4.106   6.338   1.243 -0.8082  0.3546  1.9665
 4327TIP3   OH212944   5.004   1.140   0.634 -0.3489 -0.1338 -0.7211
 4327TIP3    H112945   4.981   1.108   0.722 -0.6524 -0.3612 -0.8828
 4327TIP3    H212946   5.094   1.110   0.621 -0.7006 -1.1320 -0.9587
 4328TIP3   OH212947   0.916   3.279   2.286  0.0719 -0.1246 -0.0596
 4328TIP3    H112948   0.996   3.292   2.337 -0.0068 -2.3076  0.7660
 4328TIP3    H212949   0.946   3.257   2.198  0.4264 -1.0092  0.2678
 4329TIP3   OH212950   5.860   5.898   1.992  0.9459 -0.2958  0.7517
 4329TIP3    H112951   5.941   5.868   1.952  0.4020  0.2926 -0.8899
 4329TIP3    H212952   5.813   5.941   1.921 -0.9472 -0.8907  1.5721
 4330TIP3   OH212953   1.335   5.696   1.067  0.5308 -0.1015 -0.6719
 4330TIP3    H112954   1.268   5.662   1.009  0.6317  0.1067 -0.9115
 4330TIP3    H212955   1.416   5.690   1.017  0.7200 -0.4984 -0.3267
 4331TIP3   OH212956   6.563   6.031   2.679  0.4445  0.0529 -0.2117
 4331TIP3    H112957   6.629   5.975   2.640  2.4009  0.1578  2.6217
 4331TIP3    H212958   6.528   5.980   2.752 -1.7602  0.4931 -0.8827
 4332TIP3   OH212959   1.457   4.649   1.966  0.3400 -0.2012  0.2666
 4332TIP3    H112960   1.533   4.700   1.993  0.6113 -0.2763 -0.3337
 4332TIP3    H212961   1.439   4.677   1.876 -0.5167  0.0176  0.4894
 4333TIP3   OH212962   6.105   0.276   1.758 -0.0018 -0.2123 -0.0447
 4333TIP3    H112963   6.072   0.255   1.671 -0.0912  0.1464 -0.0969
 4333TIP3    H212964   6.158   0.354   1.746  2.2342 -1.6646 -0.2519
 4334TIP3   OH212965   6.753   5.048   4.122 -0.1383  0.1649 -0.5136
 4334TIP3    H112966   6.734   4.991   4.196  0.0396 -0.5190 -0.9857
 4334TIP3    H212967   6.809   5.117   4.158  0.4907 -0.5339 -0.1422
 4335TIP3   OH212968   3.571   0.455   0.366 -0.1843 -0.1333 -0.4104
 4335TIP3    H112969   3.617   0.389   0.418  1.1214 -0.2489 -1.6368
 4335TIP3    H212970   3.501   0.407   0.322  1.3221 -0.9459 -2.0161
 4336TIP3   OH212971   1.454   1.927   0.202  0.1473 -0.0797 -0.1605
 4336TIP3    H112972   1.370   1.948   0.161 -0.7249 -3.0657 -0.2022
 4336TIP3    H212973   1.476   2.003   0.255 -3.8171 -0.0187  1.7509
 4337TIP3   OH212974   1.830   4.311   2.447 -0.5837 -0.3485  0.1810
 4337TIP3    H112975   1.924   4.304   2.466 -0.5774 -1.7294 -0.2386
 4337TIP3    H212976   1.787   4.298   2.531 -0.4561 -2.9166 -0.0702
 4338TIP3   OH212977   3.256   0.451   5.206  0.3976 -0.0816  0.0004
 4338TIP3    H112978   3.352   0.456   5.216  0.3492  0.5996  0.1570
 4338TIP3    H212979   3.238   0.501   5.126  0.2135 -0.6209 -0.3009
 4339TIP3   OH212980   0.445   3.203   0.906  0.2188  0.6877  0.3881
 4339TIP3    H112981   0.538   3.179   0.904  0.1876  0.4941 -1.9506
 4339TIP3    H212982   0.404   3.134   0.958  1.0057 -0.9912 -1.0983
 4340TIP3   OH212983   2.489   4.718   3.457 -0.0279 -0.3534  0.7352
 4340TIP3    H112984   2.476   4.669   3.538 -0.8142 -1.3934  0.0155
 4340TIP3    H212985   2.429   4.677   3.394 -2.5887  3.0102  0.6640
 4341TIP3   OH212986   0.714   1.803   5.654 -0.6496  0.0344 -0.1001
 4341TIP3    H112987   0.732   1.709   5.658  1.2114  0.2880 -1.3756
 4341TIP3    H212988   0.786   1.844   5.702 -2.2759  0.8013  1.8470
 4342TIP3   OH212989   3.829   0.807   2.911  0.1519 -0.4525  0.0124
 4342TIP3    H112990   3.745   0.784   2.873  0.9759  0.2224 -2.4607
 4342TIP3    H212991   3.832   0.903   2.906  1.2368 -0.4873 -0.4720
 4343TIP3   OH212992   0.790   1.697   5.153 -0.2832  1.2064  0.0207
 4343TIP3    H112993   0.758   1.778   5.112  0.2453  0.6798 -1.4797
 4343TIP3    H212994   0.789   1.632   5.083 -0.5111 -0.0601  1.1536
 4344TIP3   OH212995   0.434   3.826   5.540 -0.0467  0.2024  0.6528
 4344TIP3    H112996   0.422   3.869   5.456 -0.5110  1.5156  1.3676
 4344TIP3    H212997   0.397   3.738   5.528 -0.5451  0.5399 -0.3578
 4345TIP3   OH212998   6.922   0.957   3.047  0.2608 -0.4005 -0.3671
 4345TIP3    H112999   6.993   0.909   3.088  1.8811  0.1329 -2.3882
 4345TIP3    H213000   6.896   1.022   3.112  2.4822  0.1971 -0.0147
 4346TIP3   OH213001   4.167   5.292   0.585  0.8585  0.1145  0.2935
 4346TIP3    H113002   4.208   5.218   0.631 -1.1182  0.5337  2.9309
 4346TIP3    H213003   4.165   5.264   0.493  2.6014 -1.9278  0.7880
 4347TIP3   OH213004   5.781   5.586   1.639 -0.3379  0.5096  0.6134
 4347TIP3    H113005   5.700   5.562   1.594  0.1200 -0.8842  0.4868
 4347TIP3    H213006   5.822   5.502   1.660  1.9838  1.1627 -0.9463
 4348TIP3   OH213007   3.142   2.167   1.211 -0.3645 -0.7205  0.1609
 4348TIP3    H113008   3.103   2.167   1.298  0.6492 -1.4548  0.6274
 4348TIP3    H213009   3.215   2.106   1.217  1.4580  1.2675 -0.4091
 4349TIP3   OH213010   5.375   0.916   4.706 -0.2759 -0.4814 -0.2094
 4349TIP3    H113011   5.368   0.824   4.732 -1.3750 -0.0461  1.1432
 4349TIP3    H213012   5.316   0.924   4.631 -0.0481 -0.8924 -0.4412
 4350TIP3   OH213013   4.104   5.287   1.581  0.2709  0.2079 -0.1192
 4350TIP3    H113014   4.069   5.312   1.667 -1.9050  0.3273 -0.9895
 4350TIP3    H213015   4.111   5.191   1.586 -1.5202  0.0335 -0.3581
 4351TIP3   OH213016   3.870   4.314   4.802 -0.0614  0.3325 -0.3561
 4351TIP3    H113017   3.819   4.358   4.870 -0.3526 -0.4921 -0.0315
 4351TIP3    H213018   3.957   4.353   4.808 -0.2200  0.6118  0.1614
 4352TIP3   OH213019   3.825   4.938   5.772 -0.1646 -0.4475  0.1732
 4352TIP3    H113020   3.823   4.993   5.693 -0.6379 -0.1415  0.3960
 4352TIP3    H213021   3.918   4.923   5.788 -0.0454 -2.7736 -2.0190
 4353TIP3   OH213022   1.842   5.911   3.271  0.4338 -0.1168 -0.2254
 4353TIP3    H113023   1.797   5.843   3.322 -0.2268 -1.1572 -2.0946
 4353TIP3    H213024   1.933   5.903   3.297  0.1338 -0.7064  0.6992
 4354TIP3   OH213025   1.935   0.750   3.575 -0.3963  0.3242 -0.4115
 4354TIP3    H113026   1.948   0.670   3.626 -0.2683  0.8808  0.4420
 4354TIP3    H213027   1.926   0.719   3.485 -0.7834 -0.6896 -0.0440
 4355TIP3   OH213028   5.977   4.547   0.776  0.1946 -0.2997 -0.1638
 4355TIP3    H113029   5.884   4.553   0.756 -0.1902  1.1491  1.7994
 4355TIP3    H213030   6.017   4.618   0.725  0.1358 -0.5128 -0.5084
 4356TIP3   OH213031   5.856   5.922   4.975  0.1201  0.1654 -0.2166
 4356TIP3    H113032   5.817   5.840   4.944  0.3103 -0.2321  0.5588
 4356TIP3    H213033   5.904   5.956   4.900 -0.7456  0.0613 -0.8336
 4357TIP3   OH213034   1.197   5.824   3.081 -0.2657 -0.0255 -0.1419
 4357TIP3    H113035   1.234   5.836   2.993  0.8113  3.1558  0.6182
 4357TIP3    H213036   1.267   5.850   3.140 -1.4921 -0.5845  1.6333
 4358TIP3   OH213037   6.895   3.177   5.444 -0.3875  0.4181 -0.0220
 4358TIP3    H113038   6.834   3.128   5.500 -2.9637  1.1131 -2.0218
 4358TIP3    H213039   6.872   3.269   5.459  1.4548  0.8187  0.5001
 4359TIP3   OH213040   6.315   5.831   3.912  0.2171 -0.1994 -0.2962
 4359TIP3    H113041   6.297   5.739   3.931  1.9680 -0.5473 -0.1860
 4359TIP3    H213042   6.262   5.879   3.976 -0.5396 -1.1242 -0.2052
 4360TIP3   OH213043   7.077   2.462   2.284 -0.2806 -0.2679  0.2977
 4360TIP3    H113044   7.158   2.416   2.263 -0.4177 -0.7067  0.7043
 4360TIP3    H213045   7.054   2.431   2.372  0.0807  1.2172  0.9554
 4361TIP3   OH213046   6.730   3.082   2.516  0.0067 -0.3178 -0.1383
 4361TIP3    H113047   6.747   2.991   2.543 -1.7980 -1.2005 -1.6867
 4361TIP3    H213048   6.686   3.073   2.431 -1.1615  1.9600  0.1624
 4362TIP3   OH213049   0.493   3.537   3.046 -0.5438 -0.5673  0.5515
 4362TIP3    H113050   0.494   3.572   2.957  3.8300 -1.6572 -0.0877
 4362TIP3    H213051   0.447   3.603   3.098  0.2656  2.1248 -1.9043
 4363TIP3   OH213052   0.729   5.030   0.557 -0.2859  0.5390 -0.4243
 4363TIP3    H113053   0.666   5.092   0.521  0.1033  1.1946 -0.0041
 4363TIP3    H213054   0.676   4.964   0.601 -0.9131 -1.2201 -3.4641
 4364TIP3   OH213055   4.035   1.159   3.441  0.4327  0.1830  0.2720
 4364TIP3    H113056   4.080   1.184   3.360  1.8658 -2.9000 -0.0046
 4364TIP3    H213057   3.970   1.094   3.414 -0.1904  0.2870  1.4322
 4365TIP3   OH213058   0.161   5.520   4.178  0.2020 -0.2475  0.0996
 4365TIP3    H113059   0.114   5.599   4.206  0.4751 -0.2379  0.5600
 4365TIP3    H213060   0.198   5.543   4.093 -0.1174 -0.0452  0.0130
 4366TIP3   OH213061   4.151   2.431   5.573 -0.1225  0.4035  0.0348
 4366TIP3    H113062   4.195   2.502   5.620  2.1842  0.9002 -2.5838
 4366TIP3    H213063   4.104   2.475   5.502 -0.6578 -0.5345 -0.2145
 4367TIP3   OH213064   4.482   4.492   0.316 -0.6887  0.8100 -0.3422
 4367TIP3    H113065   4.425   4.558   0.354 -1.4917 -0.0472 -0.0036
 4367TIP3    H213066   4.555   4.541   0.278 -0.6212  1.7892  0.9941
 4368TIP3   OH213067   0.303   5.958   5.499  0.0331 -0.2870  0.5190
 4368TIP3    H113068   0.386   6.004   5.492 -0.1248 -0.2324 -1.3965
 4368TIP3    H213069   0.249   6.013   5.556  0.0396  1.6340 -1.2396
 4369TIP3   OH213070   2.923   5.586   2.030 -0.1269 -0.1127 -0.1772
 4369TIP3    H113071   2.831   5.589   2.004 -0.1739  1.1860  0.0371
 4369TIP3    H213072   2.968   5.642   1.965  0.5506 -0.9014 -0.4061
 4370TIP3   OH213073   4.117   4.499   0.617  0.0710 -0.0197  0.3279
 4370TIP3    H113074   4.143   4.465   0.703  1.2009  1.9219  0.8097
 4370TIP3    H213075   4.067   4.578   0.636  0.3111  0.4191 -0.7880
 4371TIP3   OH213076   1.942   1.370   4.165 -0.0856  0.5512 -0.0069
 4371TIP3    H113077   1.851   1.379   4.137 -0.4350  1.1744  1.2849
 4371TIP3    H213078   1.982   1.317   4.096 -1.7545 -0.9449  0.1091
 4372TIP3   OH213079   5.233   3.344   2.412  0.4418 -0.5130  0.0809
 4372TIP3    H113080   5.190   3.349   2.498 -1.4148  1.3713 -0.8485
 4372TIP3    H213081   5.324   3.321   2.432 -0.0159 -0.5234  2.5137
 4373TIP3   OH213082   4.480   1.257   0.791 -0.1922 -0.1461  0.1195
 4373TIP3    H113083   4.518   1.321   0.730 -1.3231 -0.7585 -1.3069
 4373TIP3    H213084   4.412   1.214   0.740  1.4181 -3.5040  0.5591
 4374TIP3   OH213085   3.881   6.211   3.874 -0.1927 -0.4769 -0.3490
 4374TIP3    H113086   3.858   6.130   3.829  1.1509 -0.8891 -0.3590
 4374TIP3    H213087   3.803   6.234   3.924 -1.1039 -0.9584 -1.5062
 4375TIP3   OH213088   2.537   1.129   5.041  0.2215  0.3078 -0.0108
 4375TIP3    H113089   2.489   1.211   5.031  1.1702  0.7939 -0.7800
 4375TIP3    H213090   2.469   1.062   5.043 -0.5711  1.0931  0.5641
 4376TIP3   OH213091   7.241   4.429   2.521  0.0199 -0.2054 -0.1127
 4376TIP3    H113092   7.155   4.397   2.493 -0.8520  1.3892  0.6066
 4376TIP3    H213093   7.232   4.445   2.615  0.8203  0.7930 -0.1830
 4377TIP3   OH213094   3.455   6.288   4.861 -0.3320 -0.7576  0.0139
 4377TIP3    H113095   3.385   6.236   4.901  0.0751 -0.6022  0.9497
 4377TIP3    H213096   3.448   6.268   4.768 -1.7141 -0.6286  0.0668
 4378TIP3   OH213097   6.241   0.151   0.892  0.6850  0.3270 -0.0475
 4378TIP3    H113098   6.325   0.184   0.921  0.7752 -0.5837  0.7710
 4378TIP3    H213099   6.177   0.195   0.948  0.5479  1.4533 -1.0483
 4379TIP3   OH213100   1.953   1.233   4.400  0.0894  0.2413  0.0657
 4379TIP3    H113101   1.938   1.281   4.318 -0.9731  0.5916  0.4485
 4379TIP3    H213102   1.949   1.140   4.374 -1.3634  0.3289 -0.1233
 4380TIP3   OH213103   2.371   0.130   2.674 -0.2736 -0.2905 -0.7513
 4380TIP3    H113104   2.344   0.176   2.595  0.6891  1.0238 -0.3625
 4380TIP3    H213105   2.397   0.043   2.644  1.1228  0.5313 -2.1026
 4381TIP3   OH213106   6.431   4.317   1.155  0.1981  0.0081  0.2548
 4381TIP3    H113107   6.507   4.279   1.198 -0.2230 -1.5879 -0.3032
 4381TIP3    H213108   6.461   4.401   1.121  1.8403 -0.7419 -0.2613
 4382TIP3   OH213109   0.608   1.961   2.499 -0.7331 -0.3736 -0.3797
 4382TIP3    H113110   0.631   1.955   2.592  1.0677  1.9120 -0.5892
 4382TIP3    H213111   0.691   1.968   2.454 -1.6222  0.8024 -1.9375
 4383TIP3   OH213112   3.454   3.676   0.610 -0.1765 -0.6158 -0.0284
 4383TIP3    H113113   3.454   3.698   0.703 -1.3205 -0.7898  0.0287
 4383TIP3    H213114   3.504   3.595   0.605  2.9320  1.1329 -0.0635
 4384TIP3   OH213115   6.857   1.891   5.847  0.2884  0.1546  0.3446
 4384TIP3    H113116   6.881   1.841   5.770  0.4354 -0.8132  1.0067
 4384TIP3    H213117   6.892   1.841   5.921  0.3690  1.1807  1.0330
 4385TIP3   OH213118   5.577   3.226   5.813  0.0115  0.0934 -0.2508
 4385TIP3    H113119   5.546   3.187   5.895 -1.4380 -1.3857 -1.4284
 4385TIP3    H213120   5.532   3.176   5.745  0.8834  1.5285 -1.9467
 4386TIP3   OH213121   4.587   0.439   0.013 -0.0411 -0.2017  0.2030
 4386TIP3    H113122   4.621   0.358   0.051 -0.3664 -0.4867 -0.1111
 4386TIP3    H213123   4.516   0.465   0.073  0.5849  0.2871  0.7475
 4387TIP3   OH213124   3.874   2.942   2.400  0.1189  0.5253  0.5519
 4387TIP3    H113125   3.843   2.861   2.439  0.7582  0.2150  0.4247
 4387TIP3    H213126   3.823   2.951   2.319  0.7092 -0.2488  0.0803
 4388TIP3   OH213127   0.257   3.050   0.699 -0.4982 -0.0633  0.6459
 4388TIP3    H113128   0.341   3.063   0.655 -0.8678 -0.0124 -0.0665
 4388TIP3    H213129   0.243   2.955   0.697  0.1271 -0.2000  1.8996
 4389TIP3   OH213130   6.809   4.698   1.180  0.2530  0.1917  1.0199
 4389TIP3    H113131   6.865   4.743   1.244  0.1944  2.6124 -0.5012
 4389TIP3    H213132   6.720   4.727   1.202 -0.0190 -0.7242  1.1690
 4390TIP3   OH213133   5.916   3.896   5.159  0.3278  0.3708  0.1774
 4390TIP3    H113134   5.913   3.982   5.201 -0.5393  0.6806 -0.4900
 4390TIP3    H213135   5.842   3.848   5.197 -0.0057  0.3929 -0.4362
 4391TIP3   OH213136   4.510   3.782   5.602  0.2023 -0.4838 -0.1158
 4391TIP3    H113137   4.462   3.795   5.684  0.3822 -0.1717 -0.0554
 4391TIP3    H213138   4.550   3.868   5.584 -0.2341 -0.4112 -0.7841
 4392TIP3   OH213139   5.568   1.720   1.087 -0.5343 -0.0102 -0.0400
 4392TIP3    H113140   5.478   1.753   1.089 -0.4214  0.2778  0.2062
 4392TIP3    H213141   5.616   1.784   1.034 -0.4026  0.0125  0.1064
 4393TIP3   OH213142   3.585   4.233   5.623 -0.2359 -0.5747  0.0584
 4393TIP3    H113143   3.595   4.302   5.558  0.5185  2.0404  2.7234
 4393TIP3    H213144   3.503   4.254   5.668  0.4233 -0.8960  1.4724
 4394TIP3   OH213145   7.241   1.670   0.372  0.3300  0.5410 -0.3105
 4394TIP3    H113146   7.190   1.738   0.415 -0.0709  0.5029 -0.7232
 4394TIP3    H213147   7.205   1.664   0.283 -0.4112 -0.9985  0.0627
 4395TIP3   OH213148   2.218   4.288   4.022 -0.2989  0.4614  0.2030
 4395TIP3    H113149   2.213   4.193   4.027  2.6949  0.1541 -0.6432
 4395TIP3    H213150   2.164   4.311   3.947  1.8951 -1.0836 -2.0282
 4396TIP3   OH213151   4.972   5.615   3.250 -0.0839 -0.0313 -0.1688
 4396TIP3    H113152   4.965   5.691   3.309  0.8700  0.4406 -0.6396
 4396TIP3    H213153   4.954   5.540   3.306  0.4081  0.4396  0.6359
 4397TIP3   OH213154   2.372   1.992   4.887  0.0619  0.7912  0.0366
 4397TIP3    H113155   2.368   2.062   4.953 -0.2620  0.5783  0.2459
 4397TIP3    H213156   2.427   2.028   4.818  0.4539  0.9971  0.4481
 4398TIP3   OH213157   4.091   0.412   4.549  0.5648  0.1498  0.2787
 4398TIP3    H113158   4.124   0.449   4.467 -3.0818 -0.6167 -1.8068
 4398TIP3    H213159   4.056   0.487   4.597  1.2649  0.4169  0.3806
 4399TIP3   OH213160   5.980   4.509   1.055 -0.1022  1.0877 -0.3743
 4399TIP3    H113161   5.973   4.516   0.960 -2.5028 -0.4738 -0.3949
 4399TIP3    H213162   5.983   4.600   1.085  0.3029  1.6191 -1.8935
 4400TIP3   OH213163   4.022   6.764   0.773 -0.5728 -0.3032 -0.6109
 4400TIP3    H113164   3.948   6.822   0.793 -0.9048 -1.0558  0.3932
 4400TIP3    H213165   3.984   6.676   0.774 -0.5019 -0.5117 -4.0088
 4401TIP3   OH213166   6.638   2.448   1.047  0.4592 -0.2414 -0.3123
 4401TIP3    H113167   6.667   2.396   0.972 -1.2115 -0.3939 -0.8977
 4401TIP3    H213168   6.699   2.425   1.117  0.3466 -2.3317 -0.8199
 4402TIP3   OH213169   6.940   5.530   2.405  0.5814  0.0616  0.3583
 4402TIP3    H113170   7.034   5.538   2.386  0.5954  1.2950  0.8808
 4402TIP3    H213171   6.901   5.610   2.369 -0.5286 -1.1247 -1.2242
 4403TIP3   OH213172   4.816   0.720   4.049 -0.7192  0.4407 -0.0401
 4403TIP3    H113173   4.883   0.762   3.994  0.7436 -0.6215  0.8636
 4403TIP3    H213174   4.756   0.678   3.987  1.1277 -1.0907 -0.8715
 4404TIP3   OH213175   1.664   5.850   5.271 -0.2972 -0.2297  0.1333
 4404TIP3    H113176   1.726   5.812   5.333 -1.7132  0.0086  1.7526
 4404TIP3    H213177   1.596   5.889   5.325 -1.4426  0.2530 -1.5714
 4405TIP3   OH213178   2.907   3.279   0.273 -0.2112  0.6924 -0.5180
 4405TIP3    H113179   2.889   3.187   0.292 -0.4631  0.8044 -0.2048
 4405TIP3    H213180   2.856   3.327   0.338  2.6859  0.9925  1.7449
 4406TIP3   OH213181   0.495   2.634   4.463 -0.0481 -0.0382 -0.3528
 4406TIP3    H113182   0.472   2.708   4.520  1.4337 -0.1594  0.4426
 4406TIP3    H213183   0.589   2.644   4.447  0.7032 -2.9187  1.5646
 4407TIP3   OH213184   6.871   3.092   2.818  0.0877 -0.2231 -0.1063
 4407TIP3    H113185   6.780   3.123   2.823 -0.3270 -1.5191  1.2330
 4407TIP3    H213186   6.864   3.004   2.780  0.6863 -0.6650  0.7891
 4408TIP3   OH213187   3.041   4.820   2.839  0.9715  0.5764 -0.4665
 4408TIP3    H113188   2.949   4.796   2.839  1.2621 -0.6093  0.4004
 4408TIP3    H213189   3.052   4.872   2.919  1.1759  0.2138 -0.2584
 4409TIP3   OH213190   2.069   1.249   2.826  0.2858  0.0537 -0.6139
 4409TIP3    H113191   2.097   1.237   2.735 -1.1336  0.1659 -1.0867
 4409TIP3    H213192   2.030   1.336   2.828  2.9513  1.3444  0.8363
 4410TIP3   OH213193   1.824   5.829   0.057 -0.0875 -0.0616 -0.2974
 4410TIP3    H113194   1.759   5.855  -0.008 -0.0062  2.0572  0.3903
 4410TIP3    H213195   1.783   5.755   0.103 -1.7297  0.7486 -0.3714
 4411TIP3   OH213196   5.135   3.650   5.511 -0.1613 -0.1244  0.6045
 4411TIP3    H113197   5.225   3.683   5.516  0.6412 -2.0436 -0.2918
 4411TIP3    H213198   5.120   3.606   5.595  0.2357 -0.9905  0.2236
 4412TIP3   OH213199   6.421   1.932   0.767 -0.2579 -0.3156  0.4559
 4412TIP3    H113200   6.344   1.946   0.712  0.2124  0.7825  0.0438
 4412TIP3    H213201   6.422   1.837   0.783 -0.8448 -0.5466 -0.7605
 4413TIP3   OH213202   3.667   4.467   3.825  0.3911 -0.0252 -0.1122
 4413TIP3    H113203   3.717   4.547   3.812  0.8674 -0.5264 -1.5047
 4413TIP3    H213204   3.727   4.396   3.801 -0.3037 -0.7611  0.2445
 4414TIP3   OH213205   4.854   0.148   2.670 -0.7876  0.4155  0.3584
 4414TIP3    H113206   4.816   0.126   2.585  0.2236 -0.2019  0.0434
 4414TIP3    H213207   4.780   0.147   2.730 -1.0749 -2.7670  0.1408
 4415TIP3   OH213208   6.285   5.222   0.662 -0.2186  0.7354 -0.1732
 4415TIP3    H113209   6.315   5.190   0.577  1.2117  1.3309  0.0704
 4415TIP3    H213210   6.226   5.154   0.694 -0.5890  0.3983 -1.5344
 4416TIP3   OH213211   6.272   1.241   2.228 -0.0438 -0.3879  0.3566
 4416TIP3    H113212   6.266   1.167   2.288  0.4748 -1.1156 -0.4620
 4416TIP3    H213213   6.243   1.317   2.279 -0.6306 -1.1611  1.1890
 4417TIP3   OH213214   1.056   1.436   1.793  0.0236 -0.2622 -0.6453
 4417TIP3    H113215   1.035   1.362   1.850  0.0157  0.3985  0.2347
 4417TIP3    H213216   1.080   1.397   1.709  2.6817 -1.4507  0.5541
 4418TIP3   OH213217   5.681   0.461   4.746  0.2589 -0.0494 -0.1932
 4418TIP3    H113218   5.758   0.517   4.752  0.8711 -0.6494 -1.8835
 4418TIP3    H213219   5.610   0.519   4.719  0.2413  0.3875  0.7574
 4419TIP3   OH213220   0.673   5.091   4.407  0.1886  0.2602  0.4160
 4419TIP3    H113221   0.578   5.101   4.402  0.2442  0.7040  0.1753
 4419TIP3    H213222   0.707   5.178   4.384  0.6416  0.2278  0.9713
 4420TIP3   OH213223   0.968   3.649   3.942 -0.2060  0.2506  0.1372
 4420TIP3    H113224   0.921   3.568   3.924 -1.5926  1.7979 -5.3208
 4420TIP3    H213225   1.061   3.626   3.936 -0.5860 -0.9503 -2.1774
 4421TIP3   OH213226   2.840   4.330   0.973 -0.0953 -0.5008 -0.1083
 4421TIP3    H113227   2.920   4.356   1.019 -0.6891 -0.7716  1.1320
 4421TIP3    H213228   2.871   4.285   0.894  0.9586 -0.0203  0.0130
 4422TIP3   OH213229   7.025   4.348   1.251 -0.4968  0.1737  0.7213
 4422TIP3    H113230   7.011   4.268   1.303 -2.2677 -0.9268 -1.2758
 4422TIP3    H213231   7.039   4.316   1.162 -1.5912  2.0832 -0.2057
 4423TIP3   OH213232   3.881   4.660   5.341  0.4049 -0.1487 -0.4757
 4423TIP3    H113233   3.815   4.695   5.281  2.3232 -1.4637 -3.6541
 4423TIP3    H213234   3.957   4.716   5.329  0.8160 -0.3685  0.8975
 4424TIP3   OH213235   5.351   6.438   2.083  0.0223  0.1234  0.5090
 4424TIP3    H113236   5.376   6.445   1.990 -0.1361 -1.8680  0.2592
 4424TIP3    H213237   5.307   6.521   2.103  1.9883  1.4935 -0.5623
 4425TIP3   OH213238   7.086   3.379   0.009 -0.5857 -0.3349 -0.1357
 4425TIP3    H113239   7.165   3.325   0.008 -0.0652  0.2996  1.6080
 4425TIP3    H213240   7.014   3.317   0.006  0.0023 -1.0862  0.7285
 4426TIP3   OH213241   3.279   3.453   0.612  0.3598  0.5270 -0.4310
 4426TIP3    H113242   3.318   3.536   0.585  0.1646  0.2594 -1.6148
 4426TIP3    H213243   3.313   3.389   0.549  1.3776 -0.5196  1.1058
 4427TIP3   OH213244   0.208   2.832   4.408 -0.8559  0.3291 -0.5879
 4427TIP3    H113245   0.290   2.859   4.450 -0.9627 -0.5157  0.1901
 4427TIP3    H213246   0.234   2.763   4.348 -0.8788  0.6844 -1.0107
 4428TIP3   OH213247   3.013   6.480   3.484 -0.1723 -0.2850 -0.3579
 4428TIP3    H113248   3.060   6.488   3.567 -3.0481  2.2724  1.1945
 4428TIP3    H213249   2.942   6.419   3.502  0.3803 -1.3701 -1.6486
 4429TIP3   OH213250   2.627   1.733   2.140 -1.0483  0.3276 -0.0706
 4429TIP3    H113251   2.702   1.675   2.155 -0.0218  1.7051  0.3461
 4429TIP3    H213252   2.585   1.742   2.225 -0.8372  0.6590  0.0031
 4430TIP3   OH213253   2.890   0.425   4.975  0.6496  0.4963 -0.2229
 4430TIP3    H113254   2.891   0.330   4.984  1.0202  0.5597  0.4570
 4430TIP3    H213255   2.939   0.457   5.050  2.2785  1.1615 -1.5186
 4431TIP3   OH213256   0.740   2.028   1.134  0.2235  0.5651  0.0314
 4431TIP3    H113257   0.756   1.995   1.046 -0.8679  0.2937 -0.0677
 4431TIP3    H213258   0.790   1.969   1.191  1.5808  1.2182 -0.4446
 4432TIP3   OH213259   0.622   4.849   3.589  0.7038  0.1345  0.5188
 4432TIP3    H113260   0.598   4.793   3.516  0.0287 -0.4050  1.1360
 4432TIP3    H213261   0.541   4.895   3.612  0.8469  0.1379  1.0491
 4433TIP3   OH213262   3.164   6.649   4.526 -0.0828 -0.1842  0.4033
 4433TIP3    H113263   3.187   6.716   4.591  0.0751  1.7042 -1.4715
 4433TIP3    H213264   3.241   6.592   4.523  1.5411  1.8896 -0.6943
 4434TIP3   OH213265   3.870   6.543   0.822  0.5224  0.2742 -0.0239
 4434TIP3    H113266   3.801   6.600   0.856 -0.5718 -0.7323 -0.4745
 4434TIP3    H213267   3.857   6.460   0.867  1.3118  0.0036 -0.2812
 4435TIP3   OH213268   2.584   3.284   1.262  0.2939  0.3522 -0.0334
 4435TIP3    H113269   2.530   3.270   1.185 -0.7135 -0.6019  0.7988
 4435TIP3    H213270   2.637   3.205   1.268  0.9478  0.7760 -0.1921
 4436TIP3   OH213271   1.674   6.460   5.595 -0.3078 -0.3741  0.1635
 4436TIP3    H113272   1.706   6.546   5.621  0.3761 -0.0249 -1.6839
 4436TIP3    H213273   1.742   6.426   5.537 -1.2274 -1.5636 -0.2655
 4437TIP3   OH213274   2.148   1.946   4.467 -0.5493  0.0013  0.1919
 4437TIP3    H113275   2.201   1.983   4.396  1.0338  0.0942  1.3790
 4437TIP3    H213276   2.192   1.864   4.489 -0.2780  0.5723  1.8888
 4438TIP3   OH213277   7.115   4.670   3.339 -0.0641 -0.1686 -0.4186
 4438TIP3    H113278   7.049   4.739   3.348 -0.1665 -0.3342  0.1858
 4438TIP3    H213279   7.199   4.715   3.351  0.0517  0.3060 -2.6642
 4439TIP3   OH213280   4.995   5.528   4.127 -0.4244 -1.1326  0.0422
 4439TIP3    H113281   4.982   5.621   4.144 -1.2390 -1.1257 -0.5782
 4439TIP3    H213282   4.999   5.488   4.214 -4.1470 -1.0615  0.4236
 4440TIP3   OH213283   5.891   1.360   4.985 -0.1533 -0.2694 -0.2394
 4440TIP3    H113284   5.903   1.455   4.998  1.2922 -0.4039 -0.3644
 4440TIP3    H213285   5.963   1.321   5.034  0.9269 -1.1653 -2.3995
 4441TIP3   OH213286   3.060   0.956   2.574  0.0279  0.0084 -0.2319
 4441TIP3    H113287   3.050   0.970   2.480 -0.4255  0.7772 -0.0809
 4441TIP3    H213288   2.988   0.898   2.597 -1.1970  1.5430 -0.0102
 4442TIP3   OH213289   6.453   5.189   5.563 -0.3496  0.5122 -0.6229
 4442TIP3    H113290   6.432   5.282   5.550  0.1253  0.3940 -2.4819
 4442TIP3    H213291   6.387   5.142   5.511  0.4832 -0.1077 -1.1462
 4443TIP3   OH213292   0.035   1.344   4.931  0.4898  0.2026 -0.5973
 4443TIP3    H113293   0.105   1.398   4.894  0.1513  1.8281  0.9891
 4443TIP3    H213294   0.067   1.318   5.017 -0.2730 -0.2461 -0.4399
 4444TIP3   OH213295   0.988   6.341   4.014 -0.0252  0.3179  0.2822
 4444TIP3    H113296   0.911   6.389   4.045 -0.4429  0.5100 -0.9817
 4444TIP3    H213297   1.044   6.333   4.091 -1.4895 -0.2162  1.3568
 4445TIP3   OH213298   5.264   3.442   4.444  0.0597  0.1019  0.0634
 4445TIP3    H113299   5.310   3.489   4.374  0.4784 -1.4279 -0.7124
 4445TIP3    H213300   5.199   3.390   4.398  0.7954 -1.4557  0.7399
 4446TIP3   OH213301   2.480   1.819   5.078 -0.1581 -0.0216  0.0794
 4446TIP3    H113302   2.444   1.878   5.012  0.4303  0.7620  0.4360
 4446TIP3    H213303   2.463   1.863   5.162 -0.2486 -0.6502  0.3964
 4447TIP3   OH213304   4.068   0.042   4.841 -0.1726  0.6103 -1.0012
 4447TIP3    H113305   3.984  -0.004   4.833  0.2507 -0.6258  0.8378
 4447TIP3    H213306   4.088   0.071   4.753 -1.5951 -0.7854 -1.8430
 4448TIP3   OH213307   3.276   2.272   1.764  0.1235 -0.0888  0.4210
 4448TIP3    H113308   3.328   2.289   1.686  1.2247  1.3455  1.3995
 4448TIP3    H213309   3.246   2.358   1.792  1.1101 -0.3286  2.4378
 4449TIP3   OH213310   4.968   3.410   1.386 -0.4588  0.0164  0.6660
 4449TIP3    H113311   4.877   3.428   1.362 -0.2714 -0.0402 -0.0979
 4449TIP3    H213312   5.010   3.496   1.387 -0.3859 -0.0177  0.4651
 4450TIP3   OH213313   1.827   4.808   4.506 -0.4599 -0.3057  0.3912
 4450TIP3    H113314   1.800   4.773   4.591  1.3493 -0.8531  0.7789
 4450TIP3    H213315   1.894   4.747   4.475 -0.4685  0.3679 -1.0313
 4451TIP3   OH213316   2.679   0.061   3.360  0.5325  0.6716 -0.3500
 4451TIP3    H113317   2.669   0.002   3.285 -0.6460  1.3164 -0.7318
 4451TIP3    H213318   2.677   0.149   3.322 -0.2334  1.0123  0.4312
 4452TIP3   OH213319   1.782   1.222   3.206  0.3468  0.0674 -0.5353
 4452TIP3    H113320   1.812   1.208   3.116 -1.8922 -1.3445 -1.1280
 4452TIP3    H213321   1.722   1.295   3.200 -0.9523 -0.9646 -0.4973
 4453TIP3   OH213322   2.907   1.192   3.928 -0.1692  0.3147 -0.2429
 4453TIP3    H113323   2.882   1.110   3.971 -0.6671  0.8598  0.5264
 4453TIP3    H213324   2.833   1.214   3.872 -0.1735  0.4077 -0.2013
 4454TIP3   OH213325   5.003   0.875   2.193 -0.1895  0.5611  0.6651
 4454TIP3    H113326   4.946   0.807   2.156 -1.0606  1.2278  0.7354
 4454TIP3    H213327   4.952   0.912   2.265  0.5084  0.9018  0.9923
 4455TIP3   OH213328   2.138   0.670   5.221 -0.5150 -0.1211 -0.3731
 4455TIP3    H113329   2.222   0.678   5.176 -0.8330  0.3403 -0.8994
 4455TIP3    H213330   2.117   0.760   5.247 -1.1343 -0.1490 -0.7711
 4456TIP3   OH213331   1.619   0.231   3.231  0.0851  0.1307 -0.2470
 4456TIP3    H113332   1.587   0.212   3.143 -0.9201  0.0845  0.1096
 4456TIP3    H213333   1.557   0.296   3.265  0.6150  0.3401  0.3313
 4457TIP3   OH213334   1.346   3.008   2.502  0.1944  0.3808 -0.1231
 4457TIP3    H113335   1.324   2.931   2.555  0.8600 -0.2456 -0.7198
 4457TIP3    H213336   1.426   3.042   2.541 -0.5003  1.2322  0.5941
 4458TIP3   OH213337   5.055   3.147   2.855 -0.0262  0.3464  0.0765
 4458TIP3    H113338   5.022   3.079   2.914  0.6612 -0.1939 -0.1406
 4458TIP3    H213339   5.066   3.102   2.771 -2.0866  1.3880 -0.8073
 4459TIP3   OH213340   0.331   0.742   5.500 -0.3537 -0.5431  0.3873
 4459TIP3    H113341   0.244   0.778   5.515 -0.2877 -0.8358  1.5491
 4459TIP3    H213342   0.335   0.663   5.555 -0.4254 -2.2531 -1.9174
 4460TIP3   OH213343   0.944   1.404   3.992 -0.3464  0.4002  0.7765
 4460TIP3    H113344   0.864   1.449   4.021 -2.2219 -1.8385 -0.5300
 4460TIP3    H213345   0.945   1.323   4.043 -0.0939 -0.5441 -0.6772
 4461TIP3   OH213346   5.477   3.281   2.503  0.7841 -0.1781  0.6600
 4461TIP3    H113347   5.523   3.219   2.446 -0.1375 -0.9864  0.7904
 4461TIP3    H213348   5.546   3.340   2.533  1.2926  0.3749 -1.4077
 4462TIP3   OH213349   6.456   0.416   0.351 -0.5259  0.4452  0.0374
 4462TIP3    H113350   6.515   0.423   0.276  1.6467 -1.9163  1.3657
 4462TIP3    H213351   6.400   0.341   0.330 -0.3609  0.1929  0.5060
 4463TIP3   OH213352   4.198   2.909   4.240 -0.5891 -0.2476 -0.3347
 4463TIP3    H113353   4.224   2.876   4.154 -0.1284  0.0764 -0.3205
 4463TIP3    H213354   4.188   3.003   4.227  1.6156  0.1495  0.4672
 4464TIP3   OH213355   2.900   5.516   1.604  0.1491 -0.5906 -0.1462
 4464TIP3    H113356   2.941   5.573   1.669  1.1878 -0.4909 -0.8658
 4464TIP3    H213357   2.974   5.475   1.559 -0.5423 -0.3318 -1.5537
 4465TIP3   OH213358   4.472   4.830   2.843 -0.1985  0.3051 -0.2912
 4465TIP3    H113359   4.379   4.809   2.848  0.2863 -1.9005  0.8994
 4465TIP3    H213360   4.500   4.834   2.934  0.5655  2.6816 -0.5857
 4466TIP3   OH213361   6.977   6.120   1.509 -0.1099  0.6845  0.4876
 4466TIP3    H113362   6.889   6.118   1.547 -0.5045  2.6107 -0.1952
 4466TIP3    H213363   7.022   6.190   1.556  0.7134  0.4054  0.1283
 4467TIP3   OH213364   3.065   3.617   2.081  0.6329 -0.4108 -0.0686
 4467TIP3    H113365   3.087   3.575   1.997 -2.4154  0.8933 -1.6908
 4467TIP3    H213366   2.971   3.601   2.091  0.4198  1.6331  1.8356
 4468TIP3   OH213367   5.743   4.692   0.267 -0.1339 -0.1524  0.1214
 4468TIP3    H113368   5.740   4.603   0.302 -0.4060 -0.6144 -1.0415
 4468TIP3    H213369   5.667   4.735   0.306 -0.2345 -0.5513  0.3734
 4469TIP3   OH213370   6.216   5.769   4.815 -0.4373 -0.1427  0.9176
 4469TIP3    H113371   6.139   5.754   4.760 -1.2765 -0.3518  2.1008
 4469TIP3    H213372   6.285   5.716   4.776 -1.2730 -1.0364  0.6170
 4470TIP3   OH213373   5.755   3.252   2.167 -0.1477 -0.6614 -0.1834
 4470TIP3    H113374   5.735   3.199   2.090 -0.1118 -1.3133  0.2444
 4470TIP3    H213375   5.713   3.205   2.240 -0.9999  0.4448  0.0777
 4471TIP3   OH213376   1.276   6.421   4.827  0.0138  0.0084  0.9814
 4471TIP3    H113377   1.190   6.427   4.786  0.7684 -0.0314 -0.6986
 4471TIP3    H213378   1.262   6.451   4.916 -1.7494 -0.0644  0.7758
 4472TIP3   OH213379   1.175   0.941   4.909  0.0934  0.3818  0.0413
 4472TIP3    H113380   1.204   0.867   4.856 -0.4784  0.5914 -0.5851
 4472TIP3    H213381   1.256   0.982   4.940  0.5058  1.1862 -1.9699
 4473TIP3   OH213382   0.503   2.411   3.844 -0.3667  0.3096  0.0792
 4473TIP3    H113383   0.410   2.389   3.845 -0.5451  0.6566  3.8162
 4473TIP3    H213384   0.506   2.505   3.864  0.7956  0.6179 -1.3829
 4474TIP3   OH213385   1.028   0.298   3.410 -0.7322  0.4520 -0.4406
 4474TIP3    H113386   0.962   0.230   3.421 -0.4232 -0.1232 -1.9584
 4474TIP3    H213387   1.111   0.251   3.406 -0.6420  0.6790 -3.2017
 4475TIP3   OH213388   4.382   3.236   2.243  0.0211 -0.6891 -0.2974
 4475TIP3    H113389   4.329   3.196   2.311  2.1831  0.0650  2.0008
 4475TIP3    H213390   4.433   3.164   2.206  1.4494 -0.6949  1.4952
 4476TIP3   OH213391   1.704   2.923   3.458 -0.1827 -0.3807  0.0647
 4476TIP3    H113392   1.673   2.890   3.542 -0.4016 -1.0101 -0.2538
 4476TIP3    H213393   1.752   3.003   3.480  0.6465 -1.0819  0.9021
 4477TIP3   OH213394   1.594   4.573   1.307  0.2470 -0.3924 -0.4274
 4477TIP3    H113395   1.553   4.510   1.247 -0.1082 -0.9502  0.3771
 4477TIP3    H213396   1.639   4.518   1.371  1.7190  0.2107 -0.9091
 4478TIP3   OH213397   5.972   0.368   5.114  0.1302 -0.1921  0.2242
 4478TIP3    H113398   6.015   0.358   5.199 -1.2058 -2.2885  0.7203
 4478TIP3    H213399   5.904   0.434   5.129 -0.3119 -0.7859  0.8844
 4479TIP3   OH213400   0.189   1.017   0.081  0.0043  0.4446  0.3785
 4479TIP3    H113401   0.113   1.044   0.030 -1.3320  0.5505  2.3137
 4479TIP3    H213402   0.192   1.079   0.155  1.0634 -0.4762  1.1492
 4480TIP3   OH213403   2.255   6.133   2.433  0.2219 -0.2027  0.4005
 4480TIP3    H113404   2.304   6.078   2.372 -1.1300 -1.0280  0.0173
 4480TIP3    H213405   2.285   6.106   2.519  0.4022 -0.7288  0.1743
 4481TIP3   OH213406   0.532   4.628   4.575 -0.0637  0.2046  0.6097
 4481TIP3    H113407   0.447   4.662   4.550 -0.0873  2.4992  3.2934
 4481TIP3    H213408   0.593   4.700   4.558  0.9703 -0.6097  0.7741
 4482TIP3   OH213409   0.662   4.668   3.080  0.0134  0.0213  0.0194
 4482TIP3    H113410   0.677   4.690   2.988 -0.0864  2.6268  0.5562
 4482TIP3    H213411   0.568   4.682   3.093 -0.2318 -1.5808  0.2756
 4483TIP3   OH213412   3.420   4.577   3.106 -0.2668 -0.0291  0.0093
 4483TIP3    H113413   3.507   4.617   3.105 -0.0381 -0.3586  2.0727
 4483TIP3    H213414   3.362   4.646   3.074  0.5708  0.7156  0.0568
 4484TIP3   OH213415   6.092   2.072   3.554  0.5336 -0.6785 -0.1220
 4484TIP3    H113416   6.041   1.992   3.569  0.7002 -0.7897 -0.1488
 4484TIP3    H213417   6.113   2.104   3.641 -1.0359  0.3058 -0.0591
 4485TIP3   OH213418   2.810   2.388   0.289 -0.4995  0.5592 -0.0554
 4485TIP3    H113419   2.887   2.440   0.265 -0.1340  0.6047  1.1143
 4485TIP3    H213420   2.811   2.314   0.228  0.3164  0.7066 -0.2347
 4486TIP3   OH213421   2.308   4.527   2.438  0.0937 -0.5395  0.2084
 4486TIP3    H113422   2.379   4.525   2.503 -0.8823  0.0695  1.3315
 4486TIP3    H213423   2.349   4.562   2.359  1.9045 -3.4830 -0.3189
 4487TIP3   OH213424   7.162   5.487   1.833 -0.2185 -0.1673  0.2728
 4487TIP3    H113425   7.114   5.480   1.916  0.0281  1.3391  0.5840
 4487TIP3    H213426   7.153   5.579   1.809 -0.3647 -0.6084 -1.4402
 4488TIP3   OH213427   2.202   6.426   4.000  0.2604 -0.0016  0.3822
 4488TIP3    H113428   2.203   6.375   4.081 -2.2728 -2.1364 -0.7695
 4488TIP3    H213429   2.116   6.469   4.000  0.0852 -0.2982 -1.2806
 4489TIP3   OH213430   5.246   2.486   1.332 -0.1773 -0.3323 -0.3841
 4489TIP3    H113431   5.243   2.547   1.259  0.0801  1.1220  0.7565
 4489TIP3    H213432   5.306   2.527   1.395 -0.3196 -1.5700  0.6075
 4490TIP3   OH213433   0.775   5.664   1.801 -0.5020 -0.6461  0.1278
 4490TIP3    H113434   0.863   5.665   1.840 -0.9987 -0.7490  1.2994
 4490TIP3    H213435   0.767   5.749   1.757  0.0284 -0.4688  0.3669
 4491TIP3   OH213436   0.914   4.047   4.745  0.3394 -0.2854  0.0907
 4491TIP3    H113437   0.989   4.068   4.800 -0.0602  0.4616  0.3659
 4491TIP3    H213438   0.839   4.084   4.792 -0.1680 -0.7911 -0.3113
 4492TIP3   OH213439   6.669   4.975   3.811 -0.3619 -0.2913 -0.4288
 4492TIP3    H113440   6.652   4.946   3.721 -0.6695  1.0851 -0.8381
 4492TIP3    H213441   6.587   5.015   3.840  0.2993  0.9783 -0.2394
 4493TIP3   OH213442   4.891   1.892   2.237 -0.0035 -0.4404 -0.3336
 4493TIP3    H113443   4.826   1.922   2.173  0.2139 -0.1890 -0.4412
 4493TIP3    H213444   4.973   1.932   2.207  0.0383 -0.0509  0.2958
 4494TIP3   OH213445   1.260   3.128   5.089  0.2022  0.5179 -0.4750
 4494TIP3    H113446   1.257   3.180   5.169 -1.9275 -1.9057  1.1716
 4494TIP3    H213447   1.346   3.085   5.091  1.2134  2.3902 -0.9162
 4495TIP3   OH213448   3.818   2.413   2.900  0.3010  0.6233 -0.0877
 4495TIP3    H113449   3.828   2.336   2.843  0.3195  0.0705  0.6407
 4495TIP3    H213450   3.728   2.441   2.886 -0.4756 -0.9429  1.3171
 4496TIP3   OH213451   1.158   0.489   2.569  0.0509 -0.5425 -0.2958
 4496TIP3    H113452   1.106   0.409   2.581 -2.2718  0.9888  0.7216
 4496TIP3    H213453   1.122   0.550   2.633 -0.2207  2.2088 -2.8648
 4497TIP3   OH213454   3.906   1.354   0.321 -0.1580 -0.2595 -0.2617
 4497TIP3    H113455   3.892   1.389   0.233 -0.0796  0.7531  0.1150
 4497TIP3    H213456   3.888   1.428   0.379  2.2478 -0.1599  0.4705
 4498TIP3   OH213457   3.942   1.108   2.316 -0.7043  0.5262  0.2164
 4498TIP3    H113458   3.987   1.185   2.283 -0.6357  0.3463 -0.1217
 4498TIP3    H213459   3.850   1.121   2.290 -0.6660  0.4266  0.0257
 4499TIP3   OH213460   7.093   1.297   4.693  0.3656  0.4042 -0.4128
 4499TIP3    H113461   7.009   1.338   4.711  0.3684  0.6419 -0.9303
 4499TIP3    H213462   7.149   1.322   4.767  0.1627  0.7548 -0.3766
 4500TIP3   OH213463   1.817   4.512   1.113  0.1116  0.3522  0.0026
 4500TIP3    H113464   1.802   4.421   1.138 -0.3397  0.7571  1.3371
 4500TIP3    H213465   1.759   4.562   1.170 -1.0665  1.3921 -2.0161
 4501TIP3   OH213466   2.485   4.917   3.963  0.7843  0.2330  0.5488
 4501TIP3    H113467   2.547   4.927   3.890 -1.1686 -0.3514 -1.3022
 4501TIP3    H213468   2.431   4.842   3.937 -0.4426  0.4691  2.2914
 4502TIP3   OH213469   0.964   2.614   1.258  0.4891  0.2683 -0.1821
 4502TIP3    H113470   0.888   2.577   1.304 -0.2776  0.9893 -0.8376
 4502TIP3    H213471   0.956   2.709   1.270 -0.1739  0.5553 -2.4056
 4503TIP3   OH213472   1.598   2.988   5.611  0.3128 -0.2047 -0.1630
 4503TIP3    H113473   1.687   2.991   5.645  0.5187  0.6951 -0.7422
 4503TIP3    H213474   1.602   2.929   5.536  0.6718  0.6921 -0.8594
 4504TIP3   OH213475   0.997   4.958   1.241 -0.0072  0.2814  0.0593
 4504TIP3    H113476   0.990   5.038   1.292 -0.1905 -0.0611  0.5824
 4504TIP3    H213477   0.945   4.975   1.163  0.4504  0.8893 -0.1214
 4505TIP3   OH213478   7.063   2.068   2.726  0.2605 -0.6634  0.1617
 4505TIP3    H113479   7.135   2.130   2.721  0.7304 -1.2782 -1.0993
 4505TIP3    H213480   7.062   2.039   2.817  0.6561  0.4417  0.5293
 4506TIP3   OH213481   1.472   3.799   1.493 -0.6309  0.2921 -0.4163
 4506TIP3    H113482   1.520   3.805   1.411  2.3963  2.4434  1.2903
 4506TIP3    H213483   1.403   3.866   1.486  0.4621  1.4269 -0.7754
 4507TIP3   OH213484   0.716   2.156   0.713  0.5629 -0.2430  0.3472
 4507TIP3    H113485   0.688   2.109   0.792  0.3138  0.5577  0.7521
 4507TIP3    H213486   0.667   2.116   0.642  1.9608 -2.0473  0.3416
 4508TIP3   OH213487   0.911   0.615   3.159  0.8043  0.0935 -0.5729
 4508TIP3    H113488   0.848   0.547   3.184  0.3794  0.4183 -0.7495
 4508TIP3    H213489   0.986   0.601   3.218  0.1602  0.3168  0.3172
 4509TIP3   OH213490   1.862   4.282   0.224  0.1846 -0.6300 -0.0892
 4509TIP3    H113491   1.813   4.206   0.254 -0.0644 -0.7224 -0.7170
 4509TIP3    H213492   1.808   4.320   0.154 -0.0232  0.5122  0.6521
 4510TIP3   OH213493   6.773   0.989   5.787 -0.0926  0.3926  0.2685
 4510TIP3    H113494   6.768   1.076   5.746  1.6924  0.1555 -0.5491
 4510TIP3    H213495   6.690   0.980   5.834 -0.7313  2.1318 -0.4335
 4511TIP3   OH213496   2.058   0.894   5.349 -0.4839 -0.3847 -0.1783
 4511TIP3    H113497   1.968   0.888   5.382 -1.7316  0.3089 -3.0995
 4511TIP3    H213498   2.064   0.981   5.310  2.0481  0.2001  1.3175
 4512TIP3   OH213499   6.941   5.616   2.884  0.3252 -0.0398  0.0735
 4512TIP3    H113500   7.027   5.659   2.885  1.5240 -2.2442  1.1655
 4512TIP3    H213501   6.879   5.686   2.865  2.2340  1.8911  0.5112
 4513TIP3   OH213502   5.748   0.306   4.097  0.7753  0.4683 -0.2172
 4513TIP3    H113503   5.654   0.319   4.102  0.3296 -2.2955  0.4873
 4513TIP3    H213504   5.782   0.338   4.181  0.0680 -0.8215  0.5933
 4514TIP3   OH213505   0.652   1.278   3.696 -0.1064 -0.1278  0.5298
 4514TIP3    H113506   0.741   1.255   3.672  0.2265  0.5011  1.1098
 4514TIP3    H213507   0.619   1.201   3.742  0.1689 -0.3334  0.3849
 4515TIP3   OH213508   5.734   2.433   0.261  0.1735  0.1330  0.1478
 4515TIP3    H113509   5.709   2.517   0.300 -0.7001  0.2835 -0.7072
 4515TIP3    H213510   5.670   2.371   0.296 -1.3608  0.4741 -1.8554
 4516TIP3   OH213511   5.339   6.212   4.974  0.1727  0.2811  0.0046
 4516TIP3    H113512   5.352   6.306   4.988  0.3652  0.1351  0.8026
 4516TIP3    H213513   5.244   6.200   4.981 -0.0754  0.6931 -1.9009
 4517TIP3   OH213514   5.777   3.481   4.137  0.0368  0.0215  0.5484
 4517TIP3    H113515   5.863   3.519   4.121 -0.6960  1.9870  1.0001
 4517TIP3    H213516   5.795   3.403   4.189  1.5833 -0.0320 -0.0122
 4518TIP3   OH213517   4.422   0.167   3.515 -0.6794 -0.0124 -0.1958
 4518TIP3    H113518   4.332   0.187   3.540 -0.1288  1.6393  0.6870
 4518TIP3    H213519   4.475   0.200   3.589  0.6914 -0.0772 -1.1080
 4519TIP3   OH213520   3.508   2.713   1.492  0.6846  0.4253 -0.1268
 4519TIP3    H113521   3.586   2.740   1.542  0.7837 -0.8297  0.4213
 4519TIP3    H213522   3.461   2.654   1.551  0.2994 -0.3384 -1.1736
 4520TIP3   OH213523   1.595   4.471   3.754  0.1880 -0.0987 -0.3661
 4520TIP3    H113524   1.506   4.485   3.722  0.0741 -0.7135 -0.3338
 4520TIP3    H213525   1.640   4.554   3.737  0.0300 -0.2867 -1.7836
 4521TIP3   OH213526   6.128   0.279   2.086 -0.0347 -0.3889 -0.1385
 4521TIP3    H113527   6.038   0.310   2.094 -0.4642 -1.1379 -1.6068
 4521TIP3    H213528   6.183   0.354   2.108 -1.0236  0.3927 -0.3050
 4522TIP3   OH213529   1.922   4.021   2.251 -0.4314  0.2063  0.5571
 4522TIP3    H113530   1.903   4.013   2.345  1.4167 -1.4665  0.8406
 4522TIP3    H213531   2.015   4.039   2.246 -0.3417 -0.5003 -0.9798
 4523TIP3   OH213532   2.673   2.863   1.025 -0.2392  0.2119 -0.2419
 4523TIP3    H113533   2.708   2.949   1.048  1.4984 -0.8433  1.3033
 4523TIP3    H213534   2.665   2.866   0.929  0.5947  1.7872 -0.2985
 4524TIP3   OH213535   0.498   6.711   5.320 -0.3187 -0.0863 -0.0132
 4524TIP3    H113536   0.431   6.759   5.368 -0.0617  0.2312  0.0335
 4524TIP3    H213537   0.478   6.619   5.336 -0.6342  0.0113  0.1488
 4525TIP3   OH213538   2.856   0.994   0.030 -0.2857  0.3964  0.0314
 4525TIP3    H113539   2.826   0.970   0.118 -0.3241  1.6811  0.3800
 4525TIP3    H213540   2.776   1.022  -0.016 -0.0445  1.1547  0.0689
 4526TIP3   OH213541   2.799   3.422   0.491  0.2768 -0.2566  0.2786
 4526TIP3    H113542   2.808   3.494   0.428 -0.9659 -0.5155 -0.2234
 4526TIP3    H213543   2.858   3.445   0.562  0.8385  0.6287 -0.4487
 4527TIP3   OH213544   4.226   0.103   2.308  0.3081  0.0029  0.2167
 4527TIP3    H113545   4.303   0.112   2.253 -0.7148 -2.1784 -1.7406
 4527TIP3    H213546   4.257   0.059   2.387  1.2784  0.3136  0.0203
 4528TIP3   OH213547   4.396   5.918   2.946 -0.5668  0.2117 -0.9382
 4528TIP3    H113548   4.484   5.884   2.930 -0.1423  0.9638 -0.2283
 4528TIP3    H213549   4.367   5.874   3.025  0.0414  1.5513  0.0689
 4529TIP3   OH213550   0.124   2.353   4.557  0.4927  0.1099 -0.1609
 4529TIP3    H113551   0.103   2.367   4.465  0.8422 -1.2375 -0.4650
 4529TIP3    H213552   0.102   2.436   4.599  0.1624  0.6893 -1.4212
 4530TIP3   OH213553   4.295   2.304   1.887  0.1599  0.4330 -0.6856
 4530TIP3    H113554   4.312   2.286   1.795  0.2225  0.9893 -0.7835
 4530TIP3    H213555   4.246   2.227   1.918  2.3813 -0.9808 -0.5045
 4531TIP3   OH213556   3.370   2.218   0.010  0.0017  0.1673 -0.3047
 4531TIP3    H113557   3.328   2.278  -0.051 -1.5529 -0.1183  0.4415
 4531TIP3    H213558   3.374   2.266   0.093 -0.7571 -0.5476  0.1594
 4532TIP3   OH213559   2.384   0.598   3.987 -0.6968  0.6226  0.4533
 4532TIP3    H113560   2.303   0.547   3.985 -0.1478 -0.2606 -0.1820
 4532TIP3    H213561   2.451   0.539   3.952 -0.1493  1.9804 -0.9407
 4533TIP3   OH213562   6.345   1.684   3.930  0.1121  0.0372  0.4272
 4533TIP3    H113563   6.355   1.723   4.017 -0.8312  1.8409 -0.2336
 4533TIP3    H213564   6.300   1.601   3.947 -0.8773  0.7732  1.6137
 4534TIP3   OH213565   1.905   0.578   5.342  0.1361  0.0815 -0.2945
 4534TIP3    H113566   1.970   0.620   5.286  1.0942  0.0715  0.7678
 4534TIP3    H213567   1.910   0.625   5.425 -0.1374 -0.8865  0.2914
 4535TIP3   OH213568   4.625   5.419   3.417  0.5158 -0.0291  0.2660
 4535TIP3    H113569   4.719   5.432   3.430  0.6577  1.5472 -1.8378
 4535TIP3    H213570   4.585   5.497   3.456  0.1198 -0.3590  0.5238
 4536TIP3   OH213571   0.916   2.155   2.780  0.4675 -0.2049 -0.2164
 4536TIP3    H113572   0.970   2.166   2.859  0.7849 -1.9956 -0.1401
 4536TIP3    H213573   0.840   2.104   2.810  1.3145 -2.2073 -1.2968
 4537TIP3   OH213574   1.760   5.868   5.581 -0.3211  0.0642 -0.1494
 4537TIP3    H113575   1.672   5.904   5.574 -0.1274  0.5736  0.0000
 4537TIP3    H213576   1.754   5.804   5.652 -0.7285 -0.3996 -0.5915
 4538TIP3   OH213577   4.948   3.882   5.640  0.5754  0.7483 -0.5178
 4538TIP3    H113578   5.027   3.936   5.646  2.2549 -1.5110 -0.8827
 4538TIP3    H213579   4.979   3.798   5.607 -1.3954 -1.3923  2.5318
 4539TIP3   OH213580   6.962   0.989   3.585 -0.0157  0.1432 -0.0967
 4539TIP3    H113581   7.013   0.996   3.504 -0.7879 -3.1009 -0.9825
 4539TIP3    H213582   7.027   0.980   3.654  0.6252  1.8926 -0.4027
 4540TIP3   OH213583   0.689   3.345   1.149 -0.4687 -0.1068 -0.2336
 4540TIP3    H113584   0.721   3.258   1.172 -2.5321 -1.6232 -2.5833
 4540TIP3    H213585   0.654   3.380   1.232  0.6906 -1.3502  0.8223
 4541TIP3   OH213586   3.792   6.335   1.032 -0.6258 -0.4599  0.1680
 4541TIP3    H113587   3.842   6.282   1.094 -0.4720  0.1407  0.5656
 4541TIP3    H213588   3.751   6.272   0.973  1.4355 -0.9298 -0.8280
 4542TIP3   OH213589   5.026   6.050   1.213 -0.0616 -0.0695  0.1744
 4542TIP3    H113590   5.114   6.086   1.215  0.2892 -0.8567 -0.5469
 4542TIP3    H213591   4.972   6.116   1.257  0.8862  0.3875  0.6804
 4543TIP3   OH213592   6.393   0.832   5.008 -0.3068 -0.6855  0.1275
 4543TIP3    H113593   6.418   0.923   5.025 -0.0900 -0.6941 -0.1421
 4543TIP3    H213594   6.301   0.837   4.982 -0.3833 -0.5770  0.4161
 4544TIP3   OH213595   1.886   0.332   3.268  0.0261  0.0986 -0.2789
 4544TIP3    H113596   1.793   0.348   3.254 -0.5703 -0.7702  2.2388
 4544TIP3    H213597   1.907   0.260   3.208 -0.7294  0.7192 -1.3229
 4545TIP3   OH213598   1.502   1.881   1.257 -0.1700  0.0514 -0.0719
 4545TIP3    H113599   1.524   1.844   1.343  2.4817  0.3174 -0.5410
 4545TIP3    H213600   1.431   1.943   1.276 -1.9438 -2.2364  1.3436
 4546TIP3   OH213601   5.269   3.587   1.852  0.4897 -0.1287  0.0357
 4546TIP3    H113602   5.176   3.580   1.877  0.5492 -0.9948  0.0546
 4546TIP3    H213603   5.267   3.585   1.756  0.6529 -3.3837 -0.0012
 4547TIP3   OH213604   3.709   6.643   4.647  0.5488 -0.0896  0.0089
 4547TIP3    H113605   3.661   6.724   4.662  0.6457 -0.1199  0.4970
 4547TIP3    H213606   3.739   6.616   4.734 -1.3231 -1.8119  0.1916
 4548TIP3   OH213607   3.580   6.165   2.424  0.5800  0.1428  0.0277
 4548TIP3    H113608   3.652   6.131   2.371 -0.6914 -1.7504 -0.5598
 4548TIP3    H213609   3.585   6.117   2.506 -0.1895 -0.2257 -0.1338
 4549TIP3   OH213610   2.271   6.741   2.909 -0.2825  0.4246  0.2918
 4549TIP3    H113611   2.254   6.678   2.979  1.7704  0.5046  0.9308
 4549TIP3    H213612   2.360   6.722   2.881  0.2821  2.8009  0.2689
 4550TIP3   OH213613   5.217   5.957   3.544 -0.7925  0.1322  0.5411
 4550TIP3    H113614   5.283   5.955   3.475  1.3189 -0.8306  2.4604
 4550TIP3    H213615   5.167   5.876   3.532 -0.5811  0.0683  0.0580
 4551TIP3   OH213616   1.411   2.149   3.262  0.0457 -0.3915  0.1528
 4551TIP3    H113617   1.395   2.082   3.328 -0.2260  1.4103  2.0146
 4551TIP3    H213618   1.446   2.101   3.187 -2.0499 -2.8460  0.6228
 4552TIP3   OH213619   3.323   6.552   4.802  0.3903  0.0288 -0.1677
 4552TIP3    H113620   3.369   6.628   4.837 -1.4377  0.7825  0.7367
 4552TIP3    H213621   3.366   6.477   4.844  2.7670  0.4296 -1.7068
 4553TIP3   OH213622   1.105   0.501   1.146 -0.0214 -0.0865  0.4250
 4553TIP3    H113623   1.156   0.479   1.068  0.0684 -1.3930  0.8240
 4553TIP3    H213624   1.141   0.445   1.215 -1.4984 -0.5061  0.8943
 4554TIP3   OH213625   3.223   3.093   0.899  0.0143 -0.1817 -0.4037
 4554TIP3    H113626   3.183   3.053   0.976  1.0546  0.9516  0.7781
 4554TIP3    H213627   3.245   3.182   0.927  1.1893 -0.0077 -1.7534
 4555TIP3   OH213628   1.161   4.258   4.843  0.2433  0.1634 -0.2033
 4555TIP3    H113629   1.157   4.242   4.937 -0.1941 -0.7502 -0.3751
 4555TIP3    H213630   1.165   4.354   4.836 -1.0310  0.3100  0.7056
 4556TIP3   OH213631   0.385   4.632   0.159 -0.1052 -0.1386 -0.2824
 4556TIP3    H113632   0.436   4.596   0.086  0.8187 -0.1939  0.3773
 4556TIP3    H213633   0.317   4.565   0.175  0.4398 -0.7057 -0.2962
 4557TIP3   OH213634   1.206   0.805   2.422  0.3914  0.6098 -0.1914
 4557TIP3    H113635   1.182   0.830   2.511 -1.6080  1.6232 -0.9462
 4557TIP3    H213636   1.180   0.713   2.415  0.4587  0.5564  0.2411
 4558TIP3   OH213637   5.977   6.841   1.594  0.3019  0.8639  0.2067
 4558TIP3    H113638   5.969   6.788   1.515  3.4551  2.7170 -1.5959
 4558TIP3    H213639   5.985   6.778   1.665 -1.2242 -0.8986 -1.0887
 4559TIP3   OH213640   4.636   3.862   4.882 -0.5689 -0.3680 -0.2117
 4559TIP3    H113641   4.627   3.816   4.798 -1.9794  1.0848 -0.9163
 4559TIP3    H213642   4.571   3.820   4.939 -1.2174  0.1293 -0.5727
 4560TIP3   OH213643   3.177   2.527   3.863 -0.4486 -0.0755  0.4665
 4560TIP3    H113644   3.258   2.572   3.839 -0.2403  0.0863  1.4056
 4560TIP3    H213645   3.204   2.461   3.927 -0.9660 -0.4979  0.2635
 4561TIP3   OH213646   1.843   3.056   5.756  0.2208 -0.6524  0.3725
 4561TIP3    H113647   1.809   3.108   5.829  0.4162 -0.3097  0.2209
 4561TIP3    H213648   1.927   3.023   5.788  0.2176 -0.6599  0.3733
 4562TIP3   OH213649   5.051   2.148   2.138  0.1833  0.8326 -0.1292
 4562TIP3    H113650   5.056   2.206   2.214 -0.1380  1.4773 -0.5902
 4562TIP3    H213651   5.135   2.159   2.093  0.1921  0.8113 -0.1176
 4563TIP3   OH213652   0.651   3.943   3.219  0.7929 -0.2159 -0.4199
 4563TIP3    H113653   0.571   3.988   3.248  1.1862 -0.1793  0.6524
 4563TIP3    H213654   0.631   3.850   3.228  0.4568 -0.2487 -1.3388
 4564TIP3   OH213655   1.199   0.739   4.379  0.0582 -0.1127  0.4593
 4564TIP3    H113656   1.215   0.677   4.309  1.4899  0.9883 -0.2347
 4564TIP3    H213657   1.104   0.741   4.388 -0.1250 -0.6069 -1.1421
 4565TIP3   OH213658   4.952   2.791   3.501 -0.5948 -0.3287 -0.0731
 4565TIP3    H113659   4.925   2.710   3.545  0.7430 -0.3686  0.7498
 4565TIP3    H213660   5.023   2.764   3.442 -0.3473  0.1869 -0.0167
 4566TIP3   OH213661   3.983   6.501   5.870 -0.2135 -0.2824  0.7866
 4566TIP3    H113662   3.971   6.431   5.807  0.5291 -1.4786  1.9075
 4566TIP3    H213663   4.072   6.533   5.853 -0.9453  1.1770 -0.4479
 4567TIP3   OH213664   6.914   2.912   3.748  0.0027  0.2389  0.0014
 4567TIP3    H113665   6.893   2.931   3.656  1.2929  1.1382 -0.1406
 4567TIP3    H213666   6.930   2.998   3.786  0.1100 -0.1816  0.9163
 4568TIP3   OH213667   3.508   1.986   4.574  0.0045 -0.0104 -0.7255
 4568TIP3    H113668   3.477   2.035   4.650  1.8646  0.6218 -0.3246
 4568TIP3    H213669   3.433   1.986   4.514 -1.3233 -0.0378  0.8423
 4569TIP3   OH213670   5.170   6.608   3.737 -0.0772  0.4605 -0.3313
 4569TIP3    H113671   5.081   6.638   3.758 -0.1148 -0.5237  1.1312
 4569TIP3    H213672   5.228   6.669   3.783 -0.0832 -0.0914  0.4422
 4570TIP3   OH213673   4.731   1.098   1.203 -0.7311  0.1535  0.5543
 4570TIP3    H113674   4.697   1.103   1.114 -1.9885 -0.5753  0.9818
 4570TIP3    H213675   4.655   1.108   1.259  0.0888  0.9263  1.5787
 4571TIP3   OH213676   6.529   4.937   5.471 -0.2304  0.2494  0.3257
 4571TIP3    H113677   6.601   4.883   5.503  0.4478  0.6846 -0.4404
 4571TIP3    H213678   6.529   5.014   5.528  0.0312  0.3377  0.2057
 4572TIP3   OH213679   2.573   0.487   4.470  0.0087  0.1670 -0.4609
 4572TIP3    H113680   2.540   0.576   4.457 -1.0293 -0.4076 -2.1725
 4572TIP3    H213681   2.668   0.495   4.464 -0.1374  0.9170 -2.7387
 4573TIP3   OH213682   4.327   4.948   5.476  0.5657  0.2926 -0.1150
 4573TIP3    H113683   4.386   4.963   5.402  0.5984  0.4507 -0.0560
 4573TIP3    H213684   4.384   4.948   5.553  0.8821 -2.1107 -0.2607
 4574TIP3   OH213685   1.656   0.364   5.253  0.1335 -0.6334  0.1063
 4574TIP3    H113686   1.584   0.330   5.199  0.0588 -0.1119 -0.1279
 4574TIP3    H213687   1.710   0.414   5.192 -0.3223  0.5337  0.6300
 4575TIP3   OH213688   2.759   1.887   3.885  0.1297  0.3418  0.1671
 4575TIP3    H113689   2.708   1.823   3.835 -0.2704  0.5653  0.2906
 4575TIP3    H213690   2.799   1.943   3.818 -1.3226  1.3621  0.0900
 4576TIP3   OH213691   1.302   3.271   5.488 -0.4951 -0.8991 -0.1190
 4576TIP3    H113692   1.244   3.269   5.412 -0.4139 -1.4143 -0.1718
 4576TIP3    H213693   1.328   3.363   5.495 -2.5103 -0.3472  0.8364
 4577TIP3   OH213694   0.215   2.040   1.795 -0.7459 -0.0045 -0.5190
 4577TIP3    H113695   0.246   2.106   1.857 -1.9435  0.6435 -0.5802
 4577TIP3    H213696   0.295   2.001   1.760 -0.0341  0.3309  0.6633
 4578TIP3   OH213697   2.036   1.943   4.130  0.1888  0.1367 -0.0608
 4578TIP3    H113698   2.115   1.978   4.171 -0.1010 -0.4018  0.9899
 4578TIP3    H213699   2.030   1.853   4.162  1.0957 -1.0599 -2.9361
 4579TIP3   OH213700   3.437   1.782   5.380 -0.2390  0.3570  0.3420
 4579TIP3    H113701   3.345   1.756   5.373 -0.1478 -0.0951  0.7786
 4579TIP3    H213702   3.466   1.792   5.290 -0.6856  0.3923  0.1982
 4580TIP3   OH213703   6.853   4.672   3.094  0.3284 -0.0830 -0.0114
 4580TIP3    H113704   6.835   4.753   3.141 -0.5293 -0.0865 -0.3208
 4580TIP3    H213705   6.802   4.606   3.140 -1.5309  0.1318 -1.6609
 4581TIP3   OH213706   5.447   3.489   2.842 -0.0848 -0.1117  0.2518
 4581TIP3    H113707   5.424   3.578   2.817  0.7186  0.0951  0.2124
 4581TIP3    H213708   5.369   3.456   2.887 -0.5008  0.4981  0.0015
 4582TIP3   OH213709   0.878   4.171   5.564  0.4863 -0.5239 -0.0052
 4582TIP3    H113710   0.789   4.165   5.600  1.0153 -0.9061  1.3027
 4582TIP3    H213711   0.872   4.241   5.499 -0.6441 -0.1320  0.4736
 4583TIP3   OH213712   2.814   5.384   4.215 -0.3022  0.2731  0.9952
 4583TIP3    H113713   2.794   5.456   4.275 -1.7359 -0.1898  1.1098
 4583TIP3    H213714   2.810   5.306   4.270  1.4822  0.0909  0.9249
 4584TIP3   OH213715   5.997   3.330   1.872 -0.7787  0.2944 -0.4376
 4584TIP3    H113716   6.049   3.362   1.945 -1.4750  1.8678 -0.5759
 4584TIP3    H213717   6.049   3.352   1.794 -0.4283 -0.5983 -0.4615
 4585TIP3   OH213718   2.696   2.899   5.500  0.1122 -0.2121 -0.1542
 4585TIP3    H113719   2.652   2.924   5.582  1.3532 -0.9700  0.7754
 4585TIP3    H213720   2.624   2.879   5.440 -0.8274 -0.8908  1.1543
 4586TIP3   OH213721   0.780   4.732   2.176  0.0540 -0.1638  0.2222
 4586TIP3    H113722   0.763   4.652   2.224  0.7579 -1.1442 -1.1043
 4586TIP3    H213723   0.696   4.777   2.173 -0.2161 -0.5426  1.4865
 4587TIP3   OH213724   5.158   0.492   0.362  0.7740  0.2986  0.1358
 4587TIP3    H113725   5.190   0.403   0.376  1.5128  0.4415 -0.5087
 4587TIP3    H213726   5.173   0.508   0.269 -1.1316  0.4256 -0.1921
 4588TIP3   OH213727   7.094   5.730   1.747 -0.1950 -0.1636  0.2974
 4588TIP3    H113728   7.055   5.772   1.671 -2.2011 -0.6433  0.9894
 4588TIP3    H213729   7.151   5.797   1.785  1.2488 -0.0764 -1.8315
 4589TIP3   OH213730   2.526   4.539   1.241  0.2211 -0.6037 -0.0889
 4589TIP3    H113731   2.575   4.567   1.163 -0.8676 -0.6313 -0.8102
 4589TIP3    H213732   2.567   4.586   1.313  2.6096 -2.1325 -0.3297
 4590TIP3   OH213733   4.983   1.296   5.249  0.5154  0.1613 -0.1867
 4590TIP3    H113734   5.014   1.384   5.271 -0.7738  0.3853  0.8953
 4590TIP3    H213735   4.927   1.272   5.323  0.4540 -1.3710 -0.7086
 4591TIP3   OH213736   3.305   1.132   1.081 -0.3473  0.0176  0.1145
 4591TIP3    H113737   3.313   1.221   1.115 -1.0745 -0.4344  1.5359
 4591TIP3    H213738   3.373   1.082   1.127  0.5519 -0.0361 -1.2179
 4592TIP3   OH213739   1.320   5.049   4.556 -0.0086 -1.0284  0.2419
 4592TIP3    H113740   1.390   5.048   4.491  0.3359 -0.4781  0.5958
 4592TIP3    H213741   1.304   5.142   4.572  0.6745 -1.1335  1.7434
 4593TIP3   OH213742   3.178   1.499   3.981 -0.3482  0.5925 -0.2032
 4593TIP3    H113743   3.252   1.550   3.949  0.3271  0.4296  1.0726
 4593TIP3    H213744   3.101   1.540   3.940  0.2592  1.9969  0.0234
 4594TIP3   OH213745   2.567   4.875   5.198 -0.2650 -0.3925 -0.2019
 4594TIP3    H113746   2.650   4.922   5.193  0.9249 -2.5004 -2.0767
 4594TIP3    H213747   2.511   4.931   5.252  1.2454  2.7490 -1.6280
 4595TIP3   OH213748   4.318   6.629   2.135  0.4824  0.7509 -0.7065
 4595TIP3    H113749   4.366   6.553   2.168  0.1652  0.1845 -1.5121
 4595TIP3    H213750   4.327   6.695   2.204  1.7700  0.4014 -0.5207
 4596TIP3   OH213751   1.968   0.700   5.594  0.1913  0.0204  0.4219
 4596TIP3    H113752   2.021   0.773   5.628  2.5041 -1.1339 -0.5078
 4596TIP3    H213753   1.878   0.729   5.607  0.9870  3.0970  0.0173
 4597TIP3   OH213754   6.523   6.752   3.336 -0.0262  0.0565 -0.0552
 4597TIP3    H113755   6.475   6.816   3.283 -3.1234 -0.8660  1.4342
 4597TIP3    H213756   6.520   6.672   3.284 -1.8499 -0.4848  0.8111
 4598TIP3   OH213757   4.528   0.908   4.758  0.2218  0.2538  0.0050
 4598TIP3    H113758   4.448   0.961   4.757  0.5836  0.8101 -0.2605
 4598TIP3    H213759   4.599   0.973   4.751  0.6413 -0.3548 -1.8037
 4599TIP3   OH213760   6.115   5.327   0.301  0.8016  0.1149 -0.2180
 4599TIP3    H113761   6.174   5.389   0.257  0.6906  0.7121  0.4555
 4599TIP3    H213762   6.172   5.256   0.329  1.2659  0.8438  0.7126
 4600TIP3   OH213763   2.276   4.782   1.485  0.9152 -0.4472  0.2057
 4600TIP3    H113764   2.292   4.770   1.391 -0.4839 -1.1874  0.0302
 4600TIP3    H213765   2.211   4.853   1.488  1.0637 -0.3309  0.6183
 4601TIP3   OH213766   7.028   5.061   3.608 -0.0165  0.9557 -0.0531
 4601TIP3    H113767   7.122   5.057   3.620  0.1122 -0.0053 -1.2236
 4601TIP3    H213768   7.001   5.140   3.656  1.5433  1.9662 -0.7788
 4602TIP3   OH213769   1.666   0.922   0.315 -0.1958 -0.2328  0.1551
 4602TIP3    H113770   1.588   0.976   0.325  0.9098  1.3462  0.6128
 4602TIP3    H213771   1.633   0.833   0.313 -2.1653  0.4525 -1.3185
 4603TIP3   OH213772   0.635   1.197   4.030  0.3573  0.3552 -0.3655
 4603TIP3    H113773   0.694   1.139   3.981  1.8023  2.9734 -2.0045
 4603TIP3    H213774   0.675   1.204   4.117  1.4056  0.6029 -0.8557
 4604TIP3   OH213775   3.653   4.365   4.331 -0.2312 -0.5002  0.2274
 4604TIP3    H113776   3.648   4.271   4.344  1.1525 -0.4156  1.6471
 4604TIP3    H213777   3.635   4.378   4.238  0.7278 -2.2731 -0.2432
 4605TIP3   OH213778   1.056   2.997   2.969  0.9869 -0.6041  0.6966
 4605TIP3    H113779   0.997   3.066   2.999 -1.8899 -1.9718 -1.3839
 4605TIP3    H213780   1.122   3.043   2.917  0.0639  0.7082  0.6458
 4606TIP3   OH213781   3.679   2.136   1.372 -0.2503 -0.3907  0.1477
 4606TIP3    H113782   3.757   2.122   1.318 -0.7324 -0.3056 -0.5871
 4606TIP3    H213783   3.713   2.149   1.460  0.5996  0.1544 -0.2455
 4607TIP3   OH213784   4.753   4.821   5.605 -0.4004  0.3659  0.8675
 4607TIP3    H113785   4.793   4.760   5.667  0.5993 -0.7362 -0.7791
 4607TIP3    H213786   4.827   4.867   5.566 -0.6564 -1.3667 -1.8976
 4608TIP3   OH213787   4.359   5.230   5.688  0.2154 -0.2532 -0.3472
 4608TIP3    H113788   4.410   5.150   5.681 -0.7690 -0.9479  0.2474
 4608TIP3    H213789   4.276   5.210   5.644  0.1645  0.6187 -0.6699
 4609TIP3   OH213790   6.061   6.506   1.124 -0.4784 -0.8391 -0.2801
 4609TIP3    H113791   6.096   6.513   1.212 -0.2567  1.1598 -0.4872
 4609TIP3    H213792   5.993   6.439   1.130  0.5587 -1.8178  1.0442
 4610TIP3   OH213793   0.921   4.184   3.474  0.5926  0.1698 -0.0427
 4610TIP3    H113794   0.928   4.097   3.433  0.8793 -0.3322  1.0465
 4610TIP3    H213795   0.981   4.181   3.548 -0.8906  0.5910  1.2327
 4611TIP3   OH213796   3.649   2.336   1.079 -0.4156 -0.4875  0.5063
 4611TIP3    H113797   3.624   2.428   1.092 -1.8212 -0.6390 -0.7850
 4611TIP3    H213798   3.565   2.290   1.076  0.2637 -1.7722  0.7688
 4612TIP3   OH213799   6.435   3.897   1.651 -0.1000  0.1547 -0.2771
 4612TIP3    H113800   6.392   3.918   1.734  0.3762 -0.1807  0.0596
 4612TIP3    H213801   6.473   3.811   1.665  2.3726  1.2137  0.1430
 4613TIP3   OH213802   4.081   4.540   0.103 -0.0561 -0.6086 -0.0074
 4613TIP3    H113803   4.120   4.568   0.186 -0.1204 -1.0630  0.1776
 4613TIP3    H213804   3.992   4.576   0.106  0.1527 -0.0631 -0.1749
 4614TIP3   OH213805   5.254   6.502   0.145  0.2276  0.1817  0.1736
 4614TIP3    H113806   5.342   6.465   0.149  1.0339  1.8182 -1.0608
 4614TIP3    H213807   5.200   6.440   0.193  2.0804 -0.7800  1.1504
 4615TIP3   OH213808   4.235   5.340   3.596  0.6539  0.5085 -0.0755
 4615TIP3    H113809   4.309   5.326   3.537 -0.3655 -1.6199 -0.9741
 4615TIP3    H213810   4.190   5.416   3.561 -0.2420 -1.0157 -2.5138
 4616TIP3   OH213811   4.537   0.996   4.333 -0.4728  0.2301  0.3901
 4616TIP3    H113812   4.500   0.939   4.265  0.4846  0.7899 -0.6318
 4616TIP3    H213813   4.630   0.975   4.334 -0.5812 -0.3968  2.1773
 4617TIP3   OH213814   3.798   5.626   2.887 -0.1098 -0.3954  0.3402
 4617TIP3    H113815   3.836   5.607   2.801 -0.2757 -0.1396  0.2101
 4617TIP3    H213816   3.767   5.542   2.919  0.7455 -0.6488  0.5356
 4618TIP3   OH213817   5.044   2.232   1.679 -0.2062 -0.1447  0.8709
 4618TIP3    H113818   5.043   2.196   1.590  0.6415  0.7119  0.5053
 4618TIP3    H213819   5.135   2.255   1.695 -0.7995  2.4977  0.8073
 4619TIP3   OH213820   6.041   3.181   2.180  0.0838 -0.5319  0.5336
 4619TIP3    H113821   5.947   3.195   2.196 -0.2147 -1.7231 -0.0684
 4619TIP3    H213822   6.075   3.269   2.162 -0.9260 -0.0842  0.7224
 4620TIP3   OH213823   5.842   0.475   0.363 -0.3051  0.2900  0.3969
 4620TIP3    H113824   5.808   0.406   0.420  0.7055  0.1504  0.8555
 4620TIP3    H213825   5.827   0.442   0.274 -2.6103  0.8466  0.5070
 4621TIP3   OH213826   4.670   4.419   0.119 -0.4857  0.2925  0.0767
 4621TIP3    H113827   4.588   4.391   0.079 -1.9389  1.8541  1.8065
 4621TIP3    H213828   4.698   4.493   0.065 -0.5411  0.1634 -0.1322
 4622TIP3   OH213829   3.235   4.519   5.403 -0.0644 -0.4054 -0.2616
 4622TIP3    H113830   3.297   4.538   5.332  0.1954  1.3619  0.4011
 4622TIP3    H213831   3.283   4.540   5.483 -0.9192 -0.7763  0.3636
 4623TIP3   OH213832   6.956   1.585   3.519 -0.1358 -1.0778  0.5565
 4623TIP3    H113833   6.951   1.649   3.448 -1.1023  1.0953  2.4332
 4623TIP3    H213834   6.928   1.503   3.480 -1.8280  0.2890 -1.3050
 4624TIP3   OH213835   0.962   4.548   4.749  0.6218  0.3042 -0.0688
 4624TIP3    H113836   0.918   4.480   4.699  1.1918  0.7530 -1.2121
 4624TIP3    H213837   0.895   4.615   4.764 -0.0655 -0.6639  1.4464
 4625TIP3   OH213838   4.534   0.487   3.587 -0.1783  0.3113  0.1128
 4625TIP3    H113839   4.473   0.443   3.646 -0.1711 -0.1460 -0.2184
 4625TIP3    H213840   4.492   0.570   3.566 -0.6889  0.0020 -0.1066
 4626TIP3   OH213841   0.110   0.424   2.111 -0.5171  0.3265 -0.4908
 4626TIP3    H113842   0.189   0.416   2.165 -0.4172 -0.7617 -0.7698
 4626TIP3    H213843   0.044   0.371   2.158 -0.3035 -1.0078 -1.6406
 4627TIP3   OH213844   2.084   5.762   2.805  0.4791  0.4261  0.7234
 4627TIP3    H113845   2.160   5.817   2.823  3.1275 -1.1101 -3.9917
 4627TIP3    H213846   2.120   5.687   2.756 -4.0319 -0.2670 -2.1401
 4628TIP3   OH213847   3.120   3.041   4.081 -0.2734 -0.2186 -0.9058
 4628TIP3    H113848   3.171   2.980   4.029 -0.3391  0.3738 -1.6794
 4628TIP3    H213849   3.171   3.052   4.162 -0.0789 -0.9966 -0.9209
 4629TIP3   OH213850   2.644   2.956   3.930  0.6361 -0.0988 -0.1381
 4629TIP3    H113851   2.600   3.032   3.968 -0.0469 -0.8684  0.6678
 4629TIP3    H213852   2.733   2.961   3.964 -0.1278 -1.1389  2.2284
 4630TIP3   OH213853   6.016   6.289   4.475  0.4577 -0.0125 -0.0771
 4630TIP3    H113854   5.980   6.200   4.470  0.3190  0.0630 -0.5137
 4630TIP3    H213855   5.943   6.346   4.452  0.4424  0.2428  0.5902
 4631TIP3   OH213856   1.758   3.743   3.575  0.4758 -0.1755 -0.1497
 4631TIP3    H113857   1.841   3.715   3.536  0.4912 -1.0240  0.4739
 4631TIP3    H213858   1.692   3.691   3.530  0.4015 -0.4336  0.2546
 4632TIP3   OH213859   0.914   4.655   1.053  0.2682 -0.3401  0.3305
 4632TIP3    H113860   0.936   4.748   1.043 -0.6629 -0.1971 -0.4879
 4632TIP3    H213861   0.979   4.610   0.999 -0.1050 -0.0646 -0.3634
 4633TIP3   OH213862   2.495   6.260   1.066  0.0584 -0.0904 -0.4399
 4633TIP3    H113863   2.571   6.305   1.103 -1.4329  1.9271  0.3695
 4633TIP3    H213864   2.463   6.206   1.138  0.1546 -0.1565 -0.4473
 4634TIP3   OH213865   4.719   3.554   1.261 -0.1631 -0.1132  0.9129
 4634TIP3    H113866   4.784   3.614   1.224  0.3579 -1.1583  0.0890
 4634TIP3    H213867   4.662   3.610   1.314  0.7617  0.9847  0.7778
 4635TIP3   OH213868   6.726   4.296   4.470  0.4968 -0.1991  0.1245
 4635TIP3    H113869   6.661   4.297   4.399 -0.4964 -0.1480  0.9976
 4635TIP3    H213870   6.730   4.387   4.499  0.3599 -0.3402  0.5936
 4636TIP3   OH213871   1.825   1.907   3.768 -0.0718  0.1265 -0.1247
 4636TIP3    H113872   1.878   1.937   3.694  0.0032 -0.0151 -0.1287
 4636TIP3    H213873   1.738   1.892   3.731  0.2047 -0.9062 -0.4072
 4637TIP3   OH213874   6.754   5.972   0.592 -0.3277  0.5561  0.1461
 4637TIP3    H113875   6.758   6.006   0.681 -0.8231 -2.4016  1.4064
 4637TIP3    H213876   6.841   5.991   0.555  0.0751  1.3534  1.4426
 4638TIP3   OH213877   6.259   3.285   1.295  0.7617 -0.4940  0.5783
 4638TIP3    H113878   6.200   3.360   1.303 -1.2897 -1.8239 -0.9646
 4638TIP3    H213879   6.338   3.320   1.253 -0.4479  0.6987 -0.8007
 4639TIP3   OH213880   3.177   1.963   4.618 -0.0493 -0.6313 -0.6156
 4639TIP3    H113881   3.134   2.039   4.657  1.0545  0.2783 -1.1047
 4639TIP3    H213882   3.118   1.936   4.547 -1.5668 -1.6759  0.9637
 4640TIP3   OH213883   0.574   4.640   1.387 -0.0696  0.6037 -0.4869
 4640TIP3    H113884   0.553   4.552   1.354 -1.6450 -0.1194  2.1445
 4640TIP3    H213885   0.518   4.699   1.336  0.1947  0.0013 -1.5205
 4641TIP3   OH213886   3.608   3.022   0.727  0.1717 -0.3090 -0.6158
 4641TIP3    H113887   3.586   2.929   0.715 -0.0023  0.0385 -3.7734
 4641TIP3    H213888   3.655   3.025   0.810 -0.4508 -3.0966 -0.0665
 4642TIP3   OH213889   1.500   4.203   3.735 -0.4241 -0.1907 -0.4672
 4642TIP3    H113890   1.545   4.147   3.672 -0.1866 -1.9558  1.1580
 4642TIP3    H213891   1.528   4.292   3.713  1.0236 -0.9060 -1.7315
 4643TIP3   OH213892   7.044   5.497   4.101  0.4879 -0.2634  0.2387
 4643TIP3    H113893   7.034   5.519   4.008 -0.5129 -0.6748  0.2354
 4643TIP3    H213894   6.997   5.566   4.148  0.8279 -0.1633  0.4413
 4644TIP3   OH213895   2.032   2.940   4.321 -0.3356  0.8575  0.3434
 4644TIP3    H113896   2.071   2.871   4.375  1.1844 -1.4115 -3.3015
 4644TIP3    H213897   2.105   2.972   4.268 -2.2794  0.4914 -2.7458
 4645TIP3   OH213898   1.681   2.401   1.386  0.2292  0.5079  0.3551
 4645TIP3    H113899   1.616   2.332   1.380  1.8205 -0.9816 -1.1559
 4645TIP3    H213900   1.680   2.443   1.299  2.5887 -0.9055 -0.4631
 4646TIP3   OH213901   5.488   5.597   1.552 -0.2207  0.0984 -0.0911
 4646TIP3    H113902   5.461   5.551   1.473  1.4220 -3.3363  1.1714
 4646TIP3    H213903   5.411   5.595   1.609 -0.5504  0.0652 -0.5339
 4647TIP3   OH213904   3.780   0.386   0.576  0.2980  0.3395 -0.5113
 4647TIP3    H113905   3.813   0.400   0.487 -1.3355  2.2118 -0.8851
 4647TIP3    H213906   3.818   0.457   0.627 -0.1453  0.2797 -0.0968
 4648TIP3   OH213907   0.530   6.270   2.259  0.0494 -0.0767 -0.0273
 4648TIP3    H113908   0.574   6.191   2.230 -0.1398 -0.4721  0.7473
 4648TIP3    H213909   0.568   6.340   2.205  0.0539 -0.7135 -0.8704
 4649TIP3   OH213910   2.352   3.804   3.893 -0.5319  0.3102 -0.0300
 4649TIP3    H113911   2.406   3.746   3.839  0.4181  1.6232 -0.5462
 4649TIP3    H213912   2.414   3.843   3.956 -0.9948  1.2829 -0.1496
 4650TIP3   OH213913   6.620   4.697   1.620 -0.4016  0.2948  0.2756
 4650TIP3    H113914   6.649   4.788   1.610  0.4945 -0.1630 -1.8621
 4650TIP3    H213915   6.585   4.674   1.534  0.3081 -1.6839  0.4671
 4651TIP3   OH213916   5.724   0.055   3.978  0.1520 -0.1480  0.1503
 4651TIP3    H113917   5.743   0.147   3.997 -1.5166  0.6632 -1.8069
 4651TIP3    H213918   5.730   0.048   3.883 -2.8562 -1.2687 -0.0559
 4652TIP3   OH213919   5.761   3.233   4.873  0.0069  0.0001 -0.3455
 4652TIP3    H113920   5.724   3.278   4.949  0.4611 -0.8463  0.4017
 4652TIP3    H213921   5.796   3.151   4.909 -0.5126 -0.8024 -1.6041
 4653TIP3   OH213922   3.351   5.226   0.384 -0.3584 -0.0153  0.4242
 4653TIP3    H113923   3.374   5.146   0.338  0.2659  0.8298 -0.7754
 4653TIP3    H213924   3.260   5.243   0.359 -0.6902 -0.6450  1.1555
 4654TIP3   OH213925   0.599   6.555   4.380 -0.8580  1.2072 -0.0164
 4654TIP3    H113926   0.583   6.630   4.322  1.6422 -0.5408 -3.2809
 4654TIP3    H213927   0.678   6.580   4.429  1.9707 -0.2063 -3.4130
 4655TIP3   OH213928   5.186   1.111   1.040 -0.0967  0.3513  0.0131
 4655TIP3    H113929   5.132   1.140   1.114 -1.3278  1.7304 -1.3483
 4655TIP3    H213930   5.263   1.070   1.081 -0.9853  0.5771  2.0325
 4656TIP3   OH213931   6.693   1.506   2.113  0.9516 -0.1884 -0.0840
 4656TIP3    H113932   6.713   1.527   2.205 -0.9973  0.8222  0.1880
 4656TIP3    H213933   6.677   1.591   2.073 -0.2307 -0.7264 -0.8143
 4657TIP3   OH213934   0.896   1.903   5.813 -0.1117  0.2768 -0.6155
 4657TIP3    H113935   0.853   1.859   5.888  1.6434 -0.5848 -0.0594
 4657TIP3    H213936   0.900   1.995   5.839 -2.4543  0.5920 -1.1187
 4658TIP3   OH213937   4.490   5.302   2.642 -0.0436  0.2217  0.4875
 4658TIP3    H113938   4.482   5.208   2.661 -2.7098  0.7593  2.6355
 4658TIP3    H213939   4.584   5.319   2.647  0.5226 -2.3055 -0.0107
 4659TIP3   OH213940   6.225   0.940   0.000 -0.3539 -0.2579 -0.1166
 4659TIP3    H113941   6.262   1.006  -0.059 -1.3907 -0.6532 -1.2457
 4659TIP3    H213942   6.286   0.937   0.074 -0.2680  1.9573 -0.0181
 4660TIP3   OH213943   3.931   3.730   3.129 -0.4706  0.1066  0.0871
 4660TIP3    H113944   3.835   3.732   3.132 -0.4979 -0.9871  0.6405
 4660TIP3    H213945   3.952   3.647   3.086  0.2266  0.2326  0.1708
 4661TIP3   OH213946   3.631   1.592   2.311 -0.0094 -0.1598 -0.5106
 4661TIP3    H113947   3.627   1.544   2.228 -0.7707 -0.1372 -0.4859
 4661TIP3    H213948   3.547   1.576   2.353 -0.5021  1.6224 -0.7333
 4662TIP3   OH213949   5.702   3.596   2.944  0.0074 -0.1750 -0.0899
 4662TIP3    H113950   5.757   3.647   2.884  1.8376 -0.9715  0.8144
 4662TIP3    H213951   5.638   3.554   2.888 -0.3355  1.5630 -1.0852
 4663TIP3   OH213952   2.812   3.517   2.142 -0.4250 -0.3085 -0.0603
 4663TIP3    H113953   2.720   3.534   2.158 -1.5594 -1.2870 -4.3365
 4663TIP3    H213954   2.817   3.423   2.123  1.2932 -0.1404 -0.6670
 4664TIP3   OH213955   1.117   0.492   4.757 -1.0598 -0.5912 -0.3821
 4664TIP3    H113956   1.159   0.564   4.708 -2.8980 -0.1242 -1.3505
 4664TIP3    H213957   1.037   0.474   4.708 -1.1037 -2.6937  0.3865
 4665TIP3   OH213958   4.345   4.152   0.889 -0.1311 -0.4029 -0.1260
 4665TIP3    H113959   4.313   4.242   0.898  0.5207 -0.2084  0.3747
 4665TIP3    H213960   4.266   4.098   0.881 -0.5931  0.5153 -4.0985
 4666TIP3   OH213961   4.108   3.827   1.744 -0.1074 -0.4427  0.7038
 4666TIP3    H113962   4.183   3.886   1.733 -2.0643  2.1786  0.3765
 4666TIP3    H213963   4.134   3.747   1.697  1.4924  1.3080 -1.6866
 4667TIP3   OH213964   1.957   0.921   4.753 -0.1572 -0.4984 -0.5808
 4667TIP3    H113965   1.976   1.014   4.765 -0.9730 -0.1074 -1.9729
 4667TIP3    H213966   2.034   0.887   4.707 -0.4691 -0.1639 -1.3684
 4668TIP3   OH213967   6.199   2.612   2.922 -0.2922  0.3659  0.2939
 4668TIP3    H113968   6.173   2.704   2.929 -0.5103  0.2281  1.5088
 4668TIP3    H213969   6.200   2.580   3.012 -1.0796 -1.0630 -0.1747
 4669TIP3   OH213970   6.327   1.797   4.405  0.5786  0.4891  0.2339
 4669TIP3    H113971   6.414   1.784   4.442  0.0364  0.8566  1.7422
 4669TIP3    H213972   6.284   1.711   4.414 -0.8705  1.4065  4.3034
 4670TIP3   OH213973   3.613   2.832   2.053 -0.2716  0.7016 -0.1208
 4670TIP3    H113974   3.675   2.760   2.058 -1.9858 -0.7864  2.1296
 4670TIP3    H213975   3.546   2.802   1.991  0.2005  1.4563 -1.0314
 4671TIP3   OH213976   2.701   5.376   0.290  0.0662 -0.1627 -0.3184
 4671TIP3    H113977   2.642   5.359   0.364 -0.7583 -0.4084 -1.0160
 4671TIP3    H213978   2.750   5.294   0.279 -0.1237 -0.2746 -0.3264
 4672TIP3   OH213979   1.588   2.405   2.728  0.8587 -0.9074  0.1829
 4672TIP3    H113980   1.496   2.430   2.723  1.1926  0.1875 -2.6366
 4672TIP3    H213981   1.630   2.479   2.772  0.5664 -0.7579  0.2139
 4673TIP3   OH213982   7.022   4.884   5.533  0.5074 -0.0816 -0.3625
 4673TIP3    H113983   6.936   4.846   5.514  1.0022 -1.7706  0.6468
 4673TIP3    H213984   7.052   4.917   5.448 -1.0262  0.3688 -0.7701
 4674TIP3   OH213985   1.086   2.139   5.839  0.3085  0.0675  0.9705
 4674TIP3    H113986   1.018   2.191   5.882  1.3955  1.5196  1.0119
 4674TIP3    H213987   1.166   2.160   5.888  1.8738  2.7187 -2.2798
 4675TIP3   OH213988   6.232   6.627   5.481  0.1230  0.3579 -0.3460
 4675TIP3    H113989   6.251   6.537   5.509  0.2935  0.3015 -0.6418
 4675TIP3    H213990   6.304   6.679   5.517 -1.5094  0.8957  2.4767
 4676TIP3   OH213991   0.197   0.050   5.698  0.1091  0.0198  0.1765
 4676TIP3    H113992   0.185   0.029   5.606  1.2243  0.8969 -0.1870
 4676TIP3    H213993   0.142   0.128   5.711 -1.2264 -0.9602  0.6490
 4677TIP3   OH213994   1.845   3.027   2.653  0.1081 -0.3348  0.6113
 4677TIP3    H113995   1.893   2.981   2.723  0.2534  0.0423  0.7626
 4677TIP3    H213996   1.833   2.961   2.585 -3.0862 -1.7779  2.3783
 4678TIP3   OH213997   6.172   5.340   3.762  0.1880 -0.4318  0.2776
 4678TIP3    H113998   6.169   5.252   3.725 -1.6805  0.2352 -1.2811
 4678TIP3    H213999   6.100   5.342   3.825  1.1048 -0.4234  1.3543
 4679TIP3   OH214000   5.762   4.764   4.080 -0.1563 -0.2451  0.6986
 4679TIP3    H114001   5.857   4.758   4.064  0.1337  0.4521  2.0172
 4679TIP3    H214002   5.747   4.856   4.100 -1.1078 -0.3740  0.6263
 4680TIP3   OH214003   3.036   6.036   5.387 -0.6744  0.7086 -0.0108
 4680TIP3    H114004   3.036   6.030   5.483 -0.4106 -1.3462 -0.1089
 4680TIP3    H214005   3.081   6.119   5.369 -1.9701  1.8352  1.6432
 4681TIP3   OH214006   6.541   5.861   4.502 -0.6622 -0.1175 -0.1941
 4681TIP3    H114007   6.583   5.902   4.426  0.9636 -0.6620  0.3636
 4681TIP3    H214008   6.595   5.888   4.576 -2.2287  0.4298  0.8095
 4682TIP3   OH214009   2.039   1.110   2.339 -0.5326 -0.2791  0.6765
 4682TIP3    H114010   2.013   1.032   2.290  0.2778  0.1005 -0.3773
 4682TIP3    H214011   2.108   1.150   2.287 -2.1496  2.1475  0.2690
 4683TIP3   OH214012   3.307   0.915   1.952 -0.0112 -0.2852  0.0934
 4683TIP3    H114013   3.270   0.915   1.864  2.1103 -0.7565 -0.8809
 4683TIP3    H214014   3.327   0.823   1.969  0.6431 -0.0590  0.5725
 4684TIP3   OH214015   1.648   5.753   3.076 -0.6156  0.0299 -0.0488
 4684TIP3    H114016   1.694   5.828   3.112 -1.2973  0.4971 -0.1322
 4684TIP3    H214017   1.558   5.763   3.107 -0.0290 -2.7311  3.1150
 4685TIP3   OH214018   1.182   3.194   3.375  0.4696  0.7842  0.0692
 4685TIP3    H114019   1.219   3.204   3.287  0.4468  0.3507  0.0090
 4685TIP3    H214020   1.258   3.201   3.434  0.9157 -1.6166 -0.1310
 4686TIP3   OH214021   5.587   1.486   2.620  0.7906 -0.8917  0.0957
 4686TIP3    H114022   5.514   1.515   2.566  2.8072 -0.3808 -2.6245
 4686TIP3    H214023   5.550   1.473   2.707 -2.4576 -0.6055 -1.1090
 4687TIP3   OH214024   4.630   2.572   2.892 -0.6824  0.1799 -0.3442
 4687TIP3    H114025   4.674   2.640   2.943 -2.1753  1.1425 -0.2834
 4687TIP3    H214026   4.615   2.500   2.954  0.9964 -0.2948 -0.4343
 4688TIP3   OH214027   4.200   6.455   5.346  0.2076 -0.3069  0.0531
 4688TIP3    H114028   4.230   6.387   5.285 -1.1985 -1.6146  0.7516
 4688TIP3    H214029   4.137   6.506   5.295 -1.6357 -1.9381  0.5726
 4689TIP3   OH214030   2.388   4.018   2.328 -0.0280 -0.5019 -0.6394
 4689TIP3    H114031   2.450   4.000   2.399 -0.2658 -3.9013 -1.1151
 4689TIP3    H214032   2.417   3.962   2.256 -1.2250  1.0185 -2.4081
 4690TIP3   OH214033   4.831   6.470   4.536 -0.5294  0.2359 -0.0053
 4690TIP3    H114034   4.825   6.490   4.443 -0.4255 -0.6043 -0.1996
 4690TIP3    H214035   4.761   6.522   4.576 -0.5922  0.5780 -0.5531
 4691TIP3   OH214036   0.960   1.944   4.425 -0.1719  0.0951  0.0826
 4691TIP3    H114037   1.038   1.976   4.470 -0.7678  1.3202  0.3023
 4691TIP3    H214038   0.887   1.984   4.473 -1.1449 -3.3295  1.7625
 4692TIP3   OH214039   7.197   6.240   2.339 -0.5018 -0.2344  0.2922
 4692TIP3    H114040   7.155   6.155   2.322 -1.2131  0.5493 -2.3546
 4692TIP3    H214041   7.240   6.262   2.257  0.7155  1.4212  1.3281
 4693TIP3   OH214042   4.773   6.507   5.077  0.3434 -0.2165  0.1547
 4693TIP3    H114043   4.791   6.423   5.036 -0.7850 -0.2948 -0.2284
 4693TIP3    H214044   4.678   6.519   5.066  0.5709  1.3595 -0.3153
 4694TIP3   OH214045   4.327   2.661   4.340  0.2071 -0.1965 -0.3081
 4694TIP3    H114046   4.297   2.749   4.316  1.4276  0.0381 -1.0679
 4694TIP3    H214047   4.248   2.607   4.335 -0.8745  1.0742  1.5338
 4695TIP3   OH214048   5.943   1.903   0.619 -0.1665  0.4216 -0.0064
 4695TIP3    H114049   5.913   1.990   0.593 -0.6994  0.1547 -0.3112
 4695TIP3    H214050   6.038   1.911   0.627 -0.3948  1.6685  2.3836
 4696TIP3   OH214051   6.357   0.886   0.715 -0.3893  0.4315  0.0426
 4696TIP3    H114052   6.394   0.917   0.633  1.6141  0.0908  0.7772
 4696TIP3    H214053   6.310   0.962   0.751  1.1994  1.4822 -0.0226
 4697TIP3   OH214054   5.108   4.590   1.228  0.0919 -0.0453 -0.1066
 4697TIP3    H114055   5.067   4.674   1.206  1.6609  0.9630  0.5634
 4697TIP3    H214056   5.188   4.589   1.176  0.3157 -0.9128  0.2473
 4698TIP3   OH214057   3.094   4.059   5.332 -0.2335  0.4794  0.1673
 4698TIP3    H114058   3.076   4.148   5.363  0.0486  1.3703 -2.0309
 4698TIP3    H214059   3.008   4.022   5.315 -0.3223  1.2418 -1.1889
 4699TIP3   OH214060   4.803   3.408   5.170 -0.4856 -0.1854 -0.3473
 4699TIP3    H114061   4.744   3.356   5.116 -0.7552 -0.4419  0.1840
 4699TIP3    H214062   4.773   3.498   5.160  0.6939  0.0570 -2.1961
 4700TIP3   OH214063   6.409   0.060   0.044 -0.4721 -0.6169  0.1865
 4700TIP3    H114064   6.359   0.050  -0.037 -0.1591 -0.0080 -0.0885
 4700TIP3    H214065   6.477   0.123   0.023 -0.5371 -0.2578  0.9958
 4701TIP3   OH214066   1.965   0.908   5.062 -0.4601  0.0925 -0.5989
 4701TIP3    H114067   2.012   0.893   4.980 -0.0811 -0.7478 -0.2369
 4701TIP3    H214068   1.974   1.002   5.078  1.2287 -0.0512 -0.4780
 4702TIP3   OH214069   3.604   1.557   0.823  0.0990 -0.3104 -0.0972
 4702TIP3    H114070   3.577   1.615   0.894 -0.4481 -0.3756 -0.2446
 4702TIP3    H214071   3.570   1.598   0.744 -1.5525 -1.5249 -0.0801
 4703TIP3   OH214072   6.602   2.028   0.542  0.4694  0.4545 -0.3069
 4703TIP3    H114073   6.607   2.034   0.637  1.6879  2.6119 -0.4243
 4703TIP3    H214074   6.525   2.080   0.518  1.1840  1.4252 -0.5595
 4704TIP3   OH214075   1.572   6.648   4.517 -0.1507 -0.2506 -0.1611
 4704TIP3    H114076   1.541   6.638   4.426  1.3289  0.3379 -0.7589
 4704TIP3    H214077   1.606   6.561   4.540 -1.6138 -0.7355  0.2886
 4705TIP3   OH214078   1.326   3.033   5.371  0.1682 -0.0250 -0.2862
 4705TIP3    H114079   1.257   2.981   5.411 -0.1245  0.9176  0.4758
 4705TIP3    H214080   1.323   3.117   5.417  0.2739  0.8705 -1.8344
 4706TIP3   OH214081   5.141   3.308   3.977 -0.2631  0.1092 -0.2715
 4706TIP3    H114082   5.212   3.344   3.924 -0.3448 -1.2295 -1.3545
 4706TIP3    H214083   5.185   3.251   4.040 -0.2635  0.5764  0.1506
 4707TIP3   OH214084   5.467   1.160   3.282  0.1103  0.0889 -0.4701
 4707TIP3    H114085   5.554   1.151   3.321  0.2246  0.3711 -0.6532
 4707TIP3    H214086   5.484   1.192   3.193 -0.1494 -0.4743 -0.7282
 4708TIP3   OH214087   4.556   3.502   0.956  0.3966 -0.2183 -0.9669
 4708TIP3    H114088   4.464   3.529   0.969  0.3384 -0.2161 -1.3731
 4708TIP3    H214089   4.606   3.582   0.970  0.2882 -0.0860 -1.3099
 4709TIP3   OH214090   3.752   4.898   2.418 -1.1735 -0.2263  0.0480
 4709TIP3    H114091   3.656   4.893   2.412 -1.1721 -0.4215  0.2048
 4709TIP3    H214092   3.781   4.904   2.327 -1.3781  0.6399  0.0293
 4710TIP3   OH214093   4.473   0.815   1.978  0.3589 -0.0672  0.1587
 4710TIP3    H114094   4.387   0.807   1.937  0.2974  0.6976  0.1317
 4710TIP3    H214095   4.472   0.748   2.047  0.1185 -0.7285 -0.4646
 4711TIP3   OH214096   6.239   1.038   1.766 -0.3749  0.8782 -0.0654
 4711TIP3    H114097   6.190   0.965   1.803  0.5367  0.1695 -0.2217
 4711TIP3    H214098   6.237   1.105   1.835 -3.5815  1.8643 -0.9585
 4712TIP3   OH214099   7.164   1.548   3.129 -0.3767  0.3425  0.1391
 4712TIP3    H114100   7.207   1.463   3.132 -0.4391  0.3402  2.1615
 4712TIP3    H214101   7.128   1.560   3.217 -0.3645  2.4656 -0.0927
 4713TIP3   OH214102   5.868   2.129   1.473 -0.5043  0.1251 -0.4980
 4713TIP3    H114103   5.858   2.164   1.562  1.0720  1.0548 -0.6572
 4713TIP3    H214104   5.780   2.137   1.435 -0.9668  0.6792  0.6314
 4714TIP3   OH214105   7.003   2.625   2.611 -0.1240  0.6947 -0.4882
 4714TIP3    H114106   7.085   2.607   2.565  0.2237  1.9359 -0.3942
 4714TIP3    H214107   6.972   2.539   2.639  0.9786  0.1707 -0.8108
 4715TIP3   OH214108   1.045   2.446   1.542  0.2418  0.8154 -0.0988
 4715TIP3    H114109   1.048   2.365   1.593 -3.2738  0.0572 -0.8310
 4715TIP3    H214110   1.089   2.423   1.459 -0.7142 -0.3947 -0.3034
 4716TIP3   OH214111   4.360   3.677   1.947  0.1821 -0.2605  0.3892
 4716TIP3    H114112   4.444   3.686   1.902 -0.5598  0.1735 -0.9438
 4716TIP3    H214113   4.340   3.584   1.942  1.8769 -0.9099  3.2044
 4717TIP3   OH214114   6.089   6.049   2.219  0.0023  0.0548 -0.4642
 4717TIP3    H114115   6.039   6.108   2.163  0.8212  0.1985 -1.0576
 4717TIP3    H214116   6.073   6.081   2.308 -0.2788  0.6100 -0.7099
 4718TIP3   OH214117   0.927   1.180   1.688  0.0473  0.4520  0.1121
 4718TIP3    H114118   0.871   1.247   1.649  0.5183 -0.4481 -2.3527
 4718TIP3    H214119   0.869   1.126   1.741 -0.6216  1.8422  0.8372
 4719TIP3   OH214120   5.765   3.674   5.265 -0.0454 -0.3374 -0.0132
 4719TIP3    H114121   5.824   3.680   5.340  0.7400 -0.5626 -0.5988
 4719TIP3    H214122   5.679   3.657   5.303  0.0885  0.9096  0.9126
 4720TIP3   OH214123   2.034   6.548   2.202  0.1403  0.6056 -0.0304
 4720TIP3    H114124   2.061   6.576   2.115  0.4345  0.1980 -0.0718
 4720TIP3    H214125   2.067   6.459   2.210  0.7647  0.8963  0.7855
 4721TIP3   OH214126   2.658   5.583   1.222  0.0104 -0.4554 -0.8215
 4721TIP3    H114127   2.704   5.635   1.155 -1.4106  0.0851 -1.4106
 4721TIP3    H214128   2.620   5.649   1.281  0.8306 -0.9189  0.2590
 4722TIP3   OH214129   5.871   1.731   4.101  0.4259  0.2652 -0.1571
 4722TIP3    H114130   5.824   1.731   4.017 -0.0265  0.3024  0.0934
 4722TIP3    H214131   5.943   1.793   4.088 -0.2038  1.0007 -0.2088
 4723TIP3   OH214132   7.096   0.378   3.645  0.3205  0.4887  0.3201
 4723TIP3    H114133   7.084   0.444   3.712 -1.7329 -0.5363  1.0593
 4723TIP3    H214134   7.066   0.420   3.564  2.4596  1.6039  0.0540
 4724TIP3   OH214135   0.267   5.484   3.499 -0.0968  0.2632 -0.7438
 4724TIP3    H114136   0.257   5.534   3.581 -0.2965 -0.0148 -0.5943
 4724TIP3    H214137   0.353   5.443   3.506 -0.0769  0.3099 -0.7117
 4725TIP3   OH214138   0.631   6.260   3.747  0.3913  0.1154 -0.0016
 4725TIP3    H114139   0.537   6.268   3.760  0.7604  0.9068  2.8204
 4725TIP3    H214140   0.640   6.201   3.671 -2.3404 -1.7127  0.9530
 4726TIP3   OH214141   6.918   5.539   3.525  0.1916 -0.3200 -0.1162
 4726TIP3    H114142   6.853   5.471   3.504  1.2157 -1.4121  0.1006
 4726TIP3    H214143   7.001   5.491   3.528  0.7707  0.7194  1.3570
 4727TIP3   OH214144   3.740   3.149   3.152 -0.0618 -0.1638 -0.3093
 4727TIP3    H114145   3.824   3.117   3.184 -0.1924 -2.3371 -1.9159
 4727TIP3    H214146   3.709   3.082   3.092 -1.8468  1.6765 -1.6277
 4728TIP3   OH214147   6.890   3.644   4.940 -0.0324  0.6512  0.4136
 4728TIP3    H114148   6.905   3.550   4.954 -0.8019  0.6803  1.4971
 4728TIP3    H214149   6.795   3.653   4.934  0.0313  1.3792  0.3610
 4729TIP3   OH214150   2.489   1.786   0.896  0.1576  0.6705  0.0910
 4729TIP3    H114151   2.520   1.839   0.824 -0.3667  1.5954  0.5303
 4729TIP3    H214152   2.400   1.759   0.871  0.2796  0.3119  0.0352
 4730TIP3   OH214153   1.019   1.799   0.316 -0.4859  0.5081  0.1651
 4730TIP3    H114154   1.024   1.863   0.387 -0.7259 -1.5483  2.1849
 4730TIP3    H214155   0.990   1.718   0.360 -0.0602 -1.0180 -2.2000
 4731TIP3   OH214156   4.901   0.162   0.578  0.1222  0.2624  0.1073
 4731TIP3    H114157   4.944   0.134   0.658 -0.0369  0.3814  0.2336
 4731TIP3    H214158   4.935   0.250   0.561 -1.7350  1.2933  1.4283
 4732TIP3   OH214159   3.431   5.988   3.409  0.1224  0.3709  0.8320
 4732TIP3    H114160   3.489   6.051   3.365  1.3113 -1.6111 -0.6039
 4732TIP3    H214161   3.365   5.968   3.343 -0.4061  0.2939  1.3811
 4733TIP3   OH214162   5.959   6.429   1.708 -0.5841  0.3143 -0.0813
 4733TIP3    H114163   5.958   6.524   1.721 -2.2005  0.1797  1.0260
 4733TIP3    H214164   6.034   6.399   1.760  0.5640  1.0368 -1.2336
 4734TIP3   OH214165   0.924   3.015   0.494  0.1055  0.6145  0.1194
 4734TIP3    H114166   0.894   3.069   0.421  1.4118  1.6498  0.3041
 4734TIP3    H214167   0.991   2.958   0.455  0.4678  0.8403  0.3997
 4735TIP3   OH214168   0.136   0.746   0.129 -0.6316  0.7939 -0.0640
 4735TIP3    H114169   0.156   0.757   0.222  0.1175 -0.6434 -0.0193
 4735TIP3    H214170   0.161   0.829   0.089  1.5572  0.5443  0.6470
 4736TIP3   OH214171   5.368   1.777   2.771  0.3564  0.4331  0.3274
 4736TIP3    H114172   5.340   1.784   2.862 -1.3874  0.2495 -0.1576
 4736TIP3    H214173   5.339   1.690   2.744  3.0312 -0.5049  0.2621
 4737TIP3   OH214174   4.960   4.757   2.589 -0.1611  0.0103 -0.4148
 4737TIP3    H114175   5.036   4.787   2.540  1.3418  0.6709  2.1193
 4737TIP3    H214176   4.913   4.700   2.528  2.3242 -0.3911 -2.1160
 4738TIP3   OH214177   0.653   2.745   1.106  0.1860 -0.3472  0.4907
 4738TIP3    H114178   0.665   2.801   1.182 -0.1181 -0.4503  0.6170
 4738TIP3    H214179   0.596   2.674   1.137 -1.0924  0.3438 -0.1755
 4739TIP3   OH214180   6.397   6.706   2.790  0.3739 -0.5212  0.7158
 4739TIP3    H114181   6.401   6.634   2.727 -0.3760 -0.8978  1.0876
 4739TIP3    H214182   6.476   6.695   2.843 -0.0171 -1.4108  1.1280
 4740TIP3   OH214183   4.109   0.078   1.139 -0.0218  0.0296  0.3993
 4740TIP3    H114184   4.084  -0.010   1.110  1.0674 -0.3667  0.6312
 4740TIP3    H214185   4.084   0.081   1.231  1.7558 -0.7878  0.9583
 4741TIP3   OH214186   6.838   2.194   2.926  0.0046  0.3220 -0.0457
 4741TIP3    H114187   6.773   2.256   2.892 -0.1000 -0.0121 -0.4684
 4741TIP3    H214188   6.899   2.183   2.853  0.5176  0.6109  0.3413
 4742TIP3   OH214189   4.843   1.909   3.454  0.0738 -0.6485  0.2281
 4742TIP3    H114190   4.788   1.945   3.385  1.4712 -1.5341 -1.4404
 4742TIP3    H214191   4.817   1.817   3.459  2.9353 -1.7706 -2.3920
 4743TIP3   OH214192   0.030   6.198   3.463  0.4739 -0.4674  0.0231
 4743TIP3    H114193   0.045   6.143   3.540  1.5444  1.5106  1.3100
 4743TIP3    H214194   0.098   6.172   3.401  0.7017 -0.8637  0.4319
 4744TIP3   OH214195   1.876   1.221   3.802  0.5801 -0.3646  0.1177
 4744TIP3    H114196   1.865   1.316   3.793  1.3405 -0.3898 -1.3081
 4744TIP3    H214197   1.838   1.201   3.888  0.8436  1.2961  0.6623
 4745TIP3   OH214198   2.484   5.752   2.402 -0.5333 -0.1514 -0.1029
 4745TIP3    H114199   2.550   5.709   2.456 -1.1362 -1.0075 -0.0319
 4745TIP3    H214200   2.435   5.680   2.362 -1.2767  0.4708 -0.3331
 4746TIP3   OH214201   1.363   1.920   0.758  0.4460 -0.0396  0.0725
 4746TIP3    H114202   1.418   1.911   0.680 -0.5232 -0.3026 -0.6025
 4746TIP3    H214203   1.283   1.962   0.726  0.2752  0.3901  1.0459
 4747TIP3   OH214204   5.653   3.912   1.243 -0.2934 -0.0773  0.0982
 4747TIP3    H114205   5.615   3.980   1.188  0.5836 -0.4857 -1.0384
 4747TIP3    H214206   5.632   3.830   1.199 -0.4316 -0.4825  0.9004
 4748TIP3   OH214207   5.475   6.096   5.854 -0.0113 -0.2839  0.2625
 4748TIP3    H114208   5.455   6.181   5.816  0.3171  0.1082  0.9439
 4748TIP3    H214209   5.390   6.052   5.860 -0.0332 -0.4974 -1.2153
 4749TIP3   OH214210   1.907   1.444   5.611 -0.0497 -0.0096 -0.1906
 4749TIP3    H114211   1.931   1.523   5.562 -2.2870  0.4392 -0.6622
 4749TIP3    H214212   1.918   1.373   5.547 -1.2142  0.3563 -0.8332
 4750TIP3   OH214213   6.719   0.405   2.969 -0.1156  0.3799  0.2060
 4750TIP3    H114214   6.721   0.453   2.886  2.1339 -0.0237 -0.0378
 4750TIP3    H214215   6.672   0.463   3.029  1.0270  2.1501 -0.5242
 4751TIP3   OH214216   0.217   2.886   2.049  0.4003 -0.3010 -0.2556
 4751TIP3    H114217   0.169   2.805   2.063  2.6372 -1.9206 -1.3458
 4751TIP3    H214218   0.302   2.872   2.091  1.1829  1.0877 -1.2844
 4752TIP3   OH214219   5.625   3.703   4.210 -0.1549  0.3835 -0.3027
 4752TIP3    H114220   5.677   3.623   4.205 -0.0375  0.4893 -0.7801
 4752TIP3    H214221   5.689   3.773   4.223 -0.2292  0.4381 -0.2332
 4753TIP3   OH214222   1.634   4.037   1.046  0.5948  0.3342  0.4668
 4753TIP3    H114223   1.663   4.058   0.957 -0.5836  1.0092  0.2158
 4753TIP3    H214224   1.554   4.089   1.058 -1.1943 -2.2756  0.6626
 4754TIP3   OH214225   6.214   1.528   4.501  0.3425 -0.0835 -0.3684
 4754TIP3    H114226   6.261   1.476   4.566 -2.2560  0.5395  2.1693
 4754TIP3    H214227   6.124   1.498   4.506 -0.2554  1.0631 -2.6656
 4755TIP3   OH214228   1.480   3.201   0.678 -0.2261  0.2498  0.1466
 4755TIP3    H114229   1.494   3.145   0.755  1.5744  0.3421 -0.0824
 4755TIP3    H214230   1.469   3.139   0.606 -2.7936  0.1364  0.5412
 4756TIP3   OH214231   3.795   3.316   2.399  0.5536  0.2006 -0.3676
 4756TIP3    H114232   3.766   3.297   2.489 -0.2887  1.4285 -0.3541
 4756TIP3    H214233   3.890   3.323   2.405  0.4390  1.1460  0.6210
 4757TIP3   OH214234   3.647   6.501   3.152 -0.0016 -0.3314 -0.0513
 4757TIP3    H114235   3.724   6.489   3.097 -1.1992 -0.3651 -1.7757
 4757TIP3    H214236   3.612   6.586   3.127 -0.4261 -0.2231  0.8567
 4758TIP3   OH214237   2.333   1.817   5.502  0.0552  0.0066  0.6531
 4758TIP3    H114238   2.243   1.798   5.530  0.3699  0.8304  2.3847
 4758TIP3    H214239   2.326   1.898   5.453 -0.2789 -0.5440 -0.2393
 4759TIP3   OH214240   6.642   6.630   0.432 -0.1526  0.3024 -0.5101
 4759TIP3    H114241   6.659   6.688   0.507 -2.3196 -0.3138  0.5509
 4759TIP3    H214242   6.575   6.676   0.381 -0.2464 -0.2526 -0.8932
 4760TIP3   OH214243   5.751   4.832   0.789  0.5302 -0.5726 -0.3032
 4760TIP3    H114244   5.787   4.817   0.876  0.7705 -0.6692 -0.4187
 4760TIP3    H214245   5.672   4.884   0.804  0.7218 -0.3525 -0.0500
 4761TIP3   OH214246   5.111   0.227   2.660 -0.3066 -0.3551 -0.0074
 4761TIP3    H114247   5.140   0.242   2.750 -1.1835  1.3140  0.0428
 4761TIP3    H214248   5.015   0.225   2.666 -0.3634 -0.6487 -0.8482
 4762TIP3   OH214249   3.367   5.103   1.693 -0.0991 -0.4695  0.0440
 4762TIP3    H114250   3.349   5.192   1.724 -0.7026 -0.1522 -1.1437
 4762TIP3    H214251   3.284   5.057   1.703  0.0823 -0.7648  0.2071
 4763TIP3   OH214252   3.830   2.941   4.819 -0.2393  0.0272 -0.7845
 4763TIP3    H114253   3.913   2.941   4.867 -1.1270  1.0562  0.8302
 4763TIP3    H214254   3.845   3.001   4.745  0.3436  0.4993 -0.2914
 4764TIP3   OH214255   0.685   4.461   1.039 -0.4473  0.0336 -0.0840
 4764TIP3    H114256   0.657   4.537   0.989 -1.0991 -0.3433 -0.3059
 4764TIP3    H214257   0.777   4.478   1.059 -0.6350  0.9579  0.0354
 4765TIP3   OH214258   3.710   0.484   3.940  0.3864 -0.0228 -0.5191
 4765TIP3    H114259   3.692   0.575   3.964 -2.3230 -0.2582 -1.2202
 4765TIP3    H214260   3.786   0.459   3.991  0.8597  2.4706  0.1023
 4766TIP3   OH214261   5.872   2.213   4.351 -0.5034 -0.1549 -0.2341
 4766TIP3    H114262   5.794   2.222   4.406 -0.5199  2.3866 -0.5581
 4766TIP3    H214263   5.937   2.173   4.409 -0.7175  1.8332  1.5317
 4767TIP3   OH214264   5.475   5.727   5.877 -0.2963 -0.2709  0.5229
 4767TIP3    H114265   5.511   5.653   5.829  1.7540  0.6956  0.4184
 4767TIP3    H214266   5.410   5.765   5.819  0.8859 -0.1694 -0.7811
 4768TIP3   OH214267   1.625   5.637   0.896  0.1225  0.0727 -0.1488
 4768TIP3    H114268   1.607   5.598   0.811 -1.5297 -0.0467  0.2250
 4768TIP3    H214269   1.608   5.567   0.959 -3.0832  1.3220  0.5566
 4769TIP3   OH214270   1.610   2.761   0.170 -0.6072  0.4514  0.0024
 4769TIP3    H114271   1.553   2.836   0.153 -0.6596  0.0555 -1.8475
 4769TIP3    H214272   1.696   2.799   0.189 -1.0310  0.9998  0.8528
 4770TIP3   OH214273   1.841   1.536   0.439 -0.5720 -0.0426 -0.0827
 4770TIP3    H114274   1.818   1.444   0.425  0.5328 -0.5563  1.2455
 4770TIP3    H214275   1.883   1.537   0.525 -1.3202  1.8463  0.3205
 4771TIP3   OH214276   6.347   6.413   4.866 -0.1111 -0.1504  0.0550
 4771TIP3    H114277   6.299   6.371   4.794  0.4761 -0.0076 -0.4319
 4771TIP3    H214278   6.439   6.404   4.841  0.0423  1.1654  0.0848
 4772TIP3   OH214279   4.425   1.136   1.169 -0.4114 -0.1202 -0.5274
 4772TIP3    H114280   4.405   1.183   1.250 -3.0274  3.8252 -3.0994
 4772TIP3    H214281   4.351   1.076   1.157 -0.6074  0.1305 -0.5645
 4773TIP3   OH214282   6.765   2.312   2.107 -0.4189 -0.7799  0.0420
 4773TIP3    H114283   6.721   2.376   2.052  1.7787  0.1601 -0.7226
 4773TIP3    H214284   6.774   2.234   2.052  1.7227  0.1381 -1.0132
 4774TIP3   OH214285   1.499   2.355   4.597 -0.0397 -0.1600  0.1448
 4774TIP3    H114286   1.545   2.286   4.550  0.2170  0.4389 -0.5097
 4774TIP3    H214287   1.554   2.433   4.585 -0.1994  0.1012  1.0773
 4775TIP3   OH214288   6.625   0.733   0.413  0.3296  0.1527 -0.2021
 4775TIP3    H114289   6.652   0.688   0.493  0.9873 -0.2741 -0.6542
 4775TIP3    H214290   6.555   0.678   0.377  0.5564 -0.0641 -0.3142
 4776TIP3   OH214291   1.394   4.062   1.202  0.7635 -0.4161  0.0171
 4776TIP3    H114292   1.353   3.982   1.171  1.5938 -0.7315 -0.2901
 4776TIP3    H214293   1.322   4.113   1.240 -0.0358 -0.6248 -1.1671
 4777TIP3   OH214294   7.161   4.234   0.027 -0.1757  0.1780  0.3184
 4777TIP3    H114295   7.231   4.169   0.036  1.7707  1.9880 -0.8903
 4777TIP3    H214296   7.191   4.292  -0.043 -3.2364  0.6763 -0.7166
 4778TIP3   OH214297   5.270   5.610   0.051 -0.0904  0.1270 -0.0515
 4778TIP3    H114298   5.298   5.658   0.129 -1.4161 -0.3704  0.7685
 4778TIP3    H214299   5.350   5.596   0.002  0.4642  2.5747  0.0046
 4779TIP3   OH214300   1.885   6.214   0.392 -0.2609 -0.0514  0.4520
 4779TIP3    H114301   1.840   6.257   0.465 -2.2807  0.2056 -0.8759
 4779TIP3    H214302   1.932   6.285   0.349  0.5954 -0.1291  1.2272
 4780TIP3   OH214303   6.429   0.536   5.605  0.0939  0.5155 -0.0562
 4780TIP3    H114304   6.351   0.509   5.557 -1.5878  1.0938  2.1539
 4780TIP3    H214305   6.470   0.453   5.632 -1.2749  0.1377  0.9846
 4781TIP3   OH214306   0.571   5.581   2.031 -0.5470  0.3170 -0.4975
 4781TIP3    H114307   0.631   5.640   2.078 -0.7966  1.2341 -1.2978
 4781TIP3    H214308   0.487   5.594   2.074 -0.3804 -0.2531  0.0077
 4782TIP3   OH214309   4.985   0.497   1.290 -0.0057 -0.3440 -0.1545
 4782TIP3    H114310   5.019   0.513   1.202 -0.7802  3.4143  0.0544
 4782TIP3    H214311   4.890   0.511   1.282 -0.3017 -1.4676  1.0127
 4783TIP3   OH214312   2.943   0.986   3.159 -0.9029 -0.3365 -0.4971
 4783TIP3    H114313   2.959   1.051   3.090  0.7280 -0.9241 -0.7416
 4783TIP3    H214314   2.949   0.902   3.113 -0.0308 -0.7268  0.2959
 4784TIP3   OH214315   1.881   3.480   1.259  0.0889 -0.2301 -0.3120
 4784TIP3    H114316   1.884   3.475   1.163 -0.0511  1.1500 -0.3970
 4784TIP3    H214317   1.788   3.482   1.280  0.0710 -2.0865 -0.0257
 4785TIP3   OH214318   2.876   1.852   2.902  0.2861 -0.1951  0.2091
 4785TIP3    H114319   2.838   1.879   2.818 -0.0471 -1.4091 -0.0597
 4785TIP3    H214320   2.829   1.772   2.925  2.0096 -1.2323  0.3417
 4786TIP3   OH214321   2.857   3.950   0.023 -0.4527  0.0690  0.2107
 4786TIP3    H114322   2.920   3.979   0.089  0.2900 -0.2852 -0.3282
 4786TIP3    H214323   2.812   4.030  -0.004 -0.3931  0.2930  0.7591
 4787TIP3   OH214324   5.388   2.175   3.583  0.5693  0.0495 -0.0232
 4787TIP3    H114325   5.353   2.099   3.537  0.2901 -0.4010  0.9016
 4787TIP3    H214326   5.315   2.207   3.636  0.8925  0.5249  0.1472
 4788TIP3   OH214327   6.219   6.264   4.679  0.4210 -0.4225 -0.1698
 4788TIP3    H114328   6.271   6.184   4.671 -0.2797 -1.0120  0.8226
 4788TIP3    H214329   6.171   6.270   4.596  1.9632  0.0842 -1.0569
 4789TIP3   OH214330   4.531   1.201   4.805  0.2340 -0.0289 -0.1851
 4789TIP3    H114331   4.558   1.285   4.841 -0.3414  0.3720 -0.6690
 4789TIP3    H214332   4.437   1.209   4.792  0.2944 -0.4614 -0.9639
 4790TIP3   OH214333   0.020   6.652   3.101  0.5020  0.2369  0.4094
 4790TIP3    H114334   0.111   6.654   3.072  0.8006 -0.4538  1.2530
 4790TIP3    H214335  -0.009   6.562   3.085 -0.6651  0.8909 -1.6222
 4791TIP3   OH214336   4.337   1.779   5.626  0.3472 -0.7797 -0.8016
 4791TIP3    H114337   4.297   1.702   5.666 -2.2966 -1.2019 -3.8975
 4791TIP3    H214338   4.263   1.832   5.595  2.1247  2.0666 -0.5769
 4792TIP3   OH214339   0.741   2.509   3.716  0.4714 -0.0402 -0.2617
 4792TIP3    H114340   0.811   2.472   3.770 -0.0556  0.5061  0.8390
 4792TIP3    H214341   0.664   2.456   3.739 -0.5076  2.1542  1.9904
 4793TIP3   OH214342   5.207   2.443   3.689  0.0207 -0.0179  0.1723
 4793TIP3    H114343   5.159   2.364   3.714  0.2208  0.3711  1.9031
 4793TIP3    H214344   5.260   2.464   3.765 -0.6125  2.2340  0.0528
 4794TIP3   OH214345   0.614   3.451   3.455 -0.4826 -0.5862  0.5008
 4794TIP3    H114346   0.687   3.409   3.499  1.3431  1.5168 -0.3424
 4794TIP3    H214347   0.612   3.540   3.491 -1.2767  0.0435 -0.9922
 4795TIP3   OH214348   1.969   2.547   2.194 -0.0934 -0.3128 -0.0675
 4795TIP3    H114349   1.965   2.597   2.112  0.9707 -0.9351 -0.5291
 4795TIP3    H214350   2.057   2.566   2.228 -1.0730  1.2347  1.8058
 4796TIP3   OH214351   1.265   0.822   0.996 -0.4374 -0.5987 -0.0490
 4796TIP3    H114352   1.335   0.762   0.969  0.0494  0.1833 -0.5669
 4796TIP3    H214353   1.246   0.798   1.087  0.9961 -0.3653  0.3263
 4797TIP3   OH214354   2.836   2.708   2.296 -0.2532  0.3474 -0.2830
 4797TIP3    H114355   2.883   2.778   2.341 -1.0467  0.7073 -0.0081
 4797TIP3    H214356   2.835   2.734   2.204  1.3444 -0.3733 -0.5492
 4798TIP3   OH214357   4.507   6.549   1.093 -0.5222 -0.1184  0.0971
 4798TIP3    H114358   4.484   6.620   1.034  0.8701  0.0242 -0.3071
 4798TIP3    H214359   4.453   6.475   1.065  1.1402 -0.5155 -2.3914
 4799TIP3   OH214360   4.783   5.437   4.789  0.2773 -0.2578 -1.2214
 4799TIP3    H114361   4.860   5.389   4.818  0.1738 -0.4835 -1.3155
 4799TIP3    H214362   4.737   5.461   4.870  0.3730 -0.2446 -1.1712
 4800TIP3   OH214363   2.930   3.623   0.821 -0.2644  0.4393 -0.2362
 4800TIP3    H114364   2.844   3.618   0.863  0.1157 -1.5393  0.3830
 4800TIP3    H214365   2.964   3.534   0.824  1.3824  0.9825 -1.4150
 4801TIP3   OH214366   6.460   5.591   2.538 -0.1124  0.1127 -0.3956
 4801TIP3    H114367   6.423   5.641   2.610 -1.4540 -0.0641 -0.9396
 4801TIP3    H214368   6.545   5.560   2.571 -0.6284  0.1698  1.0328
 4802TIP3   OH214369   6.554   4.389   4.280  0.3816 -0.2991  0.6193
 4802TIP3    H114370   6.529   4.479   4.303 -2.7051 -0.9811  0.4709
 4802TIP3    H214371   6.559   4.389   4.185  0.9556 -0.1669  0.6480
 4803TIP3   OH214372   3.792   1.366   2.451 -0.4146  0.1466 -0.6234
 4803TIP3    H114373   3.768   1.275   2.465  0.4783  0.0369  0.2700
 4803TIP3    H214374   3.713   1.415   2.471 -0.3584 -0.3083  0.8170
 4804TIP3   OH214375   5.256   3.089   4.104 -0.0992 -0.3540 -0.0843
 4804TIP3    H114376   5.234   2.996   4.094 -0.4475 -0.1747 -1.2007
 4804TIP3    H214377   5.351   3.091   4.114 -0.0569 -0.8120 -0.3670
 4805TIP3   OH214378   0.523   5.988   2.210 -0.0645  0.3409  0.0174
 4805TIP3    H114379   0.598   5.930   2.195 -0.5814 -0.7426  1.3247
 4805TIP3    H214380   0.489   6.008   2.123 -2.2229 -4.5913 -0.6108
 4806TIP3   OH214381   6.488   2.819   1.547  0.1094 -0.2197 -0.5863
 4806TIP3    H114382   6.415   2.878   1.530 -0.4554 -1.0455 -1.0731
 4806TIP3    H214383   6.451   2.750   1.602  0.8756  0.1106  0.3676
 4807TIP3   OH214384   3.434   2.529   3.750 -0.4733  0.4301  0.4099
 4807TIP3    H114385   3.395   2.539   3.663  0.1557  0.2263  0.1033
 4807TIP3    H214386   3.430   2.435   3.767  1.2957  0.1993 -0.2936
 4808TIP3   OH214387   6.759   6.126   3.233  1.0360  0.0806  0.2734
 4808TIP3    H114388   6.755   6.101   3.325  0.3770  4.2305  1.5744
 4808TIP3    H214389   6.852   6.140   3.216  1.1120 -0.2005  0.4511
 4809TIP3   OH214390   6.216   1.251   1.967 -0.4418 -0.0058  0.3393
 4809TIP3    H114391   6.176   1.328   1.928 -1.3912  0.0142  1.3163
 4809TIP3    H214392   6.220   1.270   2.060 -3.2265 -2.1794  1.0274
 4810TIP3   OH214393   4.879   6.448   0.280  0.1239 -0.4265  0.3055
 4810TIP3    H114394   4.811   6.417   0.340  0.6285  0.8176  1.5688
 4810TIP3    H214395   4.853   6.537   0.259 -0.7853 -1.2455 -2.5010
 4811TIP3   OH214396   5.502   0.531   4.288 -0.1947 -0.1725  0.3171
 4811TIP3    H114397   5.576   0.491   4.335 -0.0270  0.1794  0.3534
 4811TIP3    H214398   5.533   0.618   4.264 -1.3409  0.8163  2.2000
 4812TIP3   OH214399   6.826   6.054   4.641  0.4002  0.6058  0.2679
 4812TIP3    H114400   6.918   6.044   4.668  0.5397  0.2366 -0.2954
 4812TIP3    H214401   6.821   6.142   4.605  1.0999 -0.0753 -1.6655
 4813TIP3   OH214402   3.409   4.090   3.862 -0.6853  0.6649  0.3828
 4813TIP3    H114403   3.504   4.084   3.852 -0.6105  0.4499  1.1844
 4813TIP3    H214404   3.383   4.160   3.803 -0.3568 -1.0076 -1.9037
 4814TIP3   OH214405   0.968   4.745   1.680 -0.0328 -0.2351  0.4424
 4814TIP3    H114406   1.016   4.689   1.620  0.0209 -1.6029  1.6994
 4814TIP3    H214407   1.018   4.826   1.683  0.7688 -0.6891 -0.2179
 4815TIP3   OH214408   6.986   4.336   3.887 -0.2585  0.4202  0.3078
 4815TIP3    H114409   7.058   4.398   3.901  0.1135  0.1112 -0.2025
 4815TIP3    H214410   7.012   4.257   3.934  0.1445  0.0126 -0.5717
 4816TIP3   OH214411   3.446   4.681   4.207  0.4680  0.5949  0.6178
 4816TIP3    H114412   3.486   4.637   4.131 -0.3871 -1.3102  1.2023
 4816TIP3    H214413   3.368   4.629   4.225 -1.6538  3.4650  0.2907
 4817TIP3   OH214414   0.936   0.191   2.882 -0.3252  0.6310  0.1654
 4817TIP3    H114415   0.930   0.096   2.868 -2.6344  0.7730 -0.1304
 4817TIP3    H214416   0.999   0.200   2.954  1.5229 -0.9552 -1.1306
 4818TIP3   OH214417   0.538   0.345   5.726  0.0528 -0.0543 -0.1618
 4818TIP3    H114418   0.529   0.377   5.636 -0.8552 -0.5226 -0.2479
 4818TIP3    H214419   0.542   0.425   5.779  2.1794  0.2609 -0.7261
 4819TIP3   OH214420   7.120   0.940   1.230 -0.0243  0.0022  0.3841
 4819TIP3    H114421   7.185   0.873   1.210  0.8567  0.0321  2.7382
 4819TIP3    H214422   7.036   0.895   1.230  0.0959 -0.3006 -1.4786
 4820TIP3   OH214423   2.810   2.425   2.326 -0.3880 -0.0108  0.1027
 4820TIP3    H114424   2.842   2.513   2.345 -0.6024  0.0708  0.0994
 4820TIP3    H214425   2.840   2.407   2.238 -0.2171  0.0006  0.1588
 4821TIP3   OH214426   5.423   1.045   0.042 -0.2366 -0.6679 -0.2355
 4821TIP3    H114427   5.437   1.032  -0.052  0.5298 -2.2203  0.0749
 4821TIP3    H214428   5.511   1.052   0.079 -0.4697  3.1006  0.0457
 4822TIP3   OH214429   0.922   6.487   5.783  0.6995 -0.1554 -0.2426
 4822TIP3    H114430   0.858   6.429   5.823  0.1057  2.0316  2.1993
 4822TIP3    H214431   0.974   6.520   5.856  2.6035  0.5467 -1.8137
 4823TIP3   OH214432   7.077   2.272   4.778 -0.1749 -0.2386 -0.1253
 4823TIP3    H114433   7.025   2.321   4.714  0.0468 -0.4715 -0.4927
 4823TIP3    H214434   7.032   2.188   4.787 -0.2698 -0.1619  0.1119
 4824TIP3   OH214435   3.011   2.534   5.034 -0.1006  0.2890  0.3087
 4824TIP3    H114436   3.079   2.600   5.025  0.7269 -0.7275 -1.5538
 4824TIP3    H214437   2.964   2.537   4.951 -0.3727 -1.0808  0.3837
 4825TIP3   OH214438   6.882   5.864   4.216 -0.4665  0.2502 -0.0501
 4825TIP3    H114439   6.805   5.912   4.244  0.0247  1.3026 -0.4157
 4825TIP3    H214440   6.862   5.772   4.232 -1.0712  0.6403  1.5636
 4826TIP3   OH214441   3.189   2.348   0.560 -0.0298 -0.4280 -0.7940
 4826TIP3    H114442   3.199   2.333   0.466  0.4529 -0.8931 -0.6705
 4826TIP3    H214443   3.214   2.265   0.601 -1.0919 -0.5180 -0.2951
 4827TIP3   OH214444   0.202   4.270   2.411 -0.4731 -0.2217  0.6846
 4827TIP3    H114445   0.134   4.315   2.460 -0.2734 -0.3739  1.1036
 4827TIP3    H214446   0.285   4.305   2.445 -0.3474  0.3070 -0.1512
 4828TIP3   OH214447   4.136   1.884   4.926  0.0425  0.0605  0.2102
 4828TIP3    H114448   4.130   1.975   4.956  0.3447  0.0382  0.3407
 4828TIP3    H214449   4.053   1.844   4.954  0.8184 -0.3001  2.1596
 4829TIP3   OH214450   0.638   0.370   5.246  0.1045 -0.0209  0.0935
 4829TIP3    H114451   0.603   0.422   5.319 -1.3217 -0.1523 -0.4628
 4829TIP3    H214452   0.653   0.283   5.284 -4.8111 -1.4530 -0.6047
 4830TIP3   OH214453   4.119   4.299   4.017  0.4583 -0.5958 -0.0176
 4830TIP3    H114454   4.067   4.362   4.068  0.3988 -0.9387  0.3534
 4830TIP3    H214455   4.130   4.224   4.076  1.8152 -0.3316  0.1008
 4831TIP3   OH214456   4.628   5.164   2.194 -0.3329 -0.0619  0.0959
 4831TIP3    H114457   4.666   5.106   2.128 -0.7252  0.3127 -0.4715
 4831TIP3    H214458   4.605   5.105   2.267 -0.2232 -0.5370 -0.2477
 4832TIP3   OH214459   2.605   2.645   4.759 -0.1415 -0.0539 -0.1346
 4832TIP3    H114460   2.591   2.731   4.718  2.0134  0.1778 -0.5037
 4832TIP3    H214461   2.569   2.582   4.696 -1.9765  0.5412  0.2519
 4833TIP3   OH214462   5.623   4.670   3.860 -0.5689 -0.2232 -0.0725
 4833TIP3    H114463   5.705   4.623   3.874  0.8804  2.2426  0.3624
 4833TIP3    H214464   5.604   4.710   3.945 -1.7596 -0.0285 -0.4174
 4834TIP3   OH214465   1.352   3.462   3.321 -0.3742  0.4684  0.4175
 4834TIP3    H114466   1.384   3.398   3.385  0.1568  0.8751  0.5566
 4834TIP3    H214467   1.342   3.411   3.240  1.9408  0.6058 -0.0117
 4835TIP3   OH214468   4.108   3.141   0.500 -0.0228  0.0847  0.4482
 4835TIP3    H114469   4.097   3.051   0.533  0.9832 -0.5810 -0.9306
 4835TIP3    H214470   4.022   3.181   0.512 -0.9057 -1.5136 -0.1558
 4836TIP3   OH214471   7.179   0.535   0.734  0.1558 -0.6875  0.1351
 4836TIP3    H114472   7.245   0.469   0.710  1.1062  0.8160 -1.5801
 4836TIP3    H214473   7.104   0.483   0.763 -0.1025 -2.7262 -3.5582
 4837TIP3   OH214474   2.108   4.177   4.806  0.4817  0.4693 -0.3234
 4837TIP3    H114475   2.056   4.252   4.776  0.4427 -0.4654 -2.8354
 4837TIP3    H214476   2.045   4.121   4.851  0.1919  1.1918  0.1967
 4838TIP3   OH214477   5.820   4.501   5.564  0.1405 -0.8102 -0.5549
 4838TIP3    H114478   5.772   4.540   5.491 -1.2225 -1.2222  0.0867
 4838TIP3    H214479   5.761   4.509   5.639  1.8460  0.3876  0.7306
 4839TIP3   OH214480   6.569   2.455   0.322  0.1005  0.1602  1.0108
 4839TIP3    H114481   6.482   2.417   0.325  0.1377 -0.1785 -1.0094
 4839TIP3    H214482   6.572   2.503   0.240  1.2221  1.7159  1.8964
 4840TIP3   OH214483   3.401   0.032   3.126 -0.2414 -0.0194 -0.1877
 4840TIP3    H114484   3.478   0.086   3.104  0.0299 -0.2107  0.2890
 4840TIP3    H214485   3.392  -0.027   3.051  1.4175 -1.4862  0.6906
 4841TIP3   OH214486   3.218   4.002   3.481  0.8402 -0.2531 -0.5039
 4841TIP3    H114487   3.176   4.080   3.446 -0.1336 -0.5889 -0.1283
 4841TIP3    H214488   3.184   3.931   3.426 -0.5698 -0.7628  0.9410
 4842TIP3   OH214489   6.768   3.447   1.511 -0.3858 -1.1175 -0.6851
 4842TIP3    H114490   6.798   3.507   1.580 -1.9308  0.2930 -1.1778
 4842TIP3    H214491   6.840   3.446   1.448  0.9502 -2.2468  0.7898
 4843TIP3   OH214492   6.196   4.602   5.492 -0.3702 -0.6604 -0.0020
 4843TIP3    H114493   6.243   4.670   5.445 -0.5701 -1.0296 -0.7533
 4843TIP3    H214494   6.108   4.638   5.505  0.1550  0.1368  1.6350
 4844TIP3   OH214495   0.962   3.731   5.363 -0.1148 -0.0138  0.6157
 4844TIP3    H114496   0.926   3.673   5.295  1.2460  0.8296 -0.8964
 4844TIP3    H214497   0.901   3.804   5.369  0.5398  0.6975 -0.9006
 4845TIP3   OH214498   7.020   4.958   1.042 -0.1376 -0.4497  0.2093
 4845TIP3    H114499   7.116   4.957   1.033 -0.2364 -0.5227 -1.0017
 4845TIP3    H214500   7.004   4.916   1.127  0.8387 -2.3597 -0.4913
 4846TIP3   OH214501   6.398   1.764   0.196 -0.5323  0.2897 -0.3667
 4846TIP3    H114502   6.373   1.726   0.111 -0.2602  3.6252 -2.0919
 4846TIP3    H214503   6.493   1.769   0.193 -0.3321 -1.4354  1.1217
 4847TIP3   OH214504   6.245   6.028   3.421  0.5918  0.5541 -0.0851
 4847TIP3    H114505   6.173   6.088   3.399 -0.2982  1.0973  3.6375
 4847TIP3    H214506   6.304   6.081   3.475  1.5273 -1.0466  0.5233
 4848TIP3   OH214507   2.498   2.596   1.296 -0.2836 -0.7152  0.4510
 4848TIP3    H114508   2.441   2.535   1.342  0.6822 -0.8408  1.5515
 4848TIP3    H214509   2.578   2.546   1.278  0.0241 -0.1555  0.2175
 4849TIP3   OH214510   6.855   1.812   4.950 -0.1853 -0.3627 -0.4236
 4849TIP3    H114511   6.795   1.875   4.910 -1.3253 -1.2668 -0.1774
 4849TIP3    H214512   6.895   1.766   4.876 -0.7558 -0.6313 -0.5656
 4850TIP3   OH214513   2.150   6.736   2.622 -0.2409 -0.1810 -0.1560
 4850TIP3    H114514   2.071   6.707   2.667 -1.4368  1.3879 -1.1274
 4850TIP3    H214515   2.150   6.831   2.634  0.7291 -0.0070 -1.3821
 4851TIP3   OH214516   4.770   0.331   0.848 -0.3303 -0.7249 -0.3162
 4851TIP3    H114517   4.701   0.324   0.782  0.4394 -1.1805 -1.0914
 4851TIP3    H214518   4.791   0.240   0.870  0.1941 -0.5921 -0.2656
 4852TIP3   OH214519   7.227   3.757   1.690  0.6568 -0.1467 -0.1194
 4852TIP3    H114520   7.145   3.709   1.678 -0.0694  1.2984 -1.2387
 4852TIP3    H214521   7.221   3.791   1.779  0.8885 -1.5062  0.4527
 4853TIP3   OH214522   3.071   1.866   4.361  0.3875  0.7110 -0.0620
 4853TIP3    H114523   3.006   1.893   4.296 -0.1069 -0.0537  0.0917
 4853TIP3    H214524   3.031   1.789   4.403  1.1164  0.6224  0.4817
 4854TIP3   OH214525   7.102   0.409   0.237  0.1513  0.1845  0.2046
 4854TIP3    H114526   7.068   0.484   0.189 -1.1835 -0.4435  0.1304
 4854TIP3    H214527   7.197   0.418   0.230  0.1423  3.1021  2.1632
 4855TIP3   OH214528   0.004   3.939   1.478 -0.3897 -0.7047 -0.1124
 4855TIP3    H114529   0.008   3.864   1.537 -0.6008 -0.5290  0.1270
 4855TIP3    H214530   0.093   3.946   1.442  0.0889 -0.0536  1.1370
 4856TIP3   OH214531   4.566   5.276   0.348  0.8541 -0.1703  0.0480
 4856TIP3    H114532   4.542   5.194   0.307 -1.4094  0.1349  0.6223
 4856TIP3    H214533   4.545   5.343   0.283  2.7575 -0.0044 -0.4479
 4857TIP3   OH214534   4.194   1.192   3.218  0.0015  0.9016 -0.1784
 4857TIP3    H114535   4.268   1.141   3.185 -0.0210  0.5292  0.3437
 4857TIP3    H214536   4.118   1.158   3.171 -0.2255 -0.5079  1.1621
 4858TIP3   OH214537   5.939   1.764   5.750 -0.1163  0.4201 -0.1414
 4858TIP3    H114538   5.990   1.686   5.772 -1.4990 -0.4854  0.0215
 4858TIP3    H214539   5.865   1.730   5.699 -1.2212  1.4954  0.6882
 4859TIP3   OH214540   3.472   2.342   3.282  0.0780  0.5490  0.0873
 4859TIP3    H114541   3.460   2.419   3.226  1.5744  0.6660 -0.1214
 4859TIP3    H214542   3.456   2.373   3.370 -0.5635  0.7975 -0.1141
 4860TIP3   OH214543   4.304   6.469   0.753  0.4952  0.3656 -0.1074
 4860TIP3    H114544   4.254   6.475   0.835 -0.0429  0.0060 -0.4034
 4860TIP3    H214545   4.275   6.386   0.714 -0.3444  1.2135 -1.3749
 4861TIP3   OH214546   2.271   3.786   0.861  0.0772 -0.3209 -0.3681
 4861TIP3    H114547   2.290   3.860   0.803  0.6630  0.0274  0.2478
 4861TIP3    H214548   2.191   3.813   0.908  2.0156  1.4425  2.2243
 4862TIP3   OH214549   4.788   1.536   5.828  0.0663  0.5347 -0.2751
 4862TIP3    H114550   4.761   1.590   5.902  0.4140  0.8657 -0.3898
 4862TIP3    H214551   4.747   1.451   5.845 -1.4374  1.1497 -0.6914
 4863TIP3   OH214552   2.878   6.342   5.770  0.4904  0.5186 -0.1528
 4863TIP3    H114553   2.866   6.248   5.786 -1.0186  0.8490  0.8214
 4863TIP3    H214554   2.836   6.357   5.685 -0.5617  0.5511  0.3589
 4864TIP3   OH214555   3.279   3.189   5.003 -0.2102  0.4368  0.0346
 4864TIP3    H114556   3.229   3.243   4.942  0.0211 -0.3757 -0.9095
 4864TIP3    H214557   3.355   3.242   5.026  0.9060 -0.0719 -2.2049
 4865TIP3   OH214558   2.290   2.986   4.617  0.1377 -0.7557 -0.5466
 4865TIP3    H114559   2.203   3.021   4.634 -0.5006 -2.1457 -0.8342
 4865TIP3    H214560   2.278   2.891   4.617  1.7136 -0.9793 -0.2878
 4866TIP3   OH214561   4.517   0.781   3.610  0.1408 -0.2205  0.1480
 4866TIP3    H114562   4.559   0.835   3.678  1.8926 -0.1092 -0.9721
 4866TIP3    H214563   4.492   0.844   3.543 -0.5221 -0.4690  0.1610
 4867TIP3   OH214564   4.559   2.832   0.957  1.1054  0.3794 -0.0464
 4867TIP3    H114565   4.572   2.927   0.960  0.6001  0.4637 -0.3903
 4867TIP3    H214566   4.570   2.804   1.047 -1.3642  1.1323  0.5756
 4868TIP3   OH214567   4.319   2.044   4.401 -0.1431  0.0958  0.2014
 4868TIP3    H114568   4.303   2.138   4.409 -2.3629 -0.1430 -0.6472
 4868TIP3    H214569   4.266   2.005   4.470  2.5194 -0.4984  2.0530
 4869TIP3   OH214570   0.470   2.326   3.214  0.0368  0.5772 -0.2846
 4869TIP3    H114571   0.524   2.405   3.223  0.1048  0.6072 -0.8614
 4869TIP3    H214572   0.487   2.276   3.293  0.8196  0.6473 -0.3934
 4870TIP3   OH214573   0.355   0.712   4.403 -0.3336  0.3901 -0.7940
 4870TIP3    H114574   0.266   0.684   4.385 -1.0217  2.1145 -0.3260
 4870TIP3    H214575   0.394   0.640   4.452 -1.7674 -0.0361 -0.2351
 4871TIP3   OH214576   5.834   5.761   1.019  0.5690  0.1397 -0.3070
 4871TIP3    H114577   5.824   5.669   1.044 -0.5029  0.3180 -0.0195
 4871TIP3    H214578   5.845   5.759   0.924 -1.2621 -0.1889 -0.5401
 4872TIP3   OH214579   2.130   0.164   2.879  0.0494 -0.7314  0.1786
 4872TIP3    H114580   2.103   0.253   2.903 -0.1361 -0.7569  0.0728
 4872TIP3    H214581   2.193   0.176   2.808  0.5967 -0.6565  0.6770
 4873TIP3   OH214582   3.633   2.367   5.563  0.1010 -0.3104  0.0500
 4873TIP3    H114583   3.538   2.369   5.567 -0.0098 -0.2529 -1.9262
 4873TIP3    H214584   3.658   2.292   5.617 -1.0589 -0.4533  0.4057
 4874TIP3   OH214585   0.315   6.431   2.626 -0.2590 -0.0251 -0.1981
 4874TIP3    H114586   0.410   6.439   2.633 -0.0732  1.3249 -2.8979
 4874TIP3    H214587   0.299   6.414   2.533 -2.6788  0.4362  0.0631
 4875TIP3   OH214588   6.644   3.946   0.502 -0.3621 -0.2451 -0.0687
 4875TIP3    H114589   6.685   3.863   0.527 -1.1275 -0.4122  0.6502
 4875TIP3    H214590   6.669   3.958   0.410  0.9155 -0.5688  0.2095
 4876TIP3   OH214591   6.993   3.612   1.714  0.3377 -0.5313 -0.5919
 4876TIP3    H114592   7.013   3.569   1.798 -1.0946 -1.3200 -0.6283
 4876TIP3    H214593   6.931   3.681   1.737 -0.9060 -1.4433 -1.1213
 4877TIP3   OH214594   0.821   0.086   3.423  0.5547  0.6759 -0.1826
 4877TIP3    H114595   0.878   0.015   3.454 -0.4239  0.6038  1.5533
 4877TIP3    H214596   0.795   0.058   3.335  1.9012 -0.0558 -0.3816
 4878TIP3   OH214597   4.543   1.068   2.108 -0.7205  0.7423  0.0743
 4878TIP3    H114598   4.518   0.992   2.055 -1.7839  0.3974  1.0264
 4878TIP3    H214599   4.637   1.078   2.092 -0.6868 -0.3640 -0.5806
 4879TIP3   OH214600   0.060   3.769   0.261  0.3810  0.1062 -0.0850
 4879TIP3    H114601   0.080   3.683   0.223 -0.0439  0.6060 -1.4895
 4879TIP3    H214602   0.144   3.812   0.268  0.8798 -1.1011  2.4647
 4880TIP3   OH214603   0.986   1.581   0.779 -0.3477 -0.0980 -0.4002
 4880TIP3    H114604   1.045   1.634   0.833 -0.7982  0.9551 -0.8956
 4880TIP3    H214605   0.997   1.616   0.690 -1.6363  0.0695 -0.5195
 4881TIP3   OH214606   2.103   1.496   5.034 -0.0543 -0.0417 -0.4116
 4881TIP3    H114607   2.011   1.518   5.050 -0.0112  0.3978 -0.7393
 4881TIP3    H214608   2.122   1.538   4.949  0.4609 -0.0868 -0.3168
 4882TIP3   OH214609   6.351   2.488   2.398  0.2276 -0.1151 -0.0361
 4882TIP3    H114610   6.445   2.491   2.414  0.0640 -0.3307  1.0778
 4882TIP3    H214611   6.312   2.515   2.482 -0.6862  1.2516 -0.8651
 4883TIP3   OH214612   2.623   3.563   4.009 -0.3257  0.2551 -0.4976
 4883TIP3    H114613   2.595   3.555   3.918 -1.9505 -0.6862  0.0408
 4883TIP3    H214614   2.642   3.473   4.037 -0.4865  0.4502  0.2715
 4884TIP3   OH214615   5.534   0.106   3.461  0.1505 -0.2279  0.4980
 4884TIP3    H114616   5.535   0.201   3.475  1.1131  0.0206 -0.9712
 4884TIP3    H214617   5.442   0.086   3.445  0.1812  0.8681 -1.3546
 4885TIP3   OH214618   1.905   1.152   1.983  0.0154 -0.5514 -0.0438
 4885TIP3    H114619   1.913   1.248   1.986 -0.1912 -0.5294 -0.1860
 4885TIP3    H214620   1.980   1.124   1.930 -1.8889 -0.1889 -3.1330
 4886TIP3   OH214621   2.470   1.554   5.763 -0.6978 -0.2119 -0.1170
 4886TIP3    H114622   2.454   1.545   5.669  0.1142 -2.0364 -0.1175
 4886TIP3    H214623   2.538   1.490   5.782 -0.7249  0.2485  1.7027
 4887TIP3   OH214624   6.430   6.431   2.686  0.3744  0.2701 -0.1559
 4887TIP3    H114625   6.524   6.415   2.677  0.2312 -0.1894 -0.9479
 4887TIP3    H214626   6.397   6.355   2.734  0.4472  0.5724  0.3801
 4888TIP3   OH214627   1.356   2.060   2.016  0.2236 -0.5751  0.0492
 4888TIP3    H114628   1.347   2.017   2.101 -1.2016  0.3169  0.3947
 4888TIP3    H214629   1.431   2.119   2.027 -2.0264  2.2192  1.9976
 4889TIP3   OH214630   6.538   6.670   1.601  0.2211  0.4193  0.1869
 4889TIP3    H114631   6.560   6.761   1.618 -1.5357  0.7273  1.0566
 4889TIP3    H214632   6.605   6.640   1.539  1.9294  1.7258  1.2974
 4890TIP3   OH214633   2.073   2.251   0.200 -0.1381  0.4412 -0.1438
 4890TIP3    H114634   1.997   2.201   0.229  1.5537 -0.8438  2.4004
 4890TIP3    H214635   2.148   2.209   0.243  1.8742  2.5768 -1.3207
 4891TIP3   OH214636   6.144   0.251   2.662  0.1680 -0.2328  0.4356
 4891TIP3    H114637   6.154   0.324   2.602  2.1930 -0.1662  0.7794
 4891TIP3    H214638   6.093   0.286   2.735 -0.0589  0.4229 -0.0304
 4892TIP3   OH214639   4.779   1.333   5.069  0.5912 -0.8358 -0.7008
 4892TIP3    H114640   4.844   1.311   5.135  0.2103 -0.8670 -0.3317
 4892TIP3    H214641   4.705   1.275   5.088 -0.2481  0.4003 -0.0004
 4893TIP3   OH214642   6.545   1.068   5.915  0.9123 -0.0656 -0.1634
 4893TIP3    H114643   6.509   1.030   5.834  1.8274 -0.0098 -0.6114
 4893TIP3    H214644   6.486   1.141   5.936  0.0348 -0.7588 -0.1604
 4894TIP3   OH214645   5.869   6.663   5.328  0.2066  0.1689 -0.4956
 4894TIP3    H114646   5.846   6.591   5.271 -2.6955  0.2749  0.3670
 4894TIP3    H214647   5.838   6.741   5.282  0.0407  0.4822  0.1319
 4895TIP3   OH214648   2.305   4.728   1.217  0.3540 -0.0163  0.1289
 4895TIP3    H114649   2.367   4.660   1.189 -0.3927 -1.9305  2.6920
 4895TIP3    H214650   2.221   4.701   1.180  0.1655 -0.1930  0.6738
 4896TIP3   OH214651   0.216   5.925   0.650 -0.1008 -0.2563  0.0596
 4896TIP3    H114652   0.232   5.967   0.565 -0.7327  1.3511  0.6889
 4896TIP3    H214653   0.302   5.924   0.692  0.7810 -3.4139 -1.5159
 4897TIP3   OH214654   2.088   5.297   0.930 -0.2528  0.4028 -0.3374
 4897TIP3    H114655   2.082   5.301   1.025 -1.1536  0.4343 -0.3859
 4897TIP3    H214656   2.164   5.352   0.908  1.3448 -1.3773  0.4834
 4898TIP3   OH214657   1.779   6.323   1.573 -0.3747  0.4008 -0.1670
 4898TIP3    H114658   1.705   6.334   1.514 -1.0429 -1.3577  0.2816
 4898TIP3    H214659   1.798   6.229   1.571  0.3613  0.4768  1.4878
 4899TIP3   OH214660   1.443   4.791   4.198 -0.0769  0.0734  0.5394
 4899TIP3    H114661   1.358   4.748   4.192  0.0297 -0.0765  0.0849
 4899TIP3    H214662   1.490   4.743   4.267  0.6037 -1.5362 -0.9775
 4900TIP3   OH214663   3.838   6.768   0.446  0.5018  0.0536  0.4014
 4900TIP3    H114664   3.790   6.806   0.520  0.8379  1.1169  0.0913
 4900TIP3    H214665   3.771   6.746   0.382  0.2739 -0.1697  0.7128
 4901TIP3   OH214666   6.019   0.615   2.884  0.1731  0.1482  0.4864
 4901TIP3    H114667   6.040   0.523   2.875 -1.9461 -0.4751  1.2829
 4901TIP3    H214668   6.047   0.655   2.802  2.0334 -0.9752  0.5186
 4902TIP3   OH214669   0.187   2.798   0.959 -0.6095  0.1083  0.2511
 4902TIP3    H114670   0.216   2.734   1.023  0.1328 -0.8547 -1.0039
 4902TIP3    H214671   0.104   2.764   0.926 -0.8628  0.4688  0.5052
 4903TIP3   OH214672   3.020   3.595   2.918  0.2891 -0.1754  0.6433
 4903TIP3    H114673   3.005   3.502   2.902 -1.0507 -0.1316  1.4905
 4903TIP3    H214674   3.097   3.616   2.864  1.4736 -2.0636  1.4741
 4904TIP3   OH214675   2.005   5.569   1.885 -0.5777 -0.3956  0.3381
 4904TIP3    H114676   1.977   5.477   1.882 -1.0905 -0.2262 -0.4301
 4904TIP3    H214677   1.930   5.615   1.922 -0.2667 -0.3027  0.8570
 4905TIP3   OH214678   2.160   4.520   3.067 -0.0268 -0.0214  0.2199
 4905TIP3    H114679   2.081   4.477   3.100  1.7528 -2.4325  1.6969
 4905TIP3    H214680   2.145   4.529   2.973 -2.9584  1.8473  0.7121
 4906TIP3   OH214681   0.339   5.994   3.877  0.0947  0.5268  0.1116
 4906TIP3    H114682   0.366   6.086   3.873 -1.6916  1.1183 -4.1437
 4906TIP3    H214683   0.396   5.950   3.814 -1.9999 -0.2470 -1.3525
 4907TIP3   OH214684   0.950   1.515   1.248 -1.0435 -0.6283  0.0385
 4907TIP3    H114685   1.020   1.486   1.189 -1.1026 -1.4359  0.3553
 4907TIP3    H214686   0.888   1.442   1.250 -1.9900  0.1333 -0.3595
 4908TIP3   OH214687   5.040   1.267   4.367  0.2871  0.1990  0.4250
 4908TIP3    H114688   4.977   1.219   4.313  2.3345 -0.0871 -1.8929
 4908TIP3    H214689   5.002   1.265   4.455 -2.1034 -1.3492 -0.5233
 4909TIP3   OH214690   0.022   2.855   0.560  0.4284  0.4326 -0.1571
 4909TIP3    H114691   0.031   2.873   0.466 -1.9394  1.1623 -0.3152
 4909TIP3    H214692   0.023   2.760   0.566  1.0124  0.3786 -0.8473
 4910TIP3   OH214693   0.854   1.020   3.964 -0.1571 -0.2731 -0.0335
 4910TIP3    H114694   0.894   0.943   4.003  0.5531  0.2957  0.3884
 4910TIP3    H214695   0.913   1.044   3.893  0.9364  1.2355  1.2982
 4911TIP3   OH214696   5.461   6.246   2.559  0.3631  0.1116 -0.5339
 4911TIP3    H114697   5.414   6.285   2.485  0.5437  0.1280 -0.6411
 4911TIP3    H214698   5.509   6.173   2.520 -1.0154 -1.0790 -0.1236
 4912TIP3   OH214699   0.621   0.268   2.723  0.3045 -0.6434  0.6596
 4912TIP3    H114700   0.706   0.306   2.702  0.3389 -1.3866 -0.6717
 4912TIP3    H214701   0.641   0.177   2.747 -0.1240 -0.8630  0.1942
 4913TIP3   OH214702   7.102   1.654   5.307 -0.5355  0.5305  0.2404
 4913TIP3    H114703   7.162   1.705   5.251 -0.2666 -0.5064 -0.4325
 4913TIP3    H214704   7.121   1.685   5.396  0.9949  0.2585  0.0377
 4914TIP3   OH214705   1.962   0.401   2.889 -0.0978  0.4981  0.2455
 4914TIP3    H114706   2.012   0.434   2.964 -1.8076  3.3576  0.2837
 4914TIP3    H214707   1.873   0.391   2.922 -0.3841 -0.6060 -0.8048
 4915TIP3   OH214708   1.205   5.339   5.661  0.3769  0.0152  0.0060
 4915TIP3    H114709   1.187   5.302   5.748 -0.8483 -1.0258 -0.6521
 4915TIP3    H214710   1.158   5.281   5.601  0.0798  1.4988 -1.2461
 4916TIP3   OH214711   7.077   5.178   1.735  0.1749  0.0760 -0.1404
 4916TIP3    H114712   7.103   5.265   1.767 -0.6518  0.1727  0.2885
 4916TIP3    H214713   7.110   5.118   1.801 -1.1419  0.2421  0.7018
 4917TIP3   OH214714   1.764   2.228   3.233 -0.5753 -0.1159  0.2010
 4917TIP3    H114715   1.837   2.189   3.184 -1.3219  1.1719 -2.0645
 4917TIP3    H214716   1.690   2.170   3.214 -1.3062  1.3782 -1.8581
 4918TIP3   OH214717   3.539   1.593   1.890  0.2019 -0.1317  0.1805
 4918TIP3    H114718   3.564   1.524   1.951  0.4552  0.7124  1.0570
 4918TIP3    H214719   3.465   1.637   1.932  0.7617  0.8436  0.2002
 4919TIP3   OH214720   1.025   6.332   2.419 -0.5175  0.0078  0.3812
 4919TIP3    H114721   1.071   6.340   2.502  0.9691  0.7726 -0.4739
 4919TIP3    H214722   0.956   6.399   2.423  1.5973  2.3929 -0.2139
 4920TIP3   OH214723   3.110   0.095   0.056 -0.5682  0.2975 -0.3053
 4920TIP3    H114724   3.082   0.182   0.028  1.0509  0.6192 -1.0409
 4920TIP3    H214725   3.206   0.100   0.056 -0.4648 -1.2127  0.5314
 4921TIP3   OH214726   3.724   5.848   1.176  0.1355 -0.1653 -0.6085
 4921TIP3    H114727   3.696   5.780   1.237 -0.5702 -0.9670 -1.7746
 4921TIP3    H214728   3.791   5.896   1.223  0.5794 -1.5963  0.2990
 4922TIP3   OH214729   3.541   6.247   1.475  0.1341  0.2018  0.1517
 4922TIP3    H114730   3.531   6.341   1.465 -1.0744  0.0282 -0.3971
 4922TIP3    H214731   3.465   6.209   1.430 -0.4570 -0.9501  1.9952
 4923TIP3   OH214732   0.695   0.392   2.326  0.1172  0.0790 -0.6958
 4923TIP3    H114733   0.641   0.471   2.323 -2.7223 -1.7630 -1.0487
 4923TIP3    H214734   0.703   0.365   2.235  1.9625  0.4311 -0.6849
 4924TIP3   OH214735   2.039   5.518   4.616  0.0265  0.2840 -0.2378
 4924TIP3    H114736   2.020   5.464   4.539 -0.3191  1.7029 -1.1691
 4924TIP3    H214737   1.978   5.591   4.610  0.0250  0.4386  1.3802
 4925TIP3   OH214738   3.228   5.583   2.880 -0.0983  0.0114  0.3949
 4925TIP3    H114739   3.205   5.564   2.789  0.6537 -1.9761  0.5753
 4925TIP3    H214740   3.311   5.630   2.875 -0.5115  0.7202  0.0385
 4926TIP3   OH214741   5.326   1.436   1.531 -0.1175  0.0747 -0.4399
 4926TIP3    H114742   5.381   1.501   1.576  0.3668 -0.3825 -0.3547
 4926TIP3    H214743   5.362   1.352   1.559 -2.1617 -0.3119  1.2625
 4927TIP3   OH214744   4.100   2.752   1.192  0.1144  0.8004 -0.3809
 4927TIP3    H114745   4.068   2.687   1.130  3.0335 -1.1051 -0.0447
 4927TIP3    H214746   4.102   2.834   1.142  1.3259 -0.4515 -2.5060
 4928TIP3   OH214747   0.506   4.346   5.405  0.0535  0.3340  0.0711
 4928TIP3    H114748   0.510   4.287   5.330  4.3926 -0.5303  0.6949
 4928TIP3    H214749   0.555   4.424   5.377 -0.8978  1.3289  1.0522
 4929TIP3   OH214750   7.025   0.088   0.742  0.1880  0.1169 -0.1006
 4929TIP3    H114751   7.050   0.150   0.674 -0.0747  0.5330  0.1744
 4929TIP3    H214752   6.958   0.033   0.701 -1.1258  1.3780  0.2849
 4930TIP3   OH214753   4.912   2.086   1.899  0.1052  0.0208  0.5377
 4930TIP3    H114754   4.959   2.091   1.982  0.5415 -0.3106  0.3154
 4930TIP3    H214755   4.969   2.132   1.837  1.3529 -2.4264 -0.2646
 4931TIP3   OH214756   0.072   5.032   1.882 -0.1957  0.4697  0.2756
 4931TIP3    H114757   0.031   5.024   1.968  0.1715  1.1264  0.5155
 4931TIP3    H214758   0.118   4.949   1.869 -0.8219  0.0915  0.4048
 4932TIP3   OH214759   2.464   1.499   0.676  0.2782 -0.1025  0.2411
 4932TIP3    H114760   2.432   1.589   0.685  0.9051  0.0244  1.5226
 4932TIP3    H214761   2.513   1.499   0.594 -0.6253  0.4306 -0.3141
 4933TIP3   OH214762   0.275   5.693   3.961 -0.0873  0.2830 -0.6709
 4933TIP3    H114763   0.202   5.755   3.958 -0.0414  0.5227  1.6918
 4933TIP3    H214764   0.328   5.721   4.035 -0.2803 -2.7706  0.7735
 4934TIP3   OH214765   0.585   0.302   1.237  0.4041 -0.6750  0.3312
 4934TIP3    H114766   0.590   0.397   1.250 -0.0636 -0.5682 -0.2344
 4934TIP3    H214767   0.669   0.278   1.199  0.3342 -0.4057  0.0028
 4935TIP3   OH214768   1.997   2.274   1.057  0.1325 -0.4482 -0.4455
 4935TIP3    H114769   2.062   2.239   1.118 -0.3903  1.2046  1.1342
 4935TIP3    H214770   1.915   2.233   1.083  0.0107 -0.1813 -0.4014
 4936TIP3   OH214771   5.460   5.901   0.688 -0.2740 -0.1076  0.2290
 4936TIP3    H114772   5.463   5.925   0.595 -0.3925  0.5151  0.3778
 4936TIP3    H214773   5.368   5.879   0.704 -0.1281 -0.8730  0.0452
 4937TIP3   OH214774   6.800   3.802   1.797  0.2130  0.3377  0.3124
 4937TIP3    H114775   6.799   3.898   1.802  1.1136  0.5256 -1.8652
 4937TIP3    H214776   6.710   3.776   1.815 -0.6595  1.8107 -1.5465
 4938TIP3   OH214777   1.207   3.528   0.516 -0.1107 -0.1890 -0.1717
 4938TIP3    H114778   1.247   3.441   0.515  0.7051  0.1007  2.3854
 4938TIP3    H214779   1.118   3.514   0.481 -0.9944 -2.6237  2.6877
 4939TIP3   OH214780   3.454   6.778   5.600 -0.1640  0.7011 -0.0218
 4939TIP3    H114781   3.372   6.752   5.559  0.7443 -0.2976 -1.2858
 4939TIP3    H214782   3.476   6.705   5.658 -0.2254  1.0044  0.3785
 4940TIP3   OH214783   5.385   6.350   5.721 -0.4702  0.9965  0.3133
 4940TIP3    H114784   5.342   6.436   5.719  1.0618  1.8364  1.5230
 4940TIP3    H214785   5.476   6.370   5.742 -0.0244 -0.9178  0.3058
 4941TIP3   OH214786   3.513   1.284   2.922  0.6044 -0.1026  0.1699
 4941TIP3    H114787   3.480   1.197   2.945  1.0418 -0.1876  0.4837
 4941TIP3    H214788   3.501   1.335   3.002  0.5229  0.0715  0.0445
 4942TIP3   OH214789   5.020   5.543   2.495  0.2320  0.3200  0.4594
 4942TIP3    H114790   5.109   5.567   2.469  0.4515  0.4226  1.2746
 4942TIP3    H214791   5.025   5.451   2.519  0.2378  0.4626  1.0132
 4943TIP3   OH214792   3.535   5.746   4.882 -0.4135  0.0082  0.0986
 4943TIP3    H114793   3.574   5.729   4.967 -1.3467 -0.4035  0.4538
 4943TIP3    H214794   3.598   5.709   4.819  0.0487 -0.1147  0.6226
 4944TIP3   OH214795   1.708   6.054   1.160  0.4030  0.1559 -0.2255
 4944TIP3    H114796   1.634   6.064   1.220  0.4887 -0.4201 -0.0245
 4944TIP3    H214797   1.687   5.977   1.108  0.3024  0.6845 -0.9836
 4945TIP3   OH214798   6.661   1.343   4.356  0.2480  0.2307 -0.3990
 4945TIP3    H114799   6.668   1.265   4.301 -1.0877 -0.3064  0.1399
 4945TIP3    H214800   6.637   1.413   4.296 -0.4454 -0.1883 -0.6276
 4946TIP3   OH214801   3.562   5.607   4.262  0.0060 -0.0722  0.2796
 4946TIP3    H114802   3.578   5.543   4.193 -1.1628 -1.1694  0.9991
 4946TIP3    H214803   3.507   5.562   4.325  0.4026  1.1644  1.5630
 4947TIP3   OH214804   6.887   3.249   3.190  0.2492 -0.2550  0.4189
 4947TIP3    H114805   6.858   3.293   3.110  0.1496  0.8272  1.0359
 4947TIP3    H214806   6.981   3.236   3.178 -0.0868 -1.9935 -0.7439
 4948TIP3   OH214807   4.187   6.227   0.643  0.0385 -0.4553 -0.0379
 4948TIP3    H114808   4.256   6.161   0.651 -0.6855 -1.2030  0.1838
 4948TIP3    H214809   4.112   6.188   0.689 -0.3868  0.5418  0.1261
 4949TIP3   OH214810   0.197   1.633   0.097 -0.5981 -0.2712  0.9473
 4949TIP3    H114811   0.150   1.643   0.014  0.9337  0.5085  0.1160
 4949TIP3    H214812   0.157   1.556   0.138 -1.1072 -0.9654 -0.7411
 4950TIP3   OH214813   4.154   4.917   5.810  0.5466 -0.0648  0.2208
 4950TIP3    H114814   4.136   4.985   5.875 -1.5187 -0.8694  0.5847
 4950TIP3    H214815   4.171   4.964   5.729  1.4355  0.9186  0.9572
 4951TIP3   OH214816   0.749   5.651   0.378 -0.4677 -0.4821  0.5162
 4951TIP3    H114817   0.800   5.571   0.393 -0.5414 -0.6022  0.1343
 4951TIP3    H214818   0.802   5.702   0.317  0.7164  0.8407  2.5546
 4952TIP3   OH214819   0.890   2.277   0.506 -0.1672  0.3837  0.1685
 4952TIP3    H114820   0.849   2.198   0.542 -0.6657  0.8977  0.7409
 4952TIP3    H214821   0.839   2.349   0.543  0.1961  0.9695 -0.4654
 4953TIP3   OH214822   5.929   5.777   3.967  0.0428 -0.1716  0.0465
 4953TIP3    H114823   5.996   5.770   4.036  1.8344  1.4123 -1.4113
 4953TIP3    H214824   5.971   5.741   3.889 -1.9078 -1.8172 -0.3170
 4954TIP3   OH214825   3.957   1.096   1.284 -0.1123  0.4783  0.2816
 4954TIP3    H114826   4.037   1.048   1.306  0.6584  0.9048 -1.4108
 4954TIP3    H214827   3.886   1.036   1.306  0.6981 -0.2194  1.0771
 4955TIP3   OH214828   3.924   4.984   2.991 -0.3382 -0.1368 -0.7187
 4955TIP3    H114829   3.995   4.956   2.934 -0.3097  0.4907 -0.9962
 4955TIP3    H214830   3.930   5.079   2.993 -0.9613 -0.0941 -0.4748
 4956TIP3   OH214831   4.190   6.091   1.494  0.0445  0.0412 -0.4290
 4956TIP3    H114832   4.223   6.175   1.525 -1.0412 -0.1197  1.2751
 4956TIP3    H214833   4.179   6.039   1.573 -1.1658 -1.0216 -1.2616
 4957TIP3   OH214834   4.057   6.012   3.124 -0.4243  0.1887 -0.7589
 4957TIP3    H114835   4.050   5.925   3.083 -1.2684  0.2222 -0.7029
 4957TIP3    H214836   4.014   6.001   3.209  0.4961  0.3646 -0.2643
 4958TIP3   OH214837   6.622   2.244   1.629 -0.2643 -0.1771 -0.7634
 4958TIP3    H114838   6.628   2.192   1.709  1.7430 -0.6974 -1.2042
 4958TIP3    H214839   6.576   2.188   1.567  1.4221 -1.2846 -1.0707
 4959TIP3   OH214840   4.795   3.764   2.635 -0.3526 -0.2876  0.0709
 4959TIP3    H114841   4.805   3.752   2.729  1.7007  2.4473  0.3220
 4959TIP3    H214842   4.846   3.693   2.596 -1.1896 -1.4173  0.9889
 4960TIP3   OH214843   4.462   4.567   4.963  0.7743 -0.3025 -0.2446
 4960TIP3    H114844   4.429   4.617   4.888 -3.5152 -0.1283  1.4568
 4960TIP3    H214845   4.466   4.477   4.931 -0.9276 -0.2253 -0.8073
 4961TIP3   OH214846   4.433   5.320   4.081 -0.0260 -0.1749 -0.6569
 4961TIP3    H114847   4.447   5.262   4.006  1.7212  0.3624 -0.7906
 4961TIP3    H214848   4.510   5.376   4.083 -0.2365  0.1197  1.2884
 4962TIP3   OH214849   2.689   0.602   0.846 -0.0160 -0.3116 -0.2232
 4962TIP3    H114850   2.747   0.604   0.770 -0.2740  1.3285 -0.4230
 4962TIP3    H214851   2.709   0.520   0.890 -0.3257 -1.6207 -2.4089
 4963TIP3   OH214852   2.639   4.772   4.500 -0.4751  0.6220 -0.5645
 4963TIP3    H114853   2.613   4.834   4.569  0.3646 -1.3349  1.6177
 4963TIP3    H214854   2.734   4.767   4.506 -0.4512 -0.2082 -1.3294
 4964TIP3   OH214855   4.732   2.214   0.299 -0.3848 -0.0788  0.6411
 4964TIP3    H114856   4.644   2.241   0.272  0.6796  0.9282 -2.2378
 4964TIP3    H214857   4.717   2.148   0.367 -3.2655  1.7978  2.0447
 4965TIP3   OH214858   5.092   3.592   0.283  0.0577  0.4174  0.2539
 4965TIP3    H114859   5.184   3.607   0.259 -0.8023  2.2814 -2.2004
 4965TIP3    H214860   5.074   3.503   0.253  1.0011  0.0840  0.6253
 4966TIP3   OH214861   6.556   2.495   5.521  0.8599 -0.0753 -0.2440
 4966TIP3    H114862   6.511   2.579   5.513  1.1053  0.1214  0.3677
 4966TIP3    H214863   6.555   2.458   5.433  0.3320  0.3538 -0.4208
 4967TIP3   OH214864   0.774   6.396   3.479  0.5139 -0.4170 -0.1625
 4967TIP3    H114865   0.741   6.322   3.529 -2.0805  2.1988  2.4156
 4967TIP3    H214866   0.851   6.425   3.528  1.0466 -0.8991 -0.7046
 4968TIP3   OH214867   5.207   0.566   0.092 -0.1824 -0.0273  0.2190
 4968TIP3    H114868   5.181   0.570  -0.000 -1.3687 -0.5285  0.5192
 4968TIP3    H214869   5.303   0.568   0.089 -0.1274 -2.0511 -1.1425
 4969TIP3   OH214870   6.396   5.093   3.159  0.0465 -0.2622  0.0229
 4969TIP3    H114871   6.413   5.185   3.180  1.7776 -0.6618  0.5166
 4969TIP3    H214872   6.389   5.091   3.064  1.5008  0.1799 -0.1191
 4970TIP3   OH214873   1.290   4.446   0.152 -0.6660  0.1483  0.2860
 4970TIP3    H114874   1.385   4.457   0.154 -0.6162 -0.1841 -0.3077
 4970TIP3    H214875   1.274   4.368   0.205 -0.5516 -0.1897 -0.1769
 4971TIP3   OH214876   4.893   2.009   4.839 -0.4545 -0.1093 -0.0430
 4971TIP3    H114877   4.898   2.104   4.849 -2.1746  0.0278 -0.1029
 4971TIP3    H214878   4.809   1.986   4.878  1.2010 -2.0490  2.7951
 4972TIP3   OH214879   5.471   1.403   4.625 -0.3533  0.7111 -0.2759
 4972TIP3    H114880   5.538   1.360   4.679  0.4502 -0.4343 -2.0899
 4972TIP3    H214881   5.423   1.331   4.584 -2.3881  1.5226  0.5320
 4973TIP3   OH214882   0.279   4.475   3.745 -0.0549 -0.0114 -0.0034
 4973TIP3    H114883   0.310   4.386   3.757 -0.1067  0.0797  0.8859
 4973TIP3    H214884   0.334   4.511   3.675 -1.1408 -1.2544 -1.5550
 4974TIP3   OH214885   5.192   3.564   5.231 -0.3362  0.4011 -0.4804
 4974TIP3    H114886   5.162   3.603   5.313  0.2948  0.6246 -0.3494
 4974TIP3    H214887   5.133   3.599   5.165 -1.4484 -0.5128 -0.0060
 4975TIP3   OH214888   4.544   1.008   5.405 -0.7665 -0.0408  0.4485
 4975TIP3    H114889   4.465   0.956   5.391  0.0637 -0.7557 -2.1567
 4975TIP3    H214890   4.567   1.040   5.318  1.1244  1.2143  1.3443
 4976TIP3   OH214891   0.223   0.903   4.199 -0.1150  0.0687  0.1807
 4976TIP3    H114892   0.291   0.892   4.133  0.8386  0.6574  1.0258
 4976TIP3    H214893   0.249   0.845   4.270 -0.0243  0.9308  0.8626
 4977TIP3   OH214894   4.906   1.427   4.857 -0.1198  0.0175 -0.0270
 4977TIP3    H114895   4.854   1.400   4.933 -0.3511  1.5897  0.3943
 4977TIP3    H214896   4.960   1.499   4.889  0.7292 -0.1480 -1.0363
 4978TIP3   OH214897   2.998   2.804   4.737 -0.1908 -0.3730 -0.4151
 4978TIP3    H114898   3.025   2.852   4.815  1.1607  0.1306 -1.1700
 4978TIP3    H214899   2.957   2.724   4.771 -1.8192  0.9191  0.8427
 4979TIP3   OH214900   1.750   0.259   0.125 -0.0038  0.4607  0.1960
 4979TIP3    H114901   1.772   0.325   0.060  0.0226 -1.5384 -1.9169
 4979TIP3    H214902   1.834   0.231   0.161  0.4057 -1.3385 -1.9618
 4980TIP3   OH214903   2.174   0.474   4.404 -0.3980  0.3613  0.3408
 4980TIP3    H114904   2.207   0.439   4.321 -0.6834  2.2486 -0.6311
 4980TIP3    H214905   2.224   0.554   4.418 -0.6677  0.3017  1.7924
 4981TIP3   OH214906   1.062   3.028   2.543  0.0002 -0.1228 -0.1243
 4981TIP3    H114907   1.055   3.123   2.536  0.1343 -0.0959  0.0986
 4981TIP3    H214908   1.151   3.008   2.515 -0.0095 -0.1755 -0.1176
 4982TIP3   OH214909   2.895   4.655   1.715  0.2325 -0.1666  0.7316
 4982TIP3    H114910   2.882   4.618   1.628  0.9734  1.0375  0.0787
 4982TIP3    H214911   2.930   4.582   1.767  0.4215 -0.7305 -0.1613
 4983TIP3   OH214912   6.115   1.362   5.559 -0.3690  0.2979 -0.0109
 4983TIP3    H114913   6.045   1.393   5.617 -0.4293  0.7528 -0.3190
 4983TIP3    H214914   6.091   1.272   5.539 -0.4435  0.1966  0.5252
 4984TIP3   OH214915   5.765   4.097   3.563  0.5071 -0.2169 -0.3695
 4984TIP3    H114916   5.853   4.084   3.528  0.3532  0.5408 -1.0885
 4984TIP3    H214917   5.709   4.099   3.485  0.1608  1.6136 -0.1148
 4985TIP3   OH214918   4.379   5.074   4.879  0.5181  0.6095  0.4782
 4985TIP3    H114919   4.369   5.040   4.790 -0.8143 -0.1427  0.8915
 4985TIP3    H214920   4.361   4.999   4.936  0.3531  1.3143  1.3820
 4986TIP3   OH214921   6.509   0.536   2.366  0.2281  0.1573  0.6044
 4986TIP3    H114922   6.593   0.490   2.359  1.3847  2.0905  0.8218
 4986TIP3    H214923   6.534   0.627   2.383 -1.8184  1.4146 -2.2619
 4987TIP3   OH214924   2.780   4.121   4.773  0.2288  0.5126 -0.4038
 4987TIP3    H114925   2.749   4.070   4.847  0.6207 -0.7521 -1.0717
 4987TIP3    H214926   2.876   4.120   4.782  0.3045 -0.1243 -1.2179
 4988TIP3   OH214927   4.344   0.303   5.265  0.7239 -0.5511  0.4451
 4988TIP3    H114928   4.266   0.269   5.222  0.5138 -0.4223  0.7257
 4988TIP3    H214929   4.324   0.300   5.359 -0.2655  2.6024  0.4292
 4989TIP3   OH214930   6.295   0.427   3.964  0.3994  0.4166  0.1421
 4989TIP3    H114931   6.371   0.429   4.021  0.4040 -3.2953  0.5563
 4989TIP3    H214932   6.230   0.374   4.012 -0.9686  0.2576 -1.7443
 4990TIP3   OH214933   7.093   5.007   5.260  0.1876 -0.1292  0.0327
 4990TIP3    H114934   6.998   4.991   5.264 -0.0570  1.3602  2.2101
 4990TIP3    H214935   7.100   5.103   5.260  1.6803 -0.1615  2.4935
 4991TIP3   OH214936   4.320   2.864   3.002  0.0101 -1.0808 -0.0497
 4991TIP3    H114937   4.354   2.951   3.025 -1.3907 -0.2949 -0.8401
 4991TIP3    H214938   4.363   2.843   2.919  1.0807 -1.6063  0.6060
 4992TIP3   OH214939   0.949   4.790   4.298 -0.2165  0.7930  0.2875
 4992TIP3    H114940   1.024   4.828   4.343  1.6316 -1.6968 -0.4537
 4992TIP3    H214941   0.979   4.703   4.271 -2.8814  0.2906 -1.4243
 4993TIP3   OH214942   4.044   5.105   4.621  0.0567 -0.7012  0.8532
 4993TIP3    H114943   4.050   5.157   4.540 -1.5016 -0.9471  0.5334
 4993TIP3    H214944   4.134   5.081   4.641  0.5100 -0.3829 -0.6538
 4994TIP3   OH214945   6.863   1.532   4.472 -0.2123 -0.2247 -0.5942
 4994TIP3    H114946   6.839   1.449   4.430 -0.4992 -0.5369  0.1689
 4994TIP3    H214947   6.800   1.595   4.437  1.1035  0.0740 -2.5288
 4995TIP3   OH214948   2.857   6.367   0.384  0.2496 -0.1548  0.2334
 4995TIP3    H114949   2.810   6.415   0.316  0.2423 -0.7207 -0.1675
 4995TIP3    H214950   2.870   6.431   0.453 -1.1052  0.0185  0.3569
 4996TIP3   OH214951   5.929   0.747   5.121 -0.3711 -0.0871  0.6912
 4996TIP3    H114952   6.019   0.720   5.102 -0.3010  0.2600  0.5186
 4996TIP3    H214953   5.923   0.835   5.084 -1.5846 -1.1171 -1.8150
 4997TIP3   OH214954   0.254   1.576   1.244  0.0892 -0.1072  0.1325
 4997TIP3    H114955   0.193   1.528   1.189 -0.8890  0.5872  0.5891
 4997TIP3    H214956   0.236   1.546   1.332  0.5257 -0.0192  0.2551
 4998TIP3   OH214957   2.675   2.659   1.808  0.5915  0.5640  0.0438
 4998TIP3    H114958   2.663   2.670   1.902  1.1014  2.7676 -0.0847
 4998TIP3    H214959   2.591   2.683   1.770  0.2524 -0.7436 -0.0647
 4999TIP3   OH214960   5.655   1.157   5.295 -0.1184  0.0848  0.2333
 4999TIP3    H114961   5.743   1.195   5.289  0.7388 -1.4820  1.8923
 4999TIP3    H214962   5.597   1.232   5.308  0.9581  1.1447 -0.7790
 5000TIP3   OH214963   5.564   1.597   1.618 -0.1867  0.0645  0.6762
 5000TIP3    H114964   5.581   1.631   1.530 -0.9019 -1.3552 -0.0509
 5000TIP3    H214965   5.649   1.597   1.661  0.7861 -1.9092 -1.0322
 5001TIP3   OH214966   4.356   2.230   1.195  0.2555 -0.3782  0.4381
 5001TIP3    H114967   4.298   2.287   1.146 -1.3416 -1.7203  0.6905
 5001TIP3    H214968   4.414   2.192   1.129  0.1529  0.1582  0.0306
 5002TIP3   OH214969   3.268   1.176   3.646  0.3046  0.0481  0.0558
 5002TIP3    H114970   3.277   1.123   3.725  3.3804  2.4726  1.5397
 5002TIP3    H214971   3.270   1.113   3.575 -0.1043 -2.0537  1.8022
 5003TIP3   OH214972   1.045   5.813   0.417 -0.0575 -0.1680  0.0018
 5003TIP3    H114973   1.032   5.768   0.334 -0.6114  0.5730 -0.3312
 5003TIP3    H214974   1.091   5.894   0.393  0.2978 -0.2252  0.4869
 5004TIP3   OH214975   4.713   3.878   1.903 -0.1476 -0.4864  0.3325
 5004TIP3    H114976   4.662   3.797   1.905  1.3674 -1.4745  2.6805
 5004TIP3    H214977   4.767   3.870   1.823 -0.8808 -1.2159 -0.1048
 5005TIP3   OH214978   1.300   0.175   0.152 -0.2824 -0.4023  0.8002
 5005TIP3    H114979   1.211   0.153   0.181 -0.5736  1.2671  1.3300
 5005TIP3    H214980   1.298   0.271   0.143  1.9800 -0.0856  2.6997
 5006TIP3   OH214981   4.721   6.390   1.165  0.3556  0.0361 -0.3204
 5006TIP3    H114982   4.662   6.465   1.156  1.2956  0.9125  0.6121
 5006TIP3    H214983   4.683   6.323   1.107 -2.0644  0.2408  0.8915
 5007TIP3   OH214984   2.157   6.314   5.640 -0.1855  0.2950 -0.7817
 5007TIP3    H114985   2.066   6.303   5.614  0.0454  0.4720 -1.7170
 5007TIP3    H214986   2.207   6.287   5.563  0.5668 -0.2177 -0.1303
 5008TIP3   OH214987   6.877   5.359   1.921 -0.4261  0.0227 -0.5334
 5008TIP3    H114988   6.832   5.385   2.002 -0.8391 -1.7480 -0.1476
 5008TIP3    H214989   6.808   5.357   1.855 -0.5475 -0.7857 -0.3893
 5009TIP3   OH214990   3.489   0.596   4.894 -0.5661  0.4378  0.3237
 5009TIP3    H114991   3.479   0.507   4.929  2.1037  0.0335  0.2708
 5009TIP3    H214992   3.519   0.648   4.969  0.0443  0.7657 -0.1352
 5010TIP3   OH214993   1.017   2.175   2.182  0.4045 -0.2534 -0.3615
 5010TIP3    H114994   1.052   2.086   2.195 -0.1569 -0.4948 -0.4625
 5010TIP3    H214995   1.082   2.232   2.221  0.5587 -0.7433  0.1128
 5011TIP3   OH214996   5.049   1.486   1.565 -0.0247  0.6909  0.2367
 5011TIP3    H114997   5.140   1.457   1.575 -0.3153 -0.5169 -0.4088
 5011TIP3    H214998   5.013   1.484   1.654 -0.3609 -2.2166  0.1396
 5012TIP3   OH214999   1.924   1.058   1.069  0.2486 -0.1136  0.1137
 5012TIP3    H115000   1.904   1.046   0.976 -0.0661 -1.7904  0.3724
 5012TIP3    H215001   1.998   1.000   1.085  1.8349  1.8720  0.4339
 5013TIP3   OH215002   2.641   1.981   5.568 -0.0361 -0.2480  0.0132
 5013TIP3    H115003   2.670   2.069   5.543  2.3472 -0.8548  0.3919
 5013TIP3    H215004   2.622   1.987   5.661  0.3910 -0.1787  0.0988
 5014TIP3   OH215005   0.586   5.505   2.917 -0.3053  0.1690  0.6632
 5014TIP3    H115006   0.505   5.550   2.895  0.1872  0.5681 -0.4202
 5014TIP3    H215007   0.627   5.558   2.985 -0.0581  1.0096 -0.1232
 5015TIP3   OH215008   1.066   5.175   4.896  0.5698  0.0344  0.2112
 5015TIP3    H115009   1.001   5.140   4.956  1.2142  0.2606  1.0597
 5015TIP3    H215010   1.016   5.199   4.818 -0.2606 -0.3738  0.6026
 5016TIP3   OH215011   0.456   3.820   0.694  0.0318  0.6732  1.1857
 5016TIP3    H115012   0.380   3.845   0.747  0.8594  0.8477  2.3497
 5016TIP3    H215013   0.434   3.734   0.659 -0.7286  0.7524  1.4471
 5017TIP3   OH215014   7.186   0.487   1.324 -0.0898  0.6176  0.0278
 5017TIP3    H115015   7.195   0.416   1.387 -0.5136  3.1505  3.2255
 5017TIP3    H215016   7.119   0.457   1.263 -1.6877 -1.0007  2.3930
 5018TIP3   OH215017   6.439   5.381   3.205  0.0676 -0.4219  0.1320
 5018TIP3    H115018   6.395   5.450   3.155  0.2001 -1.6660 -1.8459
 5018TIP3    H215019   6.378   5.358   3.274 -1.1263 -0.1082 -0.7849
 5019TIP3   OH215020   5.471   2.153   2.130 -0.1116  0.0616  0.7794
 5019TIP3    H115021   5.541   2.120   2.073 -0.5112 -1.4306  1.1134
 5019TIP3    H215022   5.502   2.239   2.159  0.7305  0.2394 -0.5529
 5020TIP3   OH215023   2.377   1.023   3.068 -0.2408  0.2411  0.1516
 5020TIP3    H115024   2.363   0.945   3.014 -0.3727 -0.9072  1.7950
 5020TIP3    H215025   2.293   1.069   3.067  0.0543  0.8379 -1.4587
 5021TIP3   OH215026   1.869   1.103   0.803  0.0663 -0.2567  0.4523
 5021TIP3    H115027   1.933   1.174   0.805 -0.0481 -0.1650  0.9070
 5021TIP3    H215028   1.836   1.103   0.713  0.6760 -0.2844  0.2202
 5022TIP3   OH215029   6.778   2.131   4.981 -0.0004 -0.0843 -0.1817
 5022TIP3    H115030   6.699   2.184   4.968  0.3759  1.0750  1.8032
 5022TIP3    H215031   6.824   2.137   4.897 -1.3070  0.4313 -0.8976
 5023TIP3   OH215032   3.906   4.548   1.988  0.0782  0.0778  0.0090
 5023TIP3    H115033   3.900   4.468   2.040 -0.9590 -0.4789 -0.9178
 5023TIP3    H215034   3.836   4.604   2.022  0.9948  0.7360  0.8595
 5024TIP3   OH215035   0.764   1.199   1.223 -0.1422  0.3034 -0.2405
 5024TIP3    H115036   0.829   1.173   1.158 -0.6072  0.5971 -0.8364
 5024TIP3    H215037   0.746   1.120   1.272 -0.5372 -0.1784 -1.1372
 5025TIP3   OH215038   3.109   3.719   1.675 -0.3084  0.1028  0.0709
 5025TIP3    H115039   3.042   3.771   1.720 -1.4699 -0.0427 -1.4060
 5025TIP3    H215040   3.118   3.640   1.728 -1.6617 -0.0844  0.0659
 5026TIP3   OH215041   2.006   2.371   4.824  0.2164 -0.2927 -0.4183
 5026TIP3    H115042   1.924   2.340   4.863 -0.6192  0.5736 -1.4205
 5026TIP3    H215043   2.036   2.440   4.883 -0.8815  0.8025 -1.0946
 5027TIP3   OH215044   0.146   2.688   3.393 -0.9629 -0.1335 -0.2906
 5027TIP3    H115045   0.084   2.706   3.464 -0.4012 -1.1484  0.4797
 5027TIP3    H215046   0.172   2.775   3.362 -1.4313  0.3252  0.5553
 5028TIP3   OH215047   1.183   2.399   2.206 -0.6918  0.0143 -0.3086
 5028TIP3    H115048   1.221   2.430   2.124 -0.0126  0.6424  0.2232
 5028TIP3    H215049   1.254   2.408   2.270 -2.1528  2.7906  1.0815
 5029TIP3   OH215050   3.129   5.182   2.433  0.2577  0.1438  0.2052
 5029TIP3    H115051   3.044   5.146   2.461  0.9747 -1.3727  0.5130
 5029TIP3    H215052   3.186   5.106   2.424  1.6765  1.1599  0.2417
 5030TIP3   OH215053   0.827   2.726   1.821 -0.0635 -0.7560  0.3638
 5030TIP3    H115054   0.853   2.661   1.887 -1.3255 -1.6644 -0.0053
 5030TIP3    H215055   0.773   2.677   1.759  1.3032  0.0081 -1.5182
 5031TIP3   OH215056   0.878   0.593   0.996 -0.1942  0.3609  0.4936
 5031TIP3    H115057   0.956   0.558   1.039  0.7771  1.3449 -0.4009
 5031TIP3    H215058   0.863   0.536   0.921 -0.2856  0.2194  0.6198
 5032TIP3   OH215059   6.811   6.233   4.249 -0.3994  0.1604  0.2647
 5032TIP3    H115060   6.764   6.317   4.250  0.7479  0.8485 -0.3794
 5032TIP3    H215061   6.875   6.242   4.320 -0.5333 -0.3230  0.4431
 5033TIP3   OH215062   6.717   3.970   2.950  0.4331  0.2310 -0.2658
 5033TIP3    H115063   6.766   3.895   2.985  3.3818  2.2303  0.2129
 5033TIP3    H215064   6.715   3.955   2.855 -2.0618 -2.0388  0.0029
 5034TIP3   OH215065   5.492   0.220   4.616 -0.0605 -0.4041 -0.0042
 5034TIP3    H115066   5.521   0.144   4.667  1.1816  0.6539  0.9092
 5034TIP3    H215067   5.497   0.293   4.677  1.6681  0.9394 -1.6719
 5035TIP3   OH215068   1.328   3.236   2.253  0.8377 -0.4679 -0.3403
 5035TIP3    H115069   1.273   3.163   2.282  0.4516  0.1754  0.5805
 5035TIP3    H215070   1.380   3.199   2.182  0.2340 -1.4828 -0.2803
 5036TIP3   OH215071   6.479   6.747   5.322 -0.5143 -0.4912  0.5152
 5036TIP3    H115072   6.407   6.774   5.266 -1.2793 -1.2991  1.0728
 5036TIP3    H215073   6.558   6.775   5.276 -1.1934  1.1349  0.2812
 5037TIP3   OH215074   3.072   6.270   3.677  0.1391 -0.5045  0.3601
 5037TIP3    H115075   3.000   6.321   3.714 -0.7023 -0.6021 -1.0431
 5037TIP3    H215076   3.149   6.295   3.728 -0.4373  1.4027  0.3547
 5038TIP3   OH215077   4.993   5.553   1.905  0.3176 -0.2371  0.1825
 5038TIP3    H115078   5.075   5.600   1.888  0.4907 -0.9942 -1.1921
 5038TIP3    H215079   5.019   5.479   1.959  0.3151  0.2437  0.8617
 5039TIP3   OH215080   2.695   2.558   3.770  0.2015 -0.1787  0.3851
 5039TIP3    H115081   2.755   2.557   3.845  2.5482  2.4874 -1.2607
 5039TIP3    H215082   2.659   2.646   3.769  0.8170  0.1096 -2.0135
 5040TIP3   OH215083   4.463   6.324   0.029  0.5157 -0.0987  0.1149
 5040TIP3    H115084   4.520   6.265   0.078 -0.0032 -0.8094 -0.1172
 5040TIP3    H215085   4.378   6.316   0.072  0.0090 -0.8510 -0.9732
 5041TIP3   OH215086   0.042   1.387   1.372 -0.3473  0.0096 -0.2851
 5041TIP3    H115087   0.001   1.435   1.300 -0.3784 -1.7890 -1.5384
 5041TIP3    H215088   0.077   1.308   1.331  2.1024  0.2144  1.1942
 5042TIP3   OH215089   5.149   5.285   2.589  0.2272 -0.2971 -0.8727
 5042TIP3    H115090   5.196   5.297   2.671 -0.8163 -1.4428 -0.0754
 5042TIP3    H215091   5.210   5.316   2.522  0.6709  1.7003  0.3845
 5043TIP3   OH215092   1.019   5.241   5.165 -0.1449  0.2108 -0.2823
 5043TIP3    H115093   1.042   5.322   5.122 -0.6252  0.1859 -0.5935
 5043TIP3    H215094   1.091   5.181   5.145  1.1676  1.0953  1.5162
 5044TIP3   OH215095   4.737   5.601   3.045 -0.4984  0.4009  0.2182
 5044TIP3    H115096   4.705   5.517   3.012 -0.6907  1.3029 -2.0710
 5044TIP3    H215097   4.808   5.578   3.105 -0.2829 -1.3920 -0.6647
 5045TIP3   OH215098   5.252   5.380   2.836  0.1582 -0.0427  0.1154
 5045TIP3    H115099   5.187   5.420   2.894 -1.6342  1.2938 -2.5804
 5045TIP3    H215100   5.285   5.305   2.885 -0.9512  1.1633  2.9405
 5046TIP3   OH215101   4.927   6.584   0.999 -0.0994  0.7331 -0.3147
 5046TIP3    H115102   4.951   6.615   1.086  0.2329  1.3491 -0.6194
 5046TIP3    H215103   4.846   6.632   0.979  0.1977  1.1109 -0.6232
 5047TIP3   OH215104   6.412   0.994   4.327 -0.1190  0.5144 -0.4141
 5047TIP3    H115105   6.499   1.005   4.365 -0.1770  0.4315 -0.2549
 5047TIP3    H215106   6.409   0.903   4.298 -0.0294  0.6118 -0.7375
 5048TIP3   OH215107   7.165   5.420   0.433  0.3086 -0.4261 -0.3516
 5048TIP3    H115108   7.211   5.486   0.486 -0.2695 -0.0572 -0.2963
 5048TIP3    H215109   7.077   5.456   0.422 -0.5354 -1.9378  1.0536
 5049TIP3   OH215110   5.582   5.662   0.098  0.0401 -0.5323 -0.3983
 5049TIP3    H115111   5.532   5.709   0.164 -1.4825 -0.2564 -1.6709
 5049TIP3    H215112   5.673   5.667   0.128 -0.5902 -0.4480  1.6472
 5050TIP3   OH215113   6.103   5.791   0.776  0.1426 -0.6669 -0.2487
 5050TIP3    H115114   6.178   5.850   0.782  0.2166 -0.8598  0.9426
 5050TIP3    H215115   6.053   5.823   0.701 -0.5828  1.7965  1.1698
 5051TIP3   OH215116   3.139   0.902   1.134  0.1072 -0.5021 -0.4345
 5051TIP3    H115117   3.172   0.990   1.115 -0.3087 -0.2949 -0.2051
 5051TIP3    H215118   3.218   0.850   1.149  0.3656 -0.2291 -0.8148
 5052TIP3   OH215119   2.166   1.499   1.738 -0.4007  0.4756 -0.0377
 5052TIP3    H115120   2.240   1.505   1.678 -0.8786  1.2247 -0.5780
 5052TIP3    H215121   2.100   1.449   1.689 -0.1514 -0.4634  0.5611
 5053TIP3   OH215122   3.190   1.829   2.718 -0.5250  0.4413  0.2902
 5053TIP3    H115123   3.283   1.805   2.713 -1.1264 -1.9404 -2.0461
 5053TIP3    H215124   3.182   1.907   2.663 -0.4825 -2.0582 -3.6418
 5054TIP3   OH215125   0.532   1.386   1.787  0.2601  0.3409  0.7416
 5054TIP3    H115126   0.528   1.317   1.853  1.5032  0.5985  1.1200
 5054TIP3    H215127   0.580   1.348   1.714 -1.1931  0.0264 -0.1025
 5055TIP3   OH215128   3.985   6.173   2.856 -0.4241  0.0148 -1.1361
 5055TIP3    H115129   3.985   6.133   2.943  1.6120 -0.0960 -1.1256
 5055TIP3    H215130   3.926   6.247   2.863  0.4306  0.5803  0.6567
 5056TIP3   OH215131   2.425   6.070   1.288  0.1707  0.0224  0.5392
 5056TIP3    H115132   2.461   6.000   1.233 -0.0053 -0.6702  1.2830
 5056TIP3    H215133   2.502   6.108   1.331  0.1014 -1.1676  1.7926
 5057TIP3   OH215134   2.491   0.186   2.925 -0.2120  0.5525  0.1737
 5057TIP3    H115135   2.442   0.189   2.843 -0.0873  1.4625  0.1185
 5057TIP3    H215136   2.573   0.232   2.906  0.5004 -0.5974  0.3803
 5058TIP3   OH215137   0.406   4.922   3.758 -0.0308 -0.1725 -0.1421
 5058TIP3    H115138   0.328   4.891   3.805 -0.9149  1.6577 -0.3000
 5058TIP3    H215139   0.460   4.963   3.826 -0.3261  0.6097 -0.3601
 5059TIP3   OH215140   2.431   1.348   4.242 -0.3970 -0.0936  0.1472
 5059TIP3    H115141   2.390   1.274   4.286  0.1769 -0.5475 -0.0649
 5059TIP3    H215142   2.525   1.326   4.240  0.1861  1.7693  2.3222
 5060TIP3   OH215143   1.145   6.363   5.452 -0.4348 -0.4233  0.0476
 5060TIP3    H115144   1.230   6.323   5.431  0.0757  0.6060  0.0666
 5060TIP3    H215145   1.083   6.290   5.448  0.3086 -1.0469 -0.8158
 5061TIP3   OH215146   5.625   2.437   4.587  0.9078  0.0230  0.1233
 5061TIP3    H115147   5.545   2.412   4.633  0.8772  1.9803  1.2151
 5061TIP3    H215148   5.641   2.364   4.527 -1.0059 -0.9787  0.7359
 5062TIP3   OH215149   6.419   5.646   4.693 -0.8642  0.3605  0.3797
 5062TIP3    H115150   6.447   5.593   4.619 -1.2638 -0.1763  0.6099
 5062TIP3    H215151   6.496   5.699   4.714 -0.6950  0.4029 -0.3109
 5063TIP3   OH215152   4.624   3.526   4.896  0.0583 -0.0401  0.5012
 5063TIP3    H115153   4.666   3.577   4.827 -0.7492 -1.1295 -0.8628
 5063TIP3    H215154   4.674   3.445   4.901 -0.6630 -0.5183  0.2459
 5064TIP3   OH215155   4.314   5.328   4.826 -0.1722 -0.1321 -0.3256
 5064TIP3    H115156   4.349   5.245   4.859 -0.0934 -0.3355 -0.9028
 5064TIP3    H215157   4.235   5.303   4.778 -1.7682  0.4183  1.8271
 5065TIP3   OH215158   5.848   2.486   0.837 -0.0411 -0.7812  0.1820
 5065TIP3    H115159   5.917   2.433   0.799  0.6614 -0.2695  0.7196
 5065TIP3    H215160   5.799   2.520   0.762 -1.0323 -2.8317 -0.1638
 5066TIP3   OH215161   0.831   2.517   3.442 -0.4212 -0.2098  0.3242
 5066TIP3    H115162   0.775   2.527   3.519 -2.8918  0.1306 -1.4024
 5066TIP3    H215163   0.774   2.536   3.368  1.2223 -2.7789 -1.7714
 5067TIP3   OH215164   3.100   2.594   0.502  0.4894  0.2674 -0.0182
 5067TIP3    H115165   3.126   2.589   0.410 -0.5086 -1.2441 -0.2505
 5067TIP3    H215166   3.115   2.505   0.535  0.8335  0.7955  1.2870
 5068TIP3   OH215167   0.937   5.642   3.720  0.3829  0.2546 -0.1040
 5068TIP3    H115168   0.885   5.582   3.775  0.0437  0.6034 -0.0419
 5068TIP3    H215169   1.025   5.604   3.721 -0.1452 -1.0823 -1.2892
 5069TIP3   OH215170   2.291   5.972   4.156 -0.4804  0.1166  0.3685
 5069TIP3    H115171   2.210   6.000   4.199 -0.2562  2.5061 -0.5862
 5069TIP3    H215172   2.339   6.053   4.141  1.2471 -1.0511 -0.7657
 5070TIP3   OH215173   1.323   1.135   5.452 -0.7001  0.0225 -0.3310
 5070TIP3    H115174   1.265   1.199   5.493  1.0899  0.9382  0.9018
 5070TIP3    H215175   1.290   1.050   5.482  0.3490  0.6345  2.9628
 5071TIP3   OH215176   1.577   2.769   1.648  0.1679 -0.2396 -0.1320
 5071TIP3    H115177   1.550   2.828   1.577  0.9629  1.0120  0.5666
 5071TIP3    H215178   1.552   2.682   1.618  1.9739  0.0368 -2.6895
 5072TIP3   OH215179   3.854   5.658   0.456 -0.4878 -0.0961 -0.5804
 5072TIP3    H115180   3.863   5.626   0.546 -0.9012 -0.8438 -0.7947
 5072TIP3    H215181   3.944   5.664   0.423 -0.3563 -0.1784 -0.2399
 5073TIP3   OH215182   3.891   4.142   5.514 -0.0233 -0.4394  0.4311
 5073TIP3    H115183   3.871   4.050   5.534 -2.2094 -0.3858 -1.0838
 5073TIP3    H215184   3.893   4.186   5.599 -1.0173 -1.5440  1.0505
 5074TIP3   OH215185   6.095   4.515   0.408 -0.0083 -0.4250 -0.2697
 5074TIP3    H115186   6.151   4.499   0.484  0.2461 -0.5662 -0.4840
 5074TIP3    H215187   6.146   4.576   0.354 -1.5536  2.4168  1.2234
 5075TIP3   OH215188   4.081   2.370   3.475 -0.2890  0.6038  0.2176
 5075TIP3    H115189   4.106   2.305   3.409 -2.2610  1.1739 -1.1911
 5075TIP3    H215190   4.050   2.319   3.549 -0.6881 -0.0828 -0.4125
 5076TIP3   OH215191   0.774   2.156   4.858 -0.1666  0.0112  0.4093
 5076TIP3    H115192   0.799   2.174   4.949 -2.1076 -0.6004  1.0970
 5076TIP3    H215193   0.697   2.211   4.844  1.5692  2.1016 -1.7550
 5077TIP3   OH215194   6.545   1.213   5.204  0.1769 -0.0459  0.2799
 5077TIP3    H115195   6.580   1.168   5.127  0.6734 -1.1240  1.0963
 5077TIP3    H215196   6.598   1.180   5.277  0.9404  2.3012  0.8794
 5078TIP3   OH215197   4.863   6.164   0.068 -0.2190  0.2498 -0.5346
 5078TIP3    H115198   4.949   6.141   0.031 -0.4958 -1.1667 -0.3214
 5078TIP3    H215199   4.880   6.243   0.119  1.0467 -0.2252 -0.1830
 5079TIP3   OH215200   3.726   3.228   1.361 -0.1664  0.1139 -0.3805
 5079TIP3    H115201   3.749   3.257   1.273 -1.3860  2.5009  0.0109
 5079TIP3    H215202   3.765   3.140   1.368  0.1474 -0.0603 -3.1729
 5080TIP3   OH215203   0.370   1.523   4.081  0.2456 -0.5463 -0.1265
 5080TIP3    H115204   0.303   1.527   4.013  0.5234 -0.3669 -0.3929
 5080TIP3    H215205   0.444   1.478   4.039  1.7005  2.4842 -1.0759
 5081TIP3   OH215206   2.788   6.421   3.232 -0.1726 -0.1337 -0.3201
 5081TIP3    H115207   2.879   6.453   3.237 -0.5690  0.8199  1.3345
 5081TIP3    H215208   2.757   6.420   3.322 -1.4864 -1.5009 -0.7444
 5082TIP3   OH215209   2.235   4.992   1.171 -0.4206  0.0715 -0.0444
 5082TIP3    H115210   2.289   4.914   1.175 -0.8636 -0.8491 -5.1062
 5082TIP3    H215211   2.287   5.060   1.214  0.6156 -2.5199  3.2091
 5083TIP3   OH215212   6.673   0.627   5.175 -0.1253  0.3244  0.1114
 5083TIP3    H115213   6.643   0.637   5.265  2.1226  0.5439  0.8986
 5083TIP3    H215214   6.724   0.706   5.157 -0.8616  0.4807 -1.5326
 5084TIP3   OH215215   1.111   1.748   0.067  0.0388 -0.0266  0.6791
 5084TIP3    H115216   1.097   1.779   0.156  1.0863 -0.5071  1.0229
 5084TIP3    H215217   1.155   1.664   0.077  2.8263  1.2055 -0.3120
 5085TIP3   OH215218   2.657   3.847   0.204  0.0286 -0.2311 -0.2115
 5085TIP3    H115219   2.713   3.856   0.127  0.1990  0.9431  0.0317
 5085TIP3    H215220   2.627   3.936   0.222 -1.2528 -0.7241  0.1627
 5086TIP3   OH215221   4.823   1.624   3.191  0.0553 -0.1002  0.4597
 5086TIP3    H115222   4.803   1.590   3.103 -1.1087 -0.8620  0.9942
 5086TIP3    H215223   4.781   1.562   3.250  0.8700  0.3805  1.5706
 5087TIP3   OH215224   4.790   1.643   3.534  0.2138  0.7373 -0.0652
 5087TIP3    H115225   4.724   1.603   3.477  1.2641 -0.3490 -0.5350
 5087TIP3    H215226   4.741   1.668   3.613 -0.3553 -2.2903  0.6590
 5088TIP3   OH215227   3.780   2.889   0.169 -0.1651  0.3760 -0.3841
 5088TIP3    H115228   3.714   2.953   0.194  0.1808  0.6542 -0.1707
 5088TIP3    H215229   3.788   2.900   0.074  0.2571  1.0137 -0.2839
 5089TIP3   OH215230   6.241   1.655   5.844 -0.5413  0.5472  0.1788
 5089TIP3    H115231   6.287   1.589   5.792 -0.4446  1.0305 -0.3498
 5089TIP3    H215232   6.285   1.737   5.823  1.6719  0.4121  3.3811
 5090TIP3   OH215233   5.525   5.087   3.713 -0.6656  0.2361  0.4698
 5090TIP3    H115234   5.452   5.030   3.692  0.0715 -0.8647  0.8006
 5090TIP3    H215235   5.597   5.028   3.735  0.4577  1.2717 -0.2375
 5091TIP3   OH215236   0.092   3.164   0.879 -0.0516 -0.2987  0.1317
 5091TIP3    H115237   0.089   3.233   0.813 -1.9821 -0.9892 -0.5769
 5091TIP3    H215238   0.165   3.109   0.852  0.3375  0.4350 -0.3684
 5092TIP3   OH215239   3.267   3.854   0.255 -0.0648 -0.2015 -0.9054
 5092TIP3    H115240   3.322   3.877   0.330  1.8142 -1.5504 -1.7906
 5092TIP3    H215241   3.279   3.927   0.194 -0.6814  0.3415 -0.3944
 5093TIP3   OH215242   6.412   4.472   1.605 -0.4032  0.3798  0.2494
 5093TIP3    H115243   6.507   4.479   1.615 -0.2296  2.4982 -2.0668
 5093TIP3    H215244   6.378   4.493   1.692  1.2182  1.2212  0.7264
 5094TIP3   OH215245   1.879   4.343   1.816 -0.1275 -0.0130  0.2353
 5094TIP3    H115246   1.907   4.256   1.842 -2.9662 -1.5740 -1.4273
 5094TIP3    H215247   1.808   4.364   1.876 -2.2069 -0.7418 -1.8191
 5095TIP3   OH215248   6.615   2.360   2.836 -0.2108 -0.2795  0.6769
 5095TIP3    H115249   6.623   2.454   2.854  0.1988 -0.1676 -0.0494
 5095TIP3    H215250   6.529   2.350   2.795  0.2178 -0.0362 -0.3126
 5096TIP3   OH215251   3.904   1.383   0.060  0.2148  0.4087 -0.1434
 5096TIP3    H115252   3.941   1.306   0.016 -2.4930 -1.2610  0.2625
 5096TIP3    H215253   3.891   1.447  -0.009  0.5090 -0.3271 -0.9014
 5097TIP3   OH215254   4.833   0.192   4.204 -0.2532 -0.8127  0.0038
 5097TIP3    H115255   4.909   0.176   4.261 -1.0975 -0.7804  1.1688
 5097TIP3    H215256   4.836   0.286   4.186  0.6635 -1.0066 -0.9802
 5098TIP3   OH215257   0.879   0.206   0.423 -0.3697 -0.0426 -0.0167
 5098TIP3    H115258   0.906   0.114   0.433  0.7656  0.2861  0.0285
 5098TIP3    H215259   0.845   0.230   0.508 -0.1692 -0.2678  0.1284
 5099TIP3   OH215260   1.438   2.434   3.074  0.7200  0.4297 -0.1105
 5099TIP3    H115261   1.516   2.481   3.103  2.3288 -1.1324 -1.6308
 5099TIP3    H215262   1.432   2.358   3.132 -0.1056  0.9359  0.4664
 5100TIP3   OH215263   5.635   5.852   4.050  0.6511  0.5339  0.1323
 5100TIP3    H115264   5.716   5.846   3.999  2.0606 -0.7972  2.3200
 5100TIP3    H215265   5.630   5.768   4.096 -0.5433  1.5951  2.0757
 5101TIP3   OH215266   5.535   0.451   2.460  0.1123 -0.2060 -0.3315
 5101TIP3    H115267   5.541   0.503   2.540 -0.8924  1.5895 -1.3614
 5101TIP3    H215268   5.454   0.402   2.470  1.2894 -2.0238  0.8442
 5102TIP3   OH215269   3.149   5.473   2.190 -0.4748 -0.5014 -0.8791
 5102TIP3    H115270   3.073   5.488   2.134 -0.3076  1.6397 -0.6310
 5102TIP3    H215271   3.161   5.556   2.236  0.8621 -1.4191  0.5214
 5103TIP3   OH215272   0.919   3.329   5.544 -0.6368  0.3870 -0.4003
 5103TIP3    H115273   0.844   3.356   5.597  0.5390  1.0220  1.0228
 5103TIP3    H215274   0.982   3.294   5.608  0.2366 -0.2571 -1.5720
 5104TIP3   OH215275   6.852   1.607   5.193  0.2830 -0.2195 -0.3494
 5104TIP3    H115276   6.937   1.600   5.238  1.2609 -0.0215 -2.0862
 5104TIP3    H215277   6.866   1.674   5.126 -1.8039  1.1381  0.4575
 5105TIP3   OH215278   5.954   3.010   0.308  0.5469 -0.0954 -0.2625
 5105TIP3    H115279   5.989   2.937   0.257  1.2849 -0.3748  0.6039
 5105TIP3    H215280   5.939   3.079   0.244 -1.7067 -1.4828 -1.3884
 5106TIP3   OH215281   1.977   0.313   1.619  0.2458  0.0346 -0.4115
 5106TIP3    H115282   2.040   0.359   1.676  0.3060 -0.4560 -0.0759
 5106TIP3    H215283   1.913   0.380   1.595 -0.0961  0.1203  0.6986
 5107TIP3   OH215284   1.306   0.869   2.915 -0.1715  0.7490 -0.2415
 5107TIP3    H115285   1.298   0.780   2.950  0.2308  0.3659 -1.0807
 5107TIP3    H215286   1.270   0.925   2.984 -1.4116 -0.1388 -0.1232
 5108TIP3   OH215287   4.204   2.615   3.117 -0.1541 -0.5811  0.3495
 5108TIP3    H115288   4.235   2.681   3.055 -0.9251 -0.7574 -0.2339
 5108TIP3    H215289   4.192   2.663   3.199 -2.1591  0.3864 -0.4364
 5109TIP3   OH215290   6.413   0.827   0.978 -0.4373 -0.3330  0.5750
 5109TIP3    H115291   6.459   0.907   1.003 -1.7893  0.8489 -0.5070
 5109TIP3    H215292   6.409   0.831   0.882  1.5437 -2.9353  0.2783
 5110TIP3   OH215293   5.238   5.216   2.237  0.0268 -0.7120 -0.0920
 5110TIP3    H115294   5.171   5.254   2.180  1.1594  0.6062 -0.6077
 5110TIP3    H215295   5.197   5.137   2.273 -2.1765  0.5778  0.4324
 5111TIP3   OH215296   0.194   6.180   1.640  0.1091  0.5273  0.7682
 5111TIP3    H115297   0.212   6.204   1.731  0.5860  0.3145  0.7333
 5111TIP3    H215298   0.280   6.183   1.597 -0.0271  0.0460  0.4616
 5112TIP3   OH215299   1.292   4.611   2.461  0.2206  0.2419 -1.0585
 5112TIP3    H115300   1.322   4.678   2.522  0.0113  0.7129 -1.4764
 5112TIP3    H215301   1.284   4.655   2.377 -0.8690 -0.0578 -1.1270
 5113TIP3   OH215302   6.636   6.379   4.830  0.3600  0.2872  0.2280
 5113TIP3    H115303   6.689   6.307   4.864  0.4530  0.9443  1.5242
 5113TIP3    H215304   6.640   6.446   4.898 -0.2612  1.2626 -0.6694
 5114TIP3   OH215305   0.596   0.595   3.808 -0.0654  0.1422  0.4183
 5114TIP3    H115306   0.675   0.642   3.781  0.0860 -0.1370  0.3766
 5114TIP3    H215307   0.529   0.623   3.746  0.0991  0.0765  0.2100
 5115TIP3   OH215308   1.749   6.753   5.306 -0.0378 -0.1185 -0.3091
 5115TIP3    H115309   1.777   6.819   5.369 -0.7314  1.0590 -1.1857
 5115TIP3    H215310   1.820   6.749   5.242  0.2615 -0.6608  0.0463
 5116TIP3   OH215311   4.219   0.956   5.053 -0.2491 -0.0566 -0.7956
 5116TIP3    H115312   4.242   1.044   5.022 -1.5844  0.2776 -0.9139
 5116TIP3    H215313   4.253   0.897   4.986  0.5393  0.3700 -0.7863
 5117TIP3   OH215314   0.491   0.933   2.521 -0.2531 -0.5283 -0.2523
 5117TIP3    H115315   0.517   0.895   2.605  1.0138  2.5603  0.8981
 5117TIP3    H215316   0.449   1.016   2.543 -1.3683 -0.3635 -2.6466
 5118TIP3   OH215317   2.045   5.213   3.495 -0.4106 -0.0710  0.5425
 5118TIP3    H115318   2.118   5.272   3.476 -0.7231 -0.1223 -0.9047
 5118TIP3    H215319   1.966   5.264   3.475 -0.6781 -1.0572 -1.1190
 5119TIP3   OH215320   4.469   3.705   2.549  0.0235 -0.1820  0.5880
 5119TIP3    H115321   4.488   3.798   2.546  1.4252 -0.3211  2.7600
 5119TIP3    H215322   4.525   3.667   2.482  0.2717  0.4246  0.4466
 5120TIP3   OH215323   2.521   1.665   1.153 -0.5023  0.2404  0.1014
 5120TIP3    H115324   2.528   1.734   1.087  0.2724  0.1148  0.0388
 5120TIP3    H215325   2.601   1.673   1.204  0.0294 -1.1591 -0.4601
 5121TIP3   OH215326   2.006   1.714   1.829 -0.1693  0.3220  0.1871
 5121TIP3    H115327   1.928   1.661   1.845 -0.2974  0.1905 -0.8217
 5121TIP3    H215328   2.062   1.658   1.776 -0.1872  1.1016 -0.6662
 5122TIP3   OH215329   5.841   3.208   4.307  0.4588 -0.2011  0.2543
 5122TIP3    H115330   5.845   3.215   4.402 -0.2206  0.2223  0.2547
 5122TIP3    H215331   5.846   3.114   4.290 -1.5262 -0.4615  0.8342
 5123TIP3   OH215332   5.365   4.389   2.183 -0.1401  0.1080 -0.1120
 5123TIP3    H115333   5.356   4.396   2.088  0.6199 -0.3539 -0.2330
 5123TIP3    H215334   5.384   4.296   2.198  2.6239  0.6176  0.1924
 5124TIP3   OH215335   4.952   6.492   3.054  0.1915 -0.0542  0.2105
 5124TIP3    H115336   4.863   6.506   3.022 -0.3963 -1.0094  1.3936
 5124TIP3    H215337   5.001   6.465   2.976 -0.8877 -0.9433 -0.1826
 5125TIP3   OH215338   2.604   6.476   5.049 -0.3199  0.5995 -0.3492
 5125TIP3    H115339   2.700   6.467   5.053 -0.5229 -1.7354  1.9583
 5125TIP3    H215340   2.578   6.425   4.972  0.2672  0.8979 -0.7486
 5126TIP3   OH215341   4.048   5.697   5.671  0.0618 -0.0006 -0.0577
 5126TIP3    H115342   4.027   5.610   5.638  3.0020 -0.3928 -1.1979
 5126TIP3    H215343   4.022   5.695   5.763 -2.5163 -1.0502 -0.7293
 5127TIP3   OH215344   4.696   5.989   5.463  0.1547 -0.4396  0.2121
 5127TIP3    H115345   4.755   6.031   5.400  1.1208 -1.3178  0.5119
 5127TIP3    H215346   4.663   6.061   5.517 -1.9126  0.5964 -2.1856
 5128TIP3   OH215347   4.244   0.722   3.452 -0.4527 -0.2781 -0.3311
 5128TIP3    H115348   4.308   0.687   3.513  1.2642 -0.6683 -2.2598
 5128TIP3    H215349   4.211   0.801   3.496  0.2005 -0.8902  1.3667
 5129TIP3   OH215350   6.982   2.486   5.774  0.2208  0.3358 -0.0633
 5129TIP3    H115351   6.944   2.535   5.701  0.6434 -0.3121 -0.7351
 5129TIP3    H215352   7.004   2.400   5.736  1.1571  0.2587  0.6264
 5130TIP3   OH215353   5.022   2.521   2.895  0.4873  0.2013  0.4055
 5130TIP3    H115354   5.085   2.500   2.826 -0.3973 -1.6450  0.0874
 5130TIP3    H215355   4.981   2.437   2.916 -1.2603  1.1996  1.1938
 5131TIP3   OH215356   1.958   2.449   5.311  0.4880  0.4804 -0.3692
 5131TIP3    H115357   1.980   2.480   5.399 -1.3599  0.0591  0.2756
 5131TIP3    H215358   1.864   2.463   5.302  0.3794 -0.7834 -1.7420
 5132TIP3   OH215359   1.642   4.358   4.613  0.3774  0.5092 -0.1977
 5132TIP3    H115360   1.548   4.364   4.630  0.1700 -2.1792  0.0275
 5132TIP3    H215361   1.656   4.269   4.582  2.8992  0.7684 -0.0859
 5133TIP3   OH215362   1.280   1.701   1.441 -0.2601 -0.2303  0.4829
 5133TIP3    H115363   1.272   1.639   1.370  1.1411  1.6019 -1.3931
 5133TIP3    H215364   1.190   1.731   1.457 -0.3984  1.1548 -2.3195
 5134TIP3   OH215365   6.597   1.800   2.707 -0.2128  0.0705 -0.3475
 5134TIP3    H115366   6.650   1.762   2.637  0.2756  0.3919 -0.1574
 5134TIP3    H215367   6.634   1.764   2.787  0.3361  1.0250 -0.1574
 5135TIP3   OH215368   3.166   1.553   0.508  0.5056 -0.3517 -0.1307
 5135TIP3    H115369   3.115   1.513   0.577  2.4062  1.2107  2.3700
 5135TIP3    H215370   3.200   1.479   0.457  0.1719 -1.6548  1.4545
 5136TIP3   OH215371   1.667   0.299   2.142  0.0801 -0.0059 -0.5204
 5136TIP3    H115372   1.727   0.289   2.215  0.4680 -0.5807 -0.9080
 5136TIP3    H215373   1.580   0.298   2.182  0.3067  0.3964 -0.0015
 5137TIP3   OH215374   1.606   4.359   5.455 -0.1199  0.1591 -0.1590
 5137TIP3    H115375   1.568   4.328   5.537  1.0571 -2.0782 -0.3983
 5137TIP3    H215376   1.636   4.448   5.475 -1.7864  0.4644  1.1727
 5138TIP3   OH215377   2.009   2.700   0.959 -0.1872 -0.2744  0.3291
 5138TIP3    H115378   2.033   2.783   0.918  3.3429 -0.2816  2.0833
 5138TIP3    H215379   2.072   2.637   0.924 -1.8658 -1.9444  0.1645
 5139TIP3   OH215380   4.423   0.613   3.238  0.0735 -0.0706  0.3434
 5139TIP3    H115381   4.358   0.651   3.297  0.7344  0.4997  0.7189
 5139TIP3    H215382   4.393   0.523   3.224 -1.8041  0.6902 -0.9665
 5140TIP3   OH215383   4.067   6.300   5.648 -0.5001 -0.5989 -0.3071
 5140TIP3    H115384   4.092   6.391   5.631 -1.0741 -0.7614 -2.2551
 5140TIP3    H215385   4.149   6.257   5.673 -0.1706  0.3579  0.3439
 5141TIP3   OH215386   0.450   4.130   2.706 -0.4371 -0.2509 -0.2268
 5141TIP3    H115387   0.514   4.071   2.667 -0.1282  0.2393 -0.4754
 5141TIP3    H215388   0.369   4.113   2.657  0.2103  1.1433 -1.9032
 5142TIP3   OH215389   0.186   0.787   1.485  0.5697 -0.1226 -0.2554
 5142TIP3    H115390   0.180   0.708   1.430  2.2692 -1.0445  0.7744
 5142TIP3    H215391   0.233   0.850   1.431  0.9751 -0.5325 -0.3947
 5143TIP3   OH215392   2.699   0.498   2.293 -0.8373 -0.2894 -0.4258
 5143TIP3    H115393   2.658   0.414   2.273 -1.0756 -0.5306  0.9832
 5143TIP3    H215394   2.626   0.554   2.320 -0.4460 -0.2879  0.6871
 5144TIP3   OH215395   1.923   0.384   4.321  0.0351  0.2188 -0.1809
 5144TIP3    H115396   1.955   0.393   4.411  0.2920 -1.5308 -0.0596
 5144TIP3    H215397   1.859   0.454   4.311  1.0663  1.3715  0.8665
 5145TIP3   OH215398   2.788   0.550   2.037  0.6401 -0.0584 -0.2670
 5145TIP3    H115399   2.695   0.559   2.015  0.5025 -0.7806 -0.0182
 5145TIP3    H215400   2.789   0.548   2.133  0.8230 -0.8359 -0.2778
 5146TIP3   OH215401   3.632   6.163   0.882  0.2235 -0.0244 -0.1060
 5146TIP3    H115402   3.692   6.159   0.808  2.0127 -0.0201  1.2584
 5146TIP3    H215403   3.597   6.074   0.890  0.2471 -0.0954 -0.7625
 5147TIP3   OH215404   2.481   5.958   1.922  0.0649  0.8279 -0.6433
 5147TIP3    H115405   2.532   5.884   1.955  0.5503  1.6252  0.4793
 5147TIP3    H215406   2.414   5.919   1.867  1.3458 -0.3182 -1.4580
 5148TIP3   OH215407   3.569   0.927   2.035 -0.2780  0.0770  0.1140
 5148TIP3    H115408   3.601   0.837   2.037 -0.2453  0.1000  1.1179
 5148TIP3    H215409   3.479   0.919   2.001 -0.1990 -0.3032 -0.0188
 5149TIP3   OH215410   0.077   5.001   2.386  0.1191  0.4401  0.2307
 5149TIP3    H115411  -0.008   5.026   2.349  0.0068  0.9846  0.8477
 5149TIP3    H215412   0.076   4.906   2.388 -0.7368  0.4547  0.8326
 5150TIP3   OH215413   3.131   5.083   3.976  0.3539  0.0652  0.3812
 5150TIP3    H115414   3.099   5.091   4.066 -0.7199  1.9412 -0.1123
 5150TIP3    H215415   3.166   5.170   3.956  1.3033 -0.5498 -0.7830
 5151TIP3   OH215416   3.484   2.609   4.033  0.3265 -0.3633  0.0187
 5151TIP3    H115417   3.578   2.621   4.047  0.1740  0.3246  0.4542
 5151TIP3    H215418   3.453   2.569   4.115  0.0788  0.2629  0.2298
 5152TIP3   OH215419   2.405   4.636   4.429 -0.0214 -0.2570  0.2114
 5152TIP3    H115420   2.443   4.587   4.356 -0.0142  1.4583 -1.0147
 5152TIP3    H215421   2.480   4.679   4.470 -0.3045  0.9956 -0.5377
 5153TIP3   OH215422   0.371   5.243   5.467  0.4816  0.5004  0.0980
 5153TIP3    H115423   0.449   5.298   5.481  0.2263  1.2976 -1.3971
 5153TIP3    H215424   0.347   5.259   5.376 -0.9931 -0.3364  0.3178
 5154TIP3   OH215425   6.302   5.357   5.211  0.5708 -0.4327  0.2303
 5154TIP3    H115426   6.289   5.448   5.185  0.3896 -0.3330  0.6646
 5154TIP3    H215427   6.395   5.352   5.233  0.2734  0.0453  1.7006
 5155TIP3   OH215428   0.436   0.181   4.571  0.1618 -0.0430  0.4209
 5155TIP3    H115429   0.530   0.163   4.581  0.3947  1.0905  0.4562
 5155TIP3    H215430   0.394   0.123   4.634  0.8013 -0.9327  0.0407
 5156TIP3   OH215431   5.968   3.747   3.666  0.1586  0.0168 -0.6268
 5156TIP3    H115432   5.875   3.736   3.685 -0.6346  2.9748 -2.1760
 5156TIP3    H215433   5.979   3.842   3.654  2.5109 -0.5174 -4.3727
 5157TIP3   OH215434   5.181   5.980   0.603 -0.4343 -0.6913  0.2829
 5157TIP3    H115435   5.107   6.041   0.595  1.0486  1.2929  0.7941
 5157TIP3    H215436   5.172   5.943   0.691 -1.6758 -1.7197 -0.2453
 5158TIP3   OH215437   6.699   2.220   4.570 -0.3860  0.0424 -0.7451
 5158TIP3    H115438   6.627   2.284   4.570 -0.2756  0.1697 -0.9186
 5158TIP3    H215439   6.715   2.202   4.477  1.6074  2.0795 -0.9149
 5159TIP3   OH215440   1.737   0.585   4.397 -0.2269  0.1736  0.0142
 5159TIP3    H115441   1.774   0.646   4.460 -0.3826 -0.2905  0.5682
 5159TIP3    H215442   1.663   0.633   4.358 -0.9394  0.0259  1.1220
 5160TIP3   OH215443   2.307   0.299   5.104 -0.3482  0.2911  0.0910
 5160TIP3    H115444   2.246   0.359   5.060 -0.0022  1.1295  0.7271
 5160TIP3    H215445   2.294   0.317   5.198 -0.4112 -0.8080  0.3062
 5161TIP3   OH215446   2.808   4.597   3.753  0.5122  0.4151  0.2055
 5161TIP3    H115447   2.844   4.626   3.837 -0.3528  2.3552 -0.0542
 5161TIP3    H215448   2.866   4.635   3.687  0.6091 -0.2714 -0.1160
 5162TIP3   OH215449   6.802   6.139   4.007  0.5889  0.7372 -0.0909
 5162TIP3    H115450   6.727   6.089   4.039  0.3390  1.6033  0.6981
 5162TIP3    H215451   6.845   6.172   4.085  1.5110  0.6665 -0.5577
 5163TIP3   OH215452   3.853   5.757   1.746 -0.2006 -0.0303 -0.3679
 5163TIP3    H115453   3.830   5.705   1.669  2.8206 -1.9970 -0.1343
 5163TIP3    H215454   3.896   5.835   1.712 -0.8864  0.2162 -0.6770
 5164TIP3   OH215455   6.951   2.951   5.320 -0.1979  0.0608  0.0089
 5164TIP3    H115456   6.954   3.037   5.360 -0.1998  0.0707 -0.0124
 5164TIP3    H215457   7.011   2.898   5.373  1.3374  0.5662 -1.1396
 5165TIP3   OH215458   3.516   1.703   0.579 -0.0241 -0.0489  0.3550
 5165TIP3    H115459   3.563   1.717   0.496  0.3955 -0.3354  0.5446
 5165TIP3    H215460   3.431   1.745   0.565 -0.0025 -0.1981 -0.2651
 5166TIP3   OH215461   1.717   3.484   5.300 -0.4466  0.4541  0.0656
 5166TIP3    H115462   1.729   3.524   5.213 -1.0422 -0.4769 -0.4552
 5166TIP3    H215463   1.806   3.469   5.332 -0.2177  1.1718 -0.2002
 5167TIP3   OH215464   5.671   3.233   1.626  0.4155 -0.0333  0.2566
 5167TIP3    H115465   5.596   3.213   1.570  1.3561 -2.7664 -0.1956
 5167TIP3    H215466   5.747   3.219   1.569  1.3263  1.4414  1.0478
 5168TIP3   OH215467   2.204   4.139   1.186 -0.1750  0.0926 -0.0252
 5168TIP3    H115468   2.190   4.053   1.225  1.4908 -0.0469  0.3240
 5168TIP3    H215469   2.134   4.147   1.121 -1.9495 -0.4041  1.7165
 5169TIP3   OH215470   0.558   3.928   5.750  0.0911 -0.0282  0.0369
 5169TIP3    H115471   0.492   3.896   5.689 -1.4264  2.2861  0.3749
 5169TIP3    H215472   0.589   4.010   5.712  2.9642 -1.1037 -0.1800
 5170TIP3   OH215473   3.674   6.056   4.545  0.9053 -0.0426  0.1187
 5170TIP3    H115474   3.600   6.109   4.577 -0.9052 -2.0508 -0.5055
 5170TIP3    H215475   3.685   6.083   4.454 -0.6483 -1.3153 -0.4897
 5171TIP3   OH215476   4.468   5.662   5.824  0.1359  0.1136  0.0303
 5171TIP3    H115477   4.485   5.668   5.918  0.4938  0.5828 -0.0616
 5171TIP3    H215478   4.419   5.580   5.814 -0.5184  0.4134  0.7076
 5172TIP3   OH215479   0.143   2.534   5.152  0.5080 -0.0402  0.0987
 5172TIP3    H115480   0.098   2.471   5.096 -2.9429  0.7527  1.7133
 5172TIP3    H215481   0.152   2.490   5.237 -1.2133  1.2652  1.0133
 5173TIP3   OH215482   5.315   5.919   2.372  0.1136 -0.2928 -0.1992
 5173TIP3    H115483   5.288   6.009   2.351  0.3119 -0.2035 -0.0751
 5173TIP3    H215484   5.359   5.888   2.293  2.3406  0.6210  0.6139
 5174TIP3   OH215485   2.408   6.328   1.884  0.3689 -0.2359  0.1328
 5174TIP3    H115486   2.354   6.270   1.938  0.4371 -0.5411 -0.1217
 5174TIP3    H215487   2.367   6.414   1.892  0.2525 -0.3234  0.4970
 5175TIP3   OH215488   6.386   6.133   3.208 -0.0767 -0.0940  0.1642
 5175TIP3    H115489   6.357   6.042   3.219 -1.9526  0.5119  0.5769
 5175TIP3    H215490   6.309   6.186   3.230  0.8290  1.5969 -0.5348
 5176TIP3   OH215491   1.431   2.249   5.252  0.1914 -0.5002  0.2175
 5176TIP3    H115492   1.473   2.267   5.167  1.3355 -2.7329  0.2568
 5176TIP3    H215493   1.344   2.216   5.229  0.8627 -2.0816 -0.1856
 5177TIP3   OH215494   0.537   3.864   2.946  0.2635 -0.6656 -0.5307
 5177TIP3    H115495   0.605   3.906   2.894  0.2676  0.3235  0.2444
 5177TIP3    H215496   0.552   3.895   3.035 -2.0093  0.6958 -0.5405
 5178TIP3   OH215497   7.036   0.342   5.475 -0.4298 -0.0194  0.6423
 5178TIP3    H115498   7.050   0.325   5.382  0.9356  0.2479  0.7810
 5178TIP3    H215499   6.954   0.297   5.495 -0.9660  0.2617 -0.7745
 5179TIP3   OH215500   5.301   1.187   3.884 -0.4176 -0.6769  0.1359
 5179TIP3    H115501   5.240   1.224   3.820 -1.0096 -1.8230  0.0270
 5179TIP3    H215502   5.272   1.222   3.968 -0.6109 -0.4320 -0.0326
 5180TIP3   OH215503   6.646   1.534   0.321  0.0426  0.1563  0.4154
 5180TIP3    H115504   6.620   1.461   0.378  1.0831  0.1943  0.9560
 5180TIP3    H215505   6.665   1.606   0.382  1.2636  0.1688  0.0307
 5181TIP3   OH215506   0.246   5.518   0.450  0.1860 -0.3700  0.0970
 5181TIP3    H115507   0.293   5.445   0.409  1.0035  0.0554  0.2504
 5181TIP3    H215508   0.223   5.575   0.376  0.0046 -0.5204  0.0351
 5182TIP3   OH215509   1.964   3.826   1.915  0.3092 -0.2313 -0.5711
 5182TIP3    H115510   1.873   3.855   1.928 -0.2805 -0.9654 -2.6185
 5182TIP3    H215511   2.011   3.906   1.890  0.0302  0.0007 -0.3599
 5183TIP3   OH215512   6.206   6.088   5.041 -0.7427  0.1705 -0.4431
 5183TIP3    H115513   6.169   6.086   4.953 -2.2642  0.6162  0.1559
 5183TIP3    H215514   6.292   6.129   5.030 -1.1823  0.8179 -1.6286
 5184TIP3   OH215515   0.798   0.854   3.217 -0.0641 -0.2103  0.2205
 5184TIP3    H115516   0.847   0.776   3.194  0.9720 -0.3939  2.7775
 5184TIP3    H215517   0.849   0.927   3.181  0.3007 -0.5880 -0.0236
 5185TIP3   OH215518   5.803   4.491   4.917 -0.5359  0.3871  0.2529
 5185TIP3    H115519   5.898   4.483   4.927 -0.2808  0.5169 -1.6780
 5185TIP3    H215520   5.792   4.562   4.854 -1.8941  0.0514  0.0949
 5186TIP3   OH215521   5.604   1.298   1.205  0.2724  0.3097  0.2249
 5186TIP3    H115522   5.537   1.358   1.238 -0.0417  0.5302 -0.7802
 5186TIP3    H215523   5.681   1.352   1.192  0.0166  0.5033 -0.5915
 5187TIP3   OH215524   3.467   1.943   3.544  0.2616  0.3626 -0.6125
 5187TIP3    H115525   3.534   1.875   3.532 -1.1072 -1.1375 -0.0902
 5187TIP3    H215526   3.510   2.024   3.516  1.9122 -0.7258 -1.3986
 5188TIP3   OH215527   6.804   1.801   4.358 -0.2289 -0.0713  0.4334
 5188TIP3    H115528   6.793   1.827   4.266  0.9979 -1.3225 -0.1047
 5188TIP3    H215529   6.874   1.858   4.391  1.0445 -1.2465 -0.1538
 5189TIP3   OH215530   2.712   1.787   4.706 -0.5966  0.1656 -0.0490
 5189TIP3    H115531   2.724   1.710   4.761  0.7286  0.3142 -0.1093
 5189TIP3    H215532   2.675   1.753   4.625  0.8091 -0.5523 -0.4153
 5190TIP3   OH215533   4.884   2.861   4.668  0.3380  0.1900 -0.1122
 5190TIP3    H115534   4.815   2.906   4.619 -0.2530 -0.2205  0.3258
 5190TIP3    H215535   4.894   2.776   4.624  0.3308  0.1176  0.0243
 5191TIP3   OH215536   1.355   1.454   1.281 -0.3047  0.3121 -0.8392
 5191TIP3    H115537   1.448   1.459   1.261 -0.3081  1.7871 -0.5657
 5191TIP3    H215538   1.312   1.478   1.199 -0.3970  1.1967 -0.5484
 5192TIP3   OH215539   1.318   0.610   5.820 -0.3252 -0.4138  0.1775
 5192TIP3    H115540   1.254   0.548   5.787 -0.8343  0.7349 -1.1056
 5192TIP3    H215541   1.270   0.661   5.886 -0.6162  0.1067 -0.4179
 5193TIP3   OH215542   4.735   4.601   1.119 -0.0514  0.4107 -0.1820
 5193TIP3    H115543   4.810   4.568   1.070 -0.8043 -1.1825 -0.3291
 5193TIP3    H215544   4.774   4.644   1.195  1.0302 -0.2521 -0.3309
 5194TIP3   OH215545   5.380   0.958   1.152 -0.1761  0.1821 -0.6641
 5194TIP3    H115546   5.452   0.985   1.210 -1.2373  0.4844  0.5776
 5194TIP3    H215547   5.358   0.870   1.181 -0.0925 -0.0453 -1.2759
 5195TIP3   OH215548   0.351   5.787   4.236 -0.2286 -0.2916  0.2294
 5195TIP3    H115549   0.431   5.822   4.275 -2.0375  1.3888  2.6891
 5195TIP3    H215550   0.303   5.750   4.310 -1.5055 -1.8091 -1.2923
 5196TIP3   OH215551   1.544   0.632   2.099  0.1711  0.0390 -0.3096
 5196TIP3    H115552   1.482   0.559   2.091  1.0505 -0.7979  0.3724
 5196TIP3    H215553   1.522   0.690   2.026 -1.8496  0.1057  0.2755
 5197TIP3   OH215554   3.472   3.310   5.185  0.1096  0.4513 -0.4459
 5197TIP3    H115555   3.525   3.242   5.227  0.2032  0.0467 -1.2010
 5197TIP3    H215556   3.535   3.378   5.161 -0.0286  0.9618  0.5971
 5198TIP3   OH215557   2.147   5.980   0.841 -0.0287  0.9709 -0.3410
 5198TIP3    H115558   2.239   6.001   0.830  0.4602 -1.1077 -0.7070
 5198TIP3    H215559   2.123   6.018   0.925  1.0253  1.9145 -0.4534
 5199TIP3   OH215560   4.820   1.749   0.921  0.1245  0.2068  0.7002
 5199TIP3    H115561   4.881   1.677   0.932 -0.1426 -0.5093 -1.7490
 5199TIP3    H215562   4.733   1.707   0.922 -0.0561  0.5276 -0.2780
 5200TIP3   OH215563   6.613   2.083   1.841 -0.4785  0.6446 -0.3328
 5200TIP3    H115564   6.676   2.014   1.819 -1.6228 -0.0674 -1.5120
 5200TIP3    H215565   6.586   2.062   1.931 -0.9000 -0.5513 -0.7099
 5201TIP3   OH215566   5.424   3.725   1.354  0.2566  0.2008 -0.1951
 5201TIP3    H115567   5.470   3.689   1.278  1.0655 -0.2456  0.4857
 5201TIP3    H215568   5.391   3.810   1.324  1.3476  0.4363 -0.7765
 5202TIP3   OH215569   6.911   3.532   1.263 -0.2408 -0.4072 -0.3326
 5202TIP3    H115570   6.855   3.533   1.186 -0.1208 -0.2634 -0.4181
 5202TIP3    H215571   6.958   3.616   1.260 -0.5234 -0.2271  0.1083
 5203TIP3   OH215572   5.656   0.913   3.104 -0.4035  0.0385  0.2849
 5203TIP3    H115573   5.644   0.872   3.190 -2.2014 -0.0573  0.0279
 5203TIP3    H215574   5.711   0.852   3.056  0.3957 -0.0406  1.2648
 5204TIP3   OH215575   2.055   5.540   3.916  0.2916  0.8575  0.1344
 5204TIP3    H115576   1.982   5.480   3.931  1.6770 -0.6598  1.1719
 5204TIP3    H215577   2.067   5.539   3.821  0.1279 -0.3376  0.1076
 5205TIP3   OH215578   0.067   5.109   3.642 -0.2787 -0.0408 -0.5128
 5205TIP3    H115579   0.097   5.129   3.730  1.6289 -0.5860 -1.0066
 5205TIP3    H215580   0.147   5.097   3.591 -1.3406 -0.1925 -2.2204
 5206TIP3   OH215581   7.184   5.278   5.502  0.3978 -0.5733 -0.0671
 5206TIP3    H115582   7.222   5.353   5.457 -1.8413  0.9315  0.3870
 5206TIP3    H215583   7.160   5.310   5.589 -0.0311 -1.9823  0.3671
 5207TIP3   OH215584   0.089   4.440   1.204  0.2487 -0.5155 -0.1444
 5207TIP3    H115585   0.007   4.399   1.234  0.8501  0.1563  2.7921
 5207TIP3    H215586   0.064   4.530   1.181  0.1944 -0.1519  1.2521
 5208TIP3   OH215587   6.412   2.966   4.386 -0.1013  0.8232  0.4431
 5208TIP3    H115588   6.429   2.974   4.480 -0.2386  1.2118  0.4386
 5208TIP3    H215589   6.324   3.001   4.375 -0.2357  0.4129  0.2238
 5209TIP3   OH215590   0.465   4.268   4.068 -0.2233 -0.0111 -0.4244
 5209TIP3    H115591   0.426   4.197   4.119  0.9948 -0.8590 -0.6137
 5209TIP3    H215592   0.536   4.226   4.020  0.2367  1.2633 -0.9016
 5210TIP3   OH215593   7.149   6.570   0.471  0.0153  0.0565 -0.4231
 5210TIP3    H115594   7.124   6.635   0.536 -0.6814 -1.0946  0.5028
 5210TIP3    H215595   7.081   6.577   0.403 -0.1082  0.2416 -0.2812
 5211TIP3   OH215596   6.899   1.586   4.142  0.1925 -0.2327 -0.3563
 5211TIP3    H115597   6.943   1.526   4.203 -0.1475 -1.2068 -1.0513
 5211TIP3    H215598   6.971   1.628   4.094  0.4514  0.3518  0.5184
 5212TIP3   OH215599   1.918   5.411   0.590 -0.5328  0.4092  0.8766
 5212TIP3    H115600   1.840   5.437   0.541 -1.9591  0.6825  3.1810
 5212TIP3    H215601   1.945   5.490   0.636  0.3439 -0.0274  1.1259
 5213TIP3   OH215602   3.373   2.531   0.652 -0.7681 -0.5541  0.1568
 5213TIP3    H115603   3.308   2.468   0.621 -2.4808  1.2929 -0.1576
 5213TIP3    H215604   3.455   2.481   0.655 -1.5536 -2.1780 -2.3624
 5214TIP3   OH215605   4.953   0.081   1.187  0.6019  0.1005  0.2535
 5214TIP3    H115606   5.048   0.083   1.200  0.5239  1.0038  0.7859
 5214TIP3    H215607   4.938   0.006   1.129  1.6675  0.1060 -0.0513
 5215TIP3   OH215608   4.568   1.909   2.879  0.2093  0.3614  0.2247
 5215TIP3    H115609   4.491   1.880   2.929  0.2099  3.3236  2.1775
 5215TIP3    H215610   4.549   1.882   2.789 -2.2931 -0.5739  0.9322
 5216TIP3   OH215611   3.723   4.496   3.420 -0.5761 -0.5616  0.7642
 5216TIP3    H115612   3.804   4.546   3.427 -1.7496  1.5472  0.2794
 5216TIP3    H215613   3.743   4.412   3.459  2.3039 -0.7043 -0.7427
 5217TIP3   OH215614   1.684   6.358   2.008 -0.1530  0.8384 -0.1446
 5217TIP3    H115615   1.649   6.280   1.964  3.1528 -0.2976 -1.0968
 5217TIP3    H215616   1.699   6.330   2.099 -0.5061  0.9285 -0.0561
 5218TIP3   OH215617   3.481   6.267   3.194 -0.3087  0.0142  0.3238
 5218TIP3    H115618   3.539   6.343   3.199 -2.0132  1.4581 -0.4811
 5218TIP3    H215619   3.393   6.304   3.201 -1.2206 -1.8620 -0.5385
 5219TIP3   OH215620   2.272   2.034   4.224 -0.7780  0.1363 -0.3935
 5219TIP3    H115621   2.272   2.129   4.215 -0.3363  0.4150  1.9088
 5219TIP3    H215622   2.360   2.008   4.197 -0.8149  0.4105 -0.7809
 5220TIP3   OH215623   3.836   1.351   5.161  0.1064  0.0473  0.1705
 5220TIP3    H115624   3.847   1.384   5.250 -0.7071 -0.9713  0.6714
 5220TIP3    H215625   3.746   1.319   5.158  0.2906 -0.4306 -0.8483
 5221TIP3   OH215626   3.231   4.135   0.434  0.9284 -0.6117  0.0340
 5221TIP3    H115627   3.322   4.157   0.450  0.6340 -0.2375  1.3134
 5221TIP3    H215628   3.226   4.040   0.444  1.3788 -0.7783 -1.1797
 5222TIP3   OH215629   6.008   0.093   4.745 -0.0054  0.3155 -0.0405
 5222TIP3    H115630   5.970   0.173   4.710  0.9909  1.1443  0.6984
 5222TIP3    H215631   5.970   0.084   4.832 -0.8327 -0.5574 -0.4680
 5223TIP3   OH215632   0.400   5.456   0.957  0.3772 -0.4605  0.1992
 5223TIP3    H115633   0.387   5.545   0.990 -0.0588 -0.9277  1.3415
 5223TIP3    H215634   0.424   5.468   0.865  0.9241  0.8609  0.4923
 5224TIP3   OH215635   3.922   2.245   3.653 -0.4177  0.3882  0.1113
 5224TIP3    H115636   3.919   2.150   3.648  1.8730  0.3017 -1.7544
 5224TIP3    H215637   3.977   2.264   3.729  0.7924  0.1094 -0.6690
 5225TIP3   OH215638   2.852   3.910   4.597  0.3149  0.0602 -0.1806
 5225TIP3    H115639   2.801   3.893   4.518  0.1630 -1.6900  0.2522
 5225TIP3    H215640   2.804   3.979   4.642 -1.3552 -1.0994 -0.0965
 5226TIP3   OH215641   2.663   6.690   3.853  1.0963  0.7339 -0.6987
 5226TIP3    H115642   2.720   6.713   3.926  0.5319  0.9574 -0.3185
 5226TIP3    H215643   2.583   6.658   3.895  0.7217  0.9778 -1.2164
 5227TIP3   OH215644   5.627   2.553   3.009 -0.2421 -0.1468  0.1513
 5227TIP3    H115645   5.695   2.615   3.035 -1.4823  1.0950  0.5745
 5227TIP3    H215646   5.656   2.469   3.046  0.9705  0.3791  0.4462
 5228TIP3   OH215647   2.892   6.617   5.890  0.0076 -0.3777 -0.0454
 5228TIP3    H115648   2.900   6.689   5.828  1.1921  0.2180  0.7602
 5228TIP3    H215649   2.881   6.539   5.835  0.5942  0.1832 -0.9846
 5229TIP3   OH215650   2.825   0.828   2.615 -0.3296  0.4238  0.2103
 5229TIP3    H115651   2.737   0.824   2.578  0.7796 -1.9484 -2.5563
 5229TIP3    H215652   2.862   0.741   2.599  2.6376  1.4117  0.9977
 5230TIP3   OH215653   0.093   2.429   0.290  0.1033 -0.3606  0.4720
 5230TIP3    H115654   0.181   2.393   0.283 -0.8450 -2.7611 -0.0585
 5230TIP3    H215655   0.058   2.425   0.201 -1.5135 -2.2205  1.1310
 5231TIP3   OH215656   2.020   3.788   3.914  0.1046 -0.9448  0.1276
 5231TIP3    H115657   1.965   3.716   3.945 -1.8601  0.6301  0.5322
 5231TIP3    H215658   2.044   3.835   3.994  1.0039 -0.8719 -0.1708
 5232TIP3   OH215659   1.626   3.584   3.176  0.3368  0.8586 -0.4459
 5232TIP3    H115660   1.602   3.540   3.257  0.5176  0.6518 -0.5030
 5232TIP3    H215661   1.658   3.670   3.204  1.9412  0.1959 -0.1461
 5233TIP3   OH215662   0.266   2.672   4.198  0.2693 -0.4503  0.2357
 5233TIP3    H115663   0.331   2.710   4.139 -0.4533 -0.3210 -0.4966
 5233TIP3    H215664   0.199   2.636   4.140 -1.6086  1.6677  0.9635
 5234TIP3   OH215665   6.624   2.216   0.782  0.5581  0.6126 -0.3549
 5234TIP3    H115666   6.711   2.192   0.752  1.0225  1.2874  0.4007
 5234TIP3    H215667   6.613   2.168   0.864  0.9525  1.8685  0.4672
 5235TIP3   OH215668   0.574   4.357   0.478  0.0615  0.0185 -0.3450
 5235TIP3    H115669   0.554   4.268   0.506  2.8949 -0.3950  0.6298
 5235TIP3    H215670   0.590   4.405   0.559  0.7766  0.8212 -0.9433
 5236TIP3   OH215671   6.594   1.678   2.958 -0.3775 -0.3423 -0.1167
 5236TIP3    H115672   6.636   1.623   3.024  0.4774  0.2711 -0.1262
 5236TIP3    H215673   6.501   1.676   2.980 -0.1749 -0.6200  0.7456
 5237TIP3   OH215674   5.361   5.054   4.472 -0.0408  0.1852  0.2687
 5237TIP3    H115675   5.337   5.005   4.551  0.4351  0.9071  0.8653
 5237TIP3    H215676   5.457   5.051   4.470 -0.0487  0.1851 -0.2791
 5238TIP3   OH215677   3.053   1.128   2.010 -0.3908 -0.1660 -0.1260
 5238TIP3    H115678   3.047   1.155   1.918  0.6203  0.9868  0.1238
 5238TIP3    H215679   3.018   1.039   2.011 -0.1924 -0.2904 -1.6744
 5239TIP3   OH215680   4.154   4.176   4.524  0.1595 -0.1049  0.4143
 5239TIP3    H115681   4.236   4.128   4.537 -0.4107 -1.9129 -2.0345
 5239TIP3    H215682   4.091   4.131   4.581 -0.3981 -2.5278 -1.9360
 5240TIP3   OH215683   3.778   1.202   4.320  0.8321 -0.4038  0.3633
 5240TIP3    H115684   3.694   1.209   4.365  0.0291 -1.0153 -0.9692
 5240TIP3    H215685   3.844   1.219   4.388 -0.3708  0.6111  1.3174
 5241TIP3   OH215686   1.139   1.775   0.901  0.0047 -0.0740  0.2043
 5241TIP3    H115687   1.160   1.823   0.981  1.2111 -1.8335  1.0109
 5241TIP3    H215688   1.215   1.790   0.844 -1.1009  1.6425 -0.8914
 5242TIP3   OH215689   5.398   3.093   2.678  0.2282 -0.0609  0.1006
 5242TIP3    H115690   5.393   3.177   2.632 -0.8132 -0.9482 -1.4472
 5242TIP3    H215691   5.492   3.075   2.684  0.4214  0.6406 -0.6257
 5243TIP3   OH215692   4.186   6.527   1.743 -0.3133  0.3483 -0.0305
 5243TIP3    H115693   4.164   6.591   1.675 -0.6033  0.6642  0.3529
 5243TIP3    H215694   4.242   6.575   1.804 -1.6887  0.6728  1.0173
 5244TIP3   OH215695   6.512   5.777   0.107 -0.1162  0.1470  0.1389
 5244TIP3    H115696   6.600   5.812   0.093  0.1390 -0.9703 -1.1895
 5244TIP3    H215697   6.508   5.759   0.201  0.3626  2.0184  0.5648
 5245TIP3   OH215698   5.028   1.863   5.325  0.2364 -0.0319  0.0653
 5245TIP3    H115699   5.118   1.870   5.293  0.8598 -2.1396  1.1735
 5245TIP3    H215700   5.025   1.919   5.403  0.5756  0.0461  0.0212
 5246TIP3   OH215701   6.999   1.765   4.726 -0.1740 -0.6774 -0.2216
 5246TIP3    H115702   7.010   1.733   4.636 -1.9527 -2.3615  0.1127
 5246TIP3    H215703   7.089   1.777   4.757  0.5288  1.2588 -2.6052
 5247TIP3   OH215704   3.076   1.329   1.170 -0.8760  0.0641  0.1361
 5247TIP3    H115705   3.031   1.392   1.226 -0.2469 -0.6176  1.4754
 5247TIP3    H215706   3.153   1.302   1.221 -0.1579 -0.4456 -1.1546
 5248TIP3   OH215707   2.445   3.314   1.037  0.1879 -0.0899  0.1689
 5248TIP3    H115708   2.447   3.220   1.017 -0.3637 -0.6347  2.4839
 5248TIP3    H215709   2.390   3.352   0.968 -0.0041 -1.5176 -0.4936
 5249TIP3   OH215710   1.218   5.288   0.525  1.1370 -0.0480  0.2263
 5249TIP3    H115711   1.132   5.263   0.493  0.4673  2.3532 -0.0839
 5249TIP3    H215712   1.261   5.206   0.549 -1.4468 -1.2644  0.9690
 5250TIP3   OH215713   3.367   3.758   1.782 -0.7099  0.6090  0.2239
 5250TIP3    H115714   3.288   3.751   1.729 -0.4910 -0.2848  0.0082
 5250TIP3    H215715   3.340   3.809   1.858 -1.8017 -0.6792  0.7308
 5251TIP3   OH215716   6.939   3.439   5.235  0.2086  0.2242 -0.0108
 5251TIP3    H115717   7.003   3.510   5.242  0.6508 -0.1701 -0.0173
 5251TIP3    H215718   6.917   3.418   5.326 -0.2273  0.6404 -0.0179
 5252TIP3   OH215719   0.885   5.311   3.047  0.2597 -0.0279  0.0704
 5252TIP3    H115720   0.951   5.248   3.018  0.1564  0.2434 -0.7829
 5252TIP3    H215721   0.826   5.261   3.103 -1.6468 -1.5655 -3.0304
 5253TIP3   OH215722   2.761   5.558   0.613  0.1005 -0.0036  0.2805
 5253TIP3    H115723   2.745   5.652   0.616  0.4130  0.0344  0.9048
 5253TIP3    H215724   2.673   5.519   0.613 -0.0356  0.2899 -0.3819
 5254TIP3   OH215725   0.380   6.264   5.437  0.3721  0.2174  0.4871
 5254TIP3    H115726   0.451   6.214   5.476 -0.2254  0.2280  1.6246
 5254TIP3    H215727   0.393   6.255   5.342  2.8628  1.6340  0.6172
 5255TIP3   OH215728   3.743   4.177   3.028 -0.3244  0.0683  0.4333
 5255TIP3    H115729   3.747   4.113   3.099 -1.4307 -0.9354 -0.3675
 5255TIP3    H215730   3.829   4.170   2.985 -0.2882 -0.6221  0.5947
 5256TIP3   OH215731   1.961   5.667   0.702 -0.2383  0.4900  0.4074
 5256TIP3    H115732   2.017   5.690   0.628 -0.2319 -1.6013 -0.3017
 5256TIP3    H215733   1.872   5.689   0.673 -0.1447  0.4661  0.0997
 5257TIP3   OH215734   5.227   1.396   0.832 -0.1032  0.2312 -0.7148
 5257TIP3    H115735   5.297   1.447   0.872 -1.7356  1.1882  1.0899
 5257TIP3    H215736   5.240   1.307   0.865  0.4199  0.3243 -0.6534
 5258TIP3   OH215737   0.670   4.791   5.078 -0.2492 -0.1194  0.5652
 5258TIP3    H115738   0.681   4.884   5.098 -0.7247 -0.7564  4.7357
 5258TIP3    H215739   0.576   4.780   5.065  0.0064  0.2001 -2.0841
 5259TIP3   OH215740   1.579   0.174   1.829 -0.1085  0.0818  0.1986
 5259TIP3    H115741   1.584   0.086   1.866  0.6067  0.4704  1.0817
 5259TIP3    H215742   1.571   0.231   1.906 -2.6323  0.6762 -0.4328
 5260TIP3   OH215743   4.316   0.130   4.509 -0.4308 -0.1716  0.4119
 5260TIP3    H115744   4.231   0.165   4.535  0.8267  2.0975  1.8081
 5260TIP3    H215745   4.368   0.207   4.489  1.6931 -1.4214  0.8227
 5261TIP3   OH215746   2.071   5.907   0.129 -0.7049 -0.0920 -0.0925
 5261TIP3    H115747   1.992   5.858   0.106 -0.0612 -1.2167  0.0172
 5261TIP3    H215748   2.118   5.916   0.046 -0.4960 -0.2621  0.0073
 5262TIP3   OH215749   2.315   0.929   2.035  0.0063 -0.1805  0.2575
 5262TIP3    H115750   2.297   0.857   1.974 -0.0738 -0.2213  0.3287
 5262TIP3    H215751   2.324   0.886   2.120 -0.6223 -0.0423  0.3955
 5263TIP3   OH215752   6.821   2.357   3.244  0.0402  0.4774 -0.1247
 5263TIP3    H115753   6.805   2.451   3.233 -1.7494  0.2630  0.2938
 5263TIP3    H215754   6.912   2.345   3.217  1.0888  2.7019  1.9699
 5264TIP3   OH215755   1.697   1.306   1.709 -0.6225  0.3089 -0.0011
 5264TIP3    H115756   1.685   1.250   1.786  0.6151 -0.6851 -0.4983
 5264TIP3    H215757   1.719   1.392   1.746  1.2893 -0.4715  0.7836
 5265TIP3   OH215758   0.381   2.562   5.421  0.0907  0.3566  0.0525
 5265TIP3    H115759   0.394   2.476   5.460 -0.6026 -0.1262 -0.7598
 5265TIP3    H215760   0.288   2.580   5.433 -0.4452 -0.3948 -2.5163
 5266TIP3   OH215761   6.995   1.849   2.147  0.1823 -0.1984 -1.1165
 5266TIP3    H115762   6.986   1.802   2.064 -0.9709 -1.9262 -0.0570
 5266TIP3    H215763   6.909   1.844   2.187  0.5547  1.1574 -0.0507
 5267TIP3   OH215764   0.995   3.979   2.218  0.0542 -0.4293 -0.0474
 5267TIP3    H115765   0.975   4.073   2.223 -0.4115 -0.4381 -1.3646
 5267TIP3    H215766   1.082   3.976   2.177 -1.3633 -0.6018 -3.3302
 5268TIP3   OH215767   0.914   2.353   3.910  0.6423 -0.2794 -0.1085
 5268TIP3    H115768   0.899   2.309   3.827 -0.7859  1.4488 -0.8295
 5268TIP3    H215769   0.826   2.370   3.945  1.0244  2.7833 -0.3589
 5269TIP3   OH215770   6.234   5.011   2.243 -0.5132 -0.3774 -0.7008
 5269TIP3    H115771   6.220   5.026   2.336  0.1091  0.1847 -0.6939
 5269TIP3    H215772   6.320   4.969   2.238 -1.3945 -2.2742 -0.8741
 5270TIP3   OH215773   1.957   1.985   5.414 -0.2475 -0.2029 -0.3993
 5270TIP3    H115774   2.001   1.996   5.330  0.2238  1.8193  0.0442
 5270TIP3    H215775   1.873   2.030   5.403 -0.8620 -1.2814 -0.2494
 5271TIP3   OH215776   1.155   5.715   0.142 -0.7963 -0.2052  0.0914
 5271TIP3    H115777   1.168   5.739   0.050  2.1901  0.3975  0.5603
 5271TIP3    H215778   1.162   5.619   0.143 -2.0254 -0.3164 -0.4197
 5272TIP3   OH215779   5.638   2.267   3.545 -0.0942 -0.5993 -0.6440
 5272TIP3    H115780   5.543   2.264   3.545 -0.2625  2.1370  0.3493
 5272TIP3    H215781   5.662   2.262   3.452 -1.4641  1.9515 -1.2330
 5273TIP3   OH215782   5.152   1.786   2.138  0.2013  0.7641  0.1444
 5273TIP3    H115783   5.227   1.820   2.186  1.6626  0.3193 -1.7139
 5273TIP3    H215784   5.172   1.693   2.125 -0.6161  0.6575 -0.4559
 5274TIP3   OH215785   0.125   0.224   3.589  0.1188 -0.5001  0.5143
 5274TIP3    H115786   0.189   0.296   3.583 -0.0245 -0.4262 -0.2415
 5274TIP3    H215787   0.043   0.263   3.559  0.1075 -1.0628 -0.2092
 5275TIP3   OH215788   6.172   1.170   3.917 -0.2957  0.0662  0.5122
 5275TIP3    H115789   6.181   1.142   4.008  0.9121 -1.5032 -0.0494
 5275TIP3    H215790   6.243   1.125   3.871  0.3209  2.3033 -0.9001
 5276TIP3   OH215791   4.286   5.931   3.360  0.7585  0.3312  0.6125
 5276TIP3    H115792   4.207   5.942   3.413  1.3165  0.7851  1.3867
 5276TIP3    H215793   4.259   5.877   3.286 -0.0322 -0.4034  1.4201
 5277TIP3   OH215794   6.916   3.692   2.044  0.5780 -0.1877 -0.1047
 5277TIP3    H115795   6.954   3.606   2.029 -1.0470 -0.5893 -2.5586
 5277TIP3    H215796   6.880   3.718   1.958 -2.3895  1.1902  1.3816
 5278TIP3   OH215797   3.653   5.112   1.684 -0.1111  0.2014 -0.9638
 5278TIP3    H115798   3.558   5.100   1.685 -0.1121  0.2251 -0.6534
 5278TIP3    H215799   3.683   5.059   1.610 -0.1777 -1.3074  0.0427
 5279TIP3   OH215800   2.843   3.101   4.074 -0.0453 -0.1808  0.1389
 5279TIP3    H115801   2.844   3.066   4.163  0.0671  1.1872  0.7103
 5279TIP3    H215802   2.935   3.104   4.048  0.1708  1.7059  0.9643
 5280TIP3   OH215803   2.570   6.198   2.211 -0.2082  0.4717 -0.1987
 5280TIP3    H115804   2.522   6.116   2.222  0.5310  0.1982  1.2615
 5280TIP3    H215805   2.511   6.254   2.160 -0.4022 -1.2179 -1.9640
 5281TIP3   OH215806   1.736   0.579   2.687  0.7800 -0.7515 -0.6688
 5281TIP3    H115807   1.693   0.624   2.760  1.2921 -1.4252  0.0562
 5281TIP3    H215808   1.729   0.641   2.614 -0.4408 -0.3989 -0.2740
 5282TIP3   OH215809   2.222   6.493   3.037  0.5552  0.4818 -0.2207
 5282TIP3    H115810   2.179   6.408   3.039  0.5465  0.5026  0.8628
 5282TIP3    H215811   2.268   6.499   3.121  1.5370  1.0431 -0.7725
 5283TIP3   OH215812   5.528   4.786   3.616  0.6683 -0.5238  0.2137
 5283TIP3    H115813   5.452   4.728   3.609  0.3314 -0.3826  2.0502
 5283TIP3    H215814   5.563   4.769   3.704  2.2056  0.0954 -0.2418
 5284TIP3   OH215815   6.408   0.741   4.254  0.1417  0.5012  0.8768
 5284TIP3    H115816   6.375   0.750   4.164 -0.2091 -1.0623  0.8218
 5284TIP3    H215817   6.478   0.676   4.248 -0.7463 -0.6108  1.9059
 5285TIP3   OH215818   5.375   0.656   4.853 -0.2169  0.1537  0.4842
 5285TIP3    H115819   5.366   0.562   4.835 -2.0486  0.2445  0.7211
 5285TIP3    H215820   5.285   0.688   4.857  0.3773  1.9035  0.5742
 5286TIP3   OH215821   2.117   2.414   5.833 -0.5413 -0.2767 -0.1567
 5286TIP3    H115822   2.102   2.431   5.926 -1.6280  0.3159 -0.4220
 5286TIP3    H215823   2.131   2.501   5.795 -0.6640 -0.4673 -0.6378
 5287TIP3   OH215824   0.731   5.813   2.170  0.0033 -0.3427 -0.0438
 5287TIP3    H115825   0.763   5.741   2.224  1.4567  0.6293  0.4566
 5287TIP3    H215826   0.801   5.829   2.107 -0.2073  0.7397 -0.0292
 5288TIP3   OH215827   0.881   1.751   3.468 -0.4607 -0.0832  1.1285
 5288TIP3    H115828   0.910   1.661   3.458  1.0633  0.4304  0.6970
 5288TIP3    H215829   0.879   1.787   3.379  0.5900  0.7806  1.4291
 5289TIP3   OH215830   3.096   4.500   0.327  0.4730 -0.0072  0.2241
 5289TIP3    H115831   3.079   4.453   0.408  2.3573 -0.3944  0.4486
 5289TIP3    H215832   3.164   4.564   0.350  0.4155  0.4693 -0.8568
 5290TIP3   OH215833   6.488   1.281   4.012 -0.4039  0.5404 -0.3835
 5290TIP3    H115834   6.575   1.309   3.986  0.0575 -0.3211  0.1767
 5290TIP3    H215835   6.452   1.355   4.060  0.3651  0.5853  0.1365
 5291TIP3   OH215836   0.221   5.134   1.459  0.0765 -0.0639  0.5989
 5291TIP3    H115837   0.129   5.159   1.445  0.1891  0.1844  0.2896
 5291TIP3    H215838   0.270   5.186   1.395  0.1625 -2.4589 -1.4031
 5292TIP3   OH215839   1.771   5.274   4.129 -0.5707  0.5024 -0.0366
 5292TIP3    H115840   1.807   5.266   4.041  3.4634 -3.4698  1.5319
 5292TIP3    H215841   1.725   5.191   4.144  2.0817 -0.7265  2.5293
 5293TIP3   OH215842   6.570   0.639   3.045 -0.3396 -0.4211  0.2762
 5293TIP3    H115843   6.637   0.695   3.005 -1.3497  0.7293  0.1253
 5293TIP3    H215844   6.487   0.682   3.023 -1.2807 -2.6659 -0.9695
 5294TIP3   OH215845   0.825   1.560   1.723  0.1164 -0.2211  1.2563
 5294TIP3    H115846   0.909   1.523   1.696 -0.4189 -0.5581 -0.0301
 5294TIP3    H215847   0.773   1.485   1.750  0.2101 -0.0152  2.0371
 5295TIP3   OH215848   4.648   5.846   1.777  0.0764  0.3264  0.4778
 5295TIP3    H115849   4.602   5.882   1.853  0.8133  1.0615  0.5950
 5295TIP3    H215850   4.585   5.851   1.706  0.5090  3.0520  0.1882
 5296TIP3   OH215851   2.870   0.559   3.034  0.3011  0.1938 -0.3146
 5296TIP3    H115852   2.946   0.595   2.988  0.9865 -0.9669 -0.1159
 5296TIP3    H215853   2.846   0.627   3.098  0.3398  1.1254 -1.2494
 5297TIP3   OH215854   3.178   5.780   0.696 -0.1122 -0.2045 -0.0223
 5297TIP3    H115855   3.142   5.752   0.780  1.1727  1.7404  1.2868
 5297TIP3    H215856   3.125   5.856   0.671  0.1027 -0.2037 -0.4906
 5298TIP3   OH215857   1.407   3.754   4.912 -0.5945  0.2764 -0.0205
 5298TIP3    H115858   1.447   3.667   4.915  0.3012  0.6807 -0.0717
 5298TIP3    H215859   1.313   3.737   4.909 -0.4714 -0.6825  0.9705
 5299TIP3   OH215860   6.818   2.733   0.718 -0.1010  0.1855  0.0177
 5299TIP3    H115861   6.764   2.670   0.670 -2.0828  2.2876 -0.7043
 5299TIP3    H215862   6.830   2.806   0.657  2.6569  0.3289  0.5946
 5300TIP3   OH215863   1.100   5.204   5.435 -0.1444  0.1024  0.1093
 5300TIP3    H115864   1.079   5.246   5.351  0.9753  0.1621 -0.1617
 5300TIP3    H215865   1.140   5.121   5.410 -1.1333 -0.5549  0.6279
 5301TIP3   OH215866   1.735   6.419   0.917 -0.0167  0.1144  0.9316
 5301TIP3    H115867   1.660   6.360   0.916 -0.5159  0.7447  0.5437
 5301TIP3    H215868   1.810   6.364   0.895 -0.6268 -0.1730 -0.5316
 5302TIP3   OH215869   6.865   0.175   4.427 -0.0538  0.0784  0.0840
 5302TIP3    H115870   6.777   0.206   4.402  0.3933  2.2956  0.9671
 5302TIP3    H215871   6.850   0.088   4.464 -1.6234 -0.3176 -1.3618
 5303TIP3   OH215872   5.433   0.664   1.283 -0.3698  0.5018 -0.0109
 5303TIP3    H115873   5.506   0.699   1.335  0.7992 -1.7824  0.0249
 5303TIP3    H215874   5.368   0.638   1.347  0.1997 -0.4373  0.2017
 5304TIP3   OH215875   4.612   3.825   0.651 -0.2301  0.1684 -0.5394
 5304TIP3    H115876   4.553   3.792   0.582 -0.0431 -0.0754 -0.5820
 5304TIP3    H215877   4.581   3.914   0.667 -1.3713 -0.3415  0.2761
 5305TIP3   OH215878   3.157   3.986   3.757 -0.8619  0.8057 -0.1913
 5305TIP3    H115879   3.187   4.003   3.668  1.3769 -0.9443  0.1347
 5305TIP3    H215880   3.235   3.996   3.811 -1.0952 -2.4469  0.9641
 5306TIP3   OH215881   3.006   6.318   0.601  0.3771 -0.2610  0.9013
 5306TIP3    H115882   2.949   6.296   0.527 -0.0554  1.4662  0.6710
 5306TIP3    H215883   3.070   6.247   0.604  0.2294 -0.5269 -0.9575
 5307TIP3   OH215884   0.141   3.309   1.569 -0.3584 -0.4243 -0.9520
 5307TIP3    H115885   0.167   3.381   1.627  1.9516 -2.2913  0.5258
 5307TIP3    H215886   0.050   3.291   1.592  0.5388 -1.3006  2.4989
 5308TIP3   OH215887   4.958   3.195   1.615 -0.0821 -0.2598 -0.0483
 5308TIP3    H115888   4.976   3.275   1.567  1.6942 -0.4298  0.2828
 5308TIP3    H215889   4.905   3.142   1.555  0.0021  0.5330 -0.8423
 5309TIP3   OH215890   4.460   6.714   3.195 -0.0644 -0.0654  0.0635
 5309TIP3    H115891   4.513   6.687   3.269 -0.1856 -0.5276 -0.0099
 5309TIP3    H215892   4.462   6.809   3.196  0.4027 -0.0782  0.3190
 5310TIP3   OH215893   3.944   3.769   4.837  0.2655  0.0316  0.8783
 5310TIP3    H115894   3.958   3.739   4.747  0.3484  1.5291  0.3633
 5310TIP3    H215895   3.995   3.850   4.843 -1.1256  0.8729  1.7250
 5311TIP3   OH215896   2.878   2.548   4.785  0.2274  0.3593 -0.1655
 5311TIP3    H115897   2.882   2.465   4.739  0.9484 -0.0176  0.5555
 5311TIP3    H215898   2.785   2.569   4.788 -0.0700 -0.9380  0.5305
 5312TIP3   OH215899   2.919   0.918   0.938 -0.0066  0.1234  0.2496
 5312TIP3    H115900   2.946   1.001   0.898 -0.6647 -0.2754 -1.0940
 5312TIP3    H215901   2.987   0.899   1.002  1.0354  0.8699 -0.5918
 5313TIP3   OH215902   3.325   6.457   0.377  0.2162  0.6995  0.7161
 5313TIP3    H115903   3.327   6.388   0.443  0.8885  0.2862  0.2840
 5313TIP3    H215904   3.324   6.410   0.293  0.0571  1.2104  0.4240
 5314TIP3   OH215905   4.752   0.577   2.462 -0.0880  0.7281 -0.1753
 5314TIP3    H115906   4.757   0.579   2.366  0.1205  0.5301 -0.1680
 5314TIP3    H215907   4.788   0.662   2.488  0.7565  0.3925 -0.2347
 5315TIP3   OH215908   2.544   2.969   5.736 -0.0905  0.5928  0.1751
 5315TIP3    H115909   2.452   2.993   5.720 -0.1834  0.6141  0.7473
 5315TIP3    H215910   2.583   3.048   5.774  0.7809  1.4428 -2.2881
 5316TIP3   OH215911   7.025   4.108   1.386 -0.7169 -0.6985  0.4364
 5316TIP3    H115912   6.991   4.135   1.471 -0.8918 -0.0631  0.1728
 5316TIP3    H215913   7.092   4.043   1.407  2.2441  2.3635  1.3933
 5317TIP3   OH215914   4.182   0.654   5.208 -0.0854 -1.0412  1.1409
 5317TIP3    H115915   4.140   0.739   5.210 -1.0586 -1.4032 -0.8098
 5317TIP3    H215916   4.161   0.613   5.292  0.0729  0.4560  1.9369
 5318TIP3   OH215917   5.533   3.265   4.404  0.6473  0.4519 -0.2801
 5318TIP3    H115918   5.475   3.208   4.455  1.7323 -0.1055  0.3599
 5318TIP3    H215919   5.608   3.280   4.461  2.3694 -0.9760 -2.0392
 5319TIP3   OH215920   0.469   1.859   0.515  0.0593 -0.1006 -0.3291
 5319TIP3    H115921   0.435   1.852   0.426  0.1244  1.3083 -0.4905
 5319TIP3    H215922   0.492   1.952   0.524 -0.4386 -0.1196  1.3344
 5320TIP3   OH215923   4.241   2.463   1.109 -0.2773  0.2965  0.6328
 5320TIP3    H115924   4.188   2.435   1.034  0.9589 -0.2386 -0.0750
 5320TIP3    H215925   4.249   2.558   1.098 -2.9109  0.7596  1.9967
 5321TIP3   OH215926   6.757   0.575   1.410 -0.2268 -1.2321  0.3261
 5321TIP3    H115927   6.853   0.586   1.407 -0.2052 -1.4781  0.1234
 5321TIP3    H215928   6.723   0.664   1.403  0.0129 -0.9741  2.0045
 5322TIP3   OH215929   4.305   5.465   5.811 -0.0515 -0.1684 -1.0366
 5322TIP3    H115930   4.319   5.399   5.743 -0.0665 -1.7619  0.4444
 5322TIP3    H215931   4.268   5.417   5.885  1.2929  1.2020  0.6357
 5323TIP3   OH215932   1.598   1.204   2.832  0.1526  0.3070 -0.4836
 5323TIP3    H115933   1.529   1.150   2.794 -0.1020 -0.3729  0.8877
 5323TIP3    H215934   1.568   1.223   2.921  0.9623  1.4151 -0.4192
 5324TIP3   OH215935   2.817   0.687   0.400 -0.2400  0.0383 -0.1791
 5324TIP3    H115936   2.836   0.637   0.479  0.4050 -0.0073 -0.3539
 5324TIP3    H215937   2.743   0.642   0.359 -1.3785  0.7550  1.0059
 5325TIP3   OH215938   6.684   0.004   2.662  0.0254  0.0377  0.0962
 5325TIP3    H115939   6.624   0.076   2.685  0.8667  1.7040 -2.4962
 5325TIP3    H215940   6.765   0.025   2.709  0.6726  1.5711 -1.5982
 5326TIP3   OH215941   2.974   0.190   2.733 -0.4507 -0.8716 -0.0815
 5326TIP3    H115942   3.041   0.254   2.710 -0.2077 -1.5845 -1.4426
 5326TIP3    H215943   3.018   0.132   2.795  0.0048 -0.9721 -0.4906
 5327TIP3   OH215944   5.286   3.076   5.335  0.0326 -0.3977 -0.1779
 5327TIP3    H115945   5.233   3.132   5.391  0.2067  0.0647 -0.4682
 5327TIP3    H215946   5.263   2.987   5.360 -1.0229 -0.2035 -0.4273
 5328TIP3   OH215947   0.964   1.554   0.437 -0.3372  0.0553 -0.2101
 5328TIP3    H115948   1.016   1.488   0.391  1.1487  1.5744 -0.8173
 5328TIP3    H215949   0.888   1.568   0.381  0.9176  1.0966 -1.7319
 5329TIP3   OH215950   6.356   1.665   5.413  0.4453 -0.1054 -0.8973
 5329TIP3    H115951   6.423   1.618   5.364  2.2469  0.2137  1.1427
 5329TIP3    H215952   6.344   1.614   5.493 -1.3763  0.1588 -0.9478
 5330TIP3   OH215953   0.737   6.113   3.538  0.0509 -0.1496  0.2207
 5330TIP3    H115954   0.799   6.055   3.582 -0.9611 -1.8714 -0.5399
 5330TIP3    H215955   0.763   6.112   3.446 -2.1745 -2.5161 -0.5068
 5331TIP3   OH215956   2.414   0.811   2.285  0.0063  0.6678  0.3178
 5331TIP3    H115957   2.448   0.726   2.313  0.7764  1.2732  1.3267
 5331TIP3    H215958   2.320   0.806   2.299 -0.2123 -0.6236 -1.3472
 5332TIP3   OH215959   5.092   1.196   5.521  0.0433  0.4327  0.2571
 5332TIP3    H115960   5.150   1.237   5.458  0.6602 -2.0658 -0.9558
 5332TIP3    H215961   5.022   1.158   5.467  0.6175 -1.8156  0.9755
 5333TIP3   OH215962   4.537   0.133   3.771  0.2375 -0.3202 -0.1697
 5333TIP3    H115963   4.625   0.099   3.787  0.2036  0.0474  0.8416
 5333TIP3    H215964   4.491   0.061   3.728  1.0675 -0.4678 -0.8471
 5334TIP3   OH215965   4.759   6.169   2.801  0.6778  0.4197  0.4188
 5334TIP3    H115966   4.745   6.253   2.756  1.0266  0.1288 -0.2491
 5334TIP3    H215967   4.741   6.103   2.734  2.3418 -0.0084  0.3473
 5335TIP3   OH215968   0.114   2.171   5.659 -0.1465 -0.1685  0.2983
 5335TIP3    H115969   0.137   2.147   5.569 -0.3394  0.1228  0.1681
 5335TIP3    H215970   0.145   2.098   5.712 -0.7831 -0.7395 -0.0918
 5336TIP3   OH215971   6.968   2.367   3.505  0.0389 -0.4452 -0.5037
 5336TIP3    H115972   7.055   2.399   3.481 -0.0958  0.7084  0.4673
 5336TIP3    H215973   6.913   2.387   3.429  0.6490 -1.3897 -1.2168
 5337TIP3   OH215974   4.722   2.356   2.721 -0.2397 -0.5061 -0.1972
 5337TIP3    H115975   4.774   2.344   2.800  0.5756  0.8982 -0.4854
 5337TIP3    H215976   4.669   2.434   2.738  0.2240  0.0417 -1.1559
 5338TIP3   OH215977   2.473   2.735   2.575 -0.1909  0.1589  0.4865
 5338TIP3    H115978   2.393   2.753   2.624 -1.0662 -0.5480 -0.6415
 5338TIP3    H215979   2.455   2.768   2.487  0.5171 -0.5844  0.0557
 5339TIP3   OH215980   4.271   6.543   4.923  0.0457  0.7332 -0.5377
 5339TIP3    H115981   4.200   6.527   4.861 -0.4616  0.2680  0.1483
 5339TIP3    H215982   4.274   6.638   4.932 -0.4436  0.7613 -0.6295
 5340TIP3   OH215983   1.399   2.989   1.800 -0.1587 -0.2315  0.0341
 5340TIP3    H115984   1.412   2.903   1.840  1.1385  0.4947  1.2708
 5340TIP3    H215985   1.483   3.034   1.812 -0.7140  1.0984 -0.8549
 5341TIP3   OH215986   2.331   6.025   5.133  0.4464  0.2633  0.2021
 5341TIP3    H115987   2.246   6.020   5.176 -0.9536 -1.3088 -2.4871
 5341TIP3    H215988   2.392   5.982   5.194 -0.8689  0.4987  1.7250
 5342TIP3   OH215989   2.358   2.639   1.073  0.4705 -0.6891  0.4751
 5342TIP3    H115990   2.396   2.668   1.156  0.4331  1.7215 -0.2568
 5342TIP3    H215991   2.294   2.572   1.098 -0.3296  0.7199  2.5368
 5343TIP3   OH215992   4.487   4.800   0.851 -0.0371 -0.6858  0.2846
 5343TIP3    H115993   4.572   4.826   0.885 -0.1256 -2.5376  2.1099
 5343TIP3    H215994   4.425   4.820   0.921 -1.0080 -0.1550 -0.6842
 5344TIP3   OH215995   3.773   6.690   2.039 -0.2095 -0.2362 -0.3439
 5344TIP3    H115996   3.737   6.638   2.111 -1.6323  0.1108 -0.7685
 5344TIP3    H215997   3.833   6.631   1.994  1.5190 -0.1366  1.7120
 5345TIP3   OH215998   2.838   5.130   2.871  0.8879 -0.1503  0.0014
 5345TIP3    H115999   2.854   5.189   2.945 -0.6602  0.9157 -0.4508
 5345TIP3    H216000   2.743   5.115   2.873  0.8494 -0.3179 -1.5902
 5346TIP3   OH216001   6.486   3.312   3.814  0.0160 -0.7777  0.2535
 5346TIP3    H116002   6.485   3.305   3.909 -0.9606 -1.3377  0.2163
 5346TIP3    H216003   6.422   3.379   3.793  1.4356  0.5726  0.0470
 5347TIP3   OH216004   1.257   2.827   3.558  0.1776  0.1879  0.1866
 5347TIP3    H116005   1.191   2.771   3.517  0.5986 -1.5066  1.6852
 5347TIP3    H216006   1.222   2.845   3.646 -0.0424  2.5048 -0.3176
 5348TIP3   OH216007   4.833   4.526   4.319  0.3965 -0.4134  0.2024
 5348TIP3    H116008   4.789   4.603   4.283  0.1625 -1.5412 -2.0685
 5348TIP3    H216009   4.855   4.551   4.409 -1.1544  1.6778  0.0665
 5349TIP3   OH216010   1.439   2.746   0.799 -0.2929  0.1494 -0.6216
 5349TIP3    H116011   1.421   2.661   0.838  0.1978  0.0835 -0.5317
 5349TIP3    H216012   1.438   2.730   0.704 -1.7000  0.3539 -0.6502
 5350TIP3   OH216013   6.405   2.653   4.348  0.5916 -0.4063 -0.0248
 5350TIP3    H116014   6.419   2.726   4.409 -1.4579 -0.5538  0.7026
 5350TIP3    H216015   6.461   2.673   4.273 -0.0847  2.0769  0.0298
 5351TIP3   OH216016   4.255   4.037   1.631 -0.0526  0.5287 -0.1652
 5351TIP3    H116017   4.288   4.034   1.541  1.1293 -1.7892  0.2812
 5351TIP3    H216018   4.173   4.085   1.625  1.0354  2.3037 -2.1144
 5352TIP3   OH216019   3.752   3.468   1.521  0.2615  0.4937  0.7738
 5352TIP3    H116020   3.715   3.482   1.608 -1.9014  3.5189 -0.4696
 5352TIP3    H216021   3.711   3.387   1.491  1.8052 -1.1567  2.8292
 5353TIP3   OH216022   4.728   6.730   3.728 -0.4485 -0.1054  0.1166
 5353TIP3    H116023   4.671   6.800   3.698  1.1353 -0.0689 -3.2514
 5353TIP3    H216024   4.809   6.774   3.754  1.3893 -0.5305 -4.0676
 5354TIP3   OH216025   4.006   0.532   3.391  0.3583  0.6431  0.3821
 5354TIP3    H116026   4.072   0.590   3.429 -0.5170  1.7110  0.3228
 5354TIP3    H216027   3.977   0.578   3.312  0.5701 -0.5061 -0.3883
 5355TIP3   OH216028   6.788   1.873   3.052  0.1861 -0.6261  0.8755
 5355TIP3    H116029   6.765   1.964   3.072  1.0072 -0.1001 -0.4254
 5355TIP3    H216030   6.711   1.838   3.008 -0.0929 -0.5359  1.2835
 5356TIP3   OH216031   4.169   5.249   4.387 -0.3319  0.0136  0.2702
 5356TIP3    H116032   4.262   5.263   4.403 -0.1277 -0.2142 -0.6708
 5356TIP3    H216033   4.161   5.242   4.292 -1.3641  0.3957  0.3081
 5357TIP3   OH216034   5.645   0.590   2.264  0.0756 -0.1071  0.4801
 5357TIP3    H116035   5.583   0.550   2.325  1.1941  0.2967  1.9381
 5357TIP3    H216036   5.688   0.659   2.315  0.4238  0.8450 -1.0410
 5358TIP3   OH216037   2.412   2.467   5.651  0.3431  0.3706 -0.0812
 5358TIP3    H116038   2.475   2.463   5.578  1.1887 -1.5506  0.7065
 5358TIP3    H216039   2.335   2.421   5.618 -0.0173  1.1931 -0.4200
 5359TIP3   OH216040   6.477   1.994   2.391 -0.6165  0.0348  0.3091
 5359TIP3    H116041   6.428   1.912   2.398 -1.8200  0.5549 -1.3861
 5359TIP3    H216042   6.434   2.042   2.320  0.9109  1.5549  0.3416
 5360TIP3   OH216043   2.376   2.877   0.526 -0.4081 -0.1718  1.0468
 5360TIP3    H116044   2.308   2.854   0.462  1.2420 -2.1375 -0.1290
 5360TIP3    H216045   2.357   2.821   0.601  0.1668 -1.1033  0.5157
 5361TIP3   OH216046   6.792   4.460   5.539 -0.2246  0.1199 -0.6702
 5361TIP3    H116047   6.808   4.419   5.624 -1.7261 -0.3977 -0.5961
 5361TIP3    H216048   6.789   4.387   5.477  0.4777  0.4579 -1.1087
 5362TIP3   OH216049   5.191   3.969   0.232  0.0043 -0.2982  0.1705
 5362TIP3    H116050   5.113   3.923   0.202 -0.0711 -0.8697  1.1933
 5362TIP3    H216051   5.190   3.959   0.327  0.8463  0.4599  0.2747
 5363TIP3   OH216052   5.537   3.564   3.946  0.3399  0.2984  0.5175
 5363TIP3    H116053   5.573   3.532   4.029 -0.5567 -1.5910  0.2280
 5363TIP3    H216054   5.449   3.595   3.968  1.2280  2.8508  0.8146
 5364TIP3   OH216055   3.486   4.893   2.325 -0.3624  0.2079  0.7279
 5364TIP3    H116056   3.523   4.959   2.267 -1.1987  0.4807  0.5074
 5364TIP3    H216057   3.411   4.935   2.367  1.5372  0.8771  3.8327
 5365TIP3   OH216058   2.801   3.960   1.044 -0.0551  0.1416  0.1143
 5365TIP3    H116059   2.745   3.937   0.969  1.6166 -1.2282 -0.7874
 5365TIP3    H216060   2.878   4.001   1.005  0.9751 -0.8409  1.0363
 5366TIP3   OH216061   1.056   1.851   1.815  0.3135 -0.3903 -0.2490
 5366TIP3    H116062   1.149   1.859   1.837  0.9952 -3.2047 -1.5928
 5366TIP3    H216063   1.018   1.800   1.886  0.1662 -0.6002 -0.4761
 5367TIP3   OH216064   0.912   0.099   4.348 -0.6514 -0.1035 -0.5559
 5367TIP3    H116065   0.959   0.037   4.292  0.2166  0.6666 -0.6945
 5367TIP3    H216066   0.864   0.043   4.409  2.5264 -0.9989  1.3691
 5368TIP3   OH216067   3.139   5.925   4.855  0.3609  0.0492 -0.1463
 5368TIP3    H116068   3.185   5.891   4.931  0.6397 -0.1295 -0.3917
 5368TIP3    H216069   3.194   5.900   4.781 -1.0420 -1.8289 -0.6244
 5369TIP3   OH216070   0.946   3.343   2.654 -0.1089 -0.0544 -0.3444
 5369TIP3    H116071   0.979   3.321   2.567  1.5883 -2.2816  0.7657
 5369TIP3    H216072   0.855   3.314   2.653 -0.4151  0.8206 -1.6150
 5370TIP3   OH216073   2.042   5.957   5.609 -0.4249 -0.2245  0.1692
 5370TIP3    H116074   1.960   5.907   5.598 -1.0603  0.7780  0.2613
 5370TIP3    H216075   2.042   6.020   5.537  0.0563  0.0732  0.4247
 5371TIP3   OH216076   2.661   0.711   4.622 -0.1509  0.1380  0.4647
 5371TIP3    H116077   2.666   0.802   4.594  0.0839 -0.2397 -0.7484
 5371TIP3    H216078   2.742   0.698   4.673  1.7173 -0.3709 -2.4258
 5372TIP3   OH216079   4.012   4.203   3.520  0.4146  0.3150  0.2526
 5372TIP3    H116080   4.072   4.146   3.567  1.3618  1.5746  0.6270
 5372TIP3    H216081   4.033   4.189   3.427  1.4078  0.8437  0.3847
 5373TIP3   OH216082   1.703   5.151   3.818 -0.0557  0.2045  0.2793
 5373TIP3    H116083   1.759   5.227   3.833 -0.4610  0.4337  0.6813
 5373TIP3    H216084   1.740   5.083   3.874 -0.2871  0.4149  0.6956
 5374TIP3   OH216085   7.161   0.928   3.326 -0.2897  0.5189  0.0085
 5374TIP3    H116086   7.134   0.836   3.324 -2.9960  1.2530 -0.3233
 5374TIP3    H216087   7.255   0.924   3.347 -0.4050 -2.2812  0.4445
 5375TIP3   OH216088   7.099   0.764   0.050  0.4991 -0.4906 -0.0716
 5375TIP3    H116089   7.037   0.802   0.112 -0.2012  0.4950 -1.3305
 5375TIP3    H216090   7.183   0.765   0.096 -0.1138 -0.3692  1.0797
 5376TIP3   OH216091   6.849   4.334   2.608  0.2493 -0.4963  0.0276
 5376TIP3    H116092   6.790   4.266   2.640  0.8669 -1.7587 -1.3669
 5376TIP3    H216093   6.921   4.286   2.566  2.2191  0.9805  1.4947
 5377TIP3   OH216094   0.259   1.867   2.694 -0.1855  0.6915 -0.4332
 5377TIP3    H116095   0.217   1.877   2.779  3.3479  2.0436  1.3620
 5377TIP3    H216096   0.283   1.956   2.668  2.0988  0.0247 -0.9142
 5378TIP3   OH216097   7.024   3.797   0.378 -0.0635  0.4889  0.2821
 5378TIP3    H116098   7.000   3.887   0.354 -3.4310 -1.0215 -2.8832
 5378TIP3    H216099   7.089   3.771   0.312  1.8312  0.8351  1.9053
 5379TIP3   OH216100   5.172   3.909   0.513 -0.1795 -0.2671 -0.1835
 5379TIP3    H116101   5.197   3.984   0.568  1.0153 -0.7610 -0.0268
 5379TIP3    H216102   5.094   3.874   0.555  0.2168 -0.1111  0.7119
 5380TIP3   OH216103   6.662   4.644   2.302 -0.6526 -0.7139 -0.4811
 5380TIP3    H116104   6.717   4.591   2.243 -0.3594 -0.2728 -0.6126
 5380TIP3    H216105   6.710   4.647   2.384 -0.4982 -0.3660 -0.5816
 5381TIP3   OH216106   1.550   5.148   1.640 -0.1571 -0.2446 -0.4199
 5381TIP3    H116107   1.623   5.126   1.698 -0.5310 -1.0058 -0.2231
 5381TIP3    H216108   1.580   5.123   1.553  0.0289 -0.0369 -0.4143
 5382TIP3   OH216109   0.019   1.844   4.856  0.3602  0.3739 -0.0900
 5382TIP3    H116110   0.070   1.921   4.828  0.8677  0.1680  0.2431
 5382TIP3    H216111   0.078   1.797   4.915 -0.2471  0.1639  0.3607
 5383TIP3   OH216112   6.232   1.462   3.059 -0.0834 -0.5376 -0.2202
 5383TIP3    H116113   6.189   1.377   3.066  0.7937 -0.9029  1.1366
 5383TIP3    H216114   6.324   1.441   3.040  0.1656  0.1058  0.2326
 5384TIP3   OH216115   6.108   4.135   3.233  0.2983  0.5955 -0.3274
 5384TIP3    H116116   6.062   4.058   3.266 -0.6061  1.8018  1.3700
 5384TIP3    H216117   6.197   4.127   3.267 -0.8072  2.2261  3.4668
 5385TIP3   OH216118   3.842   3.216   1.960 -0.8885  0.3818  0.6695
 5385TIP3    H116119   3.778   3.242   2.027 -0.4199 -0.5494  1.5160
 5385TIP3    H216120   3.927   3.231   2.002 -0.4949  2.0105 -0.5952
 5386TIP3   OH216121   2.723   0.409   5.753 -0.2506 -0.2578  0.6950
 5386TIP3    H116122   2.741   0.485   5.697  0.6580 -0.3673  0.8294
 5386TIP3    H216123   2.666   0.444   5.822  0.7780  0.4908  1.1850
 5387TIP3   OH216124   4.687   5.021   4.270  0.4458 -0.3432  0.2695
 5387TIP3    H116125   4.728   5.103   4.240  0.1623  0.7129  2.5490
 5387TIP3    H216126   4.728   5.003   4.354 -0.0699 -2.1418  0.1736
 5388TIP3   OH216127   7.003   2.295   5.368 -0.2397  0.1930 -0.2226
 5388TIP3    H116128   7.013   2.387   5.395 -0.9982  0.1837  0.1106
 5388TIP3    H216129   7.076   2.280   5.308  2.0882 -0.0499  2.4788
 5389TIP3   OH216130   1.753   4.334   5.848  0.0116 -0.5125 -0.5354
 5389TIP3    H116131   1.774   4.284   5.769  0.0747 -0.9780 -0.2262
 5389TIP3    H216132   1.805   4.414   5.840 -1.6453  0.4971 -2.0462
 5390TIP3   OH216133   3.947   2.221   5.540  0.0458 -0.0796 -0.5598
 5390TIP3    H116134   4.008   2.279   5.586  2.2424 -1.9811 -0.8811
 5390TIP3    H216135   3.994   2.192   5.463 -1.7316 -0.7841 -1.4471
 5391TIP3   OH216136   4.082   5.084   1.907 -0.1817  0.3268 -0.3868
 5391TIP3    H116137   4.081   5.041   1.992  0.4148  2.0332  0.5381
 5391TIP3    H216138   4.173   5.078   1.878 -0.4950 -0.7685 -1.2240
 5392TIP3   OH216139   4.830   1.754   3.975  0.3303  0.1211  0.0811
 5392TIP3    H116140   4.752   1.712   3.938 -0.4824  0.9816  0.7799
 5392TIP3    H216141   4.862   1.691   4.040 -0.3131  0.1323  0.4225
 5393TIP3   OH216142   6.888   0.280   2.787  0.0853  0.2582  0.1826
 5393TIP3    H116143   6.942   0.358   2.798 -0.7609  0.8745  0.0022
 5393TIP3    H216144   6.812   0.295   2.843 -0.0398 -0.4904  0.2255
 5394TIP3   OH216145   0.269   3.255   1.292 -0.6655 -0.0298 -0.2453
 5394TIP3    H116146   0.188   3.249   1.240 -0.5753 -1.8700 -0.2558
 5394TIP3    H216147   0.241   3.232   1.381  0.0635 -2.4365 -0.5592
 5395TIP3   OH216148   0.707   0.304   0.228  0.0069  0.0874 -0.3239
 5395TIP3    H116149   0.748   0.364   0.165 -2.0191 -0.6845 -2.5355
 5395TIP3    H216150   0.776   0.285   0.292  1.8366  1.8138 -1.6511
 5396TIP3   OH216151   5.314   5.925   4.261 -0.0161 -0.7199  0.2108
 5396TIP3    H116152   5.347   6.002   4.216 -0.7779  0.0887  0.9930
 5396TIP3    H216153   5.271   5.874   4.192 -0.1146 -0.0937 -0.2035
 5397TIP3   OH216154   1.671   3.746   1.700  0.0654 -0.3358 -0.8543
 5397TIP3    H116155   1.744   3.797   1.665 -0.7098  0.1638 -1.7964
 5397TIP3    H216156   1.598   3.766   1.642 -0.9284 -0.5374  0.2883
 5398TIP3   OH216157   1.630   1.415   4.334  0.5515 -0.1526  0.3577
 5398TIP3    H116158   1.535   1.424   4.327  0.3805 -0.8112  1.4895
 5398TIP3    H216159   1.646   1.321   4.334  1.0983 -0.0732  1.2734
 5399TIP3   OH216160   6.411   3.169   2.374 -0.2099  0.0606  0.3956
 5399TIP3    H116161   6.438   3.077   2.373  1.4909  0.5307 -0.7800
 5399TIP3    H216162   6.393   3.187   2.466  0.5282 -1.1545  0.8042
 5400TIP3   OH216163   2.931   4.484   4.139  0.0770  0.2038  0.2464
 5400TIP3    H116164   2.938   4.425   4.214 -1.3091 -1.5903 -0.9363
 5400TIP3    H216165   2.935   4.426   4.063  1.5680  1.9640 -1.1169
 5401TIP3   OH216166   4.751   1.710   1.599  0.0341 -0.7771 -0.3877
 5401TIP3    H116167   4.696   1.703   1.678  1.5455 -1.8030  0.6188
 5401TIP3    H216168   4.840   1.719   1.632  0.7853 -1.9061 -1.9773
 5402TIP3   OH216169   3.994   6.687   2.725  0.2883 -0.0055  0.1816
 5402TIP3    H116170   3.986   6.753   2.657 -0.6187  0.7186  0.9674
 5402TIP3    H216171   4.087   6.684   2.746  0.4667  0.2974 -0.5661
 5403TIP3   OH216172   0.044   3.146   3.389  0.2560  0.0482 -0.0683
 5403TIP3    H116173   0.083   3.059   3.376  2.4960  0.8020  1.0870
 5403TIP3    H216174   0.005   3.167   3.305  2.4129 -0.8175 -1.3800
 5404TIP3   OH216175   4.156   1.867   5.240  0.0724  0.3895 -0.0505
 5404TIP3    H116176   4.229   1.807   5.226  0.1047 -0.2025  2.2220
 5404TIP3    H216177   4.088   1.838   5.179  1.2389  0.1071 -1.2447
 5405TIP3   OH216178   1.868   1.368   5.182  0.2566  0.6080 -0.0778
 5405TIP3    H116179   1.795   1.312   5.208 -0.3660  0.8355 -1.3076
 5405TIP3    H216180   1.829   1.454   5.167  0.5376  0.4495 -1.9330
 5406TIP3   OH216181   3.830   4.215   0.224 -0.2415 -0.7496 -0.2168
 5406TIP3    H116182   3.862   4.149   0.285  0.1065  0.5717  1.0882
 5406TIP3    H216183   3.849   4.299   0.267 -1.8905  0.1762 -1.2033
 5407TIP3   OH216184   6.239   4.469   0.629  0.1415  0.2674  0.2522
 5407TIP3    H116185   6.294   4.445   0.704 -0.3534  1.0075  0.8599
 5407TIP3    H216186   6.176   4.398   0.622  1.7668 -1.1392 -1.0994
 5408TIP3   OH216187   5.819   2.115   0.487 -0.1756 -0.3383 -0.0054
 5408TIP3    H116188   5.748   2.174   0.511  0.3592  0.5674 -0.5846
 5408TIP3    H216189   5.778   2.028   0.482 -1.7953  0.4523 -2.6005
 5409TIP3   OH216190   2.025   4.665   2.353 -0.1362 -0.1247  0.3259
 5409TIP3    H116191   2.034   4.760   2.358 -3.4951  0.3034  0.5302
 5409TIP3    H216192   2.032   4.635   2.444  0.3024 -0.0062  0.3325
 5410TIP3   OH216193   0.364   1.071   2.806 -0.3649 -0.2884  0.3603
 5410TIP3    H116194   0.367   1.106   2.896 -0.1497  3.4631 -0.9424
 5410TIP3    H216195   0.271   1.052   2.792 -0.5018 -0.2890  1.1696
 5411TIP3   OH216196   6.344   6.342   5.554  0.2981  0.0282  0.1789
 5411TIP3    H116197   6.427   6.306   5.584 -0.0453  0.0851  1.2129
 5411TIP3    H216198   6.353   6.346   5.458  1.9785  1.2288  0.3395
 5412TIP3   OH216199   4.902   0.125   0.240 -0.3087 -0.1763 -0.0540
 5412TIP3    H116200   4.809   0.118   0.220  0.0180  1.1246 -2.4347
 5412TIP3    H216201   4.914   0.217   0.265  0.4612 -0.1109 -0.6443
 5413TIP3   OH216202   0.554   6.071   2.557 -0.2560  0.5510 -0.1638
 5413TIP3    H116203   0.554   5.999   2.620 -0.2253 -0.1144 -0.9102
 5413TIP3    H216204   0.591   6.034   2.478 -1.7457  0.9300 -1.0800
 5414TIP3   OH216205   1.288   1.716   2.580 -0.3870 -0.4143  0.2493
 5414TIP3    H116206   1.313   1.654   2.648  1.7542 -0.2515 -0.3399
 5414TIP3    H216207   1.248   1.789   2.628  0.9181 -0.3735  1.3255
 5415TIP3   OH216208   4.657   2.767   1.585  0.1081 -0.4163 -0.2335
 5415TIP3    H116209   4.593   2.752   1.514 -0.4093  0.2147  0.0927
 5415TIP3    H216210   4.633   2.703   1.652 -0.6125  0.2507  0.1648
 5416TIP3   OH216211   0.941   2.249   1.105  0.0298  0.3246  0.0806
 5416TIP3    H116212   0.985   2.287   1.029  0.9623 -0.0178  0.4371
 5416TIP3    H216213   0.848   2.255   1.084  0.2479 -2.7802 -2.6298
 5417TIP3   OH216214   1.438   4.743   3.515 -0.3267 -0.8049 -0.2368
 5417TIP3    H116215   1.404   4.822   3.557 -1.5393 -0.6753 -1.3893
 5417TIP3    H216216   1.387   4.672   3.554 -0.8700 -0.7670 -0.8597
 5418TIP3   OH216217   6.885   1.261   3.719  0.3080 -0.0602  0.1553
 5418TIP3    H116218   6.846   1.181   3.756 -2.0532  0.6486 -0.5922
 5418TIP3    H216219   6.927   1.232   3.638 -1.6922 -0.4458 -0.8301
 5419TIP3   OH216220   6.329   2.105   1.847 -0.1995 -0.7904  0.1244
 5419TIP3    H116221   6.420   2.105   1.818 -0.1725  0.7997  0.0873
 5419TIP3    H216222   6.302   2.013   1.845  0.9956 -1.1346 -1.1263
 5420TIP3   OH216223   0.552   5.150   3.489  0.2845  0.0665 -0.2958
 5420TIP3    H116224   0.563   5.245   3.492  1.0132  0.0690 -2.0757
 5420TIP3    H216225   0.626   5.116   3.540  1.6728  0.4236 -1.9671
 5421TIP3   OH216226   0.633   2.004   0.227 -0.6464 -0.7731 -0.1141
 5421TIP3    H116227   0.727   1.984   0.229 -0.9987 -2.5194  0.6374
 5421TIP3    H216228   0.602   1.985   0.315 -1.7012 -0.1337 -0.3307
 5422TIP3   OH216229   3.018   0.929   3.767 -0.1797 -0.0143 -0.1520
 5422TIP3    H116230   3.037   1.004   3.711  0.8719  0.1039  0.3294
 5422TIP3    H216231   3.042   0.853   3.714 -1.4214 -0.0479 -0.7088
 5423TIP3   OH216232   1.364   3.949   4.688 -0.4131 -0.0550 -0.3482
 5423TIP3    H116233   1.371   4.014   4.758  0.8295  0.1828 -0.6767
 5423TIP3    H216234   1.381   3.865   4.731 -1.9468 -0.1881  0.0618
 5424TIP3   OH216235   4.066   5.950   5.616  0.5838  0.1250 -0.2524
 5424TIP3    H116236   4.103   5.982   5.699 -1.8321  0.4362  0.7879
 5424TIP3    H216237   4.061   5.855   5.628  2.1461 -0.0579 -0.9038
 5425TIP3   OH216238   2.104   0.319   0.861  0.1706  0.4705  0.6929
 5425TIP3    H116239   2.089   0.256   0.791  0.4866  1.2263 -0.0796
 5425TIP3    H216240   2.160   0.273   0.924 -0.4686 -0.3575  0.6643
 5426TIP3   OH216241   6.444   6.561   4.552  0.3059  0.0213 -0.0942
 5426TIP3    H116242   6.358   6.549   4.512  1.2844 -1.4186 -1.9670
 5426TIP3    H216243   6.477   6.643   4.515 -1.2090  2.0448  2.6710
 5427TIP3   OH216244   4.941   4.147   5.881  0.0821  0.3585 -0.0198
 5427TIP3    H116245   4.884   4.071   5.871 -1.1608  1.3468 -0.7647
 5427TIP3    H216246   4.991   4.149   5.799  2.0675 -1.1313  1.0603
 5428TIP3   OH216247   6.577   5.278   5.273 -0.4762 -0.8033  0.1679
 5428TIP3    H116248   6.608   5.218   5.341 -0.0572 -1.1834 -0.3567
 5428TIP3    H216249   6.638   5.268   5.201  0.3513  1.1842  0.5239
 5429TIP3   OH216250   6.818   1.624   0.047  0.4267  0.1471  0.1684
 5429TIP3    H116251   6.894   1.570   0.026  1.5903  1.2973  1.2030
 5429TIP3    H216252   6.747   1.586  -0.003  1.6450 -1.0780 -0.7132
 5430TIP3   OH216253   5.094   6.682   3.441 -0.2076 -0.2033  0.1155
 5430TIP3    H116254   5.176   6.729   3.456 -0.5461  0.2678  0.4894
 5430TIP3    H216255   5.083   6.627   3.518  0.1711 -0.8901 -0.3062
 5431TIP3   OH216256   2.784   6.507   0.131  0.2195  0.0739  0.5664
 5431TIP3    H116257   2.864   6.559   0.120  1.9155 -2.2158  1.3763
 5431TIP3    H216258   2.714   6.572   0.135  1.8921  2.1340 -1.1018
 5432TIP3   OH216259   3.385   3.276  -0.003  0.0382  0.0022 -0.7033
 5432TIP3    H116260   3.323   3.347   0.010  1.0314  0.9436 -0.9522
 5432TIP3    H216261   3.398   3.238   0.084  0.3623  0.8679 -0.3699
 5433TIP3   OH216262   4.764   5.179   0.739  0.1335 -0.1746 -0.3593
 5433TIP3    H116263   4.713   5.216   0.667  0.1177 -1.8655 -1.2747
 5433TIP3    H216264   4.701   5.168   0.810  0.1689  1.6028  0.0139
 5434TIP3   OH216265   2.635   0.176   0.339  0.7078  0.4704 -0.7349
 5434TIP3    H116266   2.725   0.144   0.337  0.8578  0.8885 -0.6354
 5434TIP3    H216267   2.602   0.146   0.424  0.9481  0.8464 -0.5074
 5435TIP3   OH216268   0.649   3.602   4.170 -0.0712 -0.5059 -0.1038
 5435TIP3    H116269   0.708   3.634   4.239 -0.3370 -1.2240  0.4692
 5435TIP3    H216270   0.708   3.561   4.106  0.1560 -0.0406 -0.2031
 5436TIP3   OH216271   1.787   3.507   2.959 -0.2613 -0.1901 -0.0743
 5436TIP3    H116272   1.778   3.413   2.949  1.3795 -0.4046  0.2223
 5436TIP3    H216273   1.728   3.530   3.031 -1.6061 -0.7713 -0.9509
 5437TIP3   OH216274   0.618   0.269   1.830 -0.1852 -1.0320 -0.3647
 5437TIP3    H116275   0.589   0.186   1.792 -0.4599 -0.3834 -1.6585
 5437TIP3    H216276   0.630   0.326   1.754  1.0719 -0.2206  0.4169
 5438TIP3   OH216277   5.955   6.030   0.668  0.2754  0.1191  0.6906
 5438TIP3    H116278   5.932   6.105   0.613 -1.1131  0.2888  1.4634
 5438TIP3    H216279   6.048   6.042   0.687  0.8320 -0.0067 -1.6752
 5439TIP3   OH216280   0.855   2.183   3.719 -0.1009 -0.5335  0.3492
 5439TIP3    H116281   0.768   2.184   3.679  0.6813  0.0281 -1.4551
 5439TIP3    H216282   0.865   2.094   3.754 -0.9170 -0.9915 -0.5435
 5440TIP3   OH216283   4.783   4.339   4.756  0.1931 -0.0525  0.4216
 5440TIP3    H116284   4.734   4.269   4.799  0.5921  0.7247  2.2478
 5440TIP3    H216285   4.852   4.362   4.819  2.1645 -0.2675 -1.5306
 5441TIP3   OH216286   3.903   3.933   2.594  0.4949 -0.2610 -0.3178
 5441TIP3    H116287   3.821   3.937   2.643 -0.2379 -2.4690 -1.2123
 5441TIP3    H216288   3.971   3.929   2.661 -0.3373 -1.0741  0.5114
 5442TIP3   OH216289   1.729   3.751   2.833  0.2433 -0.0364 -0.0336
 5442TIP3    H116290   1.716   3.662   2.865  1.7041 -0.2133  0.1427
 5442TIP3    H216291   1.799   3.743   2.768  1.0663  1.1213  0.6832
 5443TIP3   OH216292   2.546   2.796   5.289  0.1549 -0.1530 -0.4504
 5443TIP3    H116293   2.545   2.749   5.206  0.5569 -0.5216 -0.2497
 5443TIP3    H216294   2.453   2.806   5.311  0.0376  0.2313 -1.0978
 5444TIP3   OH216295   4.064   0.351   3.053  0.4207 -0.2918  0.5481
 5444TIP3    H116296   4.149   0.338   3.010  1.0798  0.7841  1.4683
 5444TIP3    H216297   4.080   0.328   3.145 -1.0437 -2.8445  0.2595
 5445TIP3   OH216298   0.197   3.902   4.149 -0.3731 -0.1985  0.1740
 5445TIP3    H116299   0.220   3.979   4.200 -0.6350  0.1274 -0.1975
 5445TIP3    H216300   0.271   3.843   4.161 -0.2530  0.0340  0.6046
 5446TIP3   OH216301   6.262   2.178   0.754  0.2393 -0.2373  0.1037
 5446TIP3    H116302   6.315   2.110   0.796 -0.5959 -1.3316 -0.5522
 5446TIP3    H216303   6.319   2.217   0.688  1.3821  1.1141  1.8066
 5447TIP3   OH216304   2.669   3.170   4.419  0.3067 -0.1597 -0.0927
 5447TIP3    H116305   2.588   3.194   4.464 -0.1907 -1.4020 -0.2630
 5447TIP3    H216306   2.727   3.245   4.430 -1.1303  1.0741 -0.6019
 5448TIP3   OH216307   4.248   1.599   2.213 -0.0775  0.7051 -0.6623
 5448TIP3    H116308   4.279   1.547   2.287  0.4659 -0.0543 -1.3970
 5448TIP3    H216309   4.154   1.583   2.211  0.0014  0.1989 -0.5302
 5449TIP3   OH216310   6.832   4.387   5.814 -0.3832 -0.4005 -0.2288
 5449TIP3    H116311   6.837   4.333   5.893 -0.7231 -1.0755 -0.6586
 5449TIP3    H216312   6.850   4.476   5.845 -0.0149 -0.7245  0.5254
 5450TIP3   OH216313   4.887   3.243   5.381  0.1091 -0.3392 -0.5906
 5450TIP3    H116314   4.806   3.193   5.398 -0.6147  1.2615  0.9912
 5450TIP3    H216315   4.862   3.305   5.313 -0.5717  1.3057  1.0779
 5451TIP3   OH216316   6.160   5.494   1.513  0.0793 -0.1982  0.2347
 5451TIP3    H116317   6.088   5.430   1.514 -0.5133  0.4530  1.1503
 5451TIP3    H216318   6.206   5.479   1.596 -0.3231  0.8317  0.6583
 5452TIP3   OH216319   6.007   3.113   3.002 -0.2702 -0.3281  0.8605
 5452TIP3    H116320   5.977   3.100   3.091 -0.3666 -2.1647  0.6062
 5452TIP3    H216321   6.060   3.193   3.005  2.0598 -1.8157  3.1957
 5453TIP3   OH216322   4.131   6.153   4.899  0.2439  0.0017 -0.3318
 5453TIP3    H116323   4.191   6.175   4.828  0.2117  0.7067 -0.1490
 5453TIP3    H216324   4.123   6.234   4.950 -0.9752 -0.0292 -0.4376
 5454TIP3   OH216325   6.655   6.351   0.422 -0.1842  0.2940  0.5582
 5454TIP3    H116326   6.751   6.360   0.427  0.0237 -1.8093  1.7896
 5454TIP3    H216327   6.624   6.439   0.406  1.8760  1.4438  2.2954
 5455TIP3   OH216328   1.363   6.280   0.196 -0.2294  0.4408 -0.9378
 5455TIP3    H116329   1.295   6.291   0.262  2.3365  2.4621  1.6148
 5455TIP3    H216330   1.330   6.327   0.119 -1.4114  2.0641  0.4864
 5456TIP3   OH216331   5.785   1.643   1.779  0.2245  0.0463  0.5167
 5456TIP3    H116332   5.779   1.737   1.793 -2.9759  0.0608 -0.1219
 5456TIP3    H216333   5.868   1.631   1.733  0.3232  2.6637 -0.1657
 5457TIP3   OH216334   0.359   3.798   3.609 -0.2454  0.3835 -0.2453
 5457TIP3    H116335   0.354   3.877   3.555 -2.2088 -0.2443 -1.0665
 5457TIP3    H216336   0.296   3.738   3.569  0.7511 -1.3795  0.7349
 5458TIP3   OH216337   6.260   3.830   1.115 -0.0572 -0.1264  0.2996
 5458TIP3    H116338   6.212   3.747   1.119  0.2916 -0.2741  2.0932
 5458TIP3    H216339   6.281   3.850   1.206  0.6745  1.4741 -0.1879
 5459TIP3   OH216340   3.714   1.802   4.627 -0.3819 -0.5196  0.2697
 5459TIP3    H116341   3.689   1.737   4.561 -3.2411  0.6494  0.0703
 5459TIP3    H216342   3.642   1.865   4.628  0.8915  1.0579  2.5376
 5460TIP3   OH216343   3.427   1.168   3.289 -0.4541 -0.3140 -0.2224
 5460TIP3    H116344   3.354   1.151   3.230  0.0878 -0.4460 -0.8692
 5460TIP3    H216345   3.482   1.230   3.242  0.0443 -0.5103  0.0899
 5461TIP3   OH216346   5.879   0.218   3.715 -0.1401  0.0718  0.3019
 5461TIP3    H116347   5.973   0.212   3.727  0.1616  1.2919 -1.0524
 5461TIP3    H216348   5.865   0.308   3.684 -2.0027  0.6154  2.4372
 5462TIP3   OH216349   5.033   5.865   2.034 -0.5199 -0.6160  0.1594
 5462TIP3    H116350   4.970   5.881   1.964 -1.5372 -1.9188  0.7380
 5462TIP3    H216351   5.094   5.802   1.998 -0.5013 -0.5869  0.1397
 5463TIP3   OH216352   2.301   5.097   4.053 -0.5523 -0.6784  0.4188
 5463TIP3    H116353   2.258   5.044   4.120 -1.9182  0.8340  0.8084
 5463TIP3    H216354   2.356   5.036   4.005 -0.8180 -2.1105  1.8769
 5464TIP3   OH216355   4.998   6.290   5.103 -0.1604  0.0637  0.2758
 5464TIP3    H116356   5.013   6.257   5.014  0.8143  0.4757  0.2727
 5464TIP3    H216357   5.043   6.375   5.104 -1.3328  0.6905  0.7449
 5465TIP3   OH216358   4.935   1.594   0.116 -0.4262 -0.0114  0.0750
 5465TIP3    H116359   4.948   1.519   0.174  2.5045 -0.1053 -0.5557
 5465TIP3    H216360   4.933   1.555   0.028 -0.8381  0.4889 -0.1396
 5466TIP3   OH216361   2.856   3.908   3.516  0.8983 -0.0626 -0.5770
 5466TIP3    H116362   2.818   3.967   3.452  0.6606  0.1142 -0.2766
 5466TIP3    H216363   2.788   3.842   3.531  0.3272  0.7532  0.6302
 5467TIP3   OH216364   6.048   4.568   2.611 -0.3426 -0.3579 -0.3227
 5467TIP3    H116365   6.018   4.493   2.560  1.1303 -0.3739 -1.2106
 5467TIP3    H216366   5.969   4.622   2.623 -0.9068 -0.7953 -1.8469
 5468TIP3   OH216367   3.518   1.799   3.169  0.7707  0.2638  0.1852
 5468TIP3    H116368   3.563   1.873   3.210  1.1492  0.3002 -0.2832
 5468TIP3    H216369   3.551   1.722   3.216 -0.3147  0.4415  1.2981
 5469TIP3   OH216370   2.512   1.171   1.775 -0.7555  0.2926 -0.3345
 5469TIP3    H116371   2.437   1.227   1.795  0.2432  0.7555  2.5309
 5469TIP3    H216372   2.546   1.144   1.860  1.2935 -1.3617 -1.5660
 5470TIP3   OH216373   6.563   5.899   1.915  0.0382  0.5115 -0.8455
 5470TIP3    H116374   6.618   5.972   1.886  1.0778  0.1894  0.2385
 5470TIP3    H216375   6.567   5.902   2.010  0.3610 -1.1356 -0.7768
 5471TIP3   OH216376   4.946   3.243   1.876 -0.1546  0.1612 -0.2089
 5471TIP3    H116377   4.853   3.264   1.887  0.5493  2.6725  1.8652
 5471TIP3    H216378   4.960   3.250   1.781 -2.0682 -0.3427 -0.5839
 5472TIP3   OH216379   1.890   2.956   1.298 -0.2937 -0.2826  0.2844
 5472TIP3    H116380   1.893   2.898   1.374 -1.1729 -0.7603 -0.0218
 5472TIP3    H216381   1.819   3.017   1.317  0.4887  0.5748  0.5097
 5473TIP3   OH216382   0.766   6.041   1.052  0.0531  1.0053 -0.0661
 5473TIP3    H116383   0.694   5.978   1.054  0.6141  0.3436 -0.2021
 5473TIP3    H216384   0.775   6.063   0.959  1.0590 -0.1528 -0.2702
 5474TIP3   OH216385   2.710   1.829   1.292 -0.2530  0.3087 -0.3370
 5474TIP3    H116386   2.802   1.803   1.284 -1.1698 -2.7894 -2.0601
 5474TIP3    H216387   2.693   1.827   1.386  1.3051  0.4968 -0.0195
 5475TIP3   OH216388   3.713   5.430   1.728 -0.5197  0.5740  0.0025
 5475TIP3    H116389   3.756   5.495   1.672 -1.5256  2.4595  1.3016
 5475TIP3    H216390   3.785   5.387   1.774  0.1921  0.3900 -1.2150
 5476TIP3   OH216391   6.516   3.660   4.379 -0.0396 -0.6117  0.2425
 5476TIP3    H116392   6.564   3.591   4.425 -0.9603 -0.2722  1.7846
 5476TIP3    H216393   6.583   3.722   4.352  0.4837 -0.2755  2.1281
 5477TIP3   OH216394   1.818   2.160   0.773  0.0313 -0.2122  0.3518
 5477TIP3    H116395   1.907   2.171   0.739  0.3114  0.4310  1.2539
 5477TIP3    H216396   1.782   2.086   0.724  1.1946 -0.7174  0.2369
 5478TIP3   OH216397   3.732   5.404   4.110 -0.0343  0.2147  0.1586
 5478TIP3    H116398   3.809   5.397   4.167 -0.6408  1.7749  1.2491
 5478TIP3    H216399   3.751   5.479   4.054 -0.4697  0.1959 -0.0185
 5479TIP3   OH216400   1.399   5.630   4.391 -0.0341 -0.2115 -0.1615
 5479TIP3    H116401   1.351   5.706   4.425 -0.5158 -1.4985  2.2748
 5479TIP3    H216402   1.483   5.632   4.437 -0.8148 -2.1823  1.4915
 5480TIP3   OH216403   0.491   5.249   2.935  0.1249  0.0906 -0.3531
 5480TIP3    H116404   0.552   5.323   2.932 -1.1240  1.2926  1.4710
 5480TIP3    H216405   0.425   5.276   2.999 -0.9086 -2.2329 -0.3588
 5481TIP3   OH216406   1.001   6.434   1.702 -0.4464 -0.8644  0.2755
 5481TIP3    H116407   0.927   6.494   1.698 -0.8409 -1.4035 -1.3750
 5481TIP3    H216408   1.042   6.440   1.615  1.4036 -0.6555  1.1116
 5482TIP3   OH216409   6.282   3.741   0.857  0.1900  0.1575 -0.4498
 5482TIP3    H116410   6.197   3.772   0.827 -1.8043 -2.4936  1.9731
 5482TIP3    H216411   6.296   3.788   0.939  0.5985 -0.1347 -0.3515
 5483TIP3   OH216412   0.126   1.297   5.175 -0.2906  0.1804 -0.2498
 5483TIP3    H116413   0.139   1.227   5.239 -1.2552  0.4888  0.2909
 5483TIP3    H216414   0.187   1.366   5.202  0.7704 -0.4804 -0.8704
 5484TIP3   OH216415   7.179   1.912   1.500  0.4966  0.4924 -0.4396
 5484TIP3    H116416   7.101   1.954   1.463 -0.0594 -0.5829 -0.5063
 5484TIP3    H216417   7.234   1.986   1.528 -0.8066  1.2739  0.1633
 5485TIP3   OH216418   4.621   0.628   4.961  0.1012 -0.5342  0.2275
 5485TIP3    H116419   4.584   0.552   5.005 -0.1947 -0.2182  0.5313
 5485TIP3    H216420   4.651   0.685   5.032  2.1168 -1.2283 -0.0157
 5486TIP3   OH216421   1.454   0.621   4.792 -0.1102  0.0956  0.0513
 5486TIP3    H116422   1.443   0.641   4.699 -1.5434 -0.0849  0.1615
 5486TIP3    H216423   1.548   0.603   4.802  0.0132 -0.1586 -1.4097
 5487TIP3   OH216424   4.384   6.745   3.773  0.4298  0.1391 -0.5529
 5487TIP3    H116425   4.411   6.653   3.769  0.1250  0.0759 -1.6525
 5487TIP3    H216426   4.466   6.794   3.772  0.6165 -0.0808 -2.7698
 5488TIP3   OH216427   0.537   0.784   1.931  0.3399 -0.6562 -0.2963
 5488TIP3    H116428   0.555   0.813   2.021  0.2596 -1.3526 -0.0524
 5488TIP3    H216429   0.609   0.726   1.910  0.7123  0.0204 -0.9329
 5489TIP3   OH216430   4.734   5.383   2.443 -0.3322 -0.7202 -0.2846
 5489TIP3    H116431   4.773   5.398   2.529 -0.2240  1.1700 -0.6296
 5489TIP3    H216432   4.759   5.293   2.421  2.8527 -0.0263  0.0428
 5490TIP3   OH216433   5.956   0.999   2.340 -0.0304 -0.5127  0.2451
 5490TIP3    H116434   5.938   1.083   2.383 -4.0765 -0.9414 -0.2980
 5490TIP3    H216435   6.004   1.023   2.260  1.1515  0.9483  1.3252
 5491TIP3   OH216436   4.643   0.423   1.626 -0.1942 -0.0615  0.3109
 5491TIP3    H116437   4.707   0.462   1.684 -0.7370  0.8833  0.2951
 5491TIP3    H216438   4.628   0.335   1.661  0.8780 -0.1846  0.4759
 5492TIP3   OH216439   6.044   6.213   3.961 -0.4699  0.5573  0.1791
 5492TIP3    H116440   6.072   6.149   3.896  0.3376 -1.5825  2.4568
 5492TIP3    H216441   5.956   6.185   3.986  0.5618 -0.9411  2.4947
 5493TIP3   OH216442   3.245   0.749   0.350  0.1276 -0.0230  0.5660
 5493TIP3    H116443   3.173   0.812   0.350 -0.2932 -0.4842  1.6848
 5493TIP3    H216444   3.236   0.702   0.267 -0.5669  0.2527  0.4825
 5494TIP3   OH216445   6.135   2.933   2.822  0.1974 -1.1825 -0.0683
 5494TIP3    H116446   6.065   2.869   2.807  0.7714 -2.0087  0.6608
 5494TIP3    H216447   6.094   3.001   2.876 -0.3428 -1.0825 -0.6043
 5495TIP3   OH216448   0.833   5.402   2.623  0.3876  0.2085 -0.2622
 5495TIP3    H116449   0.832   5.312   2.654 -0.8414  0.2232 -0.1852
 5495TIP3    H216450   0.821   5.395   2.528  2.2359  0.2375 -0.5329
 5496TIP3   OH216451   4.927   0.621   5.321 -0.5952  0.3052  0.2887
 5496TIP3    H116452   4.974   0.705   5.319  0.5456 -0.3201  0.3690
 5496TIP3    H216453   4.868   0.629   5.395  0.6462  0.4533  1.2899
 5497TIP3   OH216454   4.847   1.446   2.451  0.0918 -0.3687  0.4621
 5497TIP3    H116455   4.764   1.406   2.426 -0.9632  1.4281  0.8381
 5497TIP3    H216456   4.870   1.501   2.376 -0.0514  0.5638  1.0834
 5498TIP3   OH216457   5.661   1.352   1.975 -0.9965  0.0939 -0.3432
 5498TIP3    H116458   5.716   1.314   1.907  0.7082  0.0529  0.9826
 5498TIP3    H216459   5.593   1.399   1.927 -0.2923 -0.5376 -2.0571
 5499TIP3   OH216460   1.350   1.858   1.818 -0.3199  0.2906  0.0844
 5499TIP3    H116461   1.363   1.927   1.884 -0.9470 -0.4161  0.9752
 5499TIP3    H216462   1.367   1.901   1.735  0.9723  1.0923  0.7351
 5500TIP3   OH216463   5.495   4.633   4.670  0.1386  0.0841 -0.1611
 5500TIP3    H116464   5.527   4.542   4.670  1.0601  0.4038 -0.4461
 5500TIP3    H216465   5.446   4.641   4.752  0.8113 -0.4086  0.3012
 5501TIP3   OH216466   4.448   3.037   1.707  0.0777 -0.7871 -0.1073
 5501TIP3    H116467   4.513   3.106   1.721 -1.2566  0.6866 -0.8786
 5501TIP3    H216468   4.493   2.957   1.733  2.1946  0.1617 -0.6232
 5502TIP3   OH216469   1.309   5.281   2.031  1.4031  0.3098  0.1153
 5502TIP3    H116470   1.296   5.187   2.043  0.4017  0.5459  1.0185
 5502TIP3    H216471   1.223   5.319   2.047  2.2849  1.5949  2.1730
 5503TIP3   OH216472   6.028   4.769   2.361  0.3048  0.1259 -0.0199
 5503TIP3    H116473   6.079   4.845   2.391 -0.4153  0.6863 -0.1750
 5503TIP3    H216474   5.943   4.806   2.337  0.0869 -0.6776 -0.5060
 5504TIP3   OH216475   0.819   1.369   0.856  0.0346  0.4456 -0.0020
 5504TIP3    H116476   0.876   1.445   0.843  1.6152 -0.6019  0.4979
 5504TIP3    H216477   0.775   1.386   0.939 -1.3002  1.7919 -0.9347
 5505TIP3   OH216478   2.963   0.624   5.728  0.7386 -0.0605 -0.2415
 5505TIP3    H116479   3.011   0.690   5.679  0.7882 -0.5022 -0.8011
 5505TIP3    H216480   2.871   0.645   5.715  0.7369 -0.4932 -0.9863
 5506TIP3   OH216481   5.707   2.235   5.825 -0.4978 -0.4047  0.4162
 5506TIP3    H116482   5.639   2.169   5.826 -0.3351 -0.5688  0.7136
 5506TIP3    H216483   5.693   2.283   5.743 -1.7190  0.3484  1.0457
 5507TIP3   OH216484   1.548   6.261   0.424  0.2237 -0.0255 -0.2723
 5507TIP3    H116485   1.583   6.201   0.489 -0.4225  0.0393  0.1357
 5507TIP3    H216486   1.504   6.205   0.360  0.8379 -0.0870 -0.6530
 5508TIP3   OH216487   4.423   0.430   4.746  0.4508 -0.3792 -0.1472
 5508TIP3    H116488   4.406   0.386   4.663 -0.5804  0.3413 -0.3377
 5508TIP3    H216489   4.415   0.361   4.812 -1.1068 -0.4990 -0.4378
 5509TIP3   OH216490   0.005   3.566   2.186 -0.2437  0.1693  0.3076
 5509TIP3    H116491   0.082   3.548   2.240 -1.0693  0.3408  1.5833
 5509TIP3    H216492  -0.011   3.660   2.197 -1.7083 -0.1871  1.5835
 5510TIP3   OH216493   6.160   2.342   1.925 -0.9219 -0.1662  0.2291
 5510TIP3    H116494   6.181   2.380   1.840 -3.7526 -0.0356 -0.5110
 5510TIP3    H216495   6.229   2.277   1.940  1.2867  1.8224 -0.7333
 5511TIP3   OH216496   4.989   4.164   4.973 -0.4465  0.5599  0.4832
 5511TIP3    H116497   4.987   4.108   4.895  0.9121  0.7622  0.2786
 5511TIP3    H216498   4.933   4.118   5.036 -1.2669  0.2024 -0.4709
 5512TIP3   OH216499   1.630   4.376   3.451  0.3234 -0.1665  0.7276
 5512TIP3    H116500   1.661   4.416   3.533 -0.8906  1.3464  0.4939
 5512TIP3    H216501   1.710   4.352   3.405  1.0632  0.2965  1.7220
 5513TIP3   OH216502   2.891   2.991   4.354  0.0496  0.2264 -0.5619
 5513TIP3    H116503   2.971   2.977   4.404 -0.9355 -0.2044  0.9530
 5513TIP3    H216504   2.841   3.053   4.407 -0.8358  0.1105 -1.2452
 5514TIP3   OH216505   0.255   3.661   2.022  0.8554 -0.1898  0.3681
 5514TIP3    H116506   0.245   3.610   1.941  0.4744  0.2668  0.1266
 5514TIP3    H216507   0.168   3.661   2.061  0.9893 -0.2213  0.6719
 5515TIP3   OH216508   2.919   0.530   3.854  0.9254  0.3400 -0.6937
 5515TIP3    H116509   2.930   0.603   3.915 -1.2078 -1.0073  1.4833
 5515TIP3    H216510   2.831   0.542   3.818 -0.1579 -1.8827  0.9322
 5516TIP3   OH216511   5.230   5.206   5.088  0.1691  0.4253 -0.7612
 5516TIP3    H116512   5.180   5.272   5.134  0.3603  0.8955 -1.2206
 5516TIP3    H216513   5.315   5.247   5.071  0.8253 -0.4528  0.2489
 5517TIP3   OH216514   6.589   5.324   2.355  0.3833 -0.3116 -0.4731
 5517TIP3    H116515   6.665   5.305   2.410  1.1248 -0.5837 -1.5492
 5517TIP3    H216516   6.590   5.419   2.344  1.0393 -0.3786 -1.1031
 5518TIP3   OH216517   1.686   1.175   4.903 -0.4392  0.2737  0.4096
 5518TIP3    H116518   1.755   1.123   4.945 -0.5836  0.9698  1.5282
 5518TIP3    H216519   1.686   1.144   4.812 -0.3336 -1.4700  0.9733
 5519TIP3   OH216520   4.625   0.764   1.479 -0.2541 -0.5129 -0.5579
 5519TIP3    H116521   4.613   0.682   1.433  0.3884 -0.1911 -1.3066
 5519TIP3    H216522   4.542   0.811   1.466 -0.5078 -0.9064 -0.3829
 5520TIP3   OH216523   4.590   3.597   4.266  0.1799 -0.0763 -0.8611
 5520TIP3    H116524   4.622   3.506   4.261 -0.1451 -0.1540 -1.6439
 5520TIP3    H216525   4.558   3.616   4.178 -2.1179 -0.0556 -0.0811
 5521TIP3   OH216526   1.930   6.343   4.410 -0.2475 -0.4238 -0.0514
 5521TIP3    H116527   1.848   6.384   4.381  0.0817 -1.0318 -1.9680
 5521TIP3    H216528   1.986   6.416   4.434 -1.0038  0.0468  0.3367
 5522TIP3   OH216529   6.038   0.322   5.376 -0.0141  0.0054  0.3107
 5522TIP3    H116530   6.082   0.238   5.388 -2.0094 -1.7898 -3.3307
 5522TIP3    H216531   5.975   0.326   5.448 -0.2464 -1.9367  0.2770
 5523TIP3   OH216532   4.466   2.409   0.901 -0.3432 -0.3211 -0.3035
 5523TIP3    H116533   4.489   2.339   0.962  0.5071  0.2463  0.0533
 5523TIP3    H216534   4.408   2.466   0.951 -1.4194 -0.9957 -0.7442
 5524TIP3   OH216535   6.153   4.203   0.442 -0.6398 -0.1325  0.1242
 5524TIP3    H116536   6.226   4.182   0.499 -1.1935  0.0422  0.9220
 5524TIP3    H216537   6.079   4.217   0.502 -1.1887  0.2541 -0.6214
 5525TIP3   OH216538   0.171   4.437   0.175  0.0059  0.3987 -0.3741
 5525TIP3    H116539   0.220   4.368   0.219 -1.3055 -0.7499 -0.6438
 5525TIP3    H216540   0.084   4.433   0.214  0.2783  2.9866  0.7555
 5526TIP3   OH216541   6.408   6.407   4.223 -0.3852 -0.4547 -0.1649
 5526TIP3    H116542   6.368   6.320   4.226  1.3046 -1.2499  2.0163
 5526TIP3    H216543   6.364   6.457   4.291 -0.7010  0.1325 -0.7806
 5527TIP3   OH216544   6.720   3.467   0.824  0.2847  0.3734  0.2676
 5527TIP3    H116545   6.816   3.467   0.815  0.1803 -0.1170 -0.9840
 5527TIP3    H216546   6.704   3.419   0.906  1.1390  1.4685  1.1162
 5528TIP3   OH216547   0.323   3.881   1.151  0.6057 -0.6391  0.2935
 5528TIP3    H116548   0.341   3.916   1.064  0.7960 -0.7405  0.2925
 5528TIP3    H216549   0.229   3.898   1.165  0.7832  0.2562  0.4638
 5529TIP3   OH216550   2.550   0.736   2.614 -0.2144 -0.0221  0.3487
 5529TIP3    H116551   2.594   0.678   2.675 -0.3259  0.2843  0.7230
 5529TIP3    H216552   2.464   0.695   2.600 -0.0503 -0.2848  0.1112
 5530TIP3   OH216553   1.094   6.402   2.903 -0.0684 -0.0357 -0.0246
 5530TIP3    H116554   1.153   6.358   2.964  0.2708  1.0547  0.4493
 5530TIP3    H216555   1.013   6.351   2.908  0.5932 -1.1441 -0.1785
 5531TIP3   OH216556   1.723   4.441   2.026  0.0854 -0.2715 -0.2260
 5531TIP3    H116557   1.724   4.521   1.973 -1.6310  1.0471  1.5643
 5531TIP3    H216558   1.787   4.457   2.094  1.9120 -1.7504 -1.5033
 5532TIP3   OH216559   1.673   6.420   3.050 -0.0217  0.1243  0.0196
 5532TIP3    H116560   1.642   6.336   3.086 -1.6126  1.1084  1.0675
 5532TIP3    H216561   1.596   6.477   3.051  0.3831  0.9169 -2.9959
 5533TIP3   OH216562   5.147   4.575   4.930  0.1567 -0.6150  0.2349
 5533TIP3    H116563   5.098   4.497   4.957 -0.1700 -0.2726  0.6599
 5533TIP3    H216564   5.131   4.582   4.836 -0.0150 -0.9174  0.2388
 5534TIP3   OH216565   0.906   5.709   1.243  0.4831 -0.7791 -0.6018
 5534TIP3    H116566   0.970   5.643   1.271  2.3335  1.7882  1.6464
 5534TIP3    H216567   0.950   5.755   1.171  1.6223  1.4478  1.4033
 5535TIP3   OH216568   3.337   1.841   4.294 -0.4880 -0.2443 -0.2324
 5535TIP3    H116569   3.241   1.841   4.295 -0.5408  0.9108  2.0673
 5535TIP3    H216570   3.361   1.927   4.259 -0.3919  0.3875  1.2889
 5536TIP3   OH216571   3.452   0.130   5.773  0.0790  0.5384 -0.2864
 5536TIP3    H116572   3.520   0.069   5.801 -1.2823 -0.9835 -0.1326
 5536TIP3    H216573   3.452   0.124   5.678 -0.0757  0.2741 -0.2694
 5537TIP3   OH216574   1.720   1.910   3.389  0.2893 -0.0942  0.6845
 5537TIP3    H116575   1.644   1.950   3.431  0.5937  1.1954  0.0760
 5537TIP3    H216576   1.704   1.922   3.296  1.6775  1.1118  0.5656
 5538TIP3   OH216577   4.120   3.236   1.349  0.1546  0.2122 -0.1325
 5538TIP3    H116578   4.091   3.302   1.412 -0.3465 -0.7335  0.6539
 5538TIP3    H216579   4.215   3.232   1.360 -0.0532 -1.2137  1.9340
 5539TIP3   OH216580   0.434   2.439   4.279  0.5711  0.5084 -0.4540
 5539TIP3    H116581   0.373   2.491   4.227  1.6285  0.8049 -1.4490
 5539TIP3    H216582   0.457   2.496   4.352 -0.7658  0.1709  0.2515
 5540TIP3   OH216583   3.374   5.905   2.402  0.0006  0.1634  0.0485
 5540TIP3    H116584   3.437   5.851   2.354  0.6190  0.8445  0.0718
 5540TIP3    H216585   3.418   5.925   2.485  0.2258  1.5542 -0.3771
 5541TIP3   OH216586   0.756   0.212   0.698  0.1456 -0.2739  0.3027
 5541TIP3    H116587   0.848   0.238   0.707  0.0249 -0.1064  1.0826
 5541TIP3    H216588   0.728   0.191   0.787 -1.4549  2.5914  0.5811
 5542TIP3   OH216589   7.042   0.590   4.295 -0.0577 -0.0807 -0.1606
 5542TIP3    H116590   7.014   0.500   4.279  1.0408 -0.6253  0.8150
 5542TIP3    H216591   6.970   0.644   4.262 -1.1921 -1.3434  0.1590
 5543TIP3   OH216592   3.234   5.641   1.081  1.0275 -0.2067  0.8095
 5543TIP3    H116593   3.272   5.603   1.160  0.9413 -0.3007  0.8071
 5543TIP3    H216594   3.228   5.735   1.099  2.0499 -0.0690  0.4826
 5544TIP3   OH216595   1.240   6.309   3.127  0.2819  0.3856 -0.2022
 5544TIP3    H116596   1.198   6.280   3.208 -2.4371  3.1479 -0.4755
 5544TIP3    H216597   1.313   6.248   3.115 -0.8397 -1.7766  2.8467
 5545TIP3   OH216598   4.701   3.164   3.338 -0.3019  0.1886  0.1240
 5545TIP3    H116599   4.729   3.201   3.254  2.6495 -2.2720 -0.1517
 5545TIP3    H216600   4.759   3.203   3.403  2.3392 -2.9697 -0.0754
 5546TIP3   OH216601   2.198   3.870   0.297 -0.1331 -0.3299 -0.1363
 5546TIP3    H116602   2.170   3.787   0.258  1.1012 -0.3939 -0.9302
 5546TIP3    H216603   2.291   3.858   0.314  0.2678  1.2229 -1.1376
 5547TIP3   OH216604   5.094   6.134   4.881 -0.0828 -0.7458 -0.0594
 5547TIP3    H116605   5.088   6.041   4.861  0.3891 -0.8918  0.4636
 5547TIP3    H216606   5.039   6.176   4.815 -0.9513 -1.4559  0.1929
 5548TIP3   OH216607   6.933   5.498   1.379 -0.4650 -0.2994  0.7526
 5548TIP3    H116608   6.999   5.517   1.446  0.5463  0.4975 -0.4218
 5548TIP3    H216609   6.957   5.412   1.346 -0.7648 -0.5492  1.1851
 5549TIP3   OH216610   4.378   5.735   5.476  0.0005 -0.2957  0.1288
 5549TIP3    H116611   4.338   5.731   5.389  1.0835  1.8004 -0.5351
 5549TIP3    H216612   4.399   5.644   5.496 -3.0935 -1.2550 -0.3655
 5550TIP3   OH216613   0.403   6.636   3.201  0.2693 -0.0523  0.0944
 5550TIP3    H116614   0.468   6.642   3.270  0.4043 -0.0410 -0.0335
 5550TIP3    H216615   0.405   6.721   3.158 -1.2819  0.6890  1.3884
 5551TIP3   OH216616   3.480   1.692   1.374 -0.0110  0.3083  0.1281
 5551TIP3    H116617   3.572   1.717   1.383 -0.0710  0.4029  0.4954
 5551TIP3    H216618   3.469   1.620   1.436  0.3998 -1.3009 -1.5923
 5552TIP3   OH216619   6.330   4.514   1.859  0.3644  0.2872 -0.3128
 5552TIP3    H116620   6.386   4.579   1.899  0.4142 -0.2663  0.5498
 5552TIP3    H216621   6.244   4.527   1.899  1.0643 -2.1757  2.3486
 5553TIP3   OH216622   2.648   2.770   2.060 -0.1964  0.8034  0.2392
 5553TIP3    H116623   2.734   2.810   2.048 -0.8147  1.9050 -0.6928
 5553TIP3    H216624   2.596   2.837   2.103 -0.6824  0.2350  0.5661
 5554TIP3   OH216625   5.511   6.155   5.193  0.1605 -0.0830  0.4445
 5554TIP3    H116626   5.605   6.171   5.197  0.2872 -1.0038  1.6005
 5554TIP3    H216627   5.488   6.169   5.101  0.9571  2.5471  0.5682
 5555TIP3   OH216628   1.459   3.637   1.855 -0.1781  0.4840  0.1103
 5555TIP3    H116629   1.528   3.670   1.797 -0.6925  0.7878 -0.3270
 5555TIP3    H216630   1.415   3.716   1.888 -2.1574  0.2749 -1.8238
 5556TIP3   OH216631   4.138   2.460   4.278 -0.3088  0.3374  0.6299
 5556TIP3    H116632   4.095   2.510   4.209  1.1409 -0.1650 -0.6939
 5556TIP3    H216633   4.078   2.388   4.296 -1.3846  1.2867  0.9810
 5557TIP3   OH216634   3.140   0.714   2.147  0.9250  0.0070 -0.8137
 5557TIP3    H116635   3.230   0.747   2.145  1.7102 -1.9947 -1.7023
 5557TIP3    H216636   3.150   0.619   2.150 -1.0549 -0.5093 -4.3925
 5558TIP3   OH216637   3.231   3.480   5.757 -0.4106  0.4049 -0.1462
 5558TIP3    H116638   3.158   3.433   5.795  0.1362  0.9275  1.6517
 5558TIP3    H216639   3.295   3.413   5.734 -0.8777  0.0596 -0.4432
 5559TIP3   OH216640   1.213   5.271   1.067 -0.3026 -0.6249 -0.0614
 5559TIP3    H116641   1.301   5.306   1.055 -0.1839 -1.6747 -2.9728
 5559TIP3    H216642   1.226   5.177   1.079 -1.0372 -0.8278 -0.7993
 5560TIP3   OH216643   0.304   5.445   4.830 -0.5359 -0.6775 -0.0980
 5560TIP3    H116644   0.349   5.511   4.882  1.8619 -1.7304 -0.6766
 5560TIP3    H216645   0.223   5.428   4.877 -0.4141  1.3948  0.9845
 5561TIP3   OH216646   4.407   3.615   1.574  0.6188 -0.1334  0.2617
 5561TIP3    H116647   4.409   3.533   1.525 -3.4642 -1.4152  1.8576
 5561TIP3    H216648   4.345   3.671   1.527  0.6768  0.6674  1.1054
 5562TIP3   OH216649   0.066   4.599   5.114 -0.1586 -0.5961  0.3216
 5562TIP3    H116650   0.081   4.646   5.196  1.4092  0.0932 -0.3225
 5562TIP3    H216651   0.094   4.509   5.131  2.7713  0.1355 -0.1677
 5563TIP3   OH216652   3.506   3.519   1.260  0.1767  0.6200  0.6399
 5563TIP3    H116653   3.579   3.574   1.290  1.7795 -0.7496 -0.4963
 5563TIP3    H216654   3.520   3.509   1.166  0.1270 -1.8385  0.8058
 5564TIP3   OH216655   5.978   1.858   1.443 -0.4038  0.8333 -0.6403
 5564TIP3    H116656   5.991   1.860   1.348 -0.5545  2.0224 -0.6463
 5564TIP3    H216657   5.893   1.900   1.456  0.7780  3.0800  0.2096
 5565TIP3   OH216658   7.082   3.747   1.295  0.9313 -0.1639  0.3729
 5565TIP3    H116659   7.084   3.803   1.217 -0.7227 -0.7615 -0.1478
 5565TIP3    H216660   7.088   3.808   1.369  2.8154  0.3895 -0.1853
 5566TIP3   OH216661   4.310   0.606   4.961  0.0864 -0.3239  0.3651
 5566TIP3    H116662   4.268   0.525   4.932 -1.0702  1.1125 -2.3576
 5566TIP3    H216663   4.275   0.623   5.048 -0.8616 -1.9191  0.3082
 5567TIP3   OH216664   4.678   5.813   2.192  0.0291 -0.3511 -0.0751
 5567TIP3    H116665   4.663   5.876   2.122  0.9716 -0.8756 -0.7767
 5567TIP3    H216666   4.707   5.733   2.148 -0.4991 -1.0705  0.8400
 5568TIP3   OH216667   2.376   6.762   4.442  0.2806 -0.1698 -0.8960
 5568TIP3    H116668   2.422   6.842   4.466 -0.4293  0.0122 -0.0969
 5568TIP3    H216669   2.316   6.790   4.372 -0.9253  0.3186  0.2849
 5569TIP3   OH216670   2.234   0.069   0.335  0.1154  0.4359  0.2392
 5569TIP3    H116671   2.264   0.149   0.379  1.0434 -0.1096  0.6274
 5569TIP3    H216672   2.313   0.016   0.326 -0.6434 -0.8210  0.7807
 5570TIP3   OH216673   5.044   4.485   5.778 -0.6972 -0.0964  0.4177
 5570TIP3    H116674   5.014   4.575   5.791 -0.2257  0.2378 -0.6988
 5570TIP3    H216675   5.060   4.478   5.684  1.3854 -0.6901  0.7698
 5571TIP3   OH216676   4.878   6.090   5.251 -0.3311  0.0894  0.2321
 5571TIP3    H116677   4.928   6.158   5.206  1.1466  0.7604  2.7174
 5571TIP3    H216678   4.920   6.008   5.225 -1.0871  0.1922 -1.4817
 5572TIP3   OH216679   6.321   1.778   2.338 -0.5789 -0.1566  0.2138
 5572TIP3    H116680   6.280   1.726   2.269  1.4665 -2.5923  0.7134
 5572TIP3    H216681   6.280   1.747   2.419  0.2524 -0.6150  0.4655
 5573TIP3   OH216682   4.599   6.030   2.038 -0.4830  0.1829 -0.3244
 5573TIP3    H116683   4.504   6.035   2.046 -0.5069 -1.4704  0.9861
 5573TIP3    H216684   4.629   6.120   2.053 -1.8067  0.6965 -0.5927
 5574TIP3   OH216685   5.718   4.249   5.060  0.0733  0.3925 -0.3282
 5574TIP3    H116686   5.799   4.214   5.097  0.3645  1.8140  0.4873
 5574TIP3    H216687   5.746   4.330   5.016 -1.1906  2.6065  2.5519
 5575TIP3   OH216688   3.334   0.274   5.533 -0.7844 -0.1191 -0.1398
 5575TIP3    H116689   3.358   0.280   5.625  0.1188  2.6052 -0.4647
 5575TIP3    H216690   3.409   0.231   5.491 -0.1406  0.7657  0.0822
 5576TIP3   OH216691   1.357   4.800   2.673  0.4304 -0.1402  0.3307
 5576TIP3    H116692   1.370   4.739   2.745  0.2354  0.7346  1.1288
 5576TIP3    H216693   1.445   4.832   2.652  0.6292 -1.2311 -0.5978
 5577TIP3   OH216694   4.146   3.448   4.133  0.7829 -0.4024  0.9587
 5577TIP3    H116695   4.222   3.479   4.182  0.7864  0.4865  0.4138
 5577TIP3    H216696   4.073   3.502   4.165  0.2198 -1.6964  1.9641
 5578TIP3   OH216697   2.111   2.573   1.709 -0.2103 -0.1742  0.3923
 5578TIP3    H116698   2.039   2.627   1.741 -1.2385  0.1033 -2.1549
 5578TIP3    H216699   2.158   2.545   1.788 -1.8079  1.4284  1.9794
 5579TIP3   OH216700   6.431   3.053   3.001  0.1486  0.2787 -0.2303
 5579TIP3    H116701   6.399   3.102   3.077  0.9792  1.6672 -0.7501
 5579TIP3    H216702   6.423   2.961   3.028  1.1966  0.7442  1.8733
 5580TIP3   OH216703   1.824   0.353   0.805 -0.4859 -0.2897  0.5718
 5580TIP3    H116704   1.851   0.359   0.713 -2.1076 -0.8446  0.0351
 5580TIP3    H216705   1.905   0.334   0.852  0.3190 -0.3369 -0.7744
 5581TIP3   OH216706   3.613   0.322   3.318 -0.3488 -0.2388  0.2062
 5581TIP3    H116707   3.584   0.254   3.379 -0.2466  0.4379  1.0205
 5581TIP3    H216708   3.633   0.397   3.373 -0.6059  0.5138 -0.6921
 5582TIP3   OH216709   5.905   1.446   4.275  0.1974 -0.3967 -0.4162
 5582TIP3    H116710   5.892   1.492   4.358 -0.0453  0.7212 -1.0662
 5582TIP3    H216711   5.947   1.509   4.218 -1.0402 -0.6361 -1.6438
 5583TIP3   OH216712   6.392   5.098   4.268 -0.4980  0.5949 -0.0151
 5583TIP3    H116713   6.350   5.172   4.224 -0.6496  0.9359  0.6951
 5583TIP3    H216714   6.382   5.117   4.361  0.4586  0.2412  0.1665
 5584TIP3   OH216715   3.276   1.864   3.699 -0.2578 -0.1652 -0.4259
 5584TIP3    H116716   3.258   1.923   3.772 -1.9052  0.6177 -1.3747
 5584TIP3    H216717   3.343   1.909   3.648  0.3461 -0.3529  0.1925
 5585TIP3   OH216718   5.982   1.433   2.792  0.3298 -0.5065 -0.4141
 5585TIP3    H116719   6.001   1.398   2.706  0.3204 -2.4356  0.3195
 5585TIP3    H216720   5.916   1.373   2.828 -0.3470  0.7879  0.5829
 5586TIP3   OH216721   6.732   0.862   3.529 -0.1292 -0.1244 -0.2478
 5586TIP3    H116722   6.764   0.817   3.451 -1.6371  1.2387 -1.7357
 5586TIP3    H216723   6.805   0.917   3.557  0.1770 -0.0418 -1.1824
 5587TIP3   OH216724   2.316   3.696   4.971  0.9176 -0.1568 -0.3703
 5587TIP3    H116725   2.318   3.690   4.875 -0.5494  1.4794 -0.5608
 5587TIP3    H216726   2.319   3.605   5.000 -2.7742 -1.0532 -2.1658
 5588TIP3   OH216727   2.587   5.931   4.416 -0.6616 -0.1456  0.4364
 5588TIP3    H116728   2.573   5.852   4.363 -2.1181 -0.0103  0.6004
 5588TIP3    H216729   2.548   5.911   4.501 -2.3210  1.2391  0.0404
 5589TIP3   OH216730   6.686   4.168   1.122 -0.2458 -0.2021 -0.4201
 5589TIP3    H116731   6.741   4.196   1.049  0.8165 -0.0847  0.4017
 5589TIP3    H216732   6.619   4.112   1.082 -0.3377  0.7263 -1.6123
 5590TIP3   OH216733   0.456   0.536   4.888  0.3037 -0.3732  0.1742
 5590TIP3    H116734   0.392   0.512   4.821 -0.7844 -0.2745  1.1518
 5590TIP3    H216735   0.481   0.453   4.929  0.9583 -0.4322 -0.3179
 5591TIP3   OH216736   6.352   4.529   3.293  0.4051 -0.0375  0.6769
 5591TIP3    H116737   6.357   4.558   3.202  0.4673  0.2948  0.7839
 5591TIP3    H216738   6.404   4.449   3.296 -1.3793 -1.2878 -0.0684
 5592TIP3   OH216739   4.195   4.885   0.876  0.5246 -0.5850 -0.0027
 5592TIP3    H116740   4.199   4.846   0.963  1.6657 -0.8212 -0.1576
 5592TIP3    H216741   4.109   4.929   0.874  0.4555 -0.6326  1.2072
 5593TIP3   OH216742   6.694   5.365   5.761 -0.2743  0.7300 -0.0699
 5593TIP3    H116743   6.682   5.345   5.854 -0.2700  0.1020 -0.2005
 5593TIP3    H216744   6.752   5.296   5.729 -1.8273 -0.2313 -0.9717
 5594TIP3   OH216745   0.330   0.109   2.531 -0.5094 -0.2053  0.0403
 5594TIP3    H116746   0.413   0.089   2.575  0.0027 -0.8244 -1.1512
 5594TIP3    H216747   0.349   0.185   2.477 -0.8392 -0.0838  0.0935
 5595TIP3   OH216748   0.691   3.424   0.069  0.8349  0.7184  0.0281
 5595TIP3    H116749   0.635   3.399   0.142 -0.7108  0.8955 -1.0309
 5595TIP3    H216750   0.757   3.355   0.063 -0.3965 -0.5060  0.1886
 5596TIP3   OH216751   3.283   1.697   3.130 -0.1509 -0.3760 -0.9033
 5596TIP3    H116752   3.374   1.728   3.131  0.2955 -1.6654  0.3363
 5596TIP3    H216753   3.239   1.758   3.071  0.9044  1.9962  0.6016
 5597TIP3   OH216754   5.006   1.538   0.887 -0.1179  0.3939 -0.3324
 5597TIP3    H116755   5.079   1.486   0.854 -0.3639 -1.4045  1.7402
 5597TIP3    H216756   4.957   1.479   0.944 -2.0944  2.1072 -0.1176
 5598TIP3   OH216757   4.065   6.802   2.204  0.3014  0.6299 -0.2003
 5598TIP3    H116758   4.130   6.817   2.272 -0.1222  1.5390  0.0116
 5598TIP3    H216759   4.069   6.707   2.189 -0.1711  0.2615  1.6867
 5599TIP3   OH216760   1.453   2.309   4.072  0.3686  0.1091 -0.2291
 5599TIP3    H116761   1.386   2.326   4.139 -0.9561 -2.1581 -0.8788
 5599TIP3    H216762   1.502   2.234   4.106  0.9381  0.1631 -0.9146
 5600TIP3   OH216763   1.477   4.004   3.243 -0.2162 -0.4688  0.6659
 5600TIP3    H116764   1.478   3.957   3.160  0.2588  0.8481 -0.1044
 5600TIP3    H216765   1.384   4.022   3.260 -0.3891 -1.5135  0.8963
 5601TIP3   OH216766   5.501   3.658   2.565 -0.5728  0.3116  0.2397
 5601TIP3    H116767   5.501   3.567   2.594 -0.7466 -0.4327 -1.8806
 5601TIP3    H216768   5.508   3.653   2.470 -1.8898  2.4757 -0.0626
 5602TIP3   OH216769   0.920   0.927   0.224  0.6692  0.1509  0.3438
 5602TIP3    H116770   0.975   0.922   0.302  1.2403 -0.4258 -0.0772
 5602TIP3    H216771   0.841   0.878   0.247  1.3017 -0.9754  0.2032
 5603TIP3   OH216772   4.464   3.328   4.718 -0.2236  0.6157  0.1462
 5603TIP3    H116773   4.527   3.347   4.648  1.6366 -0.7505  1.3907
 5603TIP3    H216774   4.485   3.390   4.787  0.6844 -0.7224  1.1009
 5604TIP3   OH216775   3.097   0.021   5.840 -0.5546 -0.3476 -0.1941
 5604TIP3    H116776   3.151   0.005   5.918  2.0348 -2.8742 -2.2892
 5604TIP3    H216777   3.098   0.116   5.830  0.9731 -0.1130  1.5719
 5605TIP3   OH216778   0.144   4.663   0.394 -0.7537 -0.0298 -0.3112
 5605TIP3    H116779   0.150   4.710   0.311  0.9594 -1.8142 -1.2814
 5605TIP3    H216780   0.118   4.574   0.369  0.8868 -0.9028  0.9161
 5606TIP3   OH216781   2.778   0.326   2.882 -0.3804  0.1909  0.5402
 5606TIP3    H116782   2.837   0.380   2.936  0.5181 -2.1763  2.1037
 5606TIP3    H216783   2.836   0.280   2.822 -0.5929 -1.7979  1.7626
 5607TIP3   OH216784   4.751   1.935   5.804 -0.2272 -0.0556  0.8297
 5607TIP3    H116785   4.663   1.964   5.779 -0.2821 -0.8726  0.0113
 5607TIP3    H216786   4.782   2.002   5.865 -0.9143  0.9277  0.1387
 5608TIP3   OH216787   6.041   4.925   4.630  0.0836 -0.5774 -0.7156
 5608TIP3    H116788   5.993   4.976   4.566  0.6342 -1.1575 -1.6042
 5608TIP3    H216789   6.082   4.990   4.687 -1.3854 -0.0761 -0.1937
 5609TIP3   OH216790   4.703   5.978   2.574  0.4200  0.4742  0.3713
 5609TIP3    H116791   4.625   5.925   2.556  0.2666  1.5944 -3.0138
 5609TIP3    H216792   4.771   5.940   2.519  1.0709  2.0206  0.0560
 5610TIP3   OH216793   0.555   1.658   3.068 -0.1325  0.1347 -0.2082
 5610TIP3    H116794   0.466   1.692   3.067  0.0809  0.7085 -0.6940
 5610TIP3    H216795   0.610   1.736   3.062  0.4828 -0.0103  2.4516
 5611TIP3   OH216796   6.016   0.275   0.993  0.2688  0.1284 -0.2342
 5611TIP3    H116797   5.961   0.221   1.050  0.2490  0.8711  0.4757
 5611TIP3    H216798   6.038   0.351   1.047  0.6755  0.6057 -1.0574
 5612TIP3   OH216799   6.621   5.738   4.002  0.1894  0.0916  0.3036
 5612TIP3    H116800   6.668   5.716   3.922  1.9267  2.3352  0.6033
 5612TIP3    H216801   6.686   5.729   4.072 -0.4314  1.0925  1.0398
 5613TIP3   OH216802   5.749   6.563   5.558 -0.0106  0.1366 -0.1593
 5613TIP3    H116803   5.808   6.583   5.631  0.8958  1.3995 -1.1985
 5613TIP3    H216804   5.793   6.600   5.481  0.1562 -3.0619 -1.7484
 5614TIP3   OH216805   0.133   6.369   4.142 -0.3356  1.0987  0.0965
 5614TIP3    H116806   0.132   6.279   4.174 -1.6976  0.7451 -0.8235
 5614TIP3    H216807   0.211   6.408   4.181 -0.2787 -0.1763  1.3210
 5615TIP3   OH216808   6.377   3.218   2.099 -0.0844  0.1978 -0.5500
 5615TIP3    H116809   6.383   3.123   2.093  1.4346  0.1666  0.7390
 5615TIP3    H216810   6.384   3.237   2.192 -0.2428  1.5844 -0.8015
 5616TIP3   OH216811   2.554   0.439   3.673  0.6337 -0.2250 -0.0187
 5616TIP3    H116812   2.588   0.357   3.638 -0.3263 -0.1512 -1.1677
 5616TIP3    H216813   2.499   0.475   3.604  0.2128  0.8885  0.8476
 5617TIP3   OH216814   6.716   3.784   2.211  0.1390  0.2159 -0.1342
 5617TIP3    H116815   6.776   3.745   2.148  0.0444 -0.6147  0.2757
 5617TIP3    H216816   6.652   3.831   2.158  1.6173  1.8572 -0.5626
 5618TIP3   OH216817   5.388   5.436   1.375 -0.1996  0.2876  0.6199
 5618TIP3    H116818   5.326   5.381   1.423  0.1859 -0.4114  0.3394
 5618TIP3    H216819   5.348   5.447   1.289 -0.9215  1.5943  1.1004
 5619TIP3   OH216820   0.088   5.679   3.412 -0.2531 -0.0686  0.5327
 5619TIP3    H116821   0.043   5.643   3.335  0.0677 -0.3883  0.4914
 5619TIP3    H216822   0.152   5.611   3.436 -1.2077 -0.5405  1.8552
 5620TIP3   OH216823   0.445   1.115   1.058 -0.7015  0.8832 -0.1797
 5620TIP3    H116824   0.398   1.064   0.992 -1.0731  0.0917  0.6824
 5620TIP3    H216825   0.535   1.119   1.025 -0.9053  0.5895 -0.7876
 5621TIP3   OH216826   4.208   6.303   0.165 -0.1936  0.0914  0.0013
 5621TIP3    H116827   4.174   6.356   0.238 -0.4406 -0.8134  0.5675
 5621TIP3    H216828   4.133   6.250   0.137  0.4069 -1.0453  0.4506
 5622TIP3   OH216829   1.976   3.672   4.497 -0.3273  0.1767 -0.3447
 5622TIP3    H116830   1.929   3.729   4.558 -0.0419  0.6717 -0.5824
 5622TIP3    H216831   1.907   3.624   4.452 -0.7277  1.9367 -1.7142
 5623TIP3   OH216832  -0.007   2.767   5.114  0.1262  0.0093  0.0094
 5623TIP3    H116833   0.046   2.689   5.127  0.3209 -0.0614 -1.0940
 5623TIP3    H216834  -0.017   2.774   5.019 -0.5490  0.8860  0.1268
 5624TIP3   OH216835   3.106   3.158   5.369  0.3503  0.4441  0.2025
 5624TIP3    H116836   3.076   3.078   5.412  0.3054 -0.7069 -1.8416
 5624TIP3    H216837   3.026   3.203   5.342  0.2694 -1.3411 -2.9645
 5625TIP3   OH216838   5.374   6.647   4.137  0.0724 -0.4317 -0.2475
 5625TIP3    H116839   5.374   6.733   4.178  1.7841  0.5964 -2.2090
 5625TIP3    H216840   5.286   6.613   4.151 -1.1175  2.2699 -0.6796
 5626TIP3   OH216841   5.276   2.550   2.997 -0.4281  0.1360  0.5541
 5626TIP3    H116842   5.185   2.547   2.967 -0.2967  0.3693  0.1205
 5626TIP3    H216843   5.299   2.459   3.011 -0.9517  0.1193  1.3590
 5627TIP3   OH216844   2.149   2.204   5.262  0.0609  0.4692  0.3195
 5627TIP3    H116845   2.095   2.283   5.268 -1.1321 -0.2325 -0.7310
 5627TIP3    H216846   2.184   2.192   5.350 -0.4308  1.6941  0.6993
 5628TIP3   OH216847   5.284   0.883   5.359 -0.4461  0.5280  0.2876
 5628TIP3    H116848   5.334   0.891   5.278 -1.0259 -0.3391 -0.1752
 5628TIP3    H216849   5.193   0.890   5.331 -0.7669 -1.8153  0.5377
 5629TIP3   OH216850   5.876   3.437   0.999  0.0103  0.2296  0.6435
 5629TIP3    H116851   5.883   3.355   0.950 -0.6085  1.0952 -0.9962
 5629TIP3    H216852   5.825   3.494   0.941  2.4615  2.5830  0.6131
 5630TIP3   OH216853   6.129   1.215   3.106 -0.2105  0.0405  0.6176
 5630TIP3    H116854   6.037   1.187   3.104 -0.5016  0.8795  1.5706
 5630TIP3    H216855   6.178   1.133   3.114 -0.8618 -0.4273 -0.0734
 5631TIP3   OH216856   1.017   1.194   4.969 -0.5643  0.1728  0.2780
 5631TIP3    H116857   1.031   1.211   5.062  2.7867  1.0706 -0.2807
 5631TIP3    H216858   1.042   1.102   4.957  3.0627  1.1139 -0.2967
 5632TIP3   OH216859   1.836   3.688   4.777 -0.4251  0.3605 -0.1537
 5632TIP3    H116860   1.898   3.746   4.822  0.9294 -0.0496 -1.4270
 5632TIP3    H216861   1.869   3.600   4.793 -0.4841  0.1560 -1.1163
 5633TIP3   OH216862   6.310   4.026   3.349 -0.5342  0.1339  0.1068
 5633TIP3    H116863   6.366   3.988   3.416  0.2801 -0.0242 -0.6382
 5633TIP3    H216864   6.370   4.053   3.280 -1.5031 -2.4632 -1.9421
 5634TIP3   OH216865   0.820   3.221   3.271  0.3764 -0.3749  0.7146
 5634TIP3    H116866   0.839   3.245   3.180  1.8396 -0.1983  1.0390
 5634TIP3    H216867   0.868   3.140   3.285 -1.1027 -1.2600  0.8993
 5635TIP3   OH216868   6.333   5.709   1.378  0.1405 -0.3724  0.2951
 5635TIP3    H116869   6.336   5.670   1.291 -1.5777  1.0851 -0.5015
 5635TIP3    H216870   6.264   5.660   1.423  0.2769 -0.4249  0.4439
 5636TIP3   OH216871   1.312   4.361   2.645 -0.5096 -0.4014 -0.5647
 5636TIP3    H116872   1.347   4.419   2.578  0.9788 -0.3994  0.1595
 5636TIP3    H216873   1.339   4.273   2.619  0.6975 -0.3312  0.3541
 5637TIP3   OH216874   4.096   1.196   5.271 -0.6023  0.0623  0.4832
 5637TIP3    H116875   4.014   1.242   5.252 -0.6908 -0.1157  0.4351
 5637TIP3    H216876   4.085   1.111   5.229 -0.4332  0.0017  0.5658
 5638TIP3   OH216877   0.840   3.182   0.301 -0.0009 -0.2635  0.1559
 5638TIP3    H116878   0.757   3.219   0.333  0.9681  1.2633  1.0405
 5638TIP3    H216879   0.853   3.222   0.216  0.2670  0.1958  0.4125
 5639TIP3   OH216880   5.203   3.749   0.960  0.4210  0.0417 -0.1641
 5639TIP3    H116881   5.219   3.783   1.047 -1.4657 -1.4848  0.8673
 5639TIP3    H216882   5.126   3.797   0.929  2.3463  2.1606 -1.9982
 5640TIP3   OH216883   3.401   0.110   0.172 -0.2550  0.2407 -0.3456
 5640TIP3    H116884   3.382   0.076   0.259 -1.1646 -0.2344 -0.7088
 5640TIP3    H216885   3.391   0.204   0.179 -3.5493  0.0298 -0.6262
 5641TIP3   OH216886   3.513   4.208   0.456 -0.8200 -0.1868 -0.2467
 5641TIP3    H116887   3.524   4.114   0.448  0.7433  0.1431 -4.2019
 5641TIP3    H216888   3.590   4.237   0.504  0.1307 -0.7381 -1.3913
 5642TIP3   OH216889   1.461   4.095   0.103  0.7404 -0.0722 -0.1236
 5642TIP3    H116890   1.501   4.011   0.077  1.3992 -0.1198  0.9858
 5642TIP3    H216891   1.455   4.144   0.021  0.2795 -1.2159 -0.8128
 5643TIP3   OH216892   0.568   5.463   4.521  0.2273 -0.2776 -0.0947
 5643TIP3    H116893   0.583   5.537   4.580 -0.3391 -1.0089  0.9853
 5643TIP3    H216894   0.656   5.431   4.500  0.4293 -0.3314  0.7779
 5644TIP3   OH216895   0.614   0.732   0.942 -0.2435 -0.7195  0.3575
 5644TIP3    H116896   0.706   0.722   0.968  0.4107 -0.7051 -1.7886
 5644TIP3    H216897   0.597   0.657   0.885 -1.1281  0.0333 -0.3870
 5645TIP3   OH216898   0.128   1.581   2.123 -0.0591  0.9446  0.1367
 5645TIP3    H116899   0.198   1.516   2.115 -0.0253  0.7961  1.4829
 5645TIP3    H216900   0.047   1.530   2.110  0.0556  1.1218 -1.4432
 5646TIP3   OH216901   1.655   2.227   1.949  0.0523  0.1219 -0.6008
 5646TIP3    H116902   1.662   2.198   1.859 -0.4678  0.3716 -0.7233
 5646TIP3    H216903   1.620   2.316   1.944  1.6888  0.8259 -0.2398
 5647TIP3   OH216904   5.862   2.935   4.283  0.2634  0.9034  0.5888
 5647TIP3    H116905   5.789   2.912   4.341 -0.9883  0.9148 -0.8980
 5647TIP3    H216906   5.868   2.861   4.223  0.2749  1.7099 -0.4292
 5648TIP3   OH216907   3.234   4.326   0.124 -0.5166 -0.6786 -0.1119
 5648TIP3    H116908   3.190   4.373   0.195 -0.4619 -0.7040 -0.0607
 5648TIP3    H216909   3.251   4.394   0.058  1.2246 -0.2169  0.7455
 5649TIP3   OH216910   6.644   2.143   3.882 -0.4195 -0.4402 -0.1446
 5649TIP3    H116911   6.668   2.228   3.844 -0.2180  0.1422  1.2335
 5649TIP3    H216912   6.697   2.080   3.833 -1.3801  0.0740 -1.9388
 5650TIP3   OH216913   6.204   5.074   3.678  0.1556  0.2340 -0.1647
 5650TIP3    H116914   6.137   5.008   3.658 -0.0355  0.6190 -0.8327
 5650TIP3    H216915   6.218   5.066   3.772 -0.8840  0.1977  0.0038
 5651TIP3   OH216916   3.718   5.515   2.299 -0.0376  0.2720 -0.0183
 5651TIP3    H116917   3.720   5.528   2.204 -0.3995 -0.1645 -0.0869
 5651TIP3    H216918   3.810   5.502   2.323  0.2154  1.7072 -0.1126
 5652TIP3   OH216919   7.077   0.854   2.416 -0.2962 -0.1050  0.1820
 5652TIP3    H116920   7.052   0.799   2.341 -2.6183  0.1491  0.6992
 5652TIP3    H216921   7.009   0.921   2.420 -1.0142 -0.8883  3.3012
 5653TIP3   OH216922   7.053   5.280   3.000 -0.4237  0.2456  0.2027
 5653TIP3    H116923   7.114   5.214   2.967 -0.4430 -1.4833  3.2471
 5653TIP3    H216924   6.982   5.280   2.937  1.8084  1.0399 -2.5076
 5654TIP3   OH216925   0.456   2.398   2.762  0.0380  0.2669  0.1710
 5654TIP3    H116926   0.527   2.379   2.701 -1.0646 -0.5923 -0.9020
 5654TIP3    H216927   0.420   2.482   2.732 -0.8803 -0.4373 -0.7785
 5655TIP3   OH216928   4.288   5.501   5.038 -0.5006  0.0671 -0.6301
 5655TIP3    H116929   4.300   5.439   4.965  0.0323  1.0166 -1.3678
 5655TIP3    H216930   4.258   5.582   4.996 -0.0391  0.6774  0.1942
 5656TIP3   OH216931   3.439   5.270   4.807  0.1417 -0.0978 -0.4232
 5656TIP3    H116932   3.435   5.217   4.887 -0.3978 -0.5994 -0.7685
 5656TIP3    H216933   3.523   5.249   4.767  1.7317  2.2663  1.4036
 5657TIP3   OH216934   3.180   6.396   1.589  0.4972 -0.1354  0.2022
 5657TIP3    H116935   3.183   6.491   1.604  1.0389 -0.3132  1.3881
 5657TIP3    H216936   3.171   6.387   1.494  1.1536  1.1041 -0.0120
 5658TIP3   OH216937   3.083   5.713   3.381 -0.1184  0.1044  0.0231
 5658TIP3    H116938   3.110   5.693   3.292  0.1955  1.2313 -0.1584
 5658TIP3    H216939   3.056   5.629   3.418 -0.9399 -0.2704 -1.3575
 5659TIP3   OH216940   1.646   2.026   3.108  0.0429 -0.3172 -0.3323
 5659TIP3    H116941   1.689   1.944   3.083  0.2136 -0.1034 -0.7467
 5659TIP3    H216942   1.650   2.080   3.029  0.5002  0.3291  0.1206
 5660TIP3   OH216943   0.079   4.351   5.242  0.7398  0.5595  0.0642
 5660TIP3    H116944   0.130   4.374   5.319  1.0638 -1.0488  0.3804
 5660TIP3    H216945  -0.010   4.340   5.273  1.2921 -2.7625  0.8927
 5661TIP3   OH216946   4.851   0.062   0.857 -0.1022  0.0745 -0.1825
 5661TIP3    H116947   4.933   0.034   0.817 -0.4808  0.3135 -1.1622
 5661TIP3    H216948   4.812  -0.018   0.892  0.1184 -0.1889 -0.5336
 5662TIP3   OH216949   2.722   3.427   2.492  0.1119  0.6968  0.0904
 5662TIP3    H116950   2.743   3.498   2.431  0.1422 -0.6835 -1.5583
 5662TIP3    H216951   2.807   3.397   2.524  0.1325  0.9500  0.2809
 5663TIP3   OH216952   4.977   2.610   3.183 -0.4981 -0.7177 -0.2926
 5663TIP3    H116953   5.057   2.652   3.215 -0.8687 -0.4180  0.2456
 5663TIP3    H216954   4.974   2.633   3.090 -0.8218  0.6862  0.0375
 5664TIP3   OH216955   3.699   4.851   4.155  0.3366  0.1937  0.0282
 5664TIP3    H116956   3.604   4.845   4.141  0.8402 -1.1478 -4.4086
 5664TIP3    H216957   3.723   4.934   4.113  1.1050  1.1190  2.1607
 5665TIP3   OH216958   4.016   1.489   2.580 -0.8069 -0.0189 -0.0006
 5665TIP3    H116959   3.959   1.566   2.578  0.3870  0.8766 -0.7943
 5665TIP3    H216960   3.956   1.415   2.566 -2.0199  0.7138  1.0965
 5666TIP3   OH216961   5.945   3.830   0.913  0.1474  0.3057  0.0564
 5666TIP3    H116962   5.932   3.883   0.991 -0.1470 -0.8993  0.8556
 5666TIP3    H216963   5.978   3.746   0.946 -0.7398 -0.4995 -1.0347
 5667TIP3   OH216964   5.371   5.399   5.523  0.0412 -0.0557  0.2930
 5667TIP3    H116965   5.376   5.349   5.604 -0.6303 -0.8754 -0.1555
 5667TIP3    H216966   5.462   5.407   5.494  0.2750  0.1486  1.0557
 5668TIP3   OH216967   1.261   2.091   4.372  0.0441  0.0203 -0.9675
 5668TIP3    H116968   1.352   2.096   4.343 -0.2351 -0.4797 -1.9762
 5668TIP3    H216969   1.247   1.998   4.390 -0.5606 -0.0549 -1.8065
 5669TIP3   OH216970   3.140   5.285   0.840 -0.6204 -0.0365  0.0965
 5669TIP3    H116971   3.084   5.309   0.766 -2.0035 -0.5807  0.9198
 5669TIP3    H216972   3.095   5.321   0.916  0.3921 -0.1247  0.7535
 5670TIP3   OH216973   5.763   3.508   2.198  0.5129  0.0575  0.1672
 5670TIP3    H116974   5.831   3.533   2.262 -1.0864 -2.0356  2.8976
 5670TIP3    H216975   5.782   3.417   2.179 -0.3403  0.0536 -0.6808
 5671TIP3   OH216976   0.410   5.933   0.847  0.7403  0.1380  0.2756
 5671TIP3    H116977   0.498   5.907   0.873  0.8139  2.3093  2.5370
 5671TIP3    H216978   0.352   5.880   0.903  0.6852  0.1609  0.2401
 5672TIP3   OH216979   4.244   3.912   0.099  0.3633 -0.1458 -0.2715
 5672TIP3    H116980   4.313   3.867   0.051 -0.3096 -1.1799 -0.2905
 5672TIP3    H216981   4.164   3.894   0.050 -0.2105 -0.5336  0.7791
 5673TIP3   OH216982   4.199   6.692   0.322  0.0917 -0.2108 -0.2347
 5673TIP3    H116983   4.194   6.602   0.355  0.1622 -0.2813 -0.4145
 5673TIP3    H216984   4.163   6.745   0.393 -0.8482 -0.4726 -0.5064
 5674TIP3   OH216985   1.127   4.382   3.750  0.7291 -0.3444 -0.1068
 5674TIP3    H116986   1.037   4.413   3.757  0.4079 -1.2485 -0.0481
 5674TIP3    H216987   1.119   4.293   3.714  1.6415 -0.1467 -0.8592
 5675TIP3   OH216988   6.922   2.800   1.723 -0.0353 -0.1752  0.4738
 5675TIP3    H116989   6.920   2.816   1.629  0.7563  0.8141  0.5966
 5675TIP3    H216990   6.845   2.845   1.757  0.9040  1.5183  0.5295
 5676TIP3   OH216991   2.979   0.483   5.243 -0.1796 -0.1101 -0.2256
 5676TIP3    H116992   3.073   0.469   5.250 -0.2096  0.0177  0.6436
 5676TIP3    H216993   2.966   0.574   5.270 -0.4528  0.1910 -1.3453
 5677TIP3   OH216994   6.146   3.687   2.172  0.3718  0.2350 -0.2327
 5677TIP3    H116995   6.114   3.777   2.173 -1.4458 -0.3683 -0.5600
 5677TIP3    H216996   6.080   3.638   2.222  0.9181 -1.0364 -0.7309
 5678TIP3   OH216997   5.839   2.047   2.538 -0.0167 -0.4494 -0.1247
 5678TIP3    H116998   5.774   1.985   2.506 -0.4166  0.7342 -1.7593
 5678TIP3    H216999   5.923   2.013   2.507 -0.3055  0.1577 -1.7064
 5679TIP3   OH217000   1.192   2.551   1.118 -0.6434 -0.4275  0.1942
 5679TIP3    H117001   1.113   2.558   1.172 -0.1676  0.8610  0.7567
 5679TIP3    H217002   1.263   2.579   1.176  0.5751 -3.4176  0.3508
 5680TIP3   OH217003   4.545   5.780   2.444 -0.5837  0.2527 -0.2461
 5680TIP3    H117004   4.576   5.777   2.354  2.6522 -0.8270  0.7567
 5680TIP3    H217005   4.530   5.688   2.468  0.9114  0.2872  0.9703
 5681TIP3   OH217006   5.537   4.092   0.558 -0.0625  0.0734  0.0623
 5681TIP3    H117007   5.599   4.155   0.595  1.2910 -0.2429 -1.5256
 5681TIP3    H217008   5.593   4.027   0.514 -1.5230 -0.3293 -1.2833
 5682TIP3   OH217009   4.965   1.177   3.635  0.1348  0.4179  0.4682
 5682TIP3    H117010   4.875   1.149   3.648  0.1883 -0.4308 -0.8790
 5682TIP3    H217011   4.961   1.273   3.637 -1.0553  0.4286 -1.1331
 5683TIP3   OH217012   5.112   4.666   0.199 -0.5695 -0.3433 -0.1786
 5683TIP3    H117013   5.146   4.730   0.262 -1.2248  0.8836 -1.0449
 5683TIP3    H217014   5.032   4.632   0.239 -2.2957  2.1512 -1.2844
 5684TIP3   OH217015   6.651   3.884   4.301 -0.4263 -0.2343  0.1620
 5684TIP3    H117016   6.598   3.950   4.256 -1.3221 -1.4763 -0.6712
 5684TIP3    H217017   6.720   3.862   4.239 -1.6049 -1.8784 -0.6292
 5685TIP3   OH217018   4.862   5.691   3.915 -1.0721 -0.4029  0.3787
 5685TIP3    H117019   4.811   5.753   3.863 -2.1535  0.0563  1.8923
 5685TIP3    H217020   4.915   5.643   3.851 -1.1114  1.2347 -0.9517
 5686TIP3   OH217021   4.133   4.620   0.370 -0.1256  0.2351 -0.4381
 5686TIP3    H117022   4.095   4.698   0.409  0.1136  0.5281 -0.7793
 5686TIP3    H217023   4.133   4.555   0.440 -1.7850  0.0378 -0.5800
 5687TIP3   OH217024   1.263   6.670   0.855 -0.2387  0.0878 -0.1886
 5687TIP3    H117025   1.231   6.747   0.807 -0.1518  0.4541  0.3411
 5687TIP3    H217026   1.247   6.690   0.947  1.4112  0.2398  0.0953
 5688TIP3   OH217027   1.675   4.759   2.107 -1.0060 -0.2979 -0.0826
 5688TIP3    H117028   1.687   4.732   2.198  0.3243  0.0818 -0.1270
 5688TIP3    H217029   1.664   4.854   2.111  1.3684  0.0547 -0.4576
 5689TIP3   OH217030   1.309   3.814   3.848  0.0191 -0.4218 -0.2502
 5689TIP3    H117031   1.401   3.835   3.832 -0.0992  0.7310  0.4820
 5689TIP3    H217032   1.295   3.730   3.803  1.4790 -0.7229 -0.1731
 5690TIP3   OH217033   0.445   0.454   4.450 -0.1064  0.0207 -0.1356
 5690TIP3    H117034   0.425   0.364   4.477 -1.3809  0.5068  0.6190
 5690TIP3    H217035   0.535   0.449   4.417 -0.9623 -2.0320 -2.5112
 5691TIP3   OH217036   2.632   2.985   2.629 -0.1798 -0.2026  0.2228
 5691TIP3    H117037   2.638   2.998   2.723  0.7437  2.5781 -0.1295
 5691TIP3    H217038   2.539   2.978   2.611 -0.6130  2.3700  1.0884
 5692TIP3   OH217039   4.121   3.143   0.847 -0.0347  0.0798  0.3710
 5692TIP3    H117040   4.195   3.124   0.789 -0.9504 -0.9287 -0.4888
 5692TIP3    H217041   4.161   3.191   0.920  1.0723  1.9111 -1.3213
 5693TIP3   OH217042   4.679   1.205   2.542 -0.0507 -0.0541 -0.5521
 5693TIP3    H117043   4.686   1.162   2.627 -0.3177 -1.5204 -1.2408
 5693TIP3    H217044   4.595   1.252   2.546  1.1554  2.1491  0.9298
 5694TIP3   OH217045   1.174   0.774   4.673  0.5038 -0.4958 -0.8922
 5694TIP3    H117046   1.216   0.785   4.588 -1.9807 -0.2183 -2.1882
 5694TIP3    H217047   1.091   0.821   4.665 -0.8439 -2.3837  0.8869
 5695TIP3   OH217048   0.885   1.485   5.351 -0.2192 -0.4821  0.4229
 5695TIP3    H117049   0.947   1.505   5.281 -1.5962  0.2745 -0.6272
 5695TIP3    H217050   0.820   1.555   5.346 -2.4145 -2.4257 -0.0440
 5696TIP3   OH217051   0.543   2.115   5.787  0.0312  1.0548  0.5328
 5696TIP3    H117052   0.636   2.101   5.767 -0.5399 -0.1936 -1.5082
 5696TIP3    H217053   0.529   2.068   5.869  0.9368  0.2085  0.2243
 5697TIP3   OH217054   1.612   4.098   4.535 -0.3400  0.3539  0.1071
 5697TIP3    H117055   1.614   4.146   4.452  1.0356  0.6728  0.3065
 5697TIP3    H217056   1.519   4.085   4.552 -0.6546  0.5941 -1.3063
 5698TIP3   OH217057   3.595   0.166   2.449  0.5174 -0.0756  0.0061
 5698TIP3    H117058   3.504   0.173   2.418 -0.3737 -3.4119  1.4698
 5698TIP3    H217059   3.648   0.181   2.371 -1.2900  1.2224 -1.0415
 5699TIP3   OH217060   7.085   0.050   3.430  0.5386  0.6574  0.0211
 5699TIP3    H117061   6.999   0.017   3.457  0.4086  1.7476  1.0551
 5699TIP3    H217062   7.145  -0.022   3.450 -0.0509  0.0977 -0.1658
 5700TIP3   OH217063   5.113   6.823   5.263  0.0665  0.5866  0.0110
 5700TIP3    H117064   5.070   6.862   5.338 -0.2064 -0.2514  0.3020
 5700TIP3    H217065   5.076   6.735   5.257  0.5762  0.4092 -0.6946
 5701TIP3   OH217066   4.930   1.790   2.509  0.3924 -0.0338 -0.4031
 5701TIP3    H117067   4.854   1.754   2.554  0.0804  2.6910  1.5034
 5701TIP3    H217068   4.893   1.845   2.439  0.7642 -1.0776 -1.4565
 5702TIP3   OH217069   3.882   6.469   1.770 -0.9199 -0.0417  0.8184
 5702TIP3    H117070   3.911   6.528   1.700 -0.0413 -0.3640  0.8916
 5702TIP3    H217071   3.787   6.472   1.767 -0.9070 -0.5659 -0.8493
 5703TIP3   OH217072   1.571   3.504   2.168  0.6960 -0.3252 -0.2753
 5703TIP3    H117073   1.637   3.569   2.191  0.8293 -0.8052  0.7567
 5703TIP3    H217074   1.520   3.493   2.248  0.2907 -1.0354 -0.6251
 5704TIP3   OH217075   5.110   5.298   0.830 -0.3288 -0.4875  0.5412
 5704TIP3    H117076   5.045   5.354   0.872 -1.0958 -1.2144  0.3559
 5704TIP3    H217077   5.070   5.272   0.747  1.2162  1.0197 -0.7313
 5705TIP3   OH217078   6.727   1.899   1.413  0.2521 -0.4057  0.3075
 5705TIP3    H117079   6.805   1.952   1.430  0.5457 -0.3677 -1.0002
 5705TIP3    H217080   6.752   1.843   1.339 -1.1280 -0.0220 -0.4805
 5706TIP3   OH217081   5.257   2.790   5.749  0.4392  0.0053  0.1856
 5706TIP3    H117082   5.274   2.836   5.831  0.4556  0.4527 -0.0640
 5706TIP3    H217083   5.176   2.829   5.716  1.8795  1.8340 -1.3980
 5707TIP3   OH217084   6.552   0.435   5.009 -0.0013  0.4715  1.2255
 5707TIP3    H117085   6.515   0.504   4.953 -0.0944  1.6984  2.7273
 5707TIP3    H217086   6.583   0.482   5.087  2.0664 -0.8981  1.3023
 5708TIP3   OH217087   6.062   0.267   4.067  0.2166 -0.6284  0.1667
 5708TIP3    H117088   6.043   0.353   4.105  0.4769 -0.7038  0.4738
 5708TIP3    H217089   6.010   0.264   3.987 -0.9920 -0.7957  0.9391
 5709TIP3   OH217090   0.082   3.155   4.242  0.3812 -0.4424 -0.5800
 5709TIP3    H117091   0.062   3.062   4.231 -3.1939  0.2105 -0.5487
 5709TIP3    H217092   0.067   3.172   4.335 -2.1670  0.7301 -1.1335
 5710TIP3   OH217093   2.216   2.595   2.299 -0.7705 -0.4351 -0.1677
 5710TIP3    H117094   2.224   2.670   2.358 -0.9519 -0.4872 -0.0763
 5710TIP3    H217095   2.306   2.572   2.277 -0.5948 -1.6380  1.6138
 5711TIP3   OH217096   0.295   3.374   0.758 -0.4316 -0.0286  0.3427
 5711TIP3    H117097   0.343   3.301   0.799  1.3432  0.7439 -0.2760
 5711TIP3    H217098   0.261   3.338   0.676  0.2334 -0.2209  0.1515
 5712TIP3   OH217099   6.009   5.250   5.617 -0.3537  0.1750  0.3262
 5712TIP3    H117100   6.038   5.196   5.543  0.4810 -0.0890  0.8367
 5712TIP3    H217101   5.980   5.188   5.683 -1.8753  0.4262 -0.0616
 5713TIP3   OH217102   6.011   2.242   4.931  0.1133 -0.3425 -0.0571
 5713TIP3    H117103   6.043   2.180   4.866  2.8480  0.1700  0.6764
 5713TIP3    H217104   6.046   2.211   5.014  1.0103  1.7620  0.4281
 5714TIP3   OH217105   0.278   1.222   3.334  0.7033 -0.2073  0.3838
 5714TIP3    H117106   0.244   1.174   3.259 -1.3654  1.5195  0.1076
 5714TIP3    H217107   0.346   1.278   3.298  1.7044 -1.4008  0.3544
 5715TIP3   OH217108   5.166   3.282   2.151 -0.1047 -0.6373  0.6826
 5715TIP3    H117109   5.175   3.275   2.246  0.2995  0.2346  0.7157
 5715TIP3    H217110   5.108   3.357   2.137  2.0416  1.0639  0.2160
 5716TIP3   OH217111   5.560   6.584   0.317 -0.4889 -0.5707  0.3538
 5716TIP3    H117112   5.617   6.544   0.252  0.4380  0.0873  0.7459
 5716TIP3    H217113   5.522   6.660   0.272 -0.2894 -0.4400  0.4077
 5717TIP3   OH217114   4.738   0.201   1.308  0.2503  0.0940  0.3303
 5717TIP3    H117115   4.783   0.143   1.247  1.3412  1.1954  0.0366
 5717TIP3    H217116   4.787   0.192   1.390  0.1721  0.2894  0.3992
 5718TIP3   OH217117   3.844   5.602   3.952  0.0670  0.0246  0.1848
 5718TIP3    H117118   3.899   5.635   4.023 -1.1998  0.9187  0.7928
 5718TIP3    H217119   3.827   5.679   3.897 -1.8773  0.1559  0.9072
 5719TIP3   OH217120   3.901   1.765   0.181  0.3415 -0.0371  0.3371
 5719TIP3    H117121   3.956   1.840   0.159  0.5007 -0.1155  0.4614
 5719TIP3    H217122   3.961   1.704   0.225  0.0844  0.0082  0.7506
 5720TIP3   OH217123   2.083   2.865   0.754  0.3694  0.2784 -0.0624
 5720TIP3    H117124   2.167   2.911   0.761  1.1440 -1.2242  1.1583
 5720TIP3    H217125   2.096   2.804   0.681 -0.1229  0.9262 -0.6988
 5721TIP3   OH217126   3.251   6.117   5.726 -0.0473 -0.0358 -0.2488
 5721TIP3    H117127   3.313   6.071   5.782  0.8452 -0.0405 -1.2089
 5721TIP3    H217128   3.215   6.048   5.669 -0.8417 -0.0107  0.2089
 5722TIP3   OH217129   2.415   3.899   5.525  0.3397  0.1278 -0.3063
 5722TIP3    H117130   2.465   3.840   5.581  0.3106 -0.1281 -0.5452
 5722TIP3    H217131   2.410   3.981   5.574  0.4335 -0.0497  0.0028
 5723TIP3   OH217132   0.384   2.831   3.800  0.3452  0.0294 -0.9068
 5723TIP3    H117133   0.346   2.890   3.735  1.6172  1.3277 -0.5178
 5723TIP3    H217134   0.446   2.777   3.750 -1.9969 -2.2788 -1.5960
 5724TIP3   OH217135   6.561   6.781   3.625 -0.1719 -0.0546  0.8842
 5724TIP3    H117136   6.556   6.735   3.541 -3.2496 -1.2966  1.5977
 5724TIP3    H217137   6.517   6.865   3.609  2.7724  1.5061  0.3535
 5725TIP3   OH217138   6.077   4.571   3.278  0.0774 -0.2054  0.2059
 5725TIP3    H117139   6.062   4.591   3.186 -0.7286 -1.4127  0.0573
 5725TIP3    H217140   6.169   4.547   3.282  0.2284  0.2857 -0.2026
 5726TIP3   OH217141   6.936   6.637   1.218 -0.6831  0.1009 -0.5005
 5726TIP3    H117142   6.920   6.642   1.312 -0.3783 -3.0547 -0.1798
 5726TIP3    H217143   7.015   6.582   1.211  0.8008  2.3029 -2.5605
 5727TIP3   OH217144   1.586   4.468   2.532 -0.0873 -0.1915  0.3644
 5727TIP3    H117145   1.638   4.402   2.579 -0.6963  0.0599  1.4167
 5727TIP3    H217146   1.613   4.551   2.570  0.6268  0.1932 -0.9120
 5728TIP3   OH217147   5.547   2.391   4.167  0.2875  0.5373 -0.2243
 5728TIP3    H117148   5.581   2.338   4.240  2.1960  1.7280 -0.1888
 5728TIP3    H217149   5.486   2.451   4.209 -1.8304 -1.4444 -0.2462
 5729TIP3   OH217150   4.900   5.185   2.530  0.4833 -0.0305 -0.2985
 5729TIP3    H117151   4.885   5.099   2.570  0.0041 -0.7171 -1.8572
 5729TIP3    H217152   4.988   5.210   2.558  1.0999 -1.5871 -0.7479
 5730TIP3   OH217153   3.484   2.358   1.583 -0.0439  0.2532 -0.1610
 5730TIP3    H117154   3.566   2.320   1.614 -0.3414 -0.3741 -0.1163
 5730TIP3    H217155   3.478   2.442   1.627  0.0447 -0.1777  0.6947
 5731TIP3   OH217156   1.057   2.815   1.639 -0.3357 -0.8677 -0.7988
 5731TIP3    H117157   1.056   2.720   1.655 -0.5357 -0.3888  2.8852
 5731TIP3    H217158   1.002   2.851   1.708 -0.5120  1.9774 -2.2864
 5732TIP3   OH217159   1.390   6.566   2.396  0.1805  0.4228  0.5919
 5732TIP3    H117160   1.481   6.548   2.419  0.0380  0.1388  0.9289
 5732TIP3    H217161   1.374   6.512   2.319  1.1755  2.6319 -1.3011
 5733TIP3   OH217162   0.637   4.507   1.996 -0.0061 -0.4029 -0.1019
 5733TIP3    H117163   0.669   4.586   1.952 -0.9503  0.4115  0.6133
 5733TIP3    H217164   0.643   4.439   1.929  2.4399 -0.1549 -0.2356
 5734TIP3   OH217165   3.157   0.651   5.072  0.7648 -0.7293 -0.3314
 5734TIP3    H117166   3.062   0.649   5.085  0.6820 -1.6202 -0.9945
 5734TIP3    H217167   3.168   0.668   4.978  1.2841  0.3310 -0.0954
 5735TIP3   OH217168   1.497   5.063   5.863 -0.1303  0.0707 -0.1019
 5735TIP3    H117169   1.532   4.984   5.821  0.4599  0.3556 -0.1552
 5735TIP3    H217170   1.489   5.126   5.791  0.4004  0.3941  0.1173
 5736TIP3   OH217171   3.934   6.708   3.258  0.0906  0.5327  0.5922
 5736TIP3    H117172   3.925   6.658   3.177  1.2294  0.4562  0.4945
 5736TIP3    H217173   4.001   6.774   3.238 -0.9590  1.7430  0.8971
 5737TIP3   OH217174   5.793   2.669   4.167 -0.2379  0.5894 -0.2848
 5737TIP3    H117175   5.875   2.619   4.164 -0.5170  0.1326 -0.3447
 5737TIP3    H217176   5.748   2.637   4.245 -0.9385 -0.0852 -0.9557
 5738TIP3   OH217177   0.269   4.507   5.397 -0.2157 -0.5973  0.2608
 5738TIP3    H117178   0.357   4.473   5.408 -0.4123 -1.1316  0.2128
 5738TIP3    H217179   0.239   4.527   5.486  1.1612  2.7838  0.1254
 5739TIP3   OH217180   4.113   6.636   0.060 -0.1593  0.0745 -0.0230
 5739TIP3    H117181   4.045   6.704   0.062 -0.1702  0.1838 -1.9199
 5739TIP3    H217182   4.171   6.658   0.132 -0.3518  1.9378 -0.3819
 5740TIP3   OH217183   3.821   2.193   3.987  0.1265  0.0237  0.1224
 5740TIP3    H117184   3.760   2.144   4.042 -0.7323  1.3045  0.3616
 5740TIP3    H217185   3.905   2.188   4.033  0.3218 -1.9975 -0.3506
 5741TIP3   OH217186   6.254   0.521   2.167 -0.3322 -0.0632 -0.4296
 5741TIP3    H117187   6.244   0.610   2.133  2.0204  0.8602  1.0917
 5741TIP3    H217188   6.335   0.523   2.216 -1.0420 -2.6604  1.0120
 5742TIP3   OH217189   1.429   2.931   3.064 -0.3723 -0.2745 -0.3836
 5742TIP3    H117190   1.442   2.958   3.154 -0.4771  2.1118 -1.0090
 5742TIP3    H217191   1.347   2.881   3.065 -1.2302  1.0784  0.6281
 5743TIP3   OH217192   1.056   3.584   2.012  0.1711  0.3062 -0.4145
 5743TIP3    H117193   1.087   3.667   1.976  1.4883  0.0655  0.0881
 5743TIP3    H217194   1.126   3.556   2.071  0.2864 -1.7081 -1.4035
 5744TIP3   OH217195   0.777   5.805   0.630  0.1469  0.1002 -0.3269
 5744TIP3    H117196   0.829   5.737   0.671 -1.5741  0.1529  2.1449
 5744TIP3    H217197   0.763   5.774   0.540  3.9479 -0.0807 -1.0125
 5745TIP3   OH217198   6.714   0.804   1.670  0.0708  0.3205 -0.1368
 5745TIP3    H117199   6.759   0.814   1.586  1.0251 -0.1803  0.3021
 5745TIP3    H217200   6.629   0.848   1.657  0.0449 -0.0794 -1.4726
 5746TIP3   OH217201   1.770   2.953   0.532 -0.4236 -0.1070  0.6623
 5746TIP3    H117202   1.733   2.936   0.619  0.0496 -1.7130  0.5804
 5746TIP3    H217203   1.793   2.866   0.499 -0.2277  0.5221 -0.9118
 5747TIP3   OH217204   2.713   5.848   0.329 -0.2088  0.4410 -0.1248
 5747TIP3    H117205   2.669   5.764   0.316  2.2228 -0.8252 -0.7995
 5747TIP3    H217206   2.659   5.911   0.281 -2.2340 -0.6315  0.6221
 5748TIP3   OH217207   5.843   6.794   0.367 -0.1818  0.3454 -0.0428
 5748TIP3    H117208   5.825   6.818   0.276 -0.8454 -0.1475 -0.0495
 5748TIP3    H217209   5.938   6.780   0.369 -0.3720 -1.3902 -1.0986
 5749TIP3   OH217210   1.118   0.562   3.317  0.4527  0.3219  0.1688
 5749TIP3    H117211   1.205   0.526   3.298  0.7582  1.0059  0.2440
 5749TIP3    H217212   1.077   0.497   3.373  0.4670 -0.5762 -0.8257
 5750TIP3   OH217213   4.819   1.054   0.165  0.0722  0.7684  0.1088
 5750TIP3    H117214   4.895   1.049   0.222  1.0976 -2.8247 -1.2991
 5750TIP3    H217215   4.755   0.996   0.205 -1.4727  2.6673  0.5267
 5751TIP3   OH217216   7.078   4.810   4.408 -0.0456 -0.3410  0.3675
 5751TIP3    H117217   7.065   4.780   4.498 -1.5648 -0.0892  0.2607
 5751TIP3    H217218   7.024   4.889   4.401 -0.0237 -0.4108 -0.7908
 5752TIP3   OH217219   4.494   1.927   0.141 -0.0283 -0.2471  0.6044
 5752TIP3    H117220   4.528   2.007   0.101 -1.3104 -1.2755 -2.9758
 5752TIP3    H217221   4.560   1.902   0.205  2.8427  1.1235 -1.5996
 5753TIP3   OH217222   4.737   1.042   5.734  0.0023 -0.1853 -0.1264
 5753TIP3    H117223   4.658   0.989   5.737 -0.0708 -0.1286 -0.8334
 5753TIP3    H217224   4.724   1.110   5.800  0.3761 -1.4102  1.2582
 5754TIP3   OH217225   5.004   5.540   1.583 -0.3151  0.1679 -0.3957
 5754TIP3    H117226   4.976   5.579   1.500  0.0312  1.2839 -0.0010
 5754TIP3    H217227   4.936   5.564   1.646  0.8991  1.9603  0.3192
 5755TIP3   OH217228   0.145   3.242   0.519 -0.8109 -0.5502 -0.1946
 5755TIP3    H117229   0.150   3.160   0.568  0.2163  0.3418  1.2603
 5755TIP3    H217230   0.229   3.248   0.473 -0.1561  0.4879  1.0863
 5756TIP3   OH217231   6.404   0.602   4.852 -0.1518 -0.0217  0.4218
 5756TIP3    H117232   6.400   0.681   4.906 -2.7951  0.5694 -0.5377
 5756TIP3    H217233   6.314   0.570   4.848  0.3857 -1.4896 -1.5417
 5757TIP3   OH217234   5.557   6.500   4.754 -0.1370  0.5877 -0.4670
 5757TIP3    H117235   5.484   6.467   4.807  0.1806 -1.3487 -1.1566
 5757TIP3    H217236   5.597   6.567   4.808 -1.1780  0.2408  0.7970
 5758TIP3   OH217237   0.861   6.440   1.979  0.2700 -0.1739  0.8355
 5758TIP3    H117238   0.926   6.394   2.032  1.3273 -0.8937 -0.9801
 5758TIP3    H217239   0.913   6.484   1.912 -1.1375 -2.2504 -1.8005
 5759TIP3   OH217240   1.687   5.716   3.726 -0.3781 -0.2471  0.1124
 5759TIP3    H117241   1.657   5.790   3.780  1.0624 -1.7966  3.2888
 5759TIP3    H217242   1.763   5.751   3.678 -1.2273  0.9695 -0.4136
 5760TIP3   OH217243   4.980   3.663   4.368  0.0692 -0.3960 -0.4685
 5760TIP3    H117244   5.007   3.619   4.288  2.2256  2.5132 -1.5019
 5760TIP3    H217245   4.930   3.739   4.339 -2.1825 -1.1568  1.1655
 5761TIP3   OH217246   0.625   6.395   1.399 -0.4548  0.3873 -0.3081
 5761TIP3    H117247   0.666   6.318   1.359 -1.2381 -0.3053  0.1936
 5761TIP3    H217248   0.610   6.454   1.325  0.6648  0.3047 -0.6219
 5762TIP3   OH217249   3.081   6.430   1.325 -0.3418  0.1209 -0.1720
 5762TIP3    H117250   3.013   6.492   1.301  0.3664  1.3590  0.8668
 5762TIP3    H217251   3.085   6.368   1.252 -2.2140  0.3004 -0.4616
 5763TIP3   OH217252   1.470   3.840   3.627  0.2881  0.1050  0.7232
 5763TIP3    H117253   1.541   3.889   3.586 -0.4886 -0.2101 -1.0916
 5763TIP3    H217254   1.394   3.858   3.572 -1.4523  1.5704  3.3899
 5764TIP3   OH217255   1.653   4.565   4.978  0.0518  0.2960 -0.6777
 5764TIP3    H117256   1.706   4.587   5.054 -0.8294  1.2356 -0.3074
 5764TIP3    H217257   1.714   4.564   4.904  0.7011  0.5988 -0.1509
 5765TIP3   OH217258   5.182   6.242   3.508  0.0833 -0.0139  0.3054
 5765TIP3    H117259   5.206   6.149   3.510 -0.1806 -0.0870  0.1546
 5765TIP3    H217260   5.247   6.285   3.563 -0.5717 -0.4612  1.4515
 5766TIP3   OH217261   2.633   4.279   2.215 -0.1949 -0.2645  0.0025
 5766TIP3    H117262   2.656   4.189   2.194 -0.2277 -0.1906 -0.3602
 5766TIP3    H217263   2.537   4.281   2.209 -0.1201  0.1077 -1.3033
 5767TIP3   OH217264   6.660   3.853   3.706 -0.0853 -0.2475  0.1078
 5767TIP3    H117265   6.722   3.830   3.637  2.3122 -1.7860  2.5775
 5767TIP3    H217266   6.671   3.948   3.718  0.5964 -0.2359 -0.5617
 5768TIP3   OH217267   1.605   2.425   5.047  0.4960 -0.1779 -0.0202
 5768TIP3    H117268   1.655   2.374   4.983  2.4855  0.8463  0.6504
 5768TIP3    H217269   1.624   2.383   5.131 -0.4945 -0.2905  0.1667
 5769TIP3   OH217270   6.737   1.375   3.989 -0.6110  0.2545 -0.4220
 5769TIP3    H117271   6.806   1.330   3.941  0.6653  1.6704 -0.0033
 5769TIP3    H217272   6.784   1.441   4.041 -2.2418  0.9136  0.2648
 5770TIP3   OH217273   0.832   4.990   2.022 -0.1078  0.1302 -0.1323
 5770TIP3    H117274   0.796   4.988   1.934 -1.9361  0.3990  0.5694
 5770TIP3    H217275   0.857   4.899   2.041  1.0245  0.1947 -1.1672
 5771TIP3   OH217276   5.882   6.196   2.102 -0.2815 -0.2642 -0.2783
 5771TIP3    H117277   5.860   6.112   2.064  1.0337 -0.9394  0.3752
 5771TIP3    H217278   5.802   6.248   2.095 -1.0147 -1.4505 -0.9746
 5772TIP3   OH217279   5.467   1.767   1.920  0.2588 -0.0974 -0.0627
 5772TIP3    H117280   5.507   1.774   2.006  0.2410  0.9552 -0.1329
 5772TIP3    H217281   5.470   1.673   1.900  4.0659 -0.0205 -0.6819
 5773TIP3   OH217282   1.445   3.943   2.315  0.0094 -0.1774 -0.5742
 5773TIP3    H117283   1.451   3.889   2.394 -0.1723 -1.5858 -1.5008
 5773TIP3    H217284   1.514   4.009   2.326  0.3403 -0.6803  0.5037
 5774TIP3   OH217285   6.378   5.629   4.083  0.5110  0.3027 -0.5218
 5774TIP3    H117286   6.386   5.539   4.052  1.1969 -0.1481  0.8564
 5774TIP3    H217287   6.464   5.668   4.068 -0.3416  1.3932 -2.9468
 5775TIP3   OH217288   6.081   3.864   5.621  0.1856  0.4025 -0.2185
 5775TIP3    H117289   6.145   3.894   5.556  0.0789  1.4350  0.1436
 5775TIP3    H217290   6.054   3.943   5.667 -1.8979  0.1227 -0.8315
 5776TIP3   OH217291   1.748   6.756   0.769 -0.7346  0.3077 -0.1079
 5776TIP3    H117292   1.740   6.843   0.729 -0.2920  0.2371 -0.3603
 5776TIP3    H217293   1.842   6.744   0.782 -0.7491 -0.3128 -0.4952
 5777TIP3   OH217294   0.612   4.321   1.259  0.3130 -0.2626 -0.6129
 5777TIP3    H117295   0.615   4.369   1.177  0.4380 -1.4837 -1.3564
 5777TIP3    H217296   0.656   4.237   1.240  1.5303 -0.0751  1.0517
 5778TIP3   OH217297   4.517   5.878   3.471  0.5948  0.7450  0.6722
 5778TIP3    H117298   4.431   5.880   3.430 -0.4598 -0.0667  2.7094
 5778TIP3    H217299   4.520   5.957   3.525  1.4208  1.1192  0.0958
 5779TIP3   OH217300   4.109   6.578   2.432 -0.2754  0.5829 -1.5354
 5779TIP3    H117301   4.079   6.577   2.341 -2.4807  1.3424 -0.8814
 5779TIP3    H217302   4.081   6.663   2.466  0.9933  0.5378 -0.2661
 5780TIP3   OH217303   6.014   6.475   4.193  0.1697  0.6522 -0.7931
 5780TIP3    H117304   6.073   6.469   4.268  0.8211  2.1841 -1.1464
 5780TIP3    H217305   5.926   6.464   4.231  0.6371 -2.1066 -0.3295
 5781TIP3   OH217306   6.217   2.980   3.536  1.1272 -0.1043  0.2120
 5781TIP3    H117307   6.265   2.909   3.494  1.5903  1.2211 -1.6452
 5781TIP3    H217308   6.265   3.059   3.510 -0.2049  0.9938  0.9968
 5782TIP3   OH217309   4.251   5.877   0.795 -0.7427 -0.0754  0.3209
 5782TIP3    H117310   4.285   5.934   0.725  1.2409 -1.1931  0.2959
 5782TIP3    H217311   4.170   5.840   0.759 -0.3513  0.2460 -0.9347
 5783TIP3   OH217312   1.419   5.896   4.925 -0.6363  0.2246  0.2509
 5783TIP3    H117313   1.433   5.948   5.005 -1.5036  3.6494 -1.6239
 5783TIP3    H217314   1.329   5.864   4.933 -1.0767  1.4189  0.2315
 5784TIP3   OH217315   6.084   3.433   0.779 -0.5610 -0.4234 -0.0703
 5784TIP3    H117316   6.095   3.341   0.802  2.7603 -0.1028  0.0323
 5784TIP3    H217317   6.169   3.460   0.747 -1.3212  2.7412  0.2653
 5785TIP3   OH217318   2.004   0.396   5.604 -0.3433 -0.8009  0.0190
 5785TIP3    H117319   1.910   0.400   5.586 -0.0088 -0.0646 -1.8283
 5785TIP3    H217320   2.038   0.481   5.574  1.2298 -1.9370 -1.6473
 5786TIP3   OH217321   3.940   0.173   0.798 -0.5507 -0.2352 -0.4548
 5786TIP3    H117322   3.944   0.204   0.707 -1.8692  0.2341 -0.3805
 5786TIP3    H217323   3.995   0.235   0.847 -1.3738  0.7043 -0.6629
 5787TIP3   OH217324   1.809   4.746   0.103 -0.4353 -0.5692 -0.0590
 5787TIP3    H117325   1.892   4.768   0.145 -1.2330 -1.0568  1.8886
 5787TIP3    H217326   1.834   4.695   0.026  1.0919 -0.4168  0.3010
 5788TIP3   OH217327   6.454   3.220   5.278  0.1119  0.1136  0.2521
 5788TIP3    H117328   6.436   3.160   5.206 -2.5051 -1.4031  2.0048
 5788TIP3    H217329   6.392   3.292   5.265  1.3817  1.1371 -0.3438
 5789TIP3   OH217330   0.061   6.047   1.404  0.4430  0.0745  0.3667
 5789TIP3    H117331  -0.030   6.059   1.380  0.0205 -1.4382  1.0854
 5789TIP3    H217332   0.079   6.116   1.467 -0.4376 -0.0581  0.7778
 5790TIP3   OH217333   0.791   0.491   5.020 -1.0570  0.6078 -0.8110
 5790TIP3    H117334   0.729   0.460   5.087 -0.0249 -0.7900 -0.4382
 5790TIP3    H217335   0.865   0.431   5.027 -1.1428  0.0321 -3.6159
 5791TIP3   OH217336   7.076   1.211   3.057 -0.5565  0.4934  0.1987
 5791TIP3    H117337   7.010   1.164   3.108 -1.2379  0.9924 -0.2039
 5791TIP3    H217338   7.025   1.268   2.999  0.2281  0.7258 -0.2715
 5792TIP3   OH217339   0.389   4.751   2.387 -0.2763 -0.2434 -0.0101
 5792TIP3    H117340   0.295   4.750   2.406 -0.2752  0.1352  0.0350
 5792TIP3    H217341   0.398   4.697   2.309 -0.7881  1.1744 -1.1092
 5793TIP3   OH217342   6.777   1.903   4.118  0.2832 -0.2092  0.2328
 5793TIP3    H117343   6.720   1.907   4.041 -0.6319 -0.1014  0.9071
 5793TIP3    H217344   6.753   1.979   4.170 -0.4889 -1.3232  1.5694
 5794TIP3   OH217345   0.131   1.176   0.285  0.3806  0.7199 -0.3534
 5794TIP3    H117346   0.194   1.239   0.319 -0.1628  1.5184 -0.8086
 5794TIP3    H217347   0.129   1.106   0.351 -0.6461  2.2233  1.2860
 5795TIP3   OH217348   2.640   1.405   1.073  0.7708 -0.2938 -0.2059
 5795TIP3    H117349   2.583   1.424   1.147 -2.4284 -0.7627 -2.3392
 5795TIP3    H217350   2.580   1.392   0.999  3.7011 -0.6048 -2.7440
 5796TIP3   OH217351   7.031   0.492   2.422  0.4461  0.0157  0.2526
 5796TIP3    H117352   6.981   0.524   2.346  2.1124  0.6368 -0.6336
 5796TIP3    H217353   6.979   0.419   2.455 -1.7494  1.4722  0.2370
 5797TIP3   OH217354   0.860   6.056   1.476  0.5959  0.0046 -0.0604
 5797TIP3    H117355   0.937   6.081   1.424  1.7286 -0.4125  1.3534
 5797TIP3    H217356   0.849   5.963   1.458  0.5441  0.0164 -0.0909
 5798TIP3   OH217357   2.647   5.793   3.946  0.4150 -0.0228  0.3271
 5798TIP3    H117358   2.614   5.709   3.978 -2.4445  0.2057 -1.6769
 5798TIP3    H217359   2.644   5.786   3.851  3.1045  1.3118  0.0582
 5799TIP3   OH217360   4.891   2.259   4.204  0.4046 -0.0321 -0.5415
 5799TIP3    H117361   4.848   2.174   4.193  1.0986 -0.6099  0.9137
 5799TIP3    H217362   4.829   2.322   4.169 -1.1505 -0.9426  0.4532
 5800TIP3   OH217363   6.907   6.499   2.027  0.3429  0.7304 -0.0315
 5800TIP3    H117364   6.866   6.574   2.069  0.2233 -0.0088  1.1973
 5800TIP3    H217365   7.001   6.509   2.044  0.5221  1.4937 -1.3461
 5801TIP3   OH217366   6.337   4.215   5.819  0.0621 -0.6220 -0.1633
 5801TIP3    H117367   6.373   4.240   5.904 -0.9058 -1.1620  0.4318
 5801TIP3    H217368   6.413   4.201   5.763  0.6910  1.5039  0.0761
 5802TIP3   OH217369   2.612   2.674   0.315  0.2133  0.1441 -0.2989
 5802TIP3    H117370   2.658   2.597   0.281 -0.8903 -1.7342  2.1012
 5802TIP3    H217371   2.521   2.660   0.290  0.2385  1.6272 -1.3358
 5803TIP3   OH217372   6.952   1.480   0.299  0.1709 -0.0459 -0.4577
 5803TIP3    H117373   6.938   1.553   0.360 -0.3262 -0.4083 -0.1300
 5803TIP3    H217374   6.900   1.503   0.222  0.6256  0.3081 -0.6644
 5804TIP3   OH217375   3.676   0.654   2.026 -0.0232  0.1178 -0.2147
 5804TIP3    H117376   3.687   0.622   1.936  0.0210  1.1693 -0.5989
 5804TIP3    H217377   3.744   0.609   2.076 -1.4729 -2.2263 -0.2063
 5805TIP3   OH217378   2.506   3.085   0.931  0.2628  0.7818  0.2596
 5805TIP3    H117379   2.512   3.135   0.850 -1.4524  2.4267  1.0588
 5805TIP3    H217380   2.449   3.011   0.910  0.4833  0.7508 -0.2266
 5806TIP3   OH217381   0.622   5.817   3.029  0.2594 -0.2139 -1.0439
 5806TIP3    H117382   0.678   5.837   3.104 -1.6425  1.4980  0.0192
 5806TIP3    H217383   0.551   5.765   3.065  0.0246 -0.5508 -1.9558
 5807TIP3   OH217384   2.063   1.990   3.865  0.6758 -0.4238  0.0652
 5807TIP3    H117385   1.973   1.984   3.833  1.1603  1.1819 -1.8210
 5807TIP3    H217386   2.057   1.973   3.959 -1.8046  1.1261  0.2654
 5808TIP3   OH217387   2.578   3.189   1.966 -0.1424  0.2713 -0.0770
 5808TIP3    H117388   2.542   3.144   1.890 -1.5227  0.0306  0.6768
 5808TIP3    H217389   2.550   3.280   1.955  1.1281  0.5989 -0.7073
 5809TIP3   OH217390   3.103   6.144   1.562 -0.1080  0.5447 -0.0251
 5809TIP3    H117391   3.076   6.106   1.646  1.3950  0.0331  0.2594
 5809TIP3    H217392   3.121   6.236   1.582  2.2894 -0.0298  0.7511
 5810TIP3   OH217393   5.183   6.503   2.473  0.8991  0.2039 -0.3101
 5810TIP3    H117394   5.095   6.538   2.485  1.5650  1.4097  1.5300
 5810TIP3    H217395   5.227   6.567   2.416  1.0343  0.4514  0.0660
 5811TIP3   OH217396   4.656   3.153   4.073 -0.5861 -0.4936 -0.2044
 5811TIP3    H117397   4.748   3.140   4.048 -0.8356 -2.7046 -0.1569
 5811TIP3    H217398   4.618   3.065   4.070 -3.1210  0.5460 -1.7441
 5812TIP3   OH217399   0.831   1.526   3.234 -0.3590  0.4341  0.0634
 5812TIP3    H117400   0.796   1.561   3.316 -0.7020  3.4911 -1.2464
 5812TIP3    H217401   0.760   1.471   3.200 -0.8377  0.4041  1.0450
 5813TIP3   OH217402   4.712   4.304   0.396 -0.3566  0.0199 -0.8610
 5813TIP3    H117403   4.687   4.328   0.486  1.4233  1.9176 -0.7961
 5813TIP3    H217404   4.661   4.364   0.341  0.4875  0.6654 -0.9570
 5814TIP3   OH217405   1.636   3.375   0.179 -0.1472  0.6876  0.6566
 5814TIP3    H117406   1.607   3.399   0.267 -0.0245 -1.6659  1.4180
 5814TIP3    H217407   1.709   3.316   0.194 -0.6420 -0.3981 -0.9913
 5815TIP3   OH217408   1.446   0.157   3.596 -0.1660 -0.3579  0.2095
 5815TIP3    H117409   1.430   0.160   3.690  1.4336  0.1283  0.4970
 5815TIP3    H217410   1.480   0.244   3.574 -0.7538 -0.3835 -0.8730
 5816TIP3   OH217411   2.299   3.365   1.390 -0.1987  0.4899 -0.4843
 5816TIP3    H117412   2.345   3.400   1.313 -1.6305  0.7634 -1.2513
 5816TIP3    H217413   2.326   3.274   1.395 -0.1281  0.4518 -1.3603
 5817TIP3   OH217414   0.023   4.835   0.565 -0.1642  0.2473 -0.1852
 5817TIP3    H117415   0.063   4.762   0.517  0.6369 -0.7388  1.8386
 5817TIP3    H217416   0.076   4.912   0.540  2.7505 -0.8947  1.8725
 5818TIP3   OH217417   3.125   0.626   0.977  0.2277  0.5162  0.0271
 5818TIP3    H117418   3.050   0.656   1.028 -0.7161 -0.2103 -0.8713
 5818TIP3    H217419   3.165   0.706   0.943 -0.7494  0.8902 -0.2867
 5819TIP3   OH217420   2.895   4.479   2.199 -0.1188 -0.2795  0.4938
 5819TIP3    H117421   2.899   4.551   2.262 -1.0404  0.7552 -0.5636
 5819TIP3    H217422   2.840   4.513   2.128  2.4532 -0.5870 -1.8399
 5820TIP3   OH217423   4.338   1.012   1.703 -0.0838  0.7046 -0.3374
 5820TIP3    H117424   4.415   1.069   1.699  0.8342 -0.0016  3.4553
 5820TIP3    H217425   4.266   1.070   1.725 -0.1494  1.0132 -1.3250
 5821TIP3   OH217426   4.232   6.721   4.040 -0.3109 -0.5754 -0.0809
 5821TIP3    H117427   4.316   6.736   3.997  0.0412 -3.1803 -0.4707
 5821TIP3    H217428   4.222   6.626   4.041 -3.6252 -0.3658 -0.6975
 5822TIP3   OH217429   1.278   0.642   3.066  0.3927  0.3847  0.0849
 5822TIP3    H117430   1.331   0.579   3.116  0.3559  0.3883  0.1285
 5822TIP3    H217431   1.216   0.678   3.130  1.4251  1.6170  0.4220
 5823TIP3   OH217432   1.158   2.246   0.382 -0.5552  0.5263  0.3817
 5823TIP3    H117433   1.066   2.268   0.396 -0.6044  0.8584 -0.4053
 5823TIP3    H217434   1.160   2.205   0.296  0.1978  1.6487 -0.1539
 5824TIP3   OH217435   3.061   3.741   3.696 -0.8079 -0.2827 -0.0735
 5824TIP3    H117436   3.113   3.706   3.623 -1.3674 -1.4972  0.0909
 5824TIP3    H217437   3.103   3.824   3.718 -0.2767 -0.1866 -1.3920
 5825TIP3   OH217438   2.547   1.096   1.518 -0.4934  0.3894 -0.3801
 5825TIP3    H117439   2.536   1.110   1.612  0.8742 -0.1389 -0.1194
 5825TIP3    H217440   2.527   1.004   1.505 -1.1528  0.5728 -0.6966
 5826TIP3   OH217441   4.354   3.350   1.912 -0.2150 -0.5785  0.0125
 5826TIP3    H117442   4.311   3.390   1.987 -0.9306 -2.3454  0.5816
 5826TIP3    H217443   4.294   3.366   1.839  0.3985  0.9802 -0.1990
 5827TIP3   OH217444   2.363   4.870   2.045  0.1930 -0.0861  0.2490
 5827TIP3    H117445   2.340   4.939   1.984 -0.2512 -0.4319  0.0227
 5827TIP3    H217446   2.429   4.910   2.102  0.1579  0.4283 -0.0624
 5828TIP3   OH217447   1.777   5.934   4.622 -0.1105 -0.0448  0.5720
 5828TIP3    H117448   1.682   5.923   4.609 -0.0099  1.0592 -1.4595
 5828TIP3    H217449   1.816   5.875   4.557  0.5340  1.4656 -0.4652
 5829TIP3   OH217450   2.238   1.555   2.963 -0.7244 -0.0735  0.2373
 5829TIP3    H117451   2.316   1.565   3.017 -0.0232  1.4879 -0.9615
 5829TIP3    H217452   2.223   1.461   2.959  1.3654 -0.4517  0.1433
 5830TIP3   OH217453   2.494   1.944   2.559 -0.4706 -0.3504  0.3745
 5830TIP3    H117454   2.453   2.014   2.609  0.1525 -0.7793  1.5140
 5830TIP3    H217455   2.476   1.865   2.608  1.0892 -0.6431  0.5460
 5831TIP3   OH217456   5.523   2.341   3.831 -0.0894 -0.1993  0.1417
 5831TIP3    H117457   5.460   2.276   3.861  0.9392 -0.1619  2.6838
 5831TIP3    H217458   5.583   2.293   3.774 -0.4470 -1.0344  0.4588
 5832TIP3   OH217459   0.281   6.826   2.117 -0.4391 -0.0294 -0.5712
 5832TIP3    H117460   0.321   6.743   2.091  1.9112  1.4317 -1.9915
 5832TIP3    H217461   0.222   6.848   2.045 -0.4917 -0.1010 -0.5503
 5833TIP3   OH217462   6.829   4.956   3.166 -0.4845  0.4140  0.6908
 5833TIP3    H117463   6.800   5.021   3.103 -0.7417 -0.9251 -0.6139
 5833TIP3    H217464   6.922   4.974   3.179 -0.1626  0.0165 -0.9483
 5834TIP3   OH217465   0.131   4.204   1.658  0.1103 -0.3185  0.1832
 5834TIP3    H117466   0.098   4.247   1.579 -0.8428 -0.6849  0.3732
 5834TIP3    H217467   0.052   4.181   1.707  0.6939  0.0146  1.3035
 5835TIP3   OH217468   4.760   4.761   4.148  0.5982  0.1098 -0.2353
 5835TIP3    H117469   4.718   4.837   4.188 -0.1978 -0.2921 -0.3100
 5835TIP3    H217470   4.777   4.788   4.058  0.6635  0.3293 -0.1593
 5836TIP3   OH217471   5.468   3.116   5.574 -0.2027 -0.8838  0.3562
 5836TIP3    H117472   5.376   3.114   5.550 -0.6282  0.1341  1.7399
 5836TIP3    H217473   5.515   3.118   5.491 -1.4484 -0.7685 -0.3660
 5837TIP3   OH217474   3.046   3.360   0.769 -0.4236  0.5544 -0.2172
 5837TIP3    H117475   3.112   3.332   0.705 -0.9483  0.4742 -0.7294
 5837TIP3    H217476   2.982   3.290   0.769 -0.7514  0.8531 -0.0680
 5838TIP3   OH217477   0.279   4.260   5.778 -0.1082 -0.1708  0.3259
 5838TIP3    H117478   0.309   4.349   5.759 -0.9246  0.1918  0.6982
 5838TIP3    H217479   0.281   4.253   5.873 -1.2979 -0.0901  0.3711
 5839TIP3   OH217480   1.166   4.948   5.776 -0.3758  0.2966 -0.0540
 5839TIP3    H117481   1.220   4.884   5.729 -2.9625 -0.5670 -2.1399
 5839TIP3    H217482   1.135   4.901   5.853 -0.8377 -0.4104 -0.6470
 5840TIP3   OH217483   3.705   2.412   4.258 -0.4852 -0.2570 -0.4947
 5840TIP3    H117484   3.644   2.345   4.225 -0.7171  0.7683 -2.2936
 5840TIP3    H217485   3.791   2.371   4.252 -0.7502 -0.8431 -0.3473
 5841TIP3   OH217486   3.046   0.797   2.971 -0.1254 -0.5340  0.1388
 5841TIP3    H117487   3.122   0.802   3.029 -0.7618 -3.4893  1.4325
 5841TIP3    H217488   3.084   0.801   2.883  1.3786 -0.5835  0.7405
 5842TIP3   OH217489   6.194   6.617   0.254  0.1668 -0.0368 -0.0443
 5842TIP3    H117490   6.123   6.568   0.213  0.8412  1.2891 -3.1158
 5842TIP3    H217491   6.153   6.661   0.329 -2.0210 -0.1069 -1.1354
 5843TIP3   OH217492   0.662   3.964   2.626  0.2247  0.7334  0.3546
 5843TIP3    H117493   0.648   3.877   2.590  0.4054  1.6766 -2.2239
 5843TIP3    H217494   0.729   3.953   2.693 -0.5124 -1.2265  0.8251
 5844TIP3   OH217495   6.059   5.715   1.946  0.1875 -0.0905  0.0145
 5844TIP3    H117496   6.135   5.736   2.000  1.9457 -1.4364 -1.7971
 5844TIP3    H217497   6.092   5.716   1.857 -1.8728 -1.0212 -0.8216
 5845TIP3   OH217498   1.850   0.670   0.638  0.2372  0.0999  0.0739
 5845TIP3    H117499   1.915   0.625   0.692  0.5454 -0.6732 -0.9090
 5845TIP3    H217500   1.801   0.724   0.699  0.7390 -0.5641  1.0798
 5846TIP3   OH217501   0.135   2.513   3.155 -0.6452  0.0002  0.1655
 5846TIP3    H117502   0.174   2.559   3.082 -1.2513 -0.0715 -0.2159
 5846TIP3    H217503   0.133   2.577   3.227 -1.1210  0.4438 -0.2383
 5847TIP3   OH217504   5.242   1.499   2.728  0.2862  0.0008  0.7412
 5847TIP3    H117505   5.177   1.462   2.788 -1.2581  0.0943 -0.7923
 5847TIP3    H217506   5.302   1.427   2.711  0.2535 -0.2751  1.7064
 5848TIP3   OH217507   4.082   0.501   3.976  0.1427  0.2122  0.3545
 5848TIP3    H117508   4.063   0.414   4.009 -0.0162 -0.0234 -0.3291
 5848TIP3    H217509   4.108   0.552   4.053  1.9751 -0.8968  0.5192
 5849TIP3   OH217510   1.475   4.024   0.751  0.3233 -0.1310  0.0555
 5849TIP3    H117511   1.400   3.968   0.730  0.3124 -0.3016  0.5314
 5849TIP3    H217512   1.551   3.968   0.736  0.4188  0.3258 -1.3339
 5850TIP3   OH217513   6.586   4.661   4.949 -0.0256 -0.2042  0.4272
 5850TIP3    H117514   6.524   4.588   4.947 -0.8564  0.5151 -0.0603
 5850TIP3    H217515   6.671   4.620   4.928 -0.6126 -0.9064 -0.6648
 5851TIP3   OH217516   5.523   5.708   1.232 -0.4966  0.3468  0.5395
 5851TIP3    H117517   5.457   5.651   1.271 -0.0195 -2.0423 -1.8363
 5851TIP3    H217518   5.492   5.721   1.142  1.0922  1.1390  0.0785
 5852TIP3   OH217519   3.232   1.371   2.427  0.2458 -0.1464 -0.1541
 5852TIP3    H117520   3.261   1.462   2.416 -0.3089  0.4149  2.3595
 5852TIP3    H217521   3.140   1.372   2.403 -0.4051  0.5763  2.1432
 5853TIP3   OH217522   1.215   1.239   0.547  0.1268 -0.2098 -0.9278
 5853TIP3    H117523   1.266   1.296   0.606 -0.1263 -1.3784  0.4760
 5853TIP3    H217524   1.128   1.236   0.586 -0.2701 -0.4216 -1.8066
 5854TIP3   OH217525   6.645   0.433   1.148  0.2816  0.4966 -0.0222
 5854TIP3    H117526   6.642   0.480   1.231  0.8867 -0.5781  0.6255
 5854TIP3    H217527   6.738   0.416   1.133  0.2217  1.0658 -1.1536
 5855TIP3   OH217528   2.055   3.156   1.615  0.1730 -0.5464  0.0465
 5855TIP3    H117529   2.125   3.220   1.626 -0.0084 -0.3106 -0.1612
 5855TIP3    H217530   2.039   3.155   1.521 -0.0872 -0.6148  0.0918
 5856TIP3   OH217531   5.029   3.342   0.847 -0.2616 -0.1451  0.1404
 5856TIP3    H117532   4.982   3.424   0.837 -2.1362 -0.7314  2.9462
 5856TIP3    H217533   5.061   3.344   0.937  1.1142 -1.8062 -0.2543
 5857TIP3   OH217534   1.380   4.398   3.336  0.3489  0.0128  0.4205
 5857TIP3    H117535   1.375   4.380   3.242  2.5035  0.0677  0.2330
 5857TIP3    H217536   1.474   4.402   3.354 -0.0112 -0.2921  2.6440
 5858TIP3   OH217537   4.192   0.594   2.452 -0.1476 -0.0586 -0.1758
 5858TIP3    H117538   4.279   0.565   2.479 -0.2521 -0.1814  0.0278
 5858TIP3    H217539   4.165   0.657   2.519 -0.7942 -1.0497  0.5174
 5859TIP3   OH217540   2.254   0.578   1.562  0.1923  0.0846  0.7911
 5859TIP3    H117541   2.331   0.521   1.566 -1.1869 -1.8449  2.2810
 5859TIP3    H217542   2.189   0.526   1.515  0.0001  2.0380 -1.2356
 5860TIP3   OH217543   2.331   5.977   0.443  0.5430  0.5700  0.6252
 5860TIP3    H117544   2.240   5.966   0.415  0.9028  0.4209 -0.5566
 5860TIP3    H217545   2.332   6.061   0.489 -0.2853  0.3392  1.0741
 5861TIP3   OH217546   5.813   0.987   5.448 -0.5393  0.4596  0.0406
 5861TIP3    H117547   5.737   1.038   5.420 -0.3409  0.6546 -0.1509
 5861TIP3    H217548   5.798   0.900   5.412 -1.0396  0.2940  0.6445
 5862TIP3   OH217549   0.456   1.420   3.200 -0.4094  0.5950  0.6056
 5862TIP3    H117550   0.511   1.394   3.274  0.9234  1.3601 -0.0915
 5862TIP3    H217551   0.484   1.508   3.178 -0.1310  0.0667 -1.3803
 5863TIP3   OH217552   1.684   6.156   2.779  0.5066  0.0612 -0.2814
 5863TIP3    H117553   1.688   6.071   2.823 -2.5682 -0.4816 -0.8227
 5863TIP3    H217554   1.756   6.207   2.817  1.5240 -2.2860  1.1004
 5864TIP3   OH217555   5.161   4.889   3.395  0.1067 -0.6711  0.3289
 5864TIP3    H117556   5.151   4.867   3.303 -0.5460 -2.2933  0.7426
 5864TIP3    H217557   5.254   4.904   3.408  0.3557 -1.5837 -0.3680
 5865TIP3   OH217558   5.770   5.524   4.455  0.1106  0.0699  0.1590
 5865TIP3    H117559   5.703   5.458   4.437 -0.9484  0.9645  0.7016
 5865TIP3    H217560   5.834   5.478   4.509 -1.5534 -0.0560  2.1336
 5866TIP3   OH217561   4.467   3.482   5.791  0.5519  0.4361  0.1183
 5866TIP3    H117562   4.382   3.508   5.755  0.5867  1.0917  0.5030
 5866TIP3    H217563   4.447   3.452   5.880  1.0458  3.1964  1.2491
 5867TIP3   OH217564   6.624   2.575   5.230  0.2646  0.3536  0.4383
 5867TIP3    H117565   6.696   2.635   5.210 -1.3547  1.9421 -0.9215
 5867TIP3    H217566   6.645   2.495   5.182 -0.4736  1.9816 -2.8745
 5868TIP3   OH217567   3.067   3.111   1.492  0.2326 -0.0908 -0.5421
 5868TIP3    H117568   3.130   3.039   1.494  0.4065  0.0836  1.0857
 5868TIP3    H217569   2.982   3.070   1.511  0.4568  0.2220  1.2756
 5869TIP3   OH217570   2.674   5.773   3.672  0.1946 -0.0638 -0.0167
 5869TIP3    H117571   2.767   5.764   3.691  0.4691  0.1637 -1.1474
 5869TIP3    H217572   2.671   5.840   3.603 -0.7547 -0.5054 -0.4126
 5870TIP3   OH217573   5.197   1.168   3.242  0.5134 -0.3563 -0.1033
 5870TIP3    H117574   5.291   1.164   3.259  0.4916 -1.7425 -0.1288
 5870TIP3    H217575   5.158   1.124   3.318 -0.3475  2.4844  1.2487
 5871TIP3   OH217576   0.599   3.730   5.088  0.2333 -0.2295  0.1294
 5871TIP3    H117577   0.638   3.816   5.070  0.2000  0.1320  1.6310
 5871TIP3    H217578   0.591   3.727   5.183 -0.9150 -1.4022  0.0271
 5872TIP3   OH217579   5.945   4.908   5.843  0.5359  0.5917  0.2723
 5872TIP3    H117580   6.027   4.956   5.833 -0.0835  2.0327  1.7517
 5872TIP3    H217581   5.968   4.817   5.824  2.3361  1.0597  0.0773
 5873TIP3   OH217582   7.167   6.386   1.418 -0.6996  0.5546 -0.3586
 5873TIP3    H117583   7.160   6.482   1.420 -0.1260  0.6130 -0.9835
 5873TIP3    H217584   7.189   6.362   1.508 -2.7091  0.8466  0.2570
 5874TIP3   OH217585   5.022   6.072   2.199  0.6166  0.0914 -0.0690
 5874TIP3    H117586   5.041   6.139   2.134 -2.0118  1.5406  0.5198
 5874TIP3    H217587   5.034   5.989   2.152  2.8026  0.9124 -1.1364
 5875TIP3   OH217588   5.814   4.789   1.453 -0.4430 -0.6065 -0.5121
 5875TIP3    H117589   5.889   4.731   1.460 -0.1265 -0.2324 -0.7654
 5875TIP3    H217590   5.747   4.736   1.410 -0.1945 -0.8201 -0.6380
 5876TIP3   OH217591   6.829   1.120   4.835 -0.2464  0.0485  0.2359
 5876TIP3    H117592   6.772   1.197   4.829  2.2110  2.1822  1.9418
 5876TIP3    H217593   6.857   1.105   4.745 -1.9883  0.1188 -0.3567
 5877TIP3   OH217594   5.632   0.846   1.001  0.2226 -1.2543  0.2496
 5877TIP3    H117595   5.548   0.851   1.047 -1.4259 -0.4620 -2.6321
 5877TIP3    H217596   5.635   0.757   0.967  0.8440 -1.4434  0.7705
 5878TIP3   OH217597   3.355   3.023   2.973 -0.2368  0.5715  0.3746
 5878TIP3    H117598   3.390   2.957   3.034  0.3617  1.7993  1.4196
 5878TIP3    H217599   3.396   3.105   3.001 -1.0356  1.4148 -0.8296
 5879TIP3   OH217600   7.051   3.176   3.814  0.2396  0.1732 -0.5703
 5879TIP3    H117601   7.132   3.211   3.850  0.4614 -0.2142 -0.6863
 5879TIP3    H217602   7.056   3.195   3.720 -0.2841  1.0802 -0.4273
 5880TIP3   OH217603   5.500   0.831   5.872  0.6558  0.4050 -0.1685
 5880TIP3    H117604   5.434   0.894   5.844  0.9481  0.2132 -1.3080
 5880TIP3    H217605   5.449   0.759   5.910  0.2129  0.3266 -0.8950
 5881TIP3   OH217606   1.519   6.524   1.804  0.8140 -0.2439 -0.4378
 5881TIP3    H117607   1.592   6.508   1.864 -0.6677 -1.1300  1.2433
 5881TIP3    H217608   1.538   6.469   1.728  0.7879 -2.3934  0.9950
 5882TIP3   OH217609   2.581   2.788   3.738 -0.4540 -0.0880 -0.0553
 5882TIP3    H117610   2.492   2.809   3.708  0.0128 -0.3172 -1.6712
 5882TIP3    H217611   2.598   2.851   3.808 -0.8579  1.8421 -1.6054
 5883TIP3   OH217612   3.233   2.731   2.997  0.3364 -0.0696 -0.3590
 5883TIP3    H117613   3.231   2.761   3.087  1.0581 -0.4749 -0.1933
 5883TIP3    H217614   3.276   2.802   2.949  0.3423 -0.0344 -0.3015
 5884TIP3   OH217615   3.435   6.342   5.612  0.2007 -0.1564  0.3469
 5884TIP3    H117616   3.392   6.396   5.545 -0.5772  1.0493  1.7661
 5884TIP3    H217617   3.364   6.295   5.654  0.5584 -0.0792  1.0472
 5885TIP3   OH217618   6.515   3.114   0.068  0.8949 -0.1538 -0.1534
 5885TIP3    H117619   6.580   3.176   0.037 -0.0277 -0.0394 -2.0034
 5885TIP3    H217620   6.448   3.113  -0.000  0.0851 -1.9712  0.5927
 5886TIP3   OH217621   0.214   0.139   1.386  0.5471 -0.3214  0.2623
 5886TIP3    H117622   0.132   0.091   1.376 -0.5336  1.5711 -0.4446
 5886TIP3    H217623   0.218   0.196   1.310  1.5246  1.0550  1.3032
 5887TIP3   OH217624   1.051   6.514   5.228 -0.8453  0.2084 -0.0522
 5887TIP3    H117625   1.074   6.479   5.314 -1.2278  0.9436  0.3605
 5887TIP3    H217626   0.960   6.543   5.237 -0.1382  2.6062  0.0844
 5888TIP3   OH217627   3.548   6.089   1.956 -0.1642 -0.1509 -0.5389
 5888TIP3    H117628   3.526   6.115   1.867 -0.6268 -0.6440 -0.5747
 5888TIP3    H217629   3.466   6.100   2.005 -0.2270 -1.0133 -0.4391
 5889TIP3   OH217630   1.512   2.061   4.179 -0.6954  0.0094 -0.1091
 5889TIP3    H117631   1.601   2.026   4.172 -0.0373  1.0252  2.0527
 5889TIP3    H217632   1.461   2.011   4.116  1.0257 -1.9072 -0.0987
 5890TIP3   OH217633   4.087   2.165   4.951  0.2111 -1.1093 -0.2329
 5890TIP3    H117634   4.103   2.253   4.985  1.1220  0.3283 -3.8888
 5890TIP3    H217635   4.013   2.132   5.003  1.9881  0.3272  3.5579
 5891TIP3   OH217636   4.081   2.206   2.767 -0.4144  0.4786 -0.2286
 5891TIP3    H117637   4.008   2.265   2.747 -0.1995  1.1934  0.9389
 5891TIP3    H217638   4.111   2.235   2.854 -0.4465 -1.5155  0.4998
 5892TIP3   OH217639   6.504   2.130   3.050  0.0657 -0.0469 -0.6024
 5892TIP3    H117640   6.496   2.219   3.016  0.9867  0.9434  1.5526
 5892TIP3    H217641   6.414   2.103   3.068 -0.1411  1.0663  0.1158
 5893TIP3   OH217642   0.771   3.502   3.196 -0.6792 -0.7162 -0.0350
 5893TIP3    H117643   0.730   3.445   3.262 -1.1125  0.0021  0.3426
 5893TIP3    H217644   0.774   3.449   3.117 -1.9906 -0.9378  0.0379
 5894TIP3   OH217645   1.300   6.238   4.435 -0.2874  0.6312 -0.1205
 5894TIP3    H117646   1.257   6.237   4.520 -1.4666  1.8674 -0.6842
 5894TIP3    H217647   1.386   6.199   4.452 -1.0076 -0.4397  1.3389
 5895TIP3   OH217648   4.075   1.840   5.506  0.3301  0.5876 -0.3425
 5895TIP3    H117649   4.081   1.852   5.411 -0.7166  0.2312 -0.4659
 5895TIP3    H217650   3.989   1.801   5.520  1.6162 -2.2141  0.4885
 5896TIP3   OH217651   5.125   0.958   0.820 -0.9714 -0.0189  0.5174
 5896TIP3    H117652   5.122   1.012   0.899  0.0704 -0.7550  1.0883
 5896TIP3    H217653   5.208   0.980   0.779 -1.0925 -0.3022  0.1201
 5897TIP3   OH217654   4.656   6.354   3.740  0.5386 -0.5598  0.4205
 5897TIP3    H117655   4.667   6.415   3.812 -1.3157  0.7083 -0.2995
 5897TIP3    H217656   4.720   6.382   3.675  0.8097 -0.4161  0.7483
 5898TIP3   OH217657   5.355   0.332   1.153 -0.5873  0.4390  0.4609
 5898TIP3    H117658   5.422   0.287   1.204 -1.8404 -2.1281  0.0141
 5898TIP3    H217659   5.398   0.358   1.072 -0.2351 -1.8422 -0.1432
 5899TIP3   OH217660   1.938   1.711   2.223  0.0016  0.1950 -0.0028
 5899TIP3    H117661   1.897   1.797   2.233  2.1141  1.3275 -0.5265
 5899TIP3    H217662   1.875   1.660   2.173 -0.2003  2.3539 -2.1202
 5900TIP3   OH217663   2.524   1.691   2.661 -0.0293 -0.0765 -0.2169
 5900TIP3    H117664   2.555   1.637   2.734  0.2849 -0.1117 -0.3776
 5900TIP3    H217665   2.444   1.647   2.632  0.5034 -0.7604 -0.6828
 5901TIP3   OH217666   3.366   5.527   4.714 -0.7485 -0.0351 -0.3892
 5901TIP3    H117667   3.375   5.446   4.766 -0.9593  0.3777  0.3099
 5901TIP3    H217668   3.422   5.590   4.759  0.7904 -0.2442 -1.9336
 5902TIP3   OH217669   0.895   3.001   3.901 -0.5374 -0.2673  0.0625
 5902TIP3    H117670   0.876   3.057   3.976 -1.0041 -0.8953  0.4149
 5902TIP3    H217671   0.991   2.998   3.898 -0.5033 -0.8903  1.1385
 5903TIP3   OH217672   0.579   1.238   2.984 -0.3162 -0.3791 -0.1465
 5903TIP3    H117673   0.628   1.317   2.961  0.1436 -0.8666 -0.8751
 5903TIP3    H217674   0.532   1.261   3.064 -0.6250  0.8125 -0.6520
 5904TIP3   OH217675   5.256   2.537   2.337 -0.2122  0.3551  0.2232
 5904TIP3    H117676   5.334   2.546   2.392  0.5949 -0.4407 -0.7469
 5904TIP3    H217677   5.266   2.604   2.269  0.4215 -0.7352 -0.7910
 5905TIP3   OH217678   1.836   6.822   3.157 -1.0355  0.7981  0.0271
 5905TIP3    H117679   1.836   6.770   3.238  2.7663 -2.2104 -1.5626
 5905TIP3    H217680   1.765   6.784   3.105 -1.3890  0.5007  0.7102
 5906TIP3   OH217681   3.875   3.809   3.957  0.0178 -0.2813 -0.0155
 5906TIP3    H117682   3.867   3.737   3.895  0.3791 -0.4908  0.1792
 5906TIP3    H217683   3.968   3.832   3.957 -0.1227  0.3080 -0.2111
 5907TIP3   OH217684   6.042   3.730   0.059 -0.4603  0.1631 -0.0843
 5907TIP3    H117685   5.991   3.751   0.137 -1.0439  0.6209 -0.5820
 5907TIP3    H217686   6.035   3.635   0.050  1.0004 -0.1185  1.3581
 5908TIP3   OH217687   6.121   1.272   5.156  0.2127 -0.1403  0.5195
 5908TIP3    H117688   6.193   1.335   5.158 -0.4049  0.5665  1.0961
 5908TIP3    H217689   6.150   1.201   5.214  0.4284  0.1682  0.7926
 5909TIP3   OH217690   5.411   1.407   5.637  0.5339  0.2967 -0.1160
 5909TIP3    H117691   5.333   1.388   5.689  1.4575  0.9660  1.5994
 5909TIP3    H217692   5.415   1.502   5.634  0.3631  0.2867 -1.7150
 5910TIP3   OH217693   4.129   1.686   0.310 -0.1704  0.5481  0.6788
 5910TIP3    H117694   4.202   1.632   0.340 -0.1296  0.4787  0.4577
 5910TIP3    H217695   4.129   1.761   0.370 -1.4982 -0.6680  2.2776
 5911TIP3   OH217696   5.754   5.137   1.605 -0.0547 -0.1815 -0.0311
 5911TIP3    H117697   5.725   5.197   1.536 -0.3044 -0.2593  0.0071
 5911TIP3    H217698   5.798   5.193   1.669  1.6002 -0.2741 -1.0051
 5912TIP3   OH217699   4.102   4.562   4.275  0.8654 -0.9672  0.0375
 5912TIP3    H117700   4.027   4.507   4.251 -0.9312  1.3477  0.0758
 5912TIP3    H217701   4.090   4.582   4.367  2.2390 -1.5438  0.3735
 5913TIP3   OH217702   3.168   1.625   3.647  0.1664  0.3002 -0.0861
 5913TIP3    H117703   3.178   1.620   3.552  0.9679  1.2028 -0.0661
 5913TIP3    H217704   3.222   1.700   3.673  0.3597 -0.2348  1.1328
 5914TIP3   OH217705   5.501   0.692   2.857 -0.0696 -0.0169  0.1723
 5914TIP3    H117706   5.560   0.746   2.804  0.7998 -0.3514  0.7662
 5914TIP3    H217707   5.549   0.610   2.869  0.6668  0.7212  3.0855
 5915TIP3   OH217708   6.709   3.180   1.469  0.0826 -0.0585 -0.2777
 5915TIP3    H117709   6.730   3.126   1.546 -3.1960 -0.3641  0.5230
 5915TIP3    H217710   6.738   3.268   1.493 -0.5177 -0.2307  1.1758
 5916TIP3   OH217711   4.905   5.040   0.321 -0.2312  0.2139 -0.1548
 5916TIP3    H117712   4.999   5.058   0.322 -0.5284  1.9115  0.6922
 5916TIP3    H217713   4.881   5.033   0.414 -1.1569  1.1851 -0.2940
 5917TIP3   OH217714   0.718   4.374   3.078  0.5056  0.4650  0.2886
 5917TIP3    H117715   0.721   4.467   3.098  0.0825 -0.0030  2.7726
 5917TIP3    H217716   0.656   4.368   3.004  0.1421  2.0891  0.4237
 5918TIP3   OH217717   0.747   3.317   4.333 -0.5882 -0.2666 -0.3183
 5918TIP3    H117718   0.841   3.337   4.333 -0.3556 -1.2408  1.0214
 5918TIP3    H217719   0.734   3.260   4.257 -0.0784 -0.2799 -0.3963
 5919TIP3   OH217720   0.125   0.109   5.446 -0.2476  0.2799 -0.0323
 5919TIP3    H117721   0.030   0.105   5.446 -0.4333  2.4607 -1.6320
 5919TIP3    H217722   0.145   0.203   5.451  1.7352  0.0126 -1.4623
 5920TIP3   OH217723   0.691   1.396   0.494 -0.5165 -0.3109  0.1759
 5920TIP3    H117724   0.695   1.474   0.439  1.6122  0.3148  1.1223
 5920TIP3    H217725   0.668   1.429   0.581 -0.8734 -0.9258  0.3270
 5921TIP3   OH217726   4.331   2.848   2.450  0.1507  0.3919 -0.2810
 5921TIP3    H117727   4.335   2.760   2.487 -2.2919 -0.2194 -1.2628
 5921TIP3    H217728   4.419   2.883   2.461  1.4427 -2.4738 -0.5648
 5922TIP3   OH217729   3.465   0.753   3.408  0.7475 -0.0452 -0.7048
 5922TIP3    H117730   3.444   0.660   3.396 -0.1763  0.0444  0.0652
 5922TIP3    H217731   3.530   0.754   3.478 -0.0792 -0.0640  0.0875
 5923TIP3   OH217732   6.586   2.582   4.849  0.3402  0.0637 -0.0048
 5923TIP3    H117733   6.632   2.651   4.897 -0.5885  0.5586  0.1986
 5923TIP3    H217734   6.559   2.623   4.767  0.6358 -0.3493 -0.3136
 5924TIP3   OH217735   1.234   6.803   3.380  0.4683  0.2774  0.2514
 5924TIP3    H117736   1.322   6.837   3.367  1.4978 -1.0934  2.8383
 5924TIP3    H217737   1.234   6.718   3.336  0.2685  0.4794 -0.1441
 5925TIP3   OH217738   2.919   4.759   2.278  0.0891  0.1133 -0.3211
 5925TIP3    H117739   2.868   4.802   2.210  0.5483  0.0289 -0.7256
 5925TIP3    H217740   3.010   4.779   2.256  0.1853  2.0116  1.5595
 5926TIP3   OH217741   1.041   0.277   0.690 -0.9396  0.6523 -0.1892
 5926TIP3    H117742   1.085   0.357   0.662  2.1794 -1.2741 -1.2703
 5926TIP3    H217743   1.044   0.280   0.786  0.5044  1.1732 -0.2338
 5927TIP3   OH217744   6.966   2.222   0.429  0.3524  0.2805  0.1946
 5927TIP3    H117745   7.046   2.178   0.399  0.6170 -0.1906  1.5382
 5927TIP3    H217746   6.929   2.163   0.495 -0.9493  0.6432 -0.1686
 5928TIP3   OH217747   0.664   0.011   0.171 -0.4048  0.4014 -0.3430
 5928TIP3    H117748   0.586  -0.000   0.118  0.0828  0.1945 -1.0380
 5928TIP3    H217749   0.682   0.105   0.168 -1.7261  0.7599  1.4526
 5929TIP3   OH217750   5.294   6.356   3.751 -0.1886  0.5566 -0.0476
 5929TIP3    H117751   5.382   6.378   3.782 -0.5856  0.8517  0.9140
 5929TIP3    H217752   5.255   6.440   3.730 -0.6199  0.5339  0.6153
 5930TIP3   OH217753   6.082   3.020   0.856 -0.1307 -0.0945 -0.5180
 5930TIP3    H117754   6.067   2.926   0.843  0.1907 -0.2438  0.1471
 5930TIP3    H217755   6.166   3.025   0.901 -0.9803  0.4065  1.0964
 5931TIP3   OH217756   2.662   4.948   0.470 -0.1463 -0.2210  0.3158
 5931TIP3    H117757   2.746   4.981   0.437 -0.7002  2.2963  1.1976
 5931TIP3    H217758   2.684   4.912   0.556  0.1673 -0.3832  0.1715
 5932TIP3   OH217759   0.467   5.129   0.435  0.0525 -0.4489 -0.4485
 5932TIP3    H117760   0.371   5.127   0.439  0.0671 -2.0048 -0.1645
 5932TIP3    H217761   0.489   5.071   0.362  0.7933 -0.4272 -0.2490
 5933TIP3   OH217762   0.905   6.392   0.472 -0.3748 -0.0197  0.4634
 5933TIP3    H117763   0.887   6.420   0.561 -2.1865 -2.0858  0.8222
 5933TIP3    H217764   0.952   6.309   0.482 -0.8737 -0.4353 -0.4710
 5934TIP3   OH217765   0.346   1.795   0.264 -0.2259  0.6083  0.2401
 5934TIP3    H117766   0.282   1.732   0.231  0.4232  0.0802 -0.0307
 5934TIP3    H217767   0.372   1.845   0.187  0.5778  0.0159  0.1219
 5935TIP3   OH217768   0.587   6.630   4.653 -0.0467 -0.4830  0.2619
 5935TIP3    H117769   0.572   6.705   4.711  1.0515 -1.1709  1.4884
 5935TIP3    H217770   0.522   6.640   4.583 -0.8262  0.8462  1.1391
 5936TIP3   OH217771   2.897   2.231   3.488 -0.2526 -0.2322  0.1451
 5936TIP3    H117772   2.940   2.281   3.557 -1.9224  0.6637  0.5978
 5936TIP3    H217773   2.950   2.247   3.410  0.6672  0.1699  0.8297
 5937TIP3   OH217774   0.027   3.744   2.857 -0.1777 -0.2324 -0.4691
 5937TIP3    H117775   0.120   3.764   2.861 -0.3495  1.0004 -1.5889
 5937TIP3    H217776  -0.016   3.828   2.875 -1.1315 -1.1297  1.7206
 5938TIP3   OH217777   1.233   4.111   2.855 -0.1420 -0.0429 -0.7979
 5938TIP3    H117778   1.202   4.067   2.934  2.1874  1.8032  1.3296
 5938TIP3    H217779   1.193   4.198   2.859  0.9587  0.4865 -0.9429
 5939TIP3   OH217780   1.462   0.917   4.039  0.0644 -0.7753 -0.1218
 5939TIP3    H117781   1.434   0.829   4.015  0.6151 -1.1458  0.5623
 5939TIP3    H217782   1.404   0.942   4.111 -2.6261  0.9416 -2.6564
 5940TIP3   OH217783   2.952   6.501   5.418 -0.3773  0.4462  0.0196
 5940TIP3    H117784   2.865   6.487   5.456 -0.7870 -0.6645 -1.2205
 5940TIP3    H217785   2.937   6.564   5.348 -0.4091 -0.4988 -0.8520
 5941TIP3   OH217786   0.727   2.413   0.990  0.4285  0.6037  0.6543
 5941TIP3    H117787   0.718   2.416   1.085 -0.4620 -0.2395  0.6041
 5941TIP3    H217788   0.659   2.353   0.960 -0.1426  1.8056 -0.6262
 5942TIP3   OH217789   6.202   2.268   3.386 -0.9186  0.4895  0.2478
 5942TIP3    H117790   6.283   2.290   3.433 -0.8571  1.1856 -0.1688
 5942TIP3    H217791   6.173   2.186   3.425 -0.0565  0.2789  0.4706
 5943TIP3   OH217792   5.021   0.188   2.180  0.1191 -0.0585  0.6955
 5943TIP3    H117793   5.029   0.230   2.094 -0.8507 -0.0795  0.5853
 5943TIP3    H217794   5.088   0.230   2.233  2.0480 -1.3606 -0.5657
 5944TIP3   OH217795   4.046   0.553   1.859  0.4554  0.0081 -0.2325
 5944TIP3    H117796   4.029   0.478   1.915  1.2397  0.3952  0.5359
 5944TIP3    H217797   4.087   0.618   1.916  0.3557  0.7915 -1.0226
 5945TIP3   OH217798   6.961   0.865   0.303  0.3921 -0.0793  1.0011
 5945TIP3    H117799   6.893   0.875   0.369 -0.6773 -1.4896  0.1650
 5945TIP3    H217800   6.999   0.952   0.295 -1.5373  0.8518  1.2841
 5946TIP3   OH217801   0.742   1.986   5.281 -0.0653 -0.1977  0.3919
 5946TIP3    H117802   0.822   1.933   5.282  0.1167  0.0809  0.9275
 5946TIP3    H217803   0.678   1.934   5.329 -0.8875 -1.4363 -1.9179
 5947TIP3   OH217804   6.521   2.704   4.089 -0.3970  0.3552 -0.0234
 5947TIP3    H117805   6.537   2.611   4.074  0.3351  0.2962  1.0113
 5947TIP3    H217806   6.585   2.748   4.033  0.2657  0.1978  0.5954
 5948TIP3   OH217807   0.916   6.176   4.802 -0.2274  0.1926  0.5443
 5948TIP3    H117808   0.931   6.239   4.873  0.3349 -1.2555  1.7523
 5948TIP3    H217809   0.823   6.188   4.779  0.2471  2.6302 -0.4758
 5949TIP3   OH217810   0.571   2.912   5.413 -0.0693 -0.1851  0.5181
 5949TIP3    H117811   0.614   2.827   5.402 -0.6518 -0.3079 -1.1310
 5949TIP3    H217812   0.640   2.971   5.444  0.6759 -0.9326  0.3098
 5950TIP3   OH217813   6.439   4.798   2.970  0.1982  0.2028 -0.6001
 5950TIP3    H117814   6.452   4.714   2.926  0.5418  0.2679 -0.6328
 5950TIP3    H217815   6.503   4.857   2.927 -1.9193  1.2453 -2.5646
 5951TIP3   OH217816   2.118   4.620   4.669 -0.0033  0.0860  0.8050
 5951TIP3    H117817   2.093   4.631   4.761  1.0966  1.1713  1.0071
 5951TIP3    H217818   2.207   4.585   4.672 -0.3350 -0.8586  0.1321
 5952TIP3   OH217819   5.544   2.095   2.888 -0.1942 -0.6900  0.2227
 5952TIP3    H117820   5.583   2.086   2.800 -0.2777  0.4516  0.0535
 5952TIP3    H217821   5.602   2.045   2.945  1.0680  0.2602 -0.1674
 5953TIP3   OH217822   5.147   4.101   2.300  0.5611 -0.1068  0.3582
 5953TIP3    H117823   5.156   4.116   2.206 -0.0366  2.8178  0.6891
 5953TIP3    H217824   5.053   4.092   2.314  0.5713  0.4648  0.7957
 5954TIP3   OH217825   0.724   1.892   4.945 -0.5535 -0.4102 -0.3088
 5954TIP3    H117826   0.817   1.894   4.970  0.1477 -1.1371 -2.5777
 5954TIP3    H217827   0.699   1.985   4.940 -0.9222 -0.1935  3.3034
 5955TIP3   OH217828   3.402   0.290   1.556  0.1524 -0.5781 -0.1909
 5955TIP3    H117829   3.357   0.220   1.510  1.0201 -0.2972 -1.5281
 5955TIP3    H217830   3.368   0.370   1.517 -1.1504 -0.1798  1.6178
 5956TIP3   OH217831   0.817   0.370   3.722 -0.1332 -1.0087  0.4050
 5956TIP3    H117832   0.730   0.333   3.736 -0.1917 -0.5681  1.2419
 5956TIP3    H217833   0.877   0.297   3.739 -0.2867 -0.9643  1.1831
 5957TIP3   OH217834   3.195   3.307   0.361 -0.0149 -0.0485  0.3677
 5957TIP3    H117835   3.174   3.238   0.424 -0.4260  0.0499  0.3410
 5957TIP3    H217836   3.131   3.295   0.291  1.2116 -0.9324 -0.6348
 5958TIP3   OH217837   0.593   6.670   1.019  0.0824  0.5804  0.0703
 5958TIP3    H117838   0.616   6.581   1.047  0.4340 -0.4194 -2.9796
 5958TIP3    H217839   0.659   6.726   1.060  0.0846 -0.5745  1.7601
 5959TIP3   OH217840   1.301   5.965   2.271  0.6590  0.1714  0.1284
 5959TIP3    H117841   1.273   5.902   2.204 -0.8924  0.2950  0.6155
 5959TIP3    H217842   1.395   5.972   2.260  0.6202 -0.9150 -1.0874
 5960TIP3   OH217843   6.163   1.012   1.473  0.4221  0.9191 -0.1371
 5960TIP3    H117844   6.203   1.051   1.551  1.2624  0.3912 -0.3015
 5960TIP3    H217845   6.072   1.043   1.476  0.6169  1.4582  0.6815
 5961TIP3   OH217846   2.403   2.042  -0.022 -0.2146 -0.4965  0.2203
 5961TIP3    H117847   2.467   2.111  -0.000 -0.8279 -0.6496  2.8529
 5961TIP3    H217848   2.391   1.994   0.060 -1.2103 -2.5988 -1.0778
 5962TIP3   OH217849   2.185   1.544   5.299 -0.0956 -0.5116 -0.0151
 5962TIP3    H117850   2.129   1.567   5.374 -0.1546 -0.8873  0.0582
 5962TIP3    H217851   2.129   1.558   5.223 -0.0524 -0.1787  0.0114
 5963TIP3   OH217852   5.456   5.811   4.572 -0.0696 -0.1040 -0.1453
 5963TIP3    H117853   5.467   5.732   4.519  1.1544 -0.9480  1.2719
 5963TIP3    H217854   5.495   5.881   4.520  2.6049 -1.1984  0.2589
 5964TIP3   OH217855   5.840   5.487   1.070 -0.5548  0.1816  0.2851
 5964TIP3    H117856   5.755   5.460   1.035 -0.5844  0.5137  0.0937
 5964TIP3    H217857   5.898   5.488   0.993 -0.2056 -0.7015  0.5230
 5965TIP3   OH217858   1.731   4.194   5.012 -0.2258  0.1985  0.2335
 5965TIP3    H117859   1.701   4.104   4.997  1.3764 -0.5443  1.3124
 5965TIP3    H217860   1.709   4.211   5.103  1.7276 -0.0585  0.8016
 5966TIP3   OH217861   0.731   1.620   0.334  0.0117 -0.4736 -0.2996
 5966TIP3    H117862   0.726   1.708   0.372  2.3899 -0.2719 -0.3454
 5966TIP3    H217863   0.759   1.634   0.243 -0.2277 -1.2605 -0.5081
 5967TIP3   OH217864   2.808   3.664   3.674  0.3152 -0.3081  0.2730
 5967TIP3    H117865   2.818   3.569   3.669  0.4146 -0.2442 -1.1090
 5967TIP3    H217866   2.894   3.696   3.702 -0.2232 -0.7170  2.5798
 5968TIP3   OH217867   5.227   3.067   1.266 -0.6950  0.3309  0.3169
 5968TIP3    H117868   5.224   3.157   1.298 -2.3524  0.1073  0.9333
 5968TIP3    H217869   5.284   3.069   1.190 -0.3782  1.8174  0.5777
 5969TIP3   OH217870   3.431   4.241   2.350 -0.2345 -0.1757 -0.1335
 5969TIP3    H117871   3.490   4.231   2.425 -0.0721  1.5089  0.0042
 5969TIP3    H217872   3.487   4.272   2.279 -0.8828  1.2595 -0.0552
 5970TIP3   OH217873   1.473   0.765   0.762 -0.3323 -0.4972  0.3991
 5970TIP3    H117874   1.456   0.823   0.687 -0.7442 -2.0229 -0.7431
 5970TIP3    H217875   1.555   0.798   0.799 -1.2225  1.6007  0.6176
 5971TIP3   OH217876   3.488   1.660   4.437 -0.0439 -0.0548 -0.2921
 5971TIP3    H117877   3.460   1.722   4.369  0.1427 -0.2235 -0.5235
 5971TIP3    H217878   3.451   1.695   4.518  1.2323  1.1320 -0.1992
 5972TIP3   OH217879   3.739   0.268   1.959 -0.3689  0.2052 -0.3239
 5972TIP3    H117880   3.778   0.248   1.874  1.9136  2.8652 -0.0515
 5972TIP3    H217881   3.660   0.317   1.939 -1.7201 -2.0876 -0.8664
 5973TIP3   OH217882   3.750   0.745   4.644  0.2007  0.1261 -0.0496
 5973TIP3    H117883   3.687   0.810   4.675 -0.8917 -0.3491 -1.1596
 5973TIP3    H217884   3.769   0.691   4.720  0.4455  1.2098  0.6714
 5974TIP3   OH217885   4.275   5.079   0.115 -0.0130 -0.3317 -0.4240
 5974TIP3    H117886   4.365   5.060   0.145 -0.1826 -0.5892 -0.0667
 5974TIP3    H217887   4.244   4.996   0.080  0.2953  0.0448 -1.6416
 5975TIP3   OH217888   5.152   3.297   5.173  0.4365 -0.4908  0.2363
 5975TIP3    H117889   5.078   3.283   5.231  1.1328 -0.1658  1.2209
 5975TIP3    H217890   5.189   3.381   5.201  2.1471 -1.4125  0.8509
 5976TIP3   OH217891   4.716   6.756   4.917 -0.0827 -0.4801  0.3512
 5976TIP3    H117892   4.682   6.845   4.907  0.5013 -0.3348 -0.4976
 5976TIP3    H217893   4.798   6.767   4.965  1.1199 -0.2712 -1.6238
 5977TIP3   OH217894   2.669   4.842   3.783  0.0689  0.2944 -0.0160
 5977TIP3    H117895   2.669   4.751   3.754 -0.6613  0.8417 -1.8855
 5977TIP3    H217896   2.749   4.851   3.834 -0.2019 -1.5525  0.8173
 5978TIP3   OH217897   0.236   0.286   3.197 -0.3093 -0.3682 -0.0323
 5978TIP3    H117898   0.288   0.365   3.216  0.7286 -0.5715 -1.8364
 5978TIP3    H217899   0.211   0.295   3.105 -2.9977 -0.6010  0.5851
 5979TIP3   OH217900   4.263   2.156   3.674 -0.2555  0.1805  0.8165
 5979TIP3    H117901   4.219   2.219   3.732 -0.0802 -1.0460  2.3591
 5979TIP3    H217902   4.207   2.079   3.675  0.7008 -0.5315  0.8612
 5980TIP3   OH217903   3.936   2.262   4.307 -0.3434  0.2511 -0.1761
 5980TIP3    H117904   3.891   2.311   4.376 -1.1553 -0.1981 -0.3780
 5980TIP3    H217905   3.943   2.173   4.341  0.6877  0.3784 -0.0173
 5981TIP3   OH217906   3.771   0.847   2.628  0.0296  0.2562 -0.6046
 5981TIP3    H117907   3.703   0.805   2.680  1.2205 -0.4259  0.4701
 5981TIP3    H217908   3.729   0.866   2.544 -1.6211  0.3791  0.2159
 5982TIP3   OH217909   3.328   1.481   2.086 -0.2000  0.2744 -0.2626
 5982TIP3    H117910   3.248   1.530   2.104 -1.7699 -2.0063 -0.6526
 5982TIP3    H217911   3.365   1.463   2.172  0.3967  2.0461 -0.1120
 5983TIP3   OH217912   2.477   4.580   2.241  0.4472 -0.0096 -0.0430
 5983TIP3    H117913   2.545   4.545   2.183 -0.9246  0.7810 -2.2413
 5983TIP3    H217914   2.441   4.654   2.193 -0.9539  0.5129  1.7313
 5984TIP3   OH217915   0.575   4.903   2.220  0.4310 -0.2047  0.0454
 5984TIP3    H117916   0.542   4.897   2.131 -0.7244  1.5746  0.2917
 5984TIP3    H217917   0.514   4.851   2.272  0.2029  0.0006 -0.0127
 5985TIP3   OH217918   7.208   6.314   5.314  0.6392 -0.1434  0.1261
 5985TIP3    H117919   7.223   6.389   5.256  0.1179  0.1972  0.4284
 5985TIP3    H217920   7.117   6.322   5.341  0.2577 -1.4886 -0.6793
 5986TIP3   OH217921   5.149   4.085   5.665  0.4672 -0.3471  0.4050
 5986TIP3    H117922   5.197   4.080   5.747 -0.5339 -2.1064  0.9356
 5986TIP3    H217923   5.211   4.056   5.598  0.6661 -0.9433  0.8458
 5987TIP3   OH217924   6.426   0.243   1.510  0.0687  0.3005  0.5374
 5987TIP3    H117925   6.470   0.193   1.442  0.9899  0.7587  0.7790
 5987TIP3    H217926   6.332   0.228   1.495  0.2934 -0.3508 -0.2422
 5988TIP3   OH217927   2.766   6.348   1.129  0.1607 -0.1626  0.0101
 5988TIP3    H117928   2.772   6.386   1.041  0.9841 -2.2310 -0.8746
 5988TIP3    H217929   2.815   6.409   1.184 -1.2527  1.7450 -0.7074
 5989TIP3   OH217930   0.999   2.082   2.535  0.0847 -0.1810 -0.5058
 5989TIP3    H117931   1.091   2.110   2.539  0.4634 -1.4648  0.4235
 5989TIP3    H217932   0.965   2.098   2.623 -0.7979  0.9009 -1.0201
 5990TIP3   OH217933   6.340   2.768   3.455  0.2653  0.1570  0.0670
 5990TIP3    H117934   6.425   2.807   3.475  2.3149 -3.2231 -1.1898
 5990TIP3    H217935   6.348   2.677   3.484 -3.0013 -0.2524  0.0164
 5991TIP3   OH217936   0.841   4.120   3.076 -0.5397  0.6044 -0.3241
 5991TIP3    H117937   0.781   4.057   3.117 -0.7780  0.9608 -0.1141
 5991TIP3    H217938   0.805   4.206   3.100 -0.4376  0.8202 -0.9266
 5992TIP3   OH217939   1.101   6.087   5.210  0.4839  0.0885 -0.2560
 5992TIP3    H117940   1.019   6.136   5.205  0.2849 -0.2698 -0.5948
 5992TIP3    H217941   1.169   6.154   5.216  0.2267  0.4196 -0.8878
 5993TIP3   OH217942   4.239   4.527   1.443  0.6839 -0.0843  0.3596
 5993TIP3    H117943   4.281   4.600   1.397  1.2226 -0.0177  0.9429
 5993TIP3    H217944   4.186   4.569   1.511 -2.3070 -0.0128 -1.8259
 5994TIP3   OH217945   6.864   3.795   5.390  0.8922  0.1062 -0.2522
 5994TIP3    H117946   6.928   3.867   5.390  0.5851  0.5621  2.9667
 5994TIP3    H217947   6.913   3.720   5.424  0.5382 -0.5116 -1.0752
 5995TIP3   OH217948   1.080   1.559   5.153 -0.0236 -0.5166 -0.1177
 5995TIP3    H117949   1.068   1.595   5.065 -1.6518 -1.7455 -0.4347
 5995TIP3    H217950   1.174   1.567   5.170  0.4177 -0.8251 -2.2126
 5996TIP3   OH217951   6.459   0.998   5.672 -0.0216  0.2858  0.2954
 5996TIP3    H117952   6.483   1.005   5.579 -0.1519  1.5022  0.3428
 5996TIP3    H217953   6.388   0.934   5.673 -0.7154  1.0208 -0.5821
 5997TIP3   OH217954   2.638   1.790   1.553 -0.1291 -0.6416  0.1043
 5997TIP3    H117955   2.644   1.710   1.606  1.7153 -0.4765  0.2247
 5997TIP3    H217956   2.572   1.843   1.598  0.3106 -1.1312  1.4039
 5998TIP3   OH217957   6.774   4.329   0.919 -0.1424 -0.2564  0.1213
 5998TIP3    H117958   6.853   4.382   0.911 -0.0828 -0.2698  0.6060
 5998TIP3    H217959   6.709   4.388   0.955 -0.6087 -0.0053 -1.0769
 5999TIP3   OH217960   4.653   1.301   3.207  0.4774  0.3248 -0.1355
 5999TIP3    H117961   4.655   1.322   3.113  2.6086  0.6987 -0.0370
 5999TIP3    H217962   4.694   1.215   3.214 -1.9770 -0.9334  0.2521
 6000TIP3   OH217963   2.824   6.414   4.651  0.5182 -0.2986 -0.0798
 6000TIP3    H117964   2.777   6.351   4.597 -0.1185 -0.6059  0.8219
 6000TIP3    H217965   2.802   6.392   4.741  0.3625  1.1400  0.2722
 6001TIP3   OH217966   4.511   2.985   0.492  0.4101 -0.2900 -0.1748
 6001TIP3    H117967   4.521   2.958   0.401 -1.4106 -1.0394 -0.2020
 6001TIP3    H217968   4.507   2.904   0.542 -0.4095  0.0462  0.3357
 6002TIP3   OH217969   1.892   2.656   4.545 -0.0735  0.2623 -0.7764
 6002TIP3    H117970   1.896   2.750   4.525 -0.2740  0.5130  0.3262
 6002TIP3    H217971   1.926   2.614   4.466  1.1790  1.3036 -0.8225
 6003TIP3   OH217972   4.688   6.662   0.216  0.7185  0.0077  0.2591
 6003TIP3    H117973   4.629   6.738   0.220  1.0538  0.3300 -0.7223
 6003TIP3    H217974   4.737   6.674   0.135  1.2147 -0.9457  0.4093
 6004TIP3   OH217975   5.222   1.525   2.004  0.0554  0.6329 -0.2225
 6004TIP3    H117976   5.238   1.444   2.052 -0.5189  0.1165 -0.8768
 6004TIP3    H217977   5.303   1.541   1.956 -0.4707 -0.6112 -1.5843
 6005TIP3   OH217978   0.233   3.241   2.382  0.2030 -0.0098 -0.1116
 6005TIP3    H117979   0.198   3.195   2.305  1.0225 -0.8670  0.0228
 6005TIP3    H217980   0.289   3.178   2.425  1.1264  1.0244  0.2475
 6006TIP3   OH217981   5.604   4.698   1.938  0.0068  0.0730 -0.2499
 6006TIP3    H117982   5.581   4.674   2.028  0.0526  2.0271  0.3379
 6006TIP3    H217983   5.681   4.646   1.917 -0.0811 -0.4973  0.7925
 6007TIP3   OH217984   3.294   0.006   1.933 -0.1683  0.1913 -0.4006
 6007TIP3    H117985   3.366  -0.022   1.989 -1.3693  1.3539  1.8670
 6007TIP3    H217986   3.244   0.067   1.987 -3.1875 -0.9960 -1.6095
 6008TIP3   OH217987   1.181   2.673   0.206 -0.0886 -0.2751  0.2600
 6008TIP3    H117988   1.218   2.720   0.281 -0.2749 -0.9067  0.7629
 6008TIP3    H217989   1.236   2.595   0.197  0.2208  0.0344 -0.5663
 6009TIP3   OH217990   5.054   0.400   5.432 -0.5402  0.1823  0.1723
 6009TIP3    H117991   5.028   0.316   5.394  1.9959 -0.1737 -0.9781
 6009TIP3    H217992   5.005   0.466   5.382  0.2704 -0.4624 -1.5386
 6010TIP3   OH217993   2.131   6.136   4.550 -0.3294 -0.0502  0.1982
 6010TIP3    H117994   2.052   6.187   4.570 -0.4264  0.5883 -1.6170
 6010TIP3    H217995   2.115   6.100   4.463  1.7869  0.9520 -0.6723
 6011TIP3   OH217996   0.437   1.697   4.874  0.0954  0.2499  0.2576
 6011TIP3    H117997   0.426   1.734   4.786  2.1041  1.2267  0.3724
 6011TIP3    H217998   0.463   1.772   4.928 -0.4655 -0.4671  1.5668
 6012TIP3   OH217999   4.061   1.044   5.585 -0.2916 -0.0476  0.1353
 6012TIP3    H118000   4.100   1.085   5.507 -0.2920  1.0867  0.7203
 6012TIP3    H218001   3.971   1.025   5.559 -0.8547  2.0234  0.4276
 6013TIP3   OH218002   2.657   3.297   4.141 -0.0058  0.3291  0.2054
 6013TIP3    H118003   2.672   3.311   4.235  0.9351  0.0674  0.1078
 6013TIP3    H218004   2.726   3.236   4.115  1.5966  2.6212 -1.2647
 6014TIP3   OH218005   1.860   3.211   0.224  0.4037 -0.2292  0.6536
 6014TIP3    H118006   1.923   3.175   0.287 -0.2479 -1.6912  0.5091
 6014TIP3    H218007   1.837   3.137   0.168  0.0976  0.7740 -0.5947
 6015TIP3   OH218008   0.679   3.978   1.768  0.1481  0.2087 -0.2178
 6015TIP3    H118009   0.670   4.072   1.787  1.0144  0.7353 -2.1599
 6015TIP3    H218010   0.741   3.946   1.833 -0.6258  0.8178  0.8652
 6016TIP3   OH218011   3.387   2.263   2.078 -0.4384  0.0802 -0.4652
 6016TIP3    H118012   3.299   2.300   2.065 -0.9820 -0.7839  0.6215
 6016TIP3    H218013   3.381   2.174   2.044 -0.2191 -0.2513  0.3537
 6017TIP3   OH218014   3.714   3.657   0.874 -0.0730  0.1318  0.0526
 6017TIP3    H118015   3.794   3.605   0.878 -0.4905 -0.4821  0.7972
 6017TIP3    H218016   3.720   3.714   0.951  0.4854  1.3628 -0.8758
 6018TIP3   OH218017   5.717   4.495   5.816 -0.4036  0.0946  0.9363
 6018TIP3    H118018   5.788   4.435   5.840  0.7410  0.7004 -0.7315
 6018TIP3    H218019   5.637   4.444   5.830  0.4258 -1.1250  1.4659
 6019TIP3   OH218020   1.961   6.290   4.116 -0.5841  0.1319 -0.3086
 6019TIP3    H118021   2.022   6.233   4.069  0.4400  0.1428  0.9446
 6019TIP3    H218022   1.975   6.269   4.209 -0.8436  1.7696  0.1307
 6020TIP3   OH218023   4.276   1.657   1.950  0.3198 -0.1711  0.3547
 6020TIP3    H118024   4.190   1.631   1.917 -0.0037  0.1985  0.8971
 6020TIP3    H218025   4.271   1.642   2.044  0.7111  0.2329  0.4425
 6021TIP3   OH218026   4.711   2.908   1.913  0.1347  0.4971  0.1925
 6021TIP3    H118027   4.797   2.894   1.952  0.6542  2.2748 -0.2285
 6021TIP3    H218028   4.728   2.911   1.819 -0.0372  2.7675  0.1848
 6022TIP3   OH218029   1.646   0.186   0.372 -0.1801  0.6079 -0.1762
 6022TIP3    H118030   1.618   0.096   0.356  0.1750  0.4170  0.2850
 6022TIP3    H218031   1.664   0.221   0.284 -0.2561  0.2107 -0.3514
 6023TIP3   OH218032   2.453   6.035   3.097  0.3668  0.7474 -0.0266
 6023TIP3    H118033   2.498   5.971   3.152 -1.0643 -1.0300 -0.8582
 6023TIP3    H218034   2.506   6.115   3.106  0.7885  0.2370  3.0303
 6024TIP3   OH218035   5.475   3.039   0.714  0.3982  0.5758  0.2031
 6024TIP3    H118036   5.480   3.115   0.656  0.5855  0.0571 -0.4788
 6024TIP3    H218037   5.413   3.064   0.782  0.3939  1.3036 -0.0632
 6025TIP3   OH218038   4.201   5.727   4.909 -0.1138  0.1554 -0.2979
 6025TIP3    H118039   4.154   5.799   4.952 -1.3034 -1.9504  2.1897
 6025TIP3    H218040   4.170   5.730   4.818 -2.2223  1.1899  0.3779
 6026TIP3   OH218041   6.777   5.782   1.698 -0.4621  0.0887 -0.1008
 6026TIP3    H118042   6.842   5.799   1.630 -1.1127 -1.7011 -1.2478
 6026TIP3    H218043   6.701   5.835   1.673 -0.3113  0.2959 -0.1250
 6027TIP3   OH218044   5.161   2.802   5.405 -0.3829  0.9574  0.3092
 6027TIP3    H118045   5.112   2.798   5.487  2.0450 -0.0563  1.8143
 6027TIP3    H218046   5.117   2.739   5.348 -1.8546  1.3722  0.9329
 6028TIP3   OH218047   7.224   2.357   0.031 -0.2245 -0.0750  0.1072
 6028TIP3    H118048   7.148   2.349   0.088  0.8425 -0.9193  1.4823
 6028TIP3    H218049   7.192   2.404  -0.046 -1.8442  0.6122  1.1539
 6029TIP3   OH218050   3.723   5.689   5.621  1.0089  0.3759  0.0999
 6029TIP3    H118051   3.751   5.764   5.569  0.0785  1.5186  1.1978
 6029TIP3    H218052   3.665   5.640   5.563 -0.4282  1.9097  0.1871
 6030TIP3   OH218053   3.330   2.256   3.636  0.6878 -0.4209  0.4551
 6030TIP3    H118054   3.327   2.347   3.607  1.3939 -0.0585  1.4481
 6030TIP3    H218055   3.306   2.205   3.559  2.5112  0.4848 -0.7705
 6031TIP3   OH218056   7.157   1.165   1.911 -0.2724  0.5303  0.8216
 6031TIP3    H118057   7.251   1.149   1.902 -0.2068  0.9810  0.6940
 6031TIP3    H218058   7.142   1.246   1.862 -1.2750 -1.1697 -1.9416
 6032TIP3   OH218059   6.446   2.088   4.180 -0.1871 -0.2870  0.1235
 6032TIP3    H118060   6.423   2.172   4.219  0.0756  0.0055 -0.3476
 6032TIP3    H218061   6.457   2.106   4.087  4.2014  0.1643  0.5153
 6033TIP3   OH218062   2.519   3.904   4.108 -0.1056  0.3423 -0.1679
 6033TIP3    H118063   2.549   3.989   4.076 -0.8937  0.6685 -0.0803
 6033TIP3    H218064   2.596   3.848   4.105  0.7949  1.4689  1.2255
 6034TIP3   OH218065   3.091   0.574   1.661 -0.1005  0.3626  0.3779
 6034TIP3    H118066   3.119   0.487   1.690 -0.2371  0.1959  0.0139
 6034TIP3    H218067   3.160   0.602   1.601 -0.1012  0.4682  0.4268
 6035TIP3   OH218068   2.754   5.362   1.869  0.2911 -0.4998  0.2727
 6035TIP3    H118069   2.715   5.449   1.868 -1.0296 -1.0513  0.6353
 6035TIP3    H218070   2.687   5.306   1.910  1.2232 -1.6261  0.3310
 6036TIP3   OH218071   4.581   6.266   4.815  0.1914  0.0473  0.1538
 6036TIP3    H118072   4.522   6.230   4.749 -0.0106  0.7793 -0.0752
 6036TIP3    H218073   4.561   6.217   4.895 -1.5419  1.0678  0.3736
 6037TIP3   OH218074   3.126   3.403   4.571  0.4720  0.0689 -0.2693
 6037TIP3    H118075   3.191   3.454   4.521  1.5266  1.6930  2.5199
 6037TIP3    H218076   3.127   3.443   4.658 -2.2284 -1.7514  0.7048
 6038TIP3   OH218077   4.779   5.152   3.237 -0.2686 -0.1916  0.7077
 6038TIP3    H118078   4.794   5.232   3.187 -0.4018 -0.6429 -0.0612
 6038TIP3    H218079   4.859   5.140   3.289 -0.4823  0.7504  1.2684
 6039TIP3   OH218080   5.151   2.204   5.070  0.4793  0.3823 -0.7279
 6039TIP3    H118081   5.127   2.276   5.011 -0.2538 -1.3313 -2.6715
 6039TIP3    H218082   5.080   2.202   5.134  0.1828  1.0113 -1.0185
 6040TIP3   OH218083   2.058   5.080   1.709 -0.1421 -0.4433 -0.5148
 6040TIP3    H118084   2.058   4.985   1.726  0.7385 -0.4541 -0.5375
 6040TIP3    H218085   2.054   5.119   1.796  0.6500 -0.5066 -0.4430
 6041TIP3   OH218086   5.288   0.970   5.764  0.0547  0.4820  0.3137
 6041TIP3    H118087   5.192   0.966   5.770  0.0891 -0.7166  0.3362
 6041TIP3    H218088   5.306   1.049   5.713 -1.0368 -0.4044 -1.5270
 6042TIP3   OH218089   1.541   5.273   2.480  0.4121  0.1178  0.5005
 6042TIP3    H118090   1.495   5.304   2.557  0.7697 -1.3897  1.3667
 6042TIP3    H218091   1.475   5.271   2.411 -0.3816 -0.2829  1.2524
 6043TIP3   OH218092   2.804   1.062   1.384 -0.6030 -0.1290  0.5695
 6043TIP3    H118093   2.785   1.042   1.292  0.5960  0.8502  0.0791
 6043TIP3    H218094   2.718   1.077   1.423 -1.1450 -0.6959 -0.3495
 6044TIP3   OH218095   1.266   6.580   3.219 -0.2536  0.2248 -0.1149
 6044TIP3    H118096   1.262   6.487   3.197  0.1129 -0.1033  1.1225
 6044TIP3    H218097   1.292   6.623   3.138  0.1122 -0.8137 -0.5644
 6045TIP3   OH218098   5.184   5.562   5.636  0.1611 -0.0488  0.1932
 6045TIP3    H118099   5.139   5.477   5.637  0.0720 -0.0045 -0.0533
 6045TIP3    H218100   5.269   5.543   5.595  1.4137 -0.6519  2.8358
 6046TIP3   OH218101   1.338   0.007   4.428 -0.1509 -0.2249 -0.1068
 6046TIP3    H118102   1.296   0.093   4.433 -0.2127 -0.2501 -0.1907
 6046TIP3    H218103   1.421   0.023   4.382 -0.3142 -0.2669 -0.4172
 6047TIP3   OH218104   3.487   5.053   5.611 -0.2419 -0.4040 -0.0799
 6047TIP3    H118105   3.399   5.062   5.646 -0.7071 -2.0388 -0.7522
 6047TIP3    H218106   3.526   4.982   5.662  1.3198  1.3592  1.3435
 6048TIP3   OH218107   3.137   4.252   2.300 -0.1655 -0.0590  0.5689
 6048TIP3    H118108   3.120   4.326   2.241  2.8856  1.4716  1.4099
 6048TIP3    H218109   3.232   4.243   2.301 -0.2643 -1.9105  3.0270
 6049TIP3   OH218110   2.648   6.554   1.578  0.0173 -0.0970 -0.2425
 6049TIP3    H118111   2.659   6.483   1.641  0.2123  0.0365 -0.1223
 6049TIP3    H218112   2.643   6.633   1.632  2.9675  0.3585 -0.4545
 6050TIP3   OH218113   5.908   1.280   5.332  0.3740  0.1765  0.6163
 6050TIP3    H118114   5.960   1.253   5.408 -0.7552 -4.1985  0.0830
 6050TIP3    H218115   5.970   1.275   5.258 -0.0732 -2.8385  0.3160
 6051TIP3   OH218116   3.895   4.402   4.162 -0.0323 -0.5470 -0.0948
 6051TIP3    H118117   3.832   4.413   4.233 -0.2578 -1.4532 -0.1451
 6051TIP3    H218118   3.900   4.307   4.148 -0.8082 -0.3534 -1.9927
 6052TIP3   OH218119   1.219   2.754   3.015  0.5658  0.0807 -0.1722
 6052TIP3    H118120   1.191   2.676   2.968  3.3301 -0.0072 -1.8795
 6052TIP3    H218121   1.138   2.804   3.027 -0.8896 -1.8449 -1.3116
 6053TIP3   OH218122   0.300   3.524   1.368  0.1195 -0.7653  0.1648
 6053TIP3    H118123   0.210   3.555   1.353  0.7951  0.9609 -0.6089
 6053TIP3    H218124   0.300   3.435   1.334 -1.3877 -0.9294  0.5014
 6054TIP3   OH218125   4.330   3.601   4.626  0.2618  0.1197 -0.0843
 6054TIP3    H118126   4.303   3.685   4.664  2.2991  0.6084  0.3651
 6054TIP3    H218127   4.336   3.541   4.700  0.1833 -0.0593 -0.2215
 6055TIP3   OH218128   1.769   2.190   5.726 -0.7659  0.0973  0.3077
 6055TIP3    H118129   1.859   2.171   5.752 -0.1338  1.4757 -0.7508
 6055TIP3    H218130   1.722   2.201   5.809 -0.2159 -1.5912  0.8913
 6056TIP3   OH218131   3.141   5.483   0.115  0.3078  0.2452 -0.0585
 6056TIP3    H118132   3.056   5.513   0.145 -0.2061  0.9640 -2.0326
 6056TIP3    H218133   3.201   5.553   0.140  0.0577  0.4189  0.0611
 6057TIP3   OH218134   1.809   3.602   3.906  0.1158  0.0910  0.2634
 6057TIP3    H118135   1.840   3.600   3.815  0.6806  1.9793  0.3598
 6057TIP3    H218136   1.714   3.604   3.898  0.0558 -2.1108 -0.1654
 6058TIP3   OH218137   4.906   1.957   1.350 -0.0662  0.4204 -0.1563
 6058TIP3    H118138   4.962   1.890   1.389 -0.3319  0.1468 -0.2474
 6058TIP3    H218139   4.953   2.039   1.365 -0.1802  0.3209  0.7730
 6059TIP3   OH218140   4.074   3.340   0.296  0.5325 -0.1200 -0.7469
 6059TIP3    H118141   4.053   3.424   0.336 -2.2068 -0.6922 -0.7610
 6059TIP3    H218142   4.109   3.287   0.368  1.0070  0.6113 -0.4373
 6060TIP3   OH218143   0.642   4.284   1.786 -0.6573  0.3121 -0.5745
 6060TIP3    H118144   0.552   4.315   1.772 -1.6247 -2.3261 -0.6415
 6060TIP3    H218145   0.679   4.276   1.698 -0.8845 -0.0205 -0.6422
 6061TIP3   OH218146   5.134   4.585   4.653  0.4081 -0.3335  0.0219
 6061TIP3    H118147   5.176   4.589   4.568 -0.5349 -0.0898 -0.4478
 6061TIP3    H218148   5.041   4.595   4.634 -0.0553 -2.4713  0.8711
 6062TIP3   OH218149   5.992   5.684   4.661 -0.6419 -0.5041 -0.2700
 6062TIP3    H118150   5.907   5.718   4.692 -0.4658  0.5069 -0.8199
 6062TIP3    H218151   5.977   5.591   4.647 -1.2326 -0.6261  1.0771
 6063TIP3   OH218152   5.900   4.025   1.150 -0.2473 -0.1789  0.0474
 6063TIP3    H118153   5.962   4.085   1.191 -1.3769  1.4458 -0.5125
 6063TIP3    H218154   5.834   4.009   1.218  0.3299 -1.2499  0.3736
 6064TIP3   OH218155   3.888   3.808   3.415  0.4542  0.0101  0.8825
 6064TIP3    H118156   3.969   3.817   3.466  0.3055  2.0249  0.8673
 6064TIP3    H218157   3.916   3.773   3.331  0.8965 -1.9988  1.8086
 6065TIP3   OH218158   6.277   2.828   4.109  0.0500 -0.0056  0.2868
 6065TIP3    H118159   6.292   2.859   4.199 -0.7261 -2.9598  1.5534
 6065TIP3    H218160   6.364   2.803   4.078  0.0365 -1.2558  1.1858
 6066TIP3   OH218161   0.126   2.271   0.517  0.0663 -0.0663  0.7222
 6066TIP3    H118162   0.174   2.207   0.465  0.2918  1.0381 -0.4650
 6066TIP3    H218163   0.096   2.337   0.454 -1.6253  0.1281  1.6575
 6067TIP3   OH218164   7.088   3.044   0.731  0.2701 -0.0598  0.6614
 6067TIP3    H118165   7.129   3.083   0.808 -0.6942 -1.6886  2.0589
 6067TIP3    H218166   7.162   3.013   0.678  0.9495  1.3900  0.7334
 6068TIP3   OH218167   0.380   5.598   2.318 -0.1289 -0.1365  0.0513
 6068TIP3    H118168   0.400   5.524   2.375 -0.0622 -0.1119  0.0604
 6068TIP3    H218169   0.307   5.569   2.264 -1.0587  0.2963  1.0426
 6069TIP3   OH218170   3.011   2.757   3.775  0.5389  0.4264 -0.3392
 6069TIP3    H118171   2.985   2.749   3.867  0.1185  2.1520 -0.2856
 6069TIP3    H218172   3.106   2.768   3.777  0.5665  0.1710 -0.1486
 6070TIP3   OH218173   3.778   5.614   4.427 -0.0620 -0.1094 -0.5550
 6070TIP3    H118174   3.838   5.541   4.414 -0.6251 -0.3949 -1.6903
 6070TIP3    H218175   3.723   5.614   4.348 -0.8893  0.7604  0.0025
 6071TIP3   OH218176  -0.012   3.904   3.949 -0.7581 -1.0756  0.0829
 6071TIP3    H118177   0.033   3.867   3.874  1.6061  3.0173 -0.8395
 6071TIP3    H218178   0.053   3.904   4.019 -1.4651 -0.8417  0.7573
 6072TIP3   OH218179   1.291   6.465   2.156  0.3212  0.1715 -0.0719
 6072TIP3    H118180   1.230   6.518   2.207  1.3382  0.1528  1.2234
 6072TIP3    H218181   1.266   6.480   2.065 -0.1463  1.9547  0.3153
 6073TIP3   OH218182   1.291   0.164   2.885 -0.3994 -0.2087  0.5224
 6073TIP3    H118183   1.261   0.225   2.953  0.6068  0.6586  0.2241
 6073TIP3    H218184   1.331   0.221   2.818  2.2724 -1.2743  1.0911
 6074TIP3   OH218185   3.440   4.577   4.636 -0.1053  0.0577  0.1446
 6074TIP3    H118186   3.443   4.483   4.615 -0.0805  0.3812 -1.4421
 6074TIP3    H218187   3.494   4.618   4.569 -2.4616  1.4674 -1.0504
 6075TIP3   OH218188   3.119   0.041   2.917  0.3783 -0.1515  1.0355
 6075TIP3    H118189   3.036   0.005   2.950  0.1334  0.9188  1.6395
 6075TIP3    H218190   3.179  -0.034   2.917 -0.8805 -1.2064 -0.5063
 6076TIP3   OH218191   0.028   1.057   4.061 -0.1788 -0.1599  0.3644
 6076TIP3    H118192   0.092   1.090   4.124 -0.9393  0.1827  0.9793
 6076TIP3    H218193   0.026   0.962   4.077 -0.5853 -0.0409  1.0807
 6077TIP3   OH218194   2.134   0.711   3.799 -0.1134  0.0895  0.6498
 6077TIP3    H118195   2.059   0.677   3.750  1.9345 -0.3485 -2.4599
 6077TIP3    H218196   2.161   0.638   3.854 -0.9870 -0.3082  0.5711
 6078TIP3   OH218197   2.612   1.968   4.428  0.1169 -0.1107 -0.1049
 6078TIP3    H118198   2.616   1.924   4.343 -0.3022 -2.1244  0.8450
 6078TIP3    H218199   2.533   2.021   4.424 -0.5680 -1.1222 -0.5774
 6079TIP3   OH218200   1.288   1.558   0.134  0.1296  0.2969 -0.4447
 6079TIP3    H118201   1.209   1.543   0.186  0.0770 -0.0895 -0.6296
 6079TIP3    H218202   1.286   1.489   0.067  1.0604 -0.2248  0.0490
 6080TIP3   OH218203   1.043   2.641   5.585 -0.7706  0.8198 -0.5682
 6080TIP3    H118204   1.018   2.549   5.594 -0.5719  0.7159 -1.0720
 6080TIP3    H218205   1.034   2.677   5.674 -1.6268  0.5179 -0.5208
 6081TIP3   OH218206   1.126   2.950   1.269 -0.0856  0.5117 -0.0409
 6081TIP3    H118207   1.095   2.891   1.200  0.0573  1.1724 -0.6822
 6081TIP3    H218208   1.061   2.941   1.339  0.6729 -1.4691  0.4770
 6082TIP3   OH218209   1.746   2.506   1.654  0.0213  0.2093  0.3364
 6082TIP3    H118210   1.730   2.479   1.564  1.1031  0.0409  0.1783
 6082TIP3    H218211   1.827   2.460   1.679  0.2975  1.0474  1.0436
 6083TIP3   OH218212   2.980   3.010   2.886  0.1052  0.0660 -0.3046
 6083TIP3    H118213   2.947   3.096   2.911  2.4067  1.2485 -1.0332
 6083TIP3    H218214   2.926   2.948   2.936 -3.5337  1.6834 -1.8254
 6084TIP3   OH218215   1.604   3.779   0.708 -0.0473  0.5267 -0.0292
 6084TIP3    H118216   1.686   3.736   0.682 -0.5019  0.6122 -1.6659
 6084TIP3    H218217   1.544   3.707   0.725  0.4344  0.4527  1.5289
 6085TIP3   OH218218   0.195   5.107   5.163 -0.9223  0.4462  0.0741
 6085TIP3    H118219   0.158   5.041   5.104  3.0888 -2.4008  0.3142
 6085TIP3    H218220   0.251   5.161   5.107  1.3704 -1.0357  0.7837
 6086TIP3   OH218221   0.858   4.943   0.991 -0.0417 -0.0706 -0.1423
 6086TIP3    H118222   0.880   5.028   0.953 -0.7194 -0.1641 -0.7710
 6086TIP3    H218223   0.816   4.895   0.920 -2.7352  0.2799  1.0799
 6087TIP3   OH218224   3.283   4.481   4.283  0.1298 -0.2290  0.1532
 6087TIP3    H118225   3.199   4.515   4.315 -1.4549 -2.6648 -1.1461
 6087TIP3    H218226   3.273   4.477   4.188  1.7169 -0.6274 -0.0241
 6088TIP3   OH218227   1.312   3.495   1.275 -0.1560  0.0349 -0.0078
 6088TIP3    H118228   1.248   3.548   1.324  0.3577  2.1347 -1.4921
 6088TIP3    H218229   1.290   3.511   1.183  1.6826 -0.2608 -0.5220
 6089TIP3   OH218230   4.352   0.999   3.060 -0.1629  0.1227  0.1028
 6089TIP3    H118231   4.279   0.949   3.024 -1.7915  2.3416  0.1015
 6089TIP3    H218232   4.403   1.028   2.984 -1.2103  1.2892 -0.2007
 6090TIP3   OH218233   6.056   3.425   0.107 -0.7201 -0.0313  0.0488
 6090TIP3    H118234   6.106   3.396   0.184 -1.5144 -1.6226  0.0128
 6090TIP3    H218235   6.118   3.421   0.035  0.0226  1.4264  0.5677
 6091TIP3   OH218236   6.626   3.572   5.572  0.5886 -0.7059 -0.1110
 6091TIP3    H118237   6.658   3.660   5.592 -1.3360  0.0304 -0.0766
 6091TIP3    H218238   6.591   3.540   5.656 -2.6204  0.2644 -0.9438
 6092TIP3   OH218239   5.746   6.534   1.231  0.5855 -0.0972 -0.3928
 6092TIP3    H118240   5.795   6.457   1.205  0.1434 -0.8228  0.8325
 6092TIP3    H218241   5.667   6.532   1.177 -0.2338 -1.4717  0.7832
 6093TIP3   OH218242   5.136   6.495   4.158 -0.6530  0.1449  0.3346
 6093TIP3    H118243   5.076   6.568   4.146  0.0153  0.9674  1.7627
 6093TIP3    H218244   5.083   6.417   4.139 -1.5913  0.9431 -0.4163
 6094TIP3   OH218245   3.688   3.047   2.769 -0.3192 -0.4428 -0.2183
 6094TIP3    H118246   3.627   3.012   2.704 -1.9783 -0.2966  1.1726
 6094TIP3    H218247   3.653   3.017   2.853 -0.6783  2.7524  0.9263
 6095TIP3   OH218248   6.513  -0.005   1.126  0.0647  0.3155 -0.3449
 6095TIP3    H118249   6.490   0.088   1.131 -0.1702  0.4679 -3.0465
 6095TIP3    H218250   6.575  -0.011   1.053  0.1260 -1.6519 -0.1891
 6096TIP3   OH218251   3.184   0.401   3.856  0.3005  0.9539  0.0438
 6096TIP3    H118252   3.263   0.453   3.839  1.3739 -0.7845 -0.5729
 6096TIP3    H218253   3.119   0.465   3.884  1.2906  2.7508 -1.4948
 6097TIP3   OH218254   6.150   0.459   1.439 -0.0148 -0.2411  0.2820
 6097TIP3    H118255   6.097   0.389   1.478 -0.6708 -0.1410 -0.3937
 6097TIP3    H218256   6.218   0.476   1.503 -0.2445 -1.0367  0.7586
 6098TIP3   OH218257   4.278   6.321   1.602 -0.0396  0.1464  0.3565
 6098TIP3    H118258   4.347   6.382   1.574 -1.5219  1.1029 -1.4531
 6098TIP3    H218259   4.216   6.376   1.650  0.5789 -0.7761  2.3023
 6099TIP3   OH218260   0.182   2.967   0.214  0.0696  0.0759 -0.2679
 6099TIP3    H118261   0.096   2.952   0.253  0.1109  1.4987  0.4247
 6099TIP3    H218262   0.165   2.975   0.120 -0.5861  0.5924 -0.1045
 6100TIP3   OH218263   0.567   6.606   3.425  0.4412 -0.2357 -0.2896
 6100TIP3    H118264   0.537   6.607   3.516 -0.7459  0.2965 -0.6654
 6100TIP3    H218265   0.616   6.524   3.418 -0.3302 -0.8053  0.5648
 6101TIP3   OH218266   1.588   5.442   1.225 -0.4101  0.2003  0.7183
 6101TIP3    H118267   1.659   5.427   1.163  0.0473  2.5934  0.5722
 6101TIP3    H218268   1.560   5.354   1.250  2.4678 -0.8589  0.6651
 6102TIP3   OH218269   4.213   3.616   5.116  0.1990  0.3933 -0.1787
 6102TIP3    H118270   4.121   3.602   5.096 -0.1542  1.4638  0.5595
 6102TIP3    H218271   4.225   3.577   5.203  1.4227 -3.1552 -1.7836
 6103TIP3   OH218272   0.493   0.004   3.863 -0.0624 -0.0247  0.1109
 6103TIP3    H118273   0.536   0.020   3.947  0.9055 -1.6603 -0.0357
 6103TIP3    H218274   0.545   0.052   3.799 -0.0269  0.1600  0.2786
 6104TIP3   OH218275   0.922   6.480   0.748 -0.3289  0.4443 -0.1154
 6104TIP3    H118276   0.947   6.516   0.833 -1.2628  0.6292  0.0943
 6104TIP3    H218277   0.829   6.500   0.740 -0.8399 -1.6420 -0.1225
 6105TIP3   OH218278   5.486   5.415   5.126 -0.1761 -0.3217  0.0411
 6105TIP3    H118279   5.418   5.483   5.131 -0.2100 -0.3270 -0.3118
 6105TIP3    H218280   5.533   5.422   5.208  0.4865  0.8241 -0.4130
 6106TIP3   OH218281   2.522   4.209   5.710  0.1658  0.2070 -0.1818
 6106TIP3    H118282   2.609   4.172   5.729  0.6424  1.5141  0.2602
 6106TIP3    H218283   2.461   4.143   5.744  0.9792 -0.5242 -0.0819
 6107TIP3   OH218284   7.123   2.775   4.029  0.2168  0.0369 -0.3267
 6107TIP3    H118285   7.186   2.831   3.984  1.2393 -0.4929  0.4135
 6107TIP3    H218286   7.090   2.828   4.101 -0.5737  0.4869 -1.0018
 6108TIP3   OH218287   6.528   3.520   2.097 -0.0474 -0.2453  0.1675
 6108TIP3    H118288   6.503   3.430   2.077 -2.9240  0.6498 -0.8175
 6108TIP3    H218289   6.554   3.517   2.189 -4.2338 -1.5112  1.5671
 6109TIP3   OH218290   1.686   0.990   4.382  0.4514  0.1538 -0.4514
 6109TIP3    H118291   1.762   1.031   4.343 -0.0622  2.0728  0.4305
 6109TIP3    H218292   1.628   1.063   4.405 -1.2938 -1.1867 -0.3618
 6110TIP3   OH218293   4.198   2.112   3.422 -0.0277 -0.5679 -0.1321
 6110TIP3    H118294   4.263   2.152   3.364 -0.3262  1.7932  1.0416
 6110TIP3    H218295   4.249   2.053   3.477  1.2799  1.4292  0.9506
 6111TIP3   OH218296   1.965   4.776   5.563 -0.4934 -0.2107 -0.2530
 6111TIP3    H118297   2.054   4.743   5.550 -1.3304 -1.8667 -2.3001
 6111TIP3    H218298   1.965   4.861   5.517  0.1565  0.0701  0.2456
 6112TIP3   OH218299   1.571   5.686   3.400  0.1216  0.0633 -0.3153
 6112TIP3    H118300   1.511   5.613   3.415 -0.5648  0.1033 -2.5349
 6112TIP3    H218301   1.525   5.763   3.435  0.2374 -0.3525  0.7613
 6113TIP3   OH218302   5.383   2.146   2.402  0.2058 -1.2727 -0.1067
 6113TIP3    H118303   5.407   2.123   2.312  0.1278  1.1954 -0.8290
 6113TIP3    H218304   5.290   2.168   2.398  0.7210  1.3222 -0.0772
 6114TIP3   OH218305   1.665   2.849   2.977  0.3652 -0.4856  0.4028
 6114TIP3    H118306   1.708   2.848   3.062  0.5069 -0.6813  0.3301
 6114TIP3    H218307   1.587   2.903   2.990 -0.1958 -1.4124  0.9430
 6115TIP3   OH218308   3.808   4.414   5.094  0.3966  0.9226 -0.1504
 6115TIP3    H118309   3.727   4.436   5.141  0.4928  1.4888 -0.2397
 6115TIP3    H218310   3.811   4.319   5.096 -0.4533  0.8780 -0.4445
 6116TIP3   OH218311   6.559   6.004   4.069 -0.0571  0.5218  0.4470
 6116TIP3    H118312   6.567   5.909   4.063 -0.4100  0.5297 -0.1726
 6116TIP3    H218313   6.481   6.025   4.018  0.8994  1.3066 -0.7546
 6117TIP3   OH218314   1.446   3.551   0.751  0.3521 -0.1003 -0.3152
 6117TIP3    H118315   1.441   3.483   0.818 -0.3584 -0.8883 -1.1348
 6117TIP3    H218316   1.368   3.537   0.697 -0.4224  2.0976  0.1473
 6118TIP3   OH218317   1.447   4.774   1.422 -0.2602  0.1559 -0.8567
 6118TIP3    H118318   1.467   4.722   1.345 -1.7933  0.3193 -1.3772
 6118TIP3    H218319   1.353   4.790   1.418  0.1066  2.9768 -0.7362
 6119TIP3   OH218320   3.404   0.522   1.167  0.7325  0.5140 -0.4829
 6119TIP3    H118321   3.412   0.614   1.141  0.6017  0.8461  0.5733
 6119TIP3    H218322   3.420   0.472   1.087  0.3044  1.4687 -1.1873
 6120TIP3   OH218323   4.674   3.335   4.534 -0.3690 -0.0730  0.0460
 6120TIP3    H118324   4.761   3.367   4.554 -0.6956  0.0504  1.3891
 6120TIP3    H218325   4.654   3.370   4.448 -0.5171  3.0373  1.2149
 6121TIP3   OH218326   7.031   1.975   1.860  0.4056  0.2870 -0.7836
 6121TIP3    H118327   7.071   2.060   1.875 -0.4118  0.2115  3.0541
 6121TIP3    H218328   7.102   1.912   1.870  0.3852  0.4092  0.2772
 6122TIP3   OH218329   7.175   3.242   3.134 -0.0267 -0.4064 -0.4947
 6122TIP3    H118330   7.263   3.278   3.125 -0.5402  1.1535  0.2725
 6122TIP3    H218331   7.157   3.201   3.049  0.8893  0.5577 -1.1916
 6123TIP3   OH218332   0.031   0.048   4.364  0.1611  0.1510 -0.3949
 6123TIP3    H118333  -0.048   0.014   4.405 -0.3119 -0.3165 -1.6484
 6123TIP3    H218334   0.099   0.038   4.431 -0.3122 -1.7474 -0.1418
 6124TIP3   OH218335   5.681   2.650   4.437 -0.4624 -0.6032  0.5644
 6124TIP3    H118336   5.705   2.726   4.490  1.2538 -1.4194  1.0229
 6124TIP3    H218337   5.665   2.580   4.500 -0.4310 -1.0461  0.0903
 6125TIP3   OH218338   3.551   6.315   3.864 -0.3819  0.6446 -0.1572
 6125TIP3    H118339   3.605   6.383   3.904  2.3375 -0.2048 -2.0864
 6125TIP3    H218340   3.554   6.333   3.771 -0.6366 -1.3963 -0.6172
 6126TIP3   OH218341   6.430   2.477   5.784  0.1847 -0.5373 -0.4816
 6126TIP3    H118342   6.366   2.548   5.787  0.0014 -0.7186  0.4709
 6126TIP3    H218343   6.474   2.487   5.700 -0.6203  0.0099 -0.8478
 6127TIP3   OH218344   2.494   1.015   2.597  0.0414 -0.0741  0.5124
 6127TIP3    H118345   2.511   0.922   2.609 -0.7766 -0.3649 -0.4425
 6127TIP3    H218346   2.408   1.029   2.636  0.4270  0.4280  1.2160
 6128TIP3   OH218347   4.261   4.280   2.665  0.0615 -0.5458 -0.6044
 6128TIP3    H118348   4.275   4.362   2.712 -1.1274 -1.6606  1.9276
 6128TIP3    H218349   4.252   4.305   2.573  0.7959  1.9957 -0.0443
 6129TIP3   OH218350   5.237   1.894   1.852 -0.4787 -0.8441 -0.2339
 6129TIP3    H118351   5.301   1.854   1.912  0.0818 -1.2724 -1.0982
 6129TIP3    H218352   5.268   1.870   1.765 -0.5558  0.8666 -0.7524
 6130TIP3   OH218353   5.035   4.869   4.517 -0.6845 -0.4000 -0.4588
 6130TIP3    H118354   5.066   4.791   4.472 -0.4653  0.3609 -1.6682
 6130TIP3    H218355   5.106   4.890   4.578 -1.0776 -1.5568  0.4376
 6131TIP3   OH218356   0.523   1.973   4.158  0.4449  0.2950  0.0097
 6131TIP3    H118357   0.593   2.004   4.101  0.0729 -1.6468 -1.6130
 6131TIP3    H218358   0.464   2.048   4.168  0.7494  0.8104 -1.8265
 6132TIP3   OH218359   5.006   6.646   1.455  0.2682  0.5545 -0.1048
 6132TIP3    H118360   4.933   6.641   1.516  0.4174 -1.2728 -0.0013
 6132TIP3    H218361   5.018   6.739   1.438 -1.3204  0.9497  0.7794
 6133TIP3   OH218362   5.915   4.167   5.278  0.1823  0.3684  0.2645
 6133TIP3    H118363   5.877   4.174   5.366 -0.3488  0.9122 -0.0016
 6133TIP3    H218364   6.002   4.206   5.286  0.9171 -1.2762  0.9834
 6134TIP3   OH218365   0.036   0.206   1.843 -0.0763  0.0493 -0.1282
 6134TIP3    H118366   0.044   0.162   1.928  2.1371 -0.1045 -0.3415
 6134TIP3    H218367  -0.010   0.287   1.863  1.1599  0.4369  1.4236
 6135TIP3   OH218368   2.692   0.984   4.723  0.2515  0.7635  0.3738
 6135TIP3    H118369   2.598   1.000   4.726  0.1294 -0.0129  1.0392
 6135TIP3    H218370   2.712   0.944   4.808  1.2390  1.2283  0.3739
 6136TIP3   OH218371   4.585   2.164   4.266  0.3893  0.2644 -0.0193
 6136TIP3    H118372   4.506   2.126   4.303 -0.4695 -0.5759 -2.5475
 6136TIP3    H218373   4.626   2.210   4.339 -1.6187 -0.5653  1.7131
 6137TIP3   OH218374   4.933   0.419   0.525  0.1008  0.1164 -0.1630
 6137TIP3    H118375   4.943   0.462   0.610  1.5210 -1.0721  0.3281
 6137TIP3    H218376   5.002   0.456   0.470 -0.2029  0.1950 -0.4960
 6138TIP3   OH218377   5.054   5.017   2.289  0.0242 -0.5747 -0.3662
 6138TIP3    H118378   5.086   4.960   2.359  0.7557  1.7829  1.3715
 6138TIP3    H218379   4.960   5.003   2.288  0.1570 -1.6138  0.1741
 6139TIP3   OH218380   2.896   1.917   4.999 -0.3158  0.4458  0.2278
 6139TIP3    H118381   2.907   1.954   4.912  2.3257 -0.9002 -0.0890
 6139TIP3    H218382   2.855   1.832   4.984  0.9356 -0.1601  0.2048
 6140TIP3   OH218383   5.950   0.721   3.722  0.0283 -0.4379  0.3604
 6140TIP3    H118384   5.958   0.648   3.784  1.1438 -2.6809 -2.2133
 6140TIP3    H218385   6.025   0.777   3.740  0.5775 -1.2826  0.7503
 6141TIP3   OH218386   0.435   4.692   0.545  0.8792  0.5519 -0.1404
 6141TIP3    H118387   0.509   4.658   0.494  1.2453  1.1897 -0.0514
 6141TIP3    H218388   0.358   4.652   0.506  1.1067  1.3907 -1.5041
 6142TIP3   OH218389   4.362   2.384   2.754  0.5571  0.1099 -0.4873
 6142TIP3    H118390   4.278   2.407   2.795  0.2510  0.6354 -1.3770
 6142TIP3    H218391   4.403   2.323   2.815 -0.1043  0.4942  0.3569
 6143TIP3   OH218392   5.370   3.634   4.255  0.0950  0.4450 -0.0037
 6143TIP3    H118393   5.324   3.690   4.192  1.0699  1.0362 -0.2103
 6143TIP3    H218394   5.450   3.682   4.276 -0.2545  0.3110  1.7855
 6144TIP3   OH218395   3.935   1.971   3.060  0.4114  0.3285 -0.1147
 6144TIP3    H118396   4.014   2.015   3.029  0.9513  0.5769  1.5228
 6144TIP3    H218397   3.930   1.993   3.153 -1.0854 -0.4456  0.0205
 6145TIP3   OH218398   3.233   3.892   0.623 -0.1756 -0.2055 -0.2780
 6145TIP3    H118399   3.190   3.819   0.667 -0.8918  0.7235  0.6365
 6145TIP3    H218400   3.298   3.852   0.566 -1.2373 -1.5951 -0.5527
 6146TIP3   OH218401   4.934   5.620   0.508 -0.4905 -0.2041  0.0865
 6146TIP3    H118402   4.971   5.640   0.422  0.6858 -1.7633  0.1759
 6146TIP3    H218403   4.912   5.705   0.546  2.9419  0.8645 -0.0446
 6147TIP3   OH218404   4.953   6.345   5.423  0.3034 -0.1140 -0.2445
 6147TIP3    H118405   4.928   6.286   5.353  1.8458 -0.6737 -0.3603
 6147TIP3    H218406   5.011   6.294   5.479  0.4374  0.8300  0.5162
 6148TIP3   OH218407   1.347   1.185   2.267  0.3036 -0.3532  0.3559
 6148TIP3    H118408   1.437   1.209   2.247  0.2966  0.2053  0.9393
 6148TIP3    H218409   1.343   1.186   2.363 -0.5885  0.7092  0.3271
 6149TIP3   OH218410   3.728   2.252   1.970  0.3074  0.1964  0.0737
 6149TIP3    H118411   3.681   2.336   1.970 -2.9806 -1.4660  1.3601
 6149TIP3    H218412   3.751   2.237   1.879 -1.1587  1.4146 -0.5336
 6150TIP3   OH218413   5.927   4.332   5.858  0.0101  0.1360 -0.1071
 6150TIP3    H118414   5.981   4.263   5.896 -2.5716 -0.2593  3.3368
 6150TIP3    H218415   5.988   4.405   5.844  1.6033 -0.4229  3.0616
 6151TIP3   OH218416   3.456   1.327   3.524  0.3408  0.0003  0.9161
 6151TIP3    H118417   3.439   1.282   3.441  0.1021  1.1729  0.3098
 6151TIP3    H218418   3.390   1.292   3.584 -0.8372  0.6231  0.0357
 6152TIP3   OH218419   1.413   5.653   0.683  0.2484  0.0400 -0.2173
 6152TIP3    H118420   1.398   5.740   0.647 -0.6527 -0.9808 -2.4939
 6152TIP3    H218421   1.332   5.633   0.731  0.7388  0.6882  0.9313
 6153TIP3   OH218422   5.769   6.128   3.976  0.2910 -0.3735 -0.2495
 6153TIP3    H118423   5.692   6.088   4.015  0.3468  0.3583  0.6662
 6153TIP3    H218424   5.767   6.102   3.884 -0.6833 -0.8956 -0.0884
 6154TIP3   OH218425   6.013   3.612   4.139 -0.0596  0.4398  0.0557
 6154TIP3    H118426   6.067   3.577   4.210 -1.6842 -0.6395  0.8428
 6154TIP3    H218427   6.069   3.610   4.062  0.6988 -1.7488  0.5793
 6155TIP3   OH218428   2.806   3.063   1.592 -0.1204 -0.0230 -0.0247
 6155TIP3    H118429   2.722   3.097   1.623 -0.9235 -1.0589 -0.9610
 6155TIP3    H218430   2.833   3.001   1.660 -0.8292 -0.7189 -0.3544
 6156TIP3   OH218431   0.705   1.704   0.684 -0.3114  0.1958 -0.2574
 6156TIP3    H118432   0.627   1.682   0.735  0.2422 -0.1316  0.4530
 6156TIP3    H218433   0.762   1.628   0.694 -0.1455  0.1778 -1.2722
 6157TIP3   OH218434   3.358   2.499   3.472 -0.4614  0.4534  0.4300
 6157TIP3    H118435   3.428   2.555   3.439  0.4732 -1.1859 -0.4757
 6157TIP3    H218436   3.282   2.521   3.418 -0.4043  1.5147  0.7468
 6158TIP3   OH218437   6.144   6.645   2.917 -0.1428  0.1815 -0.0152
 6158TIP3    H118438   6.239   6.660   2.912 -0.3265  1.3275 -0.2496
 6158TIP3    H218439   6.115   6.649   2.826 -0.6043  1.2044  0.1645
 6159TIP3   OH218440   0.830   6.615   4.928 -0.0652 -0.5852 -0.1358
 6159TIP3    H118441   0.750   6.655   4.962  0.7596 -0.9216  2.4693
 6159TIP3    H218442   0.863   6.676   4.863 -0.8965  1.0443  0.9147
 6160TIP3   OH218443   0.017   0.085   2.107 -0.8116  0.1565  0.2930
 6160TIP3    H118444  -0.045   0.135   2.160  0.1616  1.7605 -0.0055
 6160TIP3    H218445   0.087   0.061   2.169 -1.2379 -0.8103  0.4179
 6161TIP3   OH218446   1.279   2.676   3.279 -0.3609 -0.1226  0.2160
 6161TIP3    H118447   1.268   2.722   3.196  0.0385 -0.0894  0.1793
 6161TIP3    H218448   1.333   2.735   3.332 -1.3570  0.2756  0.8370
 6162TIP3   OH218449   2.228   2.257   3.554 -0.6845 -0.2508 -0.3526
 6162TIP3    H118450   2.190   2.199   3.488 -1.1132 -1.2600  0.7533
 6162TIP3    H218451   2.289   2.312   3.505 -1.0956 -0.8724 -1.6103
 6163TIP3   OH218452   0.980   3.759   2.386 -0.3215  0.2204 -0.7760
 6163TIP3    H118453   0.980   3.811   2.306  0.4913 -2.7057 -2.8669
 6163TIP3    H218454   1.073   3.751   2.409 -0.5626  1.2023  0.6130
 6164TIP3   OH218455   5.996   6.715   1.314 -0.1018  0.0601  0.0220
 6164TIP3    H118456   6.030   6.631   1.344 -0.9640 -0.1299  0.4973
 6164TIP3    H218457   5.902   6.700   1.303  0.2590 -0.3481 -4.2908
 6165TIP3   OH218458   0.048   2.311   2.159 -0.3305  0.6486  0.0596
 6165TIP3    H118459   0.087   2.383   2.109 -1.1892  1.2709  0.2505
 6165TIP3    H218460   0.120   2.251   2.176  0.3789  1.4113 -0.2103
 6166TIP3   OH218461   0.980   0.282   1.406  0.8739  0.9479  0.0229
 6166TIP3    H118462   0.953   0.244   1.490  0.5650  0.5217 -0.2677
 6166TIP3    H218463   0.994   0.374   1.426 -0.2796  1.0873  0.3139
 6167TIP3   OH218464   2.763   5.174  -0.013  0.2033 -0.4928  0.2086
 6167TIP3    H118465   2.822   5.185   0.063  1.4810 -0.5160 -0.7409
 6167TIP3    H218466   2.773   5.082  -0.038 -0.0559 -0.4367 -0.1089
 6168TIP3   OH218467   3.752   0.889   3.873 -0.0339  0.3165 -0.6999
 6168TIP3    H118468   3.803   0.952   3.823  1.1592  0.4354  0.5884
 6168TIP3    H218469   3.712   0.941   3.943  2.5530 -0.5277  1.5858
 6169TIP3   OH218470   1.853   4.828   1.913  0.1515 -0.3646 -0.6585
 6169TIP3    H118471   1.833   4.795   2.000 -0.7841 -1.4389 -1.2585
 6169TIP3    H218472   1.840   4.753   1.855 -2.5936  1.0888 -2.1390
 6170TIP3   OH218473   1.889   4.056   3.543  0.1458 -0.9720 -0.5909
 6170TIP3    H118474   1.881   4.011   3.627  0.7453  0.8046  0.4457
 6170TIP3    H218475   1.798   4.069   3.515 -0.1126 -0.1606  0.5658
 6171TIP3   OH218476   0.266   5.414   5.650 -0.1519 -0.6566 -0.8171
 6171TIP3    H118477   0.281   5.339   5.593  0.1610 -1.9953  0.9547
 6171TIP3    H218478   0.285   5.382   5.738 -0.6557  1.3233  0.0712
 6172TIP3   OH218479   3.855   5.808   4.843  0.1429  0.1431 -0.0572
 6172TIP3    H118480   3.847   5.833   4.935 -1.0702  0.6071 -0.2781
 6172TIP3    H218481   3.879   5.715   4.846  1.5824  0.5031  0.7256
 6173TIP3   OH218482   6.035   4.844   2.872 -0.0089  0.0384 -0.3732
 6173TIP3    H118483   6.018   4.938   2.864  1.0403  0.2823  0.0804
 6173TIP3    H218484   5.950   4.806   2.896 -0.1291  1.0618  0.9105
 6174TIP3   OH218485   2.377   4.519   4.665 -0.1797  0.5252  0.1267
 6174TIP3    H118486   2.417   4.434   4.650 -3.2053 -0.9215 -0.5875
 6174TIP3    H218487   2.389   4.566   4.582 -1.3497 -0.5467 -0.6871
 6175TIP3   OH218488   1.470   2.447   5.744 -0.1548  0.5303  0.1768
 6175TIP3    H118489   1.450   2.408   5.659  0.9185  0.7745 -0.2010
 6175TIP3    H218490   1.522   2.525   5.723  0.3271  0.4565  1.0645
 6176TIP3   OH218491   1.665   2.416   3.870  0.1229 -0.3653 -0.0440
 6176TIP3    H118492   1.621   2.377   3.946 -0.0289 -2.0982 -0.9757
 6176TIP3    H218493   1.601   2.412   3.800  0.8802 -0.5090 -0.7445
 6177TIP3   OH218494   3.992   1.853   2.511  0.0070 -0.1896  0.3596
 6177TIP3    H118495   3.927   1.786   2.533 -0.6149 -0.2746 -1.5554
 6177TIP3    H218496   3.941   1.930   2.487  0.5099 -0.4929 -1.9468
 6178TIP3   OH218497   6.034   6.016   1.715 -0.0433 -0.3681  0.2925
 6178TIP3    H118498   6.034   5.948   1.648  0.5923  1.7409 -2.0421
 6178TIP3    H218499   6.124   6.017   1.749  0.5682  0.6197 -1.2276
 6179TIP3   OH218500   5.866   6.206   5.388 -0.0153  0.2729  0.4203
 6179TIP3    H118501   5.920   6.166   5.320 -0.6521 -0.3074  0.2401
 6179TIP3    H218502   5.891   6.298   5.388  1.4103 -0.0861  0.7632
 6180TIP3   OH218503   5.250   5.101   3.932 -0.9317 -0.3198 -0.2312
 6180TIP3    H118504   5.333   5.055   3.946 -1.1330 -0.4586  0.5291
 6180TIP3    H218505   5.240   5.156   4.010 -1.5826 -0.3442 -0.2939
 6181TIP3   OH218506   1.009   6.745   4.441 -0.3368 -0.5310  0.4778
 6181TIP3    H118507   0.990   6.668   4.389 -2.8841 -1.2541  2.3210
 6181TIP3    H218508   0.935   6.804   4.427  0.2727  0.4434  1.1320
 6182TIP3   OH218509   5.368   1.068   2.981  0.0931 -0.6470 -0.0519
 6182TIP3    H118510   5.416   1.101   2.905 -0.9235  1.9683  0.3278
 6182TIP3    H218511   5.310   1.000   2.946  2.2575 -2.1752 -0.8967
 6183TIP3   OH218512   1.608   0.654   1.553 -0.4379  0.4150  0.5066
 6183TIP3    H118513   1.695   0.617   1.546 -0.0572  1.5385 -1.4245
 6183TIP3    H218514   1.572   0.651   1.464 -1.2764  2.4288  0.7005
 6184TIP3   OH218515   3.166   1.198   2.657  0.1638  0.3206  0.1735
 6184TIP3    H118516   3.184   1.260   2.587 -0.0553  0.3459  0.1387
 6184TIP3    H218517   3.123   1.124   2.614  2.0383 -0.6732 -0.0792
 6185TIP3   OH218518   4.831   5.185   5.764 -0.3137  0.1497  0.2967
 6185TIP3    H118519   4.758   5.152   5.816 -0.2903  1.5098  1.2401
 6185TIP3    H218520   4.858   5.266   5.808 -0.8079  1.8324 -2.2483
 6186TIP3   OH218521   1.124   0.726   0.086  0.1078  1.0958 -0.4070
 6186TIP3    H118522   1.181   0.801   0.100  0.8122  1.1649 -3.0598
 6186TIP3    H218523   1.036   0.757   0.108  0.8412  1.2670  2.8349
 6187TIP3   OH218524   6.815   3.388   5.777  0.2869 -0.1050 -0.2060
 6187TIP3    H118525   6.888   3.327   5.784 -0.4757 -0.9498  0.5670
 6187TIP3    H218526   6.739   3.333   5.761 -0.6516  0.4529  1.9111
 6188TIP3   OH218527   5.777   0.720   1.978  0.3501 -0.2102  0.2326
 6188TIP3    H118528   5.782   0.814   1.993  0.2730 -0.2260  0.3649
 6188TIP3    H218529   5.697   0.708   1.926  0.3021 -0.2130  0.3070
 6189TIP3   OH218530   1.805   3.975   5.470 -0.2055 -0.3699  0.0359
 6189TIP3    H118531   1.784   3.966   5.563 -1.3835  0.8707 -0.0853
 6189TIP3    H218532   1.724   3.950   5.425  0.0807 -0.1001 -0.6333
 6190TIP3   OH218533   2.177   6.659   0.125  0.4972 -0.2920  0.0639
 6190TIP3    H118534   2.181   6.623   0.036  0.7053 -1.3442  0.4816
 6190TIP3    H218535   2.242   6.609   0.174  0.6544  0.5384  0.7259
 6191TIP3   OH218536   5.842   0.209   2.167  0.0007  0.2973 -0.1274
 6191TIP3    H118537   5.855   0.302   2.145 -0.3627  0.1278 -1.1264
 6191TIP3    H218538   5.748   0.203   2.185 -0.0132  0.0900 -0.2676
 6192TIP3   OH218539   6.282   4.610   0.953 -0.2376  0.3711 -0.0341
 6192TIP3    H118540   6.201   4.592   0.905 -0.7649 -1.4106  1.3973
 6192TIP3    H218541   6.342   4.539   0.928  1.2989  2.1718 -1.7951
 6193TIP3   OH218542   2.164   5.668   1.406  0.2507 -0.1955  0.3691
 6193TIP3    H118543   2.146   5.696   1.496  0.3044  0.3521  0.2096
 6193TIP3    H218544   2.233   5.602   1.415  0.2515 -0.1480  0.7289
 6194TIP3   OH218545   0.204   1.466   0.669 -0.1450 -0.5385  0.3215
 6194TIP3    H118546   0.237   1.515   0.594 -0.8427  1.6672  1.3645
 6194TIP3    H218547   0.140   1.405   0.632  1.2426 -1.1761 -1.0939
 6195TIP3   OH218548   3.302   2.028   0.324 -0.2734  0.0989 -0.1256
 6195TIP3    H118549   3.220   1.982   0.342 -0.4207  0.2218 -0.4760
 6195TIP3    H218550   3.368   1.979   0.373 -0.6796  0.4960  0.8521
 6196TIP3   OH218551   2.071   1.103   0.096 -0.4355 -0.2204  0.4816
 6196TIP3    H118552   2.046   1.195   0.089  1.2273  0.1814 -0.8956
 6196TIP3    H218553   2.155   1.098   0.052  0.0200 -2.2219  1.4617
 6197TIP3   OH218554   4.702   4.663   0.260  0.3650  0.2370 -0.0406
 6197TIP3    H118555   4.779   4.621   0.298  0.1372 -0.0460  0.1118
 6197TIP3    H218556   4.732   4.697   0.176  0.5119 -0.3692 -0.2390
 6198TIP3   OH218557   2.875   1.919   5.838  0.3551  0.4077 -0.0247
 6198TIP3    H118558   2.857   2.004   5.800 -0.3145  1.6616  2.8124
 6198TIP3    H218559   2.961   1.928   5.879  1.2745 -1.0326 -1.5134
 6199TIP3   OH218560   3.168   4.184   3.984  0.7410  0.8385  0.0044
 6199TIP3    H118561   3.199   4.176   3.894 -0.5296  0.4165 -0.4191
 6199TIP3    H218562   3.211   4.113   4.031 -0.1210 -0.2027 -0.7359
 6200TIP3   OH218563   4.675   3.347   3.857  0.0982  0.0528 -0.0014
 6200TIP3    H118564   4.682   3.266   3.909  1.6574 -0.9666 -1.6622
 6200TIP3    H218565   4.745   3.403   3.891 -0.5058  0.4309  0.6497
 6201TIP3   OH218566   5.936   6.484   0.180  0.1933  0.3213  0.0195
 6201TIP3    H118567   5.849   6.445   0.171  0.8125 -0.9596 -0.6659
 6201TIP3    H218568   5.928   6.570   0.140 -0.8801  0.4148  0.3973
 6202TIP3   OH218569   1.595   3.754   0.289 -0.0451  0.3390  0.5105
 6202TIP3    H118570   1.594   3.800   0.205 -0.8759 -0.0991  0.2760
 6202TIP3    H218571   1.510   3.774   0.329  0.1793  0.2067  1.0668
 6203TIP3   OH218572   2.291   6.226   3.462  0.6485 -0.2407 -0.1394
 6203TIP3    H118573   2.365   6.172   3.489  1.0280  0.6625  0.6767
 6203TIP3    H218574   2.308   6.312   3.501 -0.6132  0.0998 -0.2808
 6204TIP3   OH218575   4.173   1.911   4.628  0.4574 -0.5247 -0.6360
 6204TIP3    H118576   4.192   1.926   4.720  1.5517  0.8485 -1.0430
 6204TIP3    H218577   4.119   1.832   4.627 -0.4740  0.0334  1.2425
 6205TIP3   OH218578   6.677   1.635   4.786 -0.0075 -0.2755  0.2519
 6205TIP3    H118579   6.712   1.715   4.748 -1.2753 -0.2347 -0.9257
 6205TIP3    H218580   6.696   1.642   4.880  2.0673  0.2219 -0.1622
 6206TIP3   OH218581   0.261   6.664   0.376  0.4231 -0.0373  0.0289
 6206TIP3    H118582   0.205   6.707   0.440 -0.5539  1.4515 -1.7008
 6206TIP3    H218583   0.229   6.574   0.372  1.0380 -0.3838  2.1454
 6207TIP3   OH218584   2.443   4.220   4.446 -0.4490  0.3732  0.2579
 6207TIP3    H118585   2.519   4.174   4.412  0.6797  2.3864 -0.0798
 6207TIP3    H218586   2.464   4.236   4.538 -0.4530  0.9453  0.1612
 6208TIP3   OH218587   5.452   2.077   5.851  0.0072 -0.0934 -0.0084
 6208TIP3    H118588   5.387   2.139   5.818  0.2640  2.0259  3.0758
 6208TIP3    H218589   5.427   2.061   5.942  2.6181 -0.8456  0.6799
 6209TIP3   OH218590   0.373   1.225   3.974  0.5266  0.6517  0.2280
 6209TIP3    H118591   0.340   1.208   4.063  2.9808 -0.6245  0.9765
 6209TIP3    H218592   0.468   1.223   3.983  0.8470  0.6538 -2.4352
 6210TIP3   OH218593   1.276   3.505   2.176  0.6076  0.0319 -0.2940
 6210TIP3    H118594   1.357   3.521   2.128  0.3442 -0.8485 -1.0479
 6210TIP3    H218595   1.278   3.412   2.196  0.1339  0.1560  0.3546
 6211TIP3   OH218596   0.471   1.666   2.714  0.3093  0.0381 -0.6945
 6211TIP3    H118597   0.401   1.731   2.727  1.4601  0.7367  3.2618
 6211TIP3    H218598   0.551   1.718   2.716  1.1505 -1.2654  0.3375
 6212TIP3   OH218599   6.469   2.623   0.896  0.1589 -0.1920 -0.4166
 6212TIP3    H118600   6.431   2.560   0.835  0.9476 -0.5946 -0.5035
 6212TIP3    H218601   6.545   2.578   0.934 -0.3409  0.0314  0.9135
 6213TIP3   OH218602   1.846   6.335   5.028 -0.2091  0.3588  0.4409
 6213TIP3    H118603   1.770   6.390   5.046 -1.5823 -1.6624  1.2063
 6213TIP3    H218604   1.832   6.305   4.938  0.8132  1.6135 -0.1666
 6214TIP3   OH218605   5.194   2.697   3.368 -0.0576  0.2745  0.2616
 6214TIP3    H118606   5.234   2.702   3.454  0.8512 -2.2737  0.0831
 6214TIP3    H218607   5.266   2.676   3.308 -0.7355  1.5295 -1.0617
 6215TIP3   OH218608   5.176   6.811   4.763  0.1383 -0.9434 -0.6503
 6215TIP3    H118609   5.224   6.802   4.845 -0.0032  1.5266 -0.2371
 6215TIP3    H218610   5.099   6.756   4.774 -0.8374  0.7573  1.6752
 6216TIP3   OH218611   2.493   4.589   5.731  0.4203 -0.0429  0.4245
 6216TIP3    H118612   2.550   4.663   5.748  0.3508  0.5258 -1.5543
 6216TIP3    H218613   2.408   4.627   5.711 -0.2695 -0.8046  1.7558
 6217TIP3   OH218614   7.013   1.759   1.650 -0.1332 -0.0669 -0.0801
 6217TIP3    H118615   7.029   1.706   1.571  0.3492  1.7672 -1.2763
 6217TIP3    H218616   7.080   1.827   1.646 -0.4969  0.4166  1.6268
 6218TIP3   OH218617   5.080   2.157   1.407 -0.6009 -0.1741  0.5889
 6218TIP3    H118618   5.100   2.225   1.343  1.5920  1.0620  2.4735
 6218TIP3    H218619   5.153   2.095   1.400 -0.6996 -0.3966  1.4155
 6219TIP3   OH218620   6.224   6.132   3.723  0.1997  0.5749 -0.1298
 6219TIP3    H118621   6.315   6.131   3.753  0.6978  0.4382 -1.5875
 6219TIP3    H218622   6.215   6.216   3.677 -0.5747  0.8162  0.4357
 6220TIP3   OH218623   4.780   5.130   5.437  0.5138 -0.3369 -0.9368
 6220TIP3    H118624   4.831   5.097   5.511  1.6616 -0.9363 -1.9623
 6220TIP3    H218625   4.689   5.124   5.465  0.8489 -1.9567 -0.1383
 6221TIP3   OH218626   3.905   2.057   1.200 -0.2505  0.0546 -0.0555
 6221TIP3    H118627   3.992   2.017   1.205 -0.6742 -0.9508 -0.3566
 6221TIP3    H218628   3.921   2.151   1.193  0.8239 -0.1474 -0.4191
 6222TIP3   OH218629   2.902   5.711   5.596  0.1006 -0.0754 -0.0211
 6222TIP3    H118630   2.926   5.744   5.510  0.6154 -1.1900 -0.3306
 6222TIP3    H218631   2.806   5.706   5.595  0.1187 -0.3070 -0.6143
 6223TIP3   OH218632   2.525   1.837   4.193  0.0067 -0.2013  0.3406
 6223TIP3    H118633   2.456   1.771   4.193  0.1945 -0.3954  0.2316
 6223TIP3    H218634   2.596   1.799   4.142 -0.3824  0.6014 -0.8498
 6224TIP3   OH218635   3.937   1.997   5.775 -0.2946  0.9794  0.1348
 6224TIP3    H118636   3.999   2.068   5.757 -1.3040  1.4888 -1.4746
 6224TIP3    H218637   3.851   2.035   5.761 -0.8909 -0.4040 -0.1440
 6225TIP3   OH218638   6.914   0.031   4.007  0.0033  0.0978  0.1969
 6225TIP3    H118639   6.940  -0.032   4.074  2.1488 -0.2300 -0.8672
 6225TIP3    H218640   6.994   0.081   3.989 -1.3320  2.3376  0.1461
 6226TIP3   OH218641   1.486   6.257   0.762 -0.0947  0.3873 -0.1873
 6226TIP3    H118642   1.490   6.162   0.771  0.7994  0.4978  0.7885
 6226TIP3    H218643   1.393   6.278   0.773 -0.2078 -0.3201  0.2950
 6227TIP3   OH218644   3.601   6.428   3.618  0.1609 -0.1490 -0.2594
 6227TIP3    H118645   3.528   6.471   3.572  0.8515  1.2145 -0.1219
 6227TIP3    H218646   3.678   6.452   3.568  0.8390  0.7160  1.1458
 6228TIP3   OH218647   5.688   6.743   1.407 -0.2376  0.0367  0.4175
 6228TIP3    H118648   5.724   6.663   1.369  0.2549  0.0077  0.9355
 6228TIP3    H218649   5.658   6.794   1.331  0.7443 -0.0114 -0.0198
 6229TIP3   OH218650   5.800   5.583   1.929 -0.2057  0.0268 -0.1172
 6229TIP3    H118651   5.891   5.606   1.948 -0.1255  0.4387 -0.9619
 6229TIP3    H218652   5.790   5.600   1.835 -1.5367  1.3383  0.2186
 6230TIP3   OH218653   0.732   0.209   4.612  0.1876 -0.1124  0.1654
 6230TIP3    H118654   0.796   0.278   4.631 -0.3951  0.6813 -0.6361
 6230TIP3    H218655   0.781   0.128   4.621  1.4489  0.4940 -0.8827
 6231TIP3   OH218656   2.602   3.103   2.362 -0.2684  0.2237  0.6380
 6231TIP3    H118657   2.608   3.091   2.457 -0.6711  0.1019  0.6497
 6231TIP3    H218658   2.523   3.155   2.349 -0.0185  0.5504  0.3922
 6232TIP3   OH218659   2.491   1.921   0.644 -1.1186 -0.4805 -0.5727
 6232TIP3    H118660   2.559   1.941   0.580  0.8606 -0.3001  1.4599
 6232TIP3    H218661   2.436   1.856   0.600 -0.0720 -0.1200 -2.5503
 6233TIP3   OH218662   1.718   1.370   3.996 -0.2205 -0.3328  0.1496
 6233TIP3    H118663   1.682   1.447   3.952 -1.3345 -0.8758  0.0780
 6233TIP3    H218664   1.644   1.335   4.046 -0.0991 -2.1278 -0.8710
 6234TIP3   OH218665   6.504   3.958   2.566 -0.3592 -0.0854  0.0937
 6234TIP3    H118666   6.447   4.030   2.593  0.0089  0.2477 -0.0211
 6234TIP3    H218667   6.585   4.000   2.539 -0.0295 -0.5656  0.3221
 6235TIP3   OH218668   4.445   0.722   5.876 -0.1564 -0.2079 -0.4322
 6235TIP3    H118669   4.353   0.746   5.866 -0.0754  0.6046  0.5819
 6235TIP3    H218670   4.490   0.769   5.807 -0.2301  1.2395  0.4721
 6236TIP3   OH218671   3.187   2.643   0.830 -0.4054 -0.2268 -0.3796
 6236TIP3    H118672   3.250   2.601   0.771 -0.3686  0.4707 -0.8468
 6236TIP3    H218673   3.171   2.728   0.790  1.7243  1.4461  2.0145
 6237TIP3   OH218674   4.130   5.466   4.586 -0.6315 -0.5372  0.6198
 6237TIP3    H118675   4.221   5.453   4.614 -0.4819  0.1604  0.4651
 6237TIP3    H218676   4.112   5.391   4.529 -0.3531 -1.0049  1.1382
 6238TIP3   OH218677   3.925   0.752   0.558 -0.4025 -0.0840 -0.1261
 6238TIP3    H118678   3.833   0.739   0.534 -0.1570 -0.6048 -0.8374
 6238TIP3    H218679   3.934   0.706   0.641 -0.8997  0.4007  0.2050
 6239TIP3   OH218680   0.552   2.311   4.830  0.1692 -0.1213 -0.4183
 6239TIP3    H118681   0.541   2.294   4.924  1.7103 -0.2407 -0.2302
 6239TIP3    H218682   0.470   2.352   4.803  0.6315  2.3030  1.5307
 6240TIP3   OH218683   4.669   5.260   2.897  0.4016 -0.1272 -0.4904
 6240TIP3    H118684   4.698   5.171   2.918 -1.4987 -0.6749  0.0194
 6240TIP3    H218685   4.746   5.302   2.859  1.4664 -1.8476 -0.3486
 6241TIP3   OH218686   6.299   3.733   5.143 -0.4438  0.1263 -0.1843
 6241TIP3    H118687   6.382   3.734   5.192  0.4742  0.8729 -1.6918
 6241TIP3    H218688   6.245   3.670   5.190  1.7085 -1.9819 -0.3180
 6242TIP3   OH218689   5.165   2.847   4.786 -0.2543  0.1628  0.5745
 6242TIP3    H118690   5.084   2.797   4.793 -0.9524  1.1884 -0.0255
 6242TIP3    H218691   5.176   2.864   4.692  1.4047 -1.1480  0.4825
 6243TIP3   OH218692   4.027   5.013   4.272  0.4524  0.1577  0.8454
 6243TIP3    H118693   4.072   4.932   4.246 -0.1379 -0.3681  1.4277
 6243TIP3    H218694   4.093   5.081   4.260  0.6122 -0.2488 -0.7106
 6244TIP3   OH218695   2.817   2.569   0.052  0.1333  0.1041  0.0983
 6244TIP3    H118696   2.745   2.614   0.008  0.8017  1.0106 -0.1043
 6244TIP3    H218697   2.841   2.498  -0.007 -0.6419 -0.2449  0.2032
 6245TIP3   OH218698   1.518   5.299   2.768 -0.2207  0.1600 -0.0048
 6245TIP3    H118699   1.595   5.290   2.825 -0.9708 -0.2110  0.9698
 6245TIP3    H218700   1.467   5.369   2.808  1.4394  3.2973 -2.8062
 6246TIP3   OH218701   6.240   5.873   4.201  0.0569  0.8826  0.0433
 6246TIP3    H118702   6.271   5.782   4.202 -0.2369  0.7838  0.8051
 6246TIP3    H218703   6.241   5.899   4.293  4.3065  3.1034 -0.3610
 6247TIP3   OH218704   1.139   4.096   3.636 -0.5294 -0.1939 -0.0240
 6247TIP3    H118705   1.213   4.070   3.581 -0.9718  0.6987 -1.0699
 6247TIP3    H218706   1.097   4.013   3.660 -0.3422 -0.6089 -1.0534
 6248TIP3   OH218707   6.458   4.000   2.188  0.1223 -0.2985 -0.1269
 6248TIP3    H118708   6.459   4.082   2.238  0.3607 -0.4433  0.1067
 6248TIP3    H218709   6.370   3.965   2.201  0.6600 -1.1605  1.5462
 6249TIP3   OH218710   5.486   0.558   1.750  0.2686  0.4727  0.1841
 6249TIP3    H118711   5.554   0.510   1.701 -1.0566 -1.0134 -0.2773
 6249TIP3    H218712   5.517   0.558   1.840  2.5923  2.9477 -0.4789
 6250TIP3   OH218713   0.268   1.121   3.649  0.2194 -1.1293 -0.6097
 6250TIP3    H118714   0.251   1.029   3.631 -1.6906 -1.3070  1.6526
 6250TIP3    H218715   0.274   1.161   3.562  0.5473 -3.2502 -1.6383
 6251TIP3   OH218716   1.774   1.021   2.423 -0.3682  0.3816 -0.3887
 6251TIP3    H118717   1.714   1.071   2.367 -1.0052  0.9663  0.7811
 6251TIP3    H218718   1.856   1.071   2.422 -0.5516  0.6855 -0.3658
 6252TIP3   OH218719   5.312   2.886   3.088 -0.4775  0.3046 -0.7223
 6252TIP3    H118720   5.317   2.971   3.045 -0.4179  0.6839  0.0078
 6252TIP3    H218721   5.221   2.879   3.115 -0.6716 -0.2319 -1.4908
 6253TIP3   OH218722   0.392   5.402   2.505 -0.2457  0.1757  0.1321
 6253TIP3    H118723   0.339   5.392   2.584  0.4466  0.0505  0.5867
 6253TIP3    H218724   0.363   5.331   2.447 -1.4323  0.8453 -0.1279
 6254TIP3   OH218725   0.212   3.267   5.115 -0.2160  0.2867 -0.1497
 6254TIP3    H118726   0.166   3.344   5.081  0.6396  0.6391 -0.5416
 6254TIP3    H218727   0.305   3.291   5.111 -0.0134 -0.2466  1.0156
 6255TIP3   OH218728   2.993   3.117   3.383  0.3306  0.2570  0.1802
 6255TIP3    H118729   3.029   3.079   3.303  0.6332 -0.5960  0.7071
 6255TIP3    H218730   2.997   3.046   3.447  4.2672  2.0507  2.2744
 6256TIP3   OH218731   3.643   2.576   5.121  0.4614 -0.2318 -0.0384
 6256TIP3    H118732   3.555   2.609   5.138  0.7855 -0.5071  2.4272
 6256TIP3    H218733   3.636   2.481   5.131  1.2094 -0.1790  1.1381
 6257TIP3   OH218734   1.219   1.619   0.544 -0.2221  0.1352  0.2031
 6257TIP3    H118735   1.156   1.611   0.473  1.3958 -0.8780 -1.2018
 6257TIP3    H218736   1.282   1.683   0.514  2.2692 -2.5630 -0.8276
 6258TIP3   OH218737   3.773   5.038   5.305  0.3489  0.2055 -0.4277
 6258TIP3    H118738   3.863   5.056   5.277  0.1430 -1.3213 -2.3052
 6258TIP3    H218739   3.720   5.054   5.226 -0.7739 -0.8081  0.0790
 6259TIP3   OH218740   0.771   4.068   1.234 -0.1717 -0.0372 -0.5372
 6259TIP3    H118741   0.859   4.047   1.204  0.4584  0.6403  0.7284
 6259TIP3    H218742   0.767   4.031   1.322 -0.8354  0.6692 -0.2592
 6260TIP3   OH218743   1.632   0.659   5.343  0.1184 -0.3337  0.2885
 6260TIP3    H118744   1.563   0.596   5.366  0.9726 -1.4778 -0.1809
 6260TIP3    H218745   1.713   0.608   5.345  0.9078  0.8706  0.3497
 6261TIP3   OH218746   6.850   5.367   2.837  0.5757  0.4541  0.3187
 6261TIP3    H118747   6.761   5.402   2.834  0.0673 -0.7374  0.9290
 6261TIP3    H218748   6.906   5.444   2.850 -0.3774  1.1848  0.1673
 6262TIP3   OH218749   2.759   6.146   5.359  0.1143  0.0366 -0.4603
 6262TIP3    H118750   2.836   6.089   5.357 -1.1201 -1.7745  0.6556
 6262TIP3    H218751   2.721   6.137   5.271  0.2126 -0.4764 -0.4586
 6263TIP3   OH218752   5.157   3.361   2.683  0.5647  0.1944  0.3782
 6263TIP3    H118753   5.196   3.445   2.707  1.4306 -0.3920  1.1241
 6263TIP3    H218754   5.138   3.319   2.767  0.3275 -0.4365  0.0133
 6264TIP3   OH218755   4.316   4.285   5.222  0.5118  0.5787  0.0441
 6264TIP3    H118756   4.241   4.240   5.261 -0.9633  1.8910 -1.1711
 6264TIP3    H218757   4.387   4.272   5.285 -0.8981 -0.1645  1.5492
 6265TIP3   OH218758   3.308   0.193   5.105 -0.5715  0.0966  0.4975
 6265TIP3    H118759   3.291   0.254   5.176 -0.1574 -1.4850  2.0459
 6265TIP3    H218760   3.316   0.108   5.148  0.1340 -0.8681 -1.4016
 6266TIP3   OH218761   2.575   1.091   3.985  0.0392  0.3831 -0.1200
 6266TIP3    H118762   2.627   1.092   4.066  1.0409  0.7722 -0.7590
 6266TIP3    H218763   2.521   1.011   3.993 -0.0161  0.5082  1.0017
 6267TIP3   OH218764   6.983   3.688   4.239  0.1165  0.1830  0.0511
 6267TIP3    H118765   6.917   3.757   4.229  1.1161  1.0959 -0.5423
 6267TIP3    H218766   7.062   3.734   4.266  0.7481 -0.7635 -0.1216
 6268TIP3   OH218767   2.005   0.931   2.695 -0.1929 -0.1059 -0.4537
 6268TIP3    H118768   1.910   0.935   2.682 -0.2256 -3.2315 -2.3768
 6268TIP3    H218769   2.023   0.838   2.709  2.6489  0.2955 -0.8343
 6269TIP3   OH218770   0.155   4.608   4.841  0.1994  0.6825 -0.0753
 6269TIP3    H118771   0.084   4.559   4.800  2.0085 -1.2105 -1.1232
 6269TIP3    H218772   0.141   4.596   4.935 -1.4853  1.3246 -0.2157
 6270TIP3   OH218773   5.265   3.127   4.420 -0.7752 -0.4068 -0.4924
 6270TIP3    H118774   5.214   3.185   4.476 -0.8946 -0.9285 -0.0511
 6270TIP3    H218775   5.286   3.180   4.343  1.3946  1.0931  1.0360
 6271TIP3   OH218776   1.259   3.035   1.568 -0.1698 -0.0886  0.1839
 6271TIP3    H118777   1.312   3.006   1.642  0.1541 -1.0457 -0.4026
 6271TIP3    H218778   1.188   2.971   1.563 -0.2775  0.0614 -0.2271
 6272TIP3   OH218779   3.666   1.972   5.217 -0.1489  0.6572 -0.0827
 6272TIP3    H118780   3.611   2.050   5.222 -0.8939  0.1113  0.4452
 6272TIP3    H218781   3.687   1.952   5.308 -0.4170 -0.0734 -0.1740
 6273TIP3   OH218782   0.650   6.104   0.395 -0.3549 -0.4877  0.0927
 6273TIP3    H118783   0.607   6.047   0.458 -1.2923  1.4123  1.2630
 6273TIP3    H218784   0.732   6.130   0.438  1.1729 -2.6009 -1.3509
 6274TIP3   OH218785   1.799   0.753   2.972  0.3007 -0.1660  0.0608
 6274TIP3    H118786   1.714   0.768   3.015  0.2111 -1.2970  0.2962
 6274TIP3    H218787   1.794   0.805   2.892  0.9388  3.0119  1.8932
 6275TIP3   OH218788   6.479   3.784   2.771  0.8086  0.0723 -0.0377
 6275TIP3    H118789   6.418   3.808   2.841  0.6523  0.0323 -0.1600
 6275TIP3    H218790   6.472   3.856   2.708 -0.3150 -0.7097 -0.8316
 6276TIP3   OH218791   0.928   6.496   4.363  0.3347  0.1991 -0.3959
 6276TIP3    H118792   0.981   6.426   4.324 -0.2547  0.4052 -1.6120
 6276TIP3    H218793   0.899   6.460   4.447  3.7499  0.6942  1.1552
 6277TIP3   OH218794   1.889   0.592   1.585 -0.5124  0.3351  0.6892
 6277TIP3    H118795   1.904   0.624   1.674 -2.5044  0.9416  0.8736
 6277TIP3    H218796   1.932   0.656   1.529 -0.0470  0.4697  1.1895
 6278TIP3   OH218797   6.505   4.019   0.986  0.0609 -0.7128 -0.6672
 6278TIP3    H118798   6.508   3.939   1.039  2.5581  1.2255  2.3904
 6278TIP3    H218799   6.573   4.006   0.920  0.6848 -0.9644  0.0203
 6279TIP3   OH218800   5.755   1.809   5.386  0.2256  0.3473  0.1640
 6279TIP3    H118801   5.826   1.849   5.336 -0.1808  1.2469  0.2888
 6279TIP3    H218802   5.752   1.718   5.355  1.0629  0.4498 -0.2365
 6280TIP3   OH218803   1.897   4.203   3.869 -0.5737  0.7290  0.6427
 6280TIP3    H118804   1.889   4.115   3.830  0.9229  0.1494  1.5686
 6280TIP3    H218805   1.970   4.243   3.823 -1.2581  1.5132  0.2221
 6281TIP3   OH218806   4.709   1.003   0.658 -0.0892  0.3009 -0.8767
 6281TIP3    H118807   4.767   0.938   0.620  2.3431  1.7328  0.1575
 6281TIP3    H218808   4.685   1.060   0.584 -0.0851 -0.2170 -1.2819
 6282TIP3   OH218809   1.227   0.467   1.777  0.4563  0.1188  0.1570
 6282TIP3    H118810   1.308   0.518   1.772  0.4385  0.1771  0.4422
 6282TIP3    H218811   1.242   0.393   1.718  0.5340  0.3788 -0.1548
 6283TIP3   OH218812   2.088   4.805   0.223  0.3030  0.4384 -0.2990
 6283TIP3    H118813   2.176   4.797   0.187 -0.3132 -0.4661 -1.7158
 6283TIP3    H218814   2.091   4.884   0.277  2.0686  0.2075  0.0064
 6284TIP3   OH218815   4.947   0.106   1.663 -0.3198 -0.0013  0.2849
 6284TIP3    H118816   4.972   0.154   1.585  1.0565 -0.4682  0.4094
 6284TIP3    H218817   4.860   0.071   1.643  0.5361 -1.2214 -1.5789
 6285TIP3   OH218818   2.228   1.714   0.893  0.5562 -0.1415 -0.0737
 6285TIP3    H118819   2.185   1.788   0.936 -0.2847 -0.3973 -0.4427
 6285TIP3    H218820   2.209   1.639   0.948  1.0448 -0.1589  0.0748
 6286TIP3   OH218821   4.405   5.466   4.576  0.1887  0.2923 -0.6387
 6286TIP3    H118822   4.453   5.392   4.539 -0.2016 -0.0738 -0.4087
 6286TIP3    H218823   4.414   5.457   4.670  1.5757  1.4864 -0.6105
 6287TIP3   OH218824   3.427   3.955   4.855 -0.4150  0.0278  0.0687
 6287TIP3    H118825   3.518   3.928   4.867 -0.4160 -0.1676 -0.3314
 6287TIP3    H218826   3.433   4.044   4.821 -0.3967  0.3248  0.8311
 6288TIP3   OH218827   0.568   5.842   2.713 -0.2250 -0.0984  0.6377
 6288TIP3    H118828   0.546   5.808   2.800 -2.6034 -1.4898 -0.4186
 6288TIP3    H218829   0.608   5.767   2.668 -0.9671 -0.0270 -0.1458
 6289TIP3   OH218830   4.057   1.107   0.351 -0.0155  0.0065  0.2911
 6289TIP3    H118831   4.043   1.201   0.339 -2.0991 -0.4405 -1.3621
 6289TIP3    H218832   4.028   1.090   0.440 -0.9631  0.7366  0.1425
 6290TIP3   OH218833   4.857   1.953   4.210 -0.1604 -0.0331  0.2203
 6290TIP3    H118834   4.820   1.924   4.127 -0.6264  1.8872 -0.2834
 6290TIP3    H218835   4.939   1.905   4.218  0.9775  1.2676 -2.4136
 6291TIP3   OH218836   3.321   2.047   5.619 -0.5228 -0.4165  0.3301
 6291TIP3    H118837   3.352   2.134   5.596  0.0086 -1.1280 -1.9101
 6291TIP3    H218838   3.263   2.022   5.547 -0.3665 -2.0479  0.7322
 6292TIP3   OH218839   2.507   0.596   0.499 -0.2415  0.1470  0.0142
 6292TIP3    H118840   2.543   0.571   0.414 -0.1382 -0.3644  0.2061
 6292TIP3    H218841   2.527   0.522   0.557 -0.9539  0.1770  0.3049
 6293TIP3   OH218842   0.471   0.698   3.581 -0.4104  0.8669 -0.3904
 6293TIP3    H118843   0.377   0.700   3.561 -0.5478  1.7535  0.2853
 6293TIP3    H218844   0.513   0.685   3.495 -1.1358  0.7344 -0.7338
 6294TIP3   OH218845   3.484   6.185   0.628  0.3311 -0.1080  0.1274
 6294TIP3    H118846   3.532   6.267   0.615  1.3896 -0.6600  0.4282
 6294TIP3    H218847   3.499   6.163   0.720 -0.6444 -0.2157  0.2718
 6295TIP3   OH218848   1.686   0.867   4.887  0.3981  0.2822 -0.2781
 6295TIP3    H118849   1.774   0.857   4.851  0.8752  0.3478  0.8394
 6295TIP3    H218850   1.696   0.849   4.981 -0.5395  1.5150  0.0860
 6296TIP3   OH218851   0.345   6.309   3.720  0.1698 -0.0319 -0.3820
 6296TIP3    H118852   0.274   6.312   3.783 -1.9949  0.4686 -2.6896
 6296TIP3    H218853   0.324   6.377   3.656  2.4672 -0.1984 -1.4318
 6297TIP3   OH218854   6.813   3.696   3.028 -0.4459  0.2253 -0.9663
 6297TIP3    H118855   6.762   3.615   3.022 -0.8182  0.3577  0.0828
 6297TIP3    H218856   6.887   3.683   2.969 -1.6311 -0.0034 -2.4701
 6298TIP3   OH218857   0.925   0.147   1.649  0.1665 -0.6118 -0.4548
 6298TIP3    H118858   0.875   0.087   1.704  0.3301 -0.3147  0.0236
 6298TIP3    H218859   1.000   0.096   1.618  0.0235 -0.8055 -0.4831
 6299TIP3   OH218860   5.524   1.058   2.755  0.4455  0.4614  0.9112
 6299TIP3    H118861   5.482   1.066   2.670 -0.7854 -0.5528  1.3859
 6299TIP3    H218862   5.559   0.968   2.756  1.1749  0.7373  1.1708
 6300TIP3   OH218863   2.083   0.744   0.212  0.2029  0.0896 -0.6739
 6300TIP3    H118864   2.020   0.812   0.187  1.1094  1.0884 -0.3322
 6300TIP3    H218865   2.158   0.793   0.246  0.9361 -1.0944 -0.5474
 6301TIP3   OH218866   5.469   5.432   4.635 -0.3329 -0.3910  0.2270
 6301TIP3    H118867   5.508   5.382   4.563  0.2308 -0.6435  0.6981
 6301TIP3    H218868   5.389   5.470   4.597  0.3886  0.1923 -0.7891
 6302TIP3   OH218869   6.934   5.764   5.689  0.0980  0.0229 -0.1650
 6302TIP3    H118870   6.877   5.763   5.612 -1.0856  0.4567  0.6681
 6302TIP3    H218871   6.950   5.857   5.706 -1.9675  0.1186  1.7053
 6303TIP3   OH218872   5.350   5.728   5.148 -0.2224  0.2779  0.0497
 6303TIP3    H118873   5.290   5.685   5.208  0.1558  0.0824  0.2913
 6303TIP3    H218874   5.379   5.807   5.194  1.9150 -1.0732  1.1456
 6304TIP3   OH218875   2.752   0.515   1.217  0.2094  0.3333  0.2710
 6304TIP3    H118876   2.808   0.592   1.210 -0.3514  0.6811 -0.5076
 6304TIP3    H218877   2.684   0.540   1.279 -0.7618  0.9796 -1.0125
 6305TIP3   OH218878   0.180   0.854   3.589  0.2242 -0.2043 -0.3182
 6305TIP3    H118879   0.121   0.780   3.604  0.8752 -0.8381 -0.8652
 6305TIP3    H218880   0.158   0.885   3.501 -0.0884  0.3123 -0.0703
 6306TIP3   OH218881   6.109   1.614   3.332 -0.4238  0.0456  0.0392
 6306TIP3    H118882   6.078   1.611   3.241 -1.1606  2.1050  0.1658
 6306TIP3    H218883   6.203   1.627   3.325 -0.4633  0.0861 -0.4265
 6307TIP3   OH218884   4.474   6.192   4.021 -0.4047  0.3463 -0.1841
 6307TIP3    H118885   4.520   6.188   4.105  1.1414  0.8266 -0.9853
 6307TIP3    H218886   4.410   6.263   4.033 -0.4518  0.1747  0.6899
 6308TIP3   OH218887   4.386   1.683   5.231 -0.4097  0.1307 -0.1479
 6308TIP3    H118888   4.396   1.683   5.326 -1.7522 -1.5359  0.0461
 6308TIP3    H218889   4.447   1.751   5.200  1.2627 -0.4112  1.7504
 6309TIP3   OH218890   3.973   1.273   5.732 -0.1985  0.0956  0.3006
 6309TIP3    H118891   3.998   1.320   5.652 -1.8750 -0.7423 -0.7758
 6309TIP3    H218892   4.005   1.184   5.718  0.0905  0.0957  0.8960
 6310TIP3   OH218893   3.056   4.474   5.711 -0.3067 -0.0178 -0.0685
 6310TIP3    H118894   2.966   4.475   5.742  0.0829  0.5212  1.0950
 6310TIP3    H218895   3.087   4.385   5.727 -0.3430  0.0541  0.3978
 6311TIP3   OH218896   5.983   4.579   4.293 -0.1214 -0.1472 -0.3606
 6311TIP3    H118897   6.050   4.533   4.343  0.2724  1.9868  1.2309
 6311TIP3    H218898   5.966   4.523   4.217  0.7704 -2.5221  1.0952
 6312TIP3   OH218899   2.523   4.219   1.763  0.4119 -0.3987  0.0414
 6312TIP3    H118900   2.574   4.289   1.724 -0.0360  0.5380  1.0737
 6312TIP3    H218901   2.451   4.263   1.807  1.8528 -1.1132  3.5045
 6313TIP3   OH218902   7.106   4.848   5.818 -0.2534 -0.3132 -0.2032
 6313TIP3    H118903   7.032   4.854   5.758 -0.1903  1.8444 -0.1695
 6313TIP3    H218904   7.095   4.923   5.876  0.7376 -1.2518  1.2613
 6314TIP3   OH218905   5.775   6.161   0.093 -0.7840  1.0659  0.1700
 6314TIP3    H118906   5.739   6.120   0.172  1.4127  0.8976  1.1399
 6314TIP3    H218907   5.798   6.087   0.037  1.4382  0.9307  1.1429
 6315TIP3   OH218908   6.661   3.012   1.221 -0.0987  0.0268  0.0769
 6315TIP3    H118909   6.675   3.066   1.299 -0.9303  0.4698 -0.0687
 6315TIP3    H218910   6.652   2.923   1.255  2.1174 -0.2020  0.2539
 6316TIP3   OH218911   3.656   6.149   5.690  0.5127  0.1312 -0.5012
 6316TIP3    H118912   3.650   6.086   5.618  0.6371  0.9114 -1.2213
 6316TIP3    H218913   3.609   6.226   5.657 -0.0593  0.2476  0.5499
 6317TIP3   OH218914  -0.009   5.504   2.360 -0.1414 -0.3879  0.1905
 6317TIP3    H118915   0.031   5.579   2.405  0.2032 -0.5726  0.1930
 6317TIP3    H218916   0.046   5.429   2.384 -1.0289 -0.8201  0.9628
 6318TIP3   OH218917   6.286   6.142   4.271 -0.4665  0.9842 -0.2314
 6318TIP3    H118918   6.242   6.075   4.220 -1.5464  1.4812  0.0123
 6318TIP3    H218919   6.301   6.101   4.356  1.4821  0.1016 -0.9474
 6319TIP3   OH218920   2.005   1.642   0.027 -0.3468 -0.0362  0.3183
 6319TIP3    H118921   1.983   1.557   0.066 -0.7313  0.3626  0.9900
 6319TIP3    H218922   2.094   1.660   0.058 -0.0188 -0.4792 -0.3420
 6320TIP3   OH218923   5.946   3.118   3.269  0.5885  0.7568  0.1587
 6320TIP3    H118924   5.871   3.065   3.297 -0.3419  0.4281 -2.6538
 6320TIP3    H218925   5.913   3.208   3.269  0.7069  0.8010  0.4674
 6321TIP3   OH218926   6.245   4.236   2.141 -0.0651 -0.8419  0.1783
 6321TIP3    H118927   6.299   4.233   2.063  1.0202 -3.1087  0.9366
 6321TIP3    H218928   6.294   4.290   2.203  0.2284 -1.0049  0.0888
 6322TIP3   OH218929   3.352   2.291   5.480 -0.1897 -1.1189 -0.2474
 6322TIP3    H118930   3.358   2.382   5.510  0.7874 -1.1869 -0.2057
 6322TIP3    H218931   3.361   2.297   5.385  0.4298 -1.2107 -0.1990
 6323TIP3   OH218932   0.877   5.024   5.690 -0.1099 -0.5077  0.1340
 6323TIP3    H118933   0.961   4.981   5.676  0.5133  0.4695  0.7079
 6323TIP3    H218934   0.848   4.990   5.775 -0.0027 -0.4032  0.2135
 6324TIP3   OH218935   4.484   4.212   3.852 -0.3160 -0.5022  0.1896
 6324TIP3    H118936   4.434   4.141   3.892 -0.3322 -0.1141  0.8748
 6324TIP3    H218937   4.500   4.183   3.762 -0.1444 -1.4621  0.5171
 6325TIP3   OH218938   1.645   6.773   2.725  0.2581  0.1735  0.1078
 6325TIP3    H118939   1.737   6.799   2.716  0.6899 -0.9342  0.9669
 6325TIP3    H218940   1.596   6.837   2.675  1.5422  0.5790 -0.6633
 6326TIP3   OH218941   3.276   1.673   1.203  0.3681  0.2954 -0.4677
 6326TIP3    H118942   3.215   1.609   1.241  0.5349 -0.1878 -1.0050
 6326TIP3    H218943   3.351   1.673   1.263 -0.1667  0.9139  0.2119
 6327TIP3   OH218944   1.036   3.862   3.706 -0.0341 -0.5362  0.2420
 6327TIP3    H118945   1.109   3.814   3.665  2.2826  3.0869 -0.3136
 6327TIP3    H218946   1.036   3.832   3.797  1.2271 -1.6629 -0.0876
 6328TIP3   OH218947   5.707   0.038   4.683 -0.2446 -0.1143 -0.0727
 6328TIP3    H118948   5.777   0.026   4.618 -0.3730  1.3344 -0.5291
 6328TIP3    H218949   5.752   0.076   4.759 -0.3997  0.0729 -0.0724
 6329TIP3   OH218950   4.978   0.018   4.799  0.2988  0.4841  0.0335
 6329TIP3    H118951   4.897   0.069   4.793 -0.5128 -0.4189  2.1773
 6329TIP3    H218952   4.953  -0.069   4.768  1.1044  0.7642 -1.5040
 6330TIP3   OH218953   0.627   0.136   2.453 -0.3238  0.6465 -0.2354
 6330TIP3    H118954   0.649   0.216   2.405  1.1466 -0.3548 -1.2991
 6330TIP3    H218955   0.637   0.159   2.545 -1.1467  2.0127 -0.4547
 6331TIP3   OH218956   5.187   3.281   4.649  0.0407 -0.2074 -0.6598
 6331TIP3    H118957   5.217   3.349   4.589 -1.5461  1.0793 -0.1064
 6331TIP3    H218958   5.251   3.282   4.720  0.9367 -0.4614 -1.4588
 6332TIP3   OH218959   6.203   0.507   4.581 -0.2921 -0.1509 -0.2202
 6332TIP3    H118960   6.109   0.517   4.601 -0.2518  2.6993 -0.9790
 6332TIP3    H218961   6.224   0.585   4.529  2.2771 -1.3005 -1.0215
 6333TIP3   OH218962   5.780   3.628   3.477  0.2114 -0.5558  0.0256
 6333TIP3    H118963   5.791   3.535   3.495  1.3684 -0.5918 -0.7338
 6333TIP3    H218964   5.736   3.631   3.392  0.0831 -0.4008  0.0964
 6334TIP3   OH218965   3.640   4.682   2.061 -0.4194  0.6066  0.0401
 6334TIP3    H118966   3.581   4.685   1.986 -0.5619  2.2564  0.1744
 6334TIP3    H218967   3.584   4.658   2.135 -1.0203  2.3956  0.2113
 6335TIP3   OH218968   2.031   6.559   5.847  0.3521  0.1842 -0.3647
 6335TIP3    H118969   2.105   6.535   5.792  0.6703 -0.8605  0.5059
 6335TIP3    H218970   1.963   6.585   5.785  0.1413 -2.5090 -1.3893
 6336TIP3   OH218971   0.996   5.292   2.187 -0.4440  0.0548  0.2194
 6336TIP3    H118972   0.911   5.321   2.220 -0.0091  0.3501  1.0886
 6336TIP3    H218973   1.000   5.198   2.208 -0.2862  0.1813  0.7771
 6337TIP3   OH218974   7.078   4.427   0.607 -0.2951  0.1993 -0.8798
 6337TIP3    H118975   7.120   4.470   0.532 -0.8372 -0.3121 -1.4907
 6337TIP3    H218976   7.139   4.442   0.680  0.4862  0.2806 -1.5258
 6338TIP3   OH218977   1.196   4.384   5.378  0.4809 -0.6170 -0.3794
 6338TIP3    H118978   1.122   4.407   5.435  1.1561  1.5231 -0.3102
 6338TIP3    H218979   1.219   4.465   5.333  0.6323 -2.0009 -3.0075
 6339TIP3   OH218980   6.323   0.404   4.309 -0.8324 -0.8812  0.1964
 6339TIP3    H118981   6.288   0.493   4.309  0.5543 -0.3056 -0.3311
 6339TIP3    H218982   6.381   0.400   4.385  2.2209  0.0316 -1.9056
 6340TIP3   OH218983   4.535   0.887   2.659  0.3167 -0.2118  0.3053
 6340TIP3    H118984   4.519   0.835   2.580  2.2732  0.5038 -0.6224
 6340TIP3    H218985   4.552   0.822   2.728 -2.4045 -0.8733  0.4707
 6341TIP3   OH218986   0.113   6.209   5.527 -0.0000  0.2278 -0.1479
 6341TIP3    H118987   0.060   6.249   5.459  0.0306 -1.3342 -1.1537
 6341TIP3    H218988   0.203   6.235   5.506 -0.2133  2.0926  1.0090
 6342TIP3   OH218989   7.049   2.177   4.417  0.2691 -0.4686 -0.2261
 6342TIP3    H118990   7.110   2.242   4.383  0.5497  0.3571  1.7218
 6342TIP3    H218991   7.104   2.104   4.446  0.3352  0.1274  1.2085
 6343TIP3   OH218992   7.147   5.412   3.574 -0.3516  0.3330  0.5340
 6343TIP3    H118993   7.219   5.391   3.634  0.2189 -0.3769 -0.3670
 6343TIP3    H218994   7.162   5.356   3.499 -0.5889  1.7671 -0.6269
 6344TIP3   OH218995   6.253   1.357   1.477 -0.0071 -0.4773 -0.1103
 6344TIP3    H118996   6.257   1.416   1.402  0.7876 -1.1092 -0.5766
 6344TIP3    H218997   6.343   1.328   1.490 -0.1142 -0.2923  1.1645
 6345TIP3   OH218998   2.103   6.456   1.696  0.4697 -0.1250 -0.1737
 6345TIP3    H118999   2.140   6.369   1.709 -0.8121 -0.9022 -1.4679
 6345TIP3    H219000   2.085   6.488   1.785  0.2071 -1.5242  0.3045
 6346TIP3   OH219001   1.294   0.523   2.088 -0.3140 -0.3397  0.8858
 6346TIP3    H119002   1.245   0.577   2.150 -3.3313 -2.9700  1.0098
 6346TIP3    H219003   1.237   0.517   2.011  1.4910 -0.5625 -0.4988
 6347TIP3   OH219004   6.884   1.177   1.319  0.0841  0.2936  0.7802
 6347TIP3    H119005   6.941   1.104   1.346 -0.1194  0.1904  0.9314
 6347TIP3    H219006   6.842   1.206   1.400  1.9324  2.1316  1.1639
 6348TIP3   OH219007   4.092   0.939   1.461  0.4599  0.5235 -0.1148
 6348TIP3    H119008   4.063   0.851   1.438  0.2932  0.0704  1.6477
 6348TIP3    H219009   4.182   0.927   1.492  0.6417  1.0744 -0.4113
 6349TIP3   OH219010   6.884   3.127   4.005 -0.0878 -0.2820  0.5015
 6349TIP3    H119011   6.816   3.193   3.993 -0.9380 -1.3551 -0.9154
 6349TIP3    H219012   6.954   3.154   3.946 -0.8953 -1.1865 -0.9332
 6350TIP3   OH219013   2.812   4.874   5.495 -0.0629 -0.2444 -0.4994
 6350TIP3    H119014   2.907   4.874   5.503 -0.1450 -1.6725  1.0174
 6350TIP3    H219015   2.788   4.781   5.495 -1.5012  0.1023 -0.0400
 6351TIP3   OH219016   5.052   3.791   3.342  0.5702  0.1546 -0.6072
 6351TIP3    H119017   5.034   3.789   3.436 -0.4735  0.9535 -0.7703
 6351TIP3    H219018   4.972   3.826   3.303  1.3101  0.6630 -1.7206
 6352TIP3   OH219019   5.522   4.324   5.304 -0.1745  0.0618 -0.3077
 6352TIP3    H119020   5.533   4.260   5.233  0.4309  0.0653 -0.2219
 6352TIP3    H219021   5.497   4.405   5.260  1.2352  0.3432 -0.6231
 6353TIP3   OH219022   2.441   4.773   2.739  0.3772 -0.4745 -0.3020
 6353TIP3    H119023   2.489   4.729   2.669  0.9466 -0.9240  0.3585
 6353TIP3    H219024   2.459   4.721   2.817 -2.0969 -1.3048 -0.2132
 6354TIP3   OH219025   2.912   5.819   0.900  0.2608 -0.8531  0.4501
 6354TIP3    H119026   2.844   5.854   0.959  1.5097 -1.8904  2.6414
 6354TIP3    H219027   2.891   5.726   0.892  0.4502 -0.8384 -0.2933
 6355TIP3   OH219028   3.002   4.766   5.203  0.1222 -0.0594 -0.2758
 6355TIP3    H119029   3.095   4.777   5.181 -0.0653  1.8687 -0.2236
 6355TIP3    H219030   2.993   4.804   5.290 -0.7147 -0.2194 -0.2865
 6356TIP3   OH219031   6.868   0.835   5.092 -0.1015 -0.5259  0.1637
 6356TIP3    H119032   6.925   0.868   5.162  0.1389 -1.3157  0.3554
 6356TIP3    H219033   6.925   0.828   5.016 -0.4562  0.7147 -0.2395
 6357TIP3   OH219034   7.176   1.207   5.534  0.1773  0.1555  1.3803
 6357TIP3    H119035   7.136   1.123   5.510 -1.7492  1.6818 -1.3511
 6357TIP3    H219036   7.224   1.234   5.455  0.4961  1.7460  2.0741
 6358TIP3   OH219037   3.050   2.038   2.586 -0.0792 -0.1287  0.0340
 6358TIP3    H119038   2.969   2.066   2.544 -0.1734 -1.3152 -0.6328
 6358TIP3    H219039   3.024   2.010   2.673  0.0539  1.9984  0.7979
 6359TIP3   OH219040   4.619   6.209   5.640 -0.0982 -0.2212 -0.3824
 6359TIP3    H119041   4.659   6.272   5.580  1.8536  0.5020  1.5608
 6359TIP3    H219042   4.525   6.215   5.620 -0.2152  4.1222  0.3478
 6360TIP3   OH219043   6.364   3.305   2.737  0.0834 -0.0464  0.4658
 6360TIP3    H119044   6.376   3.361   2.660 -1.5768 -0.4210 -0.1092
 6360TIP3    H219045   6.340   3.365   2.807 -2.8450 -0.0287 -0.4199
 6361TIP3   OH219046   1.037   3.981   4.055  0.4967  0.0593 -0.1059
 6361TIP3    H119047   0.944   3.957   4.051  0.6198 -0.2329 -1.6317
 6361TIP3    H219048   1.036   4.072   4.084 -0.3089  0.2273 -0.6138
 6362TIP3   OH219049   5.760   4.887   2.315 -0.2199 -0.4167 -0.4175
 6362TIP3    H119050   5.689   4.848   2.365 -0.8556  1.2540  0.0366
 6362TIP3    H219051   5.727   4.972   2.288  1.5630  0.3675 -0.2657
 6363TIP3   OH219052   2.738   4.058   3.305  0.5747  0.8129 -0.5749
 6363TIP3    H119053   2.670   3.991   3.310 -0.5517  2.0074  1.7258
 6363TIP3    H219054   2.768   4.055   3.214 -0.0168 -2.1680 -0.7856
 6364TIP3   OH219055   3.108   0.635   2.620  0.8700  0.7820  0.0192
 6364TIP3    H119056   3.112   0.576   2.695  2.7663  1.7883  0.7918
 6364TIP3    H219057   3.024   0.616   2.579  1.3932 -2.4976  0.1725
 6365TIP3   OH219058   3.621   4.910   0.097  0.3627 -0.2322  0.5102
 6365TIP3    H119059   3.701   4.962   0.099 -0.2708  0.7605  2.0091
 6365TIP3    H219060   3.552   4.970   0.126 -0.6916 -1.4357  0.6212
 6366TIP3   OH219061   0.646   2.404   5.854 -0.6587  0.8407 -0.3867
 6366TIP3    H119062   0.597   2.486   5.857  1.1086  1.9031  1.2790
 6366TIP3    H219063   0.582   2.337   5.880 -2.2928  1.5103 -2.3727
 6367TIP3   OH219064   2.423   1.068   2.319 -0.3778  0.4808  0.2870
 6367TIP3    H119065   2.467   1.079   2.404  0.4160  0.9770 -0.1669
 6367TIP3    H219066   2.417   0.974   2.307 -0.8522  0.4021  1.0677
 6368TIP3   OH219067   0.672   3.729   4.680  0.2461  0.2026 -0.0487
 6368TIP3    H119068   0.680   3.807   4.625 -1.1041  1.6731  1.7081
 6368TIP3    H219069   0.637   3.662   4.622 -2.2253  2.0103 -0.8075
 6369TIP3   OH219070   0.807   5.027   2.371  0.0724 -0.3123  0.4090
 6369TIP3    H119071   0.747   4.985   2.309 -1.5511  0.9328  1.0581
 6369TIP3    H219072   0.750   5.077   2.429  1.7923  1.4866  0.6612
 6370TIP3   OH219073   1.812   6.560   4.779  0.2809  0.3370  0.1969
 6370TIP3    H119074   1.736   6.525   4.732 -0.0098  1.6955 -0.3850
 6370TIP3    H219075   1.782   6.571   4.869  0.7133 -1.8926  0.6748
 6371TIP3   OH219076   4.534   2.753   0.669 -0.7217 -0.3026  0.0180
 6371TIP3    H119077   4.513   2.773   0.760 -1.0952  0.7111 -0.2767
 6371TIP3    H219078   4.486   2.672   0.651  0.4050 -1.2644  1.0866
 6372TIP3   OH219079   6.729   6.093   1.626 -0.5848 -0.1835 -0.7958
 6372TIP3    H119080   6.707   6.119   1.715 -0.6900 -0.1600 -0.8274
 6372TIP3    H219081   6.648   6.053   1.592 -0.3801 -0.6892 -0.6975
 6373TIP3   OH219082   2.902   5.566   0.205 -0.4237 -0.4371 -0.2774
 6373TIP3    H119083   2.838   5.501   0.236  0.2484 -0.4781  1.0995
 6373TIP3    H219084   2.849   5.635   0.165 -1.3021 -0.6899  0.4203
 6374TIP3   OH219085   5.350   4.575   3.820  0.1789  0.2735 -0.1937
 6374TIP3    H119086   5.370   4.652   3.874  0.3732 -0.0136  0.1498
 6374TIP3    H219087   5.287   4.607   3.755  0.6254  0.8364 -0.3595
 6375TIP3   OH219088   3.218   4.139   2.834  0.1966  0.5322  0.8881
 6375TIP3    H119089   3.284   4.095   2.781 -1.9725 -2.2790  0.2540
 6375TIP3    H219090   3.217   4.091   2.916 -2.2650 -0.8584  0.1701
 6376TIP3   OH219091   4.806   6.182   4.585  0.3510  0.4460  0.0064
 6376TIP3    H119092   4.783   6.249   4.520  1.2736 -0.0117 -0.8322
 6376TIP3    H219093   4.747   6.109   4.565  0.9931  0.1013 -0.6995
 6377TIP3   OH219094   2.158   5.240   5.727 -0.2913 -0.4705 -0.5992
 6377TIP3    H119095   2.135   5.266   5.816 -0.0377  0.6554 -0.8420
 6377TIP3    H219096   2.085   5.187   5.698 -2.1336  2.0898 -0.9553
 6378TIP3   OH219097   4.216   5.607   2.808  0.0294 -0.0011  0.2503
 6378TIP3    H119098   4.148   5.610   2.741  0.1277  0.3527  0.1639
 6378TIP3    H219099   4.298   5.622   2.760  0.2561 -1.2068  0.2362
 6379TIP3   OH219100   2.744   3.999   5.718 -0.1876 -0.2903  0.4585
 6379TIP3    H119101   2.689   3.921   5.727  1.1267 -1.0795  2.2532
 6379TIP3    H219102   2.821   3.969   5.671  0.6547 -0.2750  1.7959
 6380TIP3   OH219103   1.544   2.003   0.959  0.8759  0.6578  0.4167
 6380TIP3    H119104   1.499   1.948   1.023  0.5829 -0.6668 -0.8851
 6380TIP3    H219105   1.501   1.983   0.876  2.4941  0.9101 -0.5176
 6381TIP3   OH219106   5.259   1.351   5.373  0.1066  0.4747  0.6938
 6381TIP3    H119107   5.334   1.402   5.405 -0.4917  0.9257  1.3998
 6381TIP3    H219108   5.296   1.294   5.305  0.5405  2.9013 -1.2359
 6382TIP3   OH219109   2.552   5.384   4.844 -0.0739  0.9017 -0.1851
 6382TIP3    H119110   2.508   5.454   4.797  2.0288  1.0552 -2.0787
 6382TIP3    H219111   2.612   5.428   4.904  0.9743  0.7852 -1.1075
 6383TIP3   OH219112   1.229   5.841   1.459 -0.3303  0.8956 -0.2871
 6383TIP3    H119113   1.288   5.776   1.498 -0.6963 -0.2380 -1.5668
 6383TIP3    H219114   1.213   5.903   1.530  0.6071 -0.0051  0.7620
 6384TIP3   OH219115   2.478   5.585   3.626  0.0093  0.1969 -0.0431
 6384TIP3    H119116   2.438   5.633   3.553 -1.6573  1.6502  1.7233
 6384TIP3    H219117   2.560   5.632   3.642 -1.6949  2.8467  1.8038
 6385TIP3   OH219118   5.208   5.585   1.179  0.6216 -0.2806  0.0803
 6385TIP3    H119119   5.197   5.648   1.108  0.5363  0.2364  0.5500
 6385TIP3    H219120   5.215   5.638   1.258 -1.5786 -0.8973  0.7663
 6386TIP3   OH219121   5.917   5.614  -0.015 -0.1299  0.2444  0.2222
 6386TIP3    H119122   5.872   5.590   0.067  2.0793 -0.7185  1.2510
 6386TIP3    H219123   5.951   5.531  -0.048 -2.1728  0.3807 -2.5300
 6387TIP3   OH219124   6.557   2.777   3.071 -0.0846  0.0879  0.6324
 6387TIP3    H119125   6.502   2.722   3.127 -0.2771  1.5985  2.0065
 6387TIP3    H219126   6.646   2.743   3.085 -0.4117 -1.1739 -0.1687
 6388TIP3   OH219127   1.419   4.156   4.885  0.3605 -0.0879 -0.3654
 6388TIP3    H119128   1.354   4.212   4.843 -0.2584  0.1983  0.9291
 6388TIP3    H219129   1.489   4.215   4.912 -0.7400  0.2792  1.8789
 6389TIP3   OH219130   3.837   3.392   4.085  0.0560  0.2021  0.2277
 6389TIP3    H119131   3.906   3.456   4.066  0.7992 -0.7534 -0.3843
 6389TIP3    H219132   3.843   3.328   4.014 -0.1585 -0.9629  1.2199
 6390TIP3   OH219133   1.037   3.201   5.789 -0.4512  0.6164 -0.0559
 6390TIP3    H119134   1.127   3.200   5.821 -0.2723  0.8163 -0.5328
 6390TIP3    H219135   0.998   3.280   5.827 -0.3766  0.6160  0.0202
 6391TIP3   OH219136   2.863   2.056   4.463  0.2413 -0.0802  0.0355
 6391TIP3    H119137   2.773   2.029   4.444 -0.8658  2.4632  1.1730
 6391TIP3    H219138   2.888   2.109   4.388  0.0474  0.7518  0.5401
 6392TIP3   OH219139   2.228   2.974   4.116  0.1473 -0.1164 -0.7122
 6392TIP3    H119140   2.302   3.027   4.086  0.3518 -0.9702 -1.7953
 6392TIP3    H219141   2.237   2.891   4.068 -1.2565 -0.4009 -0.5239
 6393TIP3   OH219142   3.205   5.782   3.638 -0.3854 -0.5089  0.0058
 6393TIP3    H119143   3.226   5.871   3.666 -1.1632  0.1804 -1.5101
 6393TIP3    H219144   3.212   5.784   3.543  0.9293 -2.4404 -0.0176
 6394TIP3   OH219145   5.296   1.206   4.497 -0.1040 -0.1388  0.0793
 6394TIP3    H119146   5.351   1.129   4.482 -0.3888  0.0145 -2.0121
 6394TIP3    H219147   5.214   1.187   4.452 -0.0016  1.5735 -0.9325
 6395TIP3   OH219148   3.343   3.612   3.156 -0.1397  0.4233 -0.5381
 6395TIP3    H119149   3.368   3.705   3.150  0.3272  0.2623 -1.1458
 6395TIP3    H219150   3.346   3.581   3.066  2.3031 -0.8709 -0.0783
 6396TIP3   OH219151   6.914   3.996   2.060  0.3135 -0.3133 -0.0956
 6396TIP3    H119152   6.980   4.036   2.118 -2.6914  2.5722  1.6943
 6396TIP3    H219153   6.898   3.910   2.099  1.2354 -0.0500  0.9239
 6397TIP3   OH219154   1.379   3.274   2.734  0.2069 -0.3683 -0.1548
 6397TIP3    H119155   1.348   3.194   2.775  0.6396 -0.2633  0.3959
 6397TIP3    H219156   1.474   3.260   2.723  0.0433 -0.5563 -1.4933
 6398TIP3   OH219157   3.459   4.794   1.864  0.9449  0.3030 -0.4027
 6398TIP3    H119158   3.430   4.810   1.774  0.1584 -0.6305 -0.3324
 6398TIP3    H219159   3.487   4.880   1.895 -0.9685  1.1239 -0.7743
 6399TIP3   OH219160   6.336   3.520   0.712  0.0243  0.3871 -0.1638
 6399TIP3    H119161   6.413   3.534   0.656 -0.8121  0.7162 -1.2821
 6399TIP3    H219162   6.338   3.594   0.773  1.1401 -0.1605  0.4960
 6400TIP3   OH219163   1.173   4.162   5.115  0.1702  0.2414  0.1645
 6400TIP3    H119164   1.213   4.230   5.169  1.9543  0.4825 -1.3606
 6400TIP3    H219165   1.246   4.107   5.087 -0.4653  0.7232 -2.7856
 6401TIP3   OH219166   1.632   2.962   0.822 -0.3390  0.1515 -0.2693
 6401TIP3    H119167   1.558   2.903   0.811  0.2147 -0.4179 -1.0997
 6401TIP3    H219168   1.648   2.965   0.916  0.5079 -2.1773 -0.2811
 6402TIP3   OH219169   3.492   3.913   3.363 -0.0075  0.0057  0.2033
 6402TIP3    H119170   3.543   3.865   3.429 -0.7256 -1.7389 -0.4521
 6402TIP3    H219171   3.414   3.943   3.411 -1.0206 -2.1186  0.0045
 6403TIP3   OH219172   1.396   6.163   1.294 -0.2010 -0.3825 -0.3257
 6403TIP3    H119173   1.439   6.077   1.298 -0.8197 -0.6611  1.8447
 6403TIP3    H219174   1.320   6.149   1.238  0.3278 -0.9404 -0.9195
 6404TIP3   OH219175   6.933   3.051   5.042 -0.1397 -0.4164  0.2278
 6404TIP3    H119176   7.025   3.044   5.016 -0.3555  1.5687 -1.3121
 6404TIP3    H219177   6.931   3.021   5.133  2.1963  0.3768  0.5908
 6405TIP3   OH219178   5.680   4.347   2.027  0.8602 -0.2997  0.3661
 6405TIP3    H119179   5.607   4.377   1.973  1.5286  0.2538 -0.2593
 6405TIP3    H219180   5.676   4.403   2.105  0.1274 -0.8354  0.7266
 6406TIP3   OH219181   3.918   0.826   1.720  0.2371  0.2733  0.7621
 6406TIP3    H119182   4.003   0.829   1.764 -0.4797  0.1098  2.2325
 6406TIP3    H219183   3.906   0.733   1.698 -0.0652  0.0987  1.6259
 6407TIP3   OH219184   2.652   5.565   5.338  0.3323 -0.3091  0.0826
 6407TIP3    H119185   2.694   5.648   5.316 -0.2434 -0.7287 -3.0641
 6407TIP3    H219186   2.571   5.590   5.383  0.7137  0.7490  0.2167
 6408TIP3   OH219187   2.260   1.892   3.135  0.2516 -1.0460  0.6318
 6408TIP3    H119188   2.219   1.975   3.158  1.8204  0.0302 -0.2452
 6408TIP3    H219189   2.199   1.850   3.074  0.0316  0.0762  0.0646
 6409TIP3   OH219190   2.908   4.214   0.732 -0.1026  0.0477  0.3166
 6409TIP3    H119191   2.844   4.260   0.679  0.1040  0.2349  0.2292
 6409TIP3    H219192   2.916   4.128   0.690 -1.0084 -0.3233  0.8930
 6410TIP3   OH219193   4.439   0.576   2.572  0.5421  0.4072  0.2029
 6410TIP3    H119194   4.400   0.506   2.626 -0.8434 -0.4089 -1.7257
 6410TIP3    H219195   4.522   0.540   2.542  1.3257  0.8678  1.7286
 6411TIP3   OH219196   6.676   0.183   3.773 -0.3938  0.9599  0.0658
 6411TIP3    H119197   6.606   0.172   3.709  2.2107  0.5655 -2.9339
 6411TIP3    H219198   6.713   0.096   3.783 -0.2983  1.1504  1.6616
 6412TIP3   OH219199   3.763   2.980   5.702  0.2296 -0.0526  0.1008
 6412TIP3    H119200   3.760   2.931   5.784 -2.4881  1.7611  1.2185
 6412TIP3    H219201   3.687   2.948   5.653  1.0914 -0.2020 -1.1788
 6413TIP3   OH219202   2.382   4.042   3.627 -0.3919  0.3271  0.1412
 6413TIP3    H119203   2.349   3.952   3.632  1.1762 -0.3565 -1.0553
 6413TIP3    H219204   2.434   4.052   3.707 -1.0325  0.3978  0.5626
 6414TIP3   OH219205   0.964   0.847   4.277 -0.0746 -0.0838 -0.1899
 6414TIP3    H119206   0.897   0.795   4.233  0.2461 -0.3102 -0.4127
 6414TIP3    H219207   1.030   0.863   4.209 -0.2013  0.6658 -0.1405
 6415TIP3   OH219208   5.234   1.291   4.120 -0.5510 -0.3242 -0.2474
 6415TIP3    H119209   5.234   1.386   4.127 -0.0007 -0.4465  2.7061
 6415TIP3    H219210   5.221   1.260   4.210 -0.5513 -3.0395 -1.0937
 6416TIP3   OH219211   1.775   1.777   3.093 -0.4850  0.1289 -0.0432
 6416TIP3    H119212   1.849   1.758   3.035  0.8994  0.7588  1.4560
 6416TIP3    H219213   1.749   1.691   3.128  0.3300  0.0327  0.3370
 6417TIP3   OH219214   0.543   1.658   1.899 -0.3086  0.0466 -0.0248
 6417TIP3    H119215   0.630   1.689   1.874 -0.4073  0.2303 -0.1435
 6417TIP3    H219216   0.537   1.570   1.861 -0.5901  0.4585 -0.9649
 6418TIP3   OH219217   2.953   2.353   0.710 -1.0774  0.0770  0.0631
 6418TIP3    H119218   2.959   2.418   0.779 -2.6296 -0.5397  0.8135
 6418TIP3    H219219   3.043   2.344   0.678 -0.1022 -0.3901  2.7231
 6419TIP3   OH219220   4.736   6.279   3.425  0.3837  0.1711  0.0941
 6419TIP3    H119221   4.710   6.191   3.399  0.5551 -0.0054  0.5176
 6419TIP3    H219222   4.680   6.337   3.373  0.8794 -0.1663 -0.8279
 6420TIP3   OH219223   4.533   4.905   1.989 -0.1174  0.2153  0.1404
 6420TIP3    H119224   4.623   4.934   2.003 -0.3079  0.8738  0.0314
 6420TIP3    H219225   4.540   4.810   1.976  0.5525  0.2552  0.1892
 6421TIP3   OH219226   2.850   6.153   3.145  0.3629 -0.1443 -0.2480
 6421TIP3    H119227   2.916   6.127   3.210  1.0595  3.0150  0.4625
 6421TIP3    H219228   2.795   6.217   3.190 -0.8549  0.1231 -1.9940
 6422TIP3   OH219229   1.859   2.082   2.729  0.1743 -0.9591  0.0727
 6422TIP3    H119230   1.919   2.139   2.778 -1.7071 -0.6905  2.2248
 6422TIP3    H219231   1.823   2.139   2.662  1.9954 -1.0345 -1.0475
 6423TIP3   OH219232   6.877   4.859   3.945  0.2325  0.0285 -0.4410
 6423TIP3    H119233   6.830   4.890   3.867 -1.0187  0.5433  0.4848
 6423TIP3    H219234   6.835   4.904   4.018  2.2710  0.5913  0.4461
 6424TIP3   OH219235   5.483   0.636   4.560  0.0494 -0.0401  0.4578
 6424TIP3    H119236   5.433   0.572   4.611  0.1852 -0.0787  0.5421
 6424TIP3    H219237   5.494   0.595   4.474 -0.5278  0.1938  0.2680
 6425TIP3   OH219238   5.230   6.277   0.817  0.7797  0.6726 -0.3867
 6425TIP3    H119239   5.263   6.366   0.803 -0.2046  1.1914  0.3932
 6425TIP3    H219240   5.160   6.268   0.752  1.0452  0.3666 -0.6328
 6426TIP3   OH219241   2.002   5.551   3.479  0.2152  0.0706 -0.4709
 6426TIP3    H119242   2.049   5.518   3.403  0.0946 -2.9983  0.6507
 6426TIP3    H219243   2.047   5.511   3.554  1.3417  4.1808  1.3291
 6427TIP3   OH219244   4.607   2.658   4.814 -0.1964 -1.0576  0.4996
 6427TIP3    H119245   4.524   2.701   4.831 -0.7492 -2.2267  0.8427
 6427TIP3    H219246   4.610   2.647   4.719 -0.6283 -1.3876  0.5225
 6428TIP3   OH219247   4.836   4.538   0.685 -0.0201  0.1151  0.2515
 6428TIP3    H119248   4.909   4.516   0.628 -0.6173 -0.0524 -0.4575
 6428TIP3    H219249   4.875   4.596   0.751  0.4606  1.2405 -0.9688
 6429TIP3   OH219250   4.699   6.422   5.478  0.5638 -0.0190 -0.4592
 6429TIP3    H119251   4.792   6.419   5.455  0.3548  2.3359 -1.9980
 6429TIP3    H219252   4.657   6.456   5.399 -1.0753  2.6350  1.3922
 6430TIP3   OH219253   6.985   1.462   1.222 -0.2424 -1.2895 -0.2573
 6430TIP3    H119254   6.985   1.371   1.252 -2.6752 -1.7477 -1.3877
 6430TIP3    H219255   6.982   1.456   1.127  0.8928  0.0150 -0.3970
 6431TIP3   OH219256   7.193   1.507   3.973 -0.0917  0.2635  0.3217
 6431TIP3    H119257   7.193   1.535   3.881 -1.7065 -1.2769 -0.2166
 6431TIP3    H219258   7.225   1.583   4.021 -0.1666  1.4672 -1.4168
 6432TIP3   OH219259   2.415   2.761   1.729  0.4542 -0.1016  0.4955
 6432TIP3    H119260   2.336   2.715   1.758  0.3623  0.5335  1.3049
 6432TIP3    H219261   2.382   2.836   1.680  0.5803 -0.2764  0.1364
 6433TIP3   OH219262   5.164   0.564   2.292  0.5167 -0.0687  0.4182
 6433TIP3    H119263   5.085   0.618   2.293  0.1995 -0.5281  1.4777
 6433TIP3    H219264   5.157   0.513   2.212 -0.3210 -0.1950  0.5627
 6434TIP3   OH219265   0.680   1.429   1.091 -0.0047  0.2380 -0.1458
 6434TIP3    H119266   0.667   1.506   1.147  0.8975  0.6482 -0.4774
 6434TIP3    H219267   0.671   1.355   1.151  0.5601  0.6550  0.4822
 6435TIP3   OH219268   0.769   6.455   4.598  0.2855  0.8618 -0.0633
 6435TIP3    H119269   0.716   6.532   4.620 -1.1432  0.0461 -0.5413
 6435TIP3    H219270   0.709   6.381   4.609  1.2314 -0.0607 -0.9768
 6436TIP3   OH219271   0.730   5.352   1.877  0.1840  0.6597 -0.5100
 6436TIP3    H119272   0.813   5.327   1.838  0.4365  0.6806  0.0130
 6436TIP3    H219273   0.729   5.448   1.874  0.0183  0.6524 -0.8356
 6437TIP3   OH219274   6.853   4.667   5.371 -0.2289 -0.3014  1.2052
 6437TIP3    H119275   6.945   4.667   5.396 -0.0574  0.7547  0.6164
 6437TIP3    H219276   6.812   4.605   5.431  1.1142 -1.9469  0.5073
 6438TIP3   OH219277   2.473   4.408   3.927  0.4649 -0.7801 -0.6048
 6438TIP3    H119278   2.429   4.338   3.975 -0.5153 -0.9162 -1.6544
 6438TIP3    H219279   2.552   4.368   3.892  0.5545 -1.0131 -0.1446
 6439TIP3   OH219280   3.621   4.098   4.364  0.4573  0.1399  0.1858
 6439TIP3    H119281   3.673   4.036   4.414 -0.4661 -3.5936 -2.9682
 6439TIP3    H219282   3.531   4.084   4.394  0.4440  1.5876  0.9032
 6440TIP3   OH219283   5.176   0.173   4.713 -0.1477  0.0793 -0.1085
 6440TIP3    H119284   5.135   0.106   4.767  0.1640  0.5437  0.7240
 6440TIP3    H219285   5.194   0.129   4.630  0.5410 -1.0295  0.5978
 6441TIP3   OH219286   1.979   2.123   3.091  0.7863 -0.2304 -0.2695
 6441TIP3    H119287   1.999   2.186   3.022  0.2832  0.4416  0.1862
 6441TIP3    H219288   2.011   2.039   3.057 -1.6748 -0.4167 -2.4357
 6442TIP3   OH219289   3.735   2.617   2.328  0.3263  0.7114  0.3358
 6442TIP3    H119290   3.640   2.622   2.339  0.4704  2.2456  1.2927
 6442TIP3    H219291   3.750   2.646   2.238 -0.2095 -1.6358 -0.5729
 6443TIP3   OH219292   6.355   1.405   5.178 -0.7610  0.7078  0.5806
 6443TIP3    H119293   6.376   1.455   5.099 -0.4751 -0.0388  0.1695
 6443TIP3    H219294   6.423   1.338   5.182 -2.1027 -0.7357  0.1351
 6444TIP3   OH219295   3.269   0.312   2.580 -0.3489 -0.3537 -0.0404
 6444TIP3    H119296   3.323   0.391   2.571  1.5032 -1.5661 -0.0486
 6444TIP3    H219297   3.304   0.268   2.657 -0.7464 -1.6191 -0.5542
 6445TIP3   OH219298   3.673   6.123   3.048 -0.0494 -0.3943  0.2852
 6445TIP3    H119299   3.689   6.157   2.960  0.8588  0.3741  0.7291
 6445TIP3    H219300   3.580   6.142   3.065 -0.0898 -0.0579 -0.2980
 6446TIP3   OH219301   6.560   1.659   4.429  0.6278 -0.4860  0.3056
 6446TIP3    H119302   6.559   1.609   4.347  0.6755 -0.6724  0.4162
 6446TIP3    H219303   6.634   1.719   4.420  1.6468 -1.6107  0.8504
 6447TIP3   OH219304   2.146   0.229   4.150  0.0051 -0.7605 -0.4804
 6447TIP3    H119305   2.170   0.167   4.082 -0.4466 -0.0622 -1.2959
 6447TIP3    H219306   2.109   0.304   4.103 -0.3583 -0.2780  0.5313
 6448TIP3   OH219307   5.580   4.771   4.456 -0.0767 -0.2259  0.7593
 6448TIP3    H119308   5.541   4.717   4.525  1.5834 -1.1901  1.0113
 6448TIP3    H219309   5.614   4.708   4.393 -0.1588  0.6098 -0.1378
 6449TIP3   OH219310   6.081   3.600   5.230 -0.1195 -0.2214 -0.1649
 6449TIP3    H119311   6.029   3.619   5.308  0.8960  0.0486  0.4544
 6449TIP3    H219312   6.017   3.601   5.159 -0.7085  1.9895  0.3144
 6450TIP3   OH219313   1.791   4.931   0.756  0.3894  0.3672  0.3147
 6450TIP3    H119314   1.777   4.937   0.661 -3.1249  0.7909  0.7200
 6450TIP3    H219315   1.831   5.015   0.779 -1.7948  1.7198 -0.4710
 6451TIP3   OH219316   0.584   5.901   4.326  0.0482 -0.4386  0.5059
 6451TIP3    H119317   0.628   5.828   4.371 -2.2914 -2.2161  0.1205
 6451TIP3    H219318   0.570   5.966   4.395 -0.9520 -1.9006  1.7713
 6452TIP3   OH219319   3.032   4.037   0.248  0.2388 -0.2085 -0.7705
 6452TIP3    H119320   3.115   4.078   0.272  0.7603  0.0569 -2.7690
 6452TIP3    H219321   3.030   3.955   0.298  1.2938  0.1804 -0.0518
 6453TIP3   OH219322   4.872   5.810   0.863  0.0427  0.1011 -0.2324
 6453TIP3    H119323   4.879   5.813   0.959  1.2946 -0.8538 -0.2686
 6453TIP3    H219324   4.924   5.885   0.833 -0.3145  0.3752 -0.1730
 6454TIP3   OH219325   5.354   3.810   4.877 -0.5112 -0.3320  0.3127
 6454TIP3    H119326   5.264   3.784   4.900 -1.5434  2.9452  0.5672
 6454TIP3    H219327   5.367   3.776   4.789 -1.7498 -1.4570  0.5276
 6455TIP3   OH219328   3.707   6.658   0.217 -0.3565  0.0035 -0.2350
 6455TIP3    H119329   3.683   6.654   0.125  0.2583  1.7153 -0.5179
 6455TIP3    H219330   3.795   6.620   0.220  0.6201  2.0536 -0.8195
 6456TIP3   OH219331   0.092   4.388   2.188 -0.4726 -0.3233 -0.3290
 6456TIP3    H119332   0.125   4.366   2.275  0.3429  1.2822 -0.1935
 6456TIP3    H219333   0.010   4.435   2.204  0.9455  2.2600 -0.2264
 6457TIP3   OH219334   6.791   1.189   1.560 -0.5485 -0.1731 -0.4204
 6457TIP3    H119335   6.714   1.193   1.617  0.7216 -1.2117  1.4860
 6457TIP3    H219336   6.848   1.125   1.602  1.2407  0.3463 -1.9394
 6458TIP3   OH219337   4.181   0.197   5.508 -0.2103 -0.0129 -0.6494
 6458TIP3    H119338   4.212   0.250   5.582 -0.2277  0.7489 -1.1818
 6458TIP3    H219339   4.165   0.111   5.546 -0.9022  0.5538  0.3973
 6459TIP3   OH219340   2.774   2.233   3.917  0.3246 -0.0805  0.3085
 6459TIP3    H119341   2.685   2.225   3.951 -0.7370  0.1742 -2.1927
 6459TIP3    H219342   2.791   2.327   3.916 -0.0014 -0.0192 -0.6080
 6460TIP3   OH219343   4.065   2.892   0.189 -0.1018 -0.2235 -0.2873
 6460TIP3    H119344   3.988   2.841   0.213 -0.1515  0.5568  1.3065
 6460TIP3    H219345   4.040   2.983   0.207  1.1029  0.0603  0.0221
 6461TIP3   OH219346   0.277   2.126   2.621  0.2264  0.2208 -0.0720
 6461TIP3    H119347   0.321   2.187   2.562 -0.0499  0.6746  0.1808
 6461TIP3    H219348   0.228   2.182   2.681 -2.1598 -0.2704 -1.4332
 6462TIP3   OH219349   1.748   0.713   3.819 -0.6923  0.1482 -0.0360
 6462TIP3    H119350   1.786   0.734   3.734 -0.8497  1.2462  0.1516
 6462TIP3    H219351   1.663   0.673   3.798  0.6167 -2.6299 -0.4618
 6463TIP3   OH219352   0.377   1.495   5.805  0.5796  0.3646 -0.0512
 6463TIP3    H119353   0.447   1.447   5.760  1.2491  1.8502 -0.6439
 6463TIP3    H219354   0.299   1.479   5.751  0.3351 -1.5597  0.7838
 6464TIP3   OH219355   1.713   0.376   5.538 -0.2222 -0.4067  0.4938
 6464TIP3    H119356   1.638   0.427   5.569  0.6670  0.6449  1.0085
 6464TIP3    H219357   1.700   0.372   5.443  0.1050  1.5819  0.3079
 6465TIP3   OH219358   5.266   1.861   0.583  0.7617  0.0858 -0.2439
 6465TIP3    H119359   5.340   1.801   0.592  1.6933  1.3181  0.8305
 6465TIP3    H219360   5.207   1.836   0.654  0.9767  0.1919 -0.0239
 6466TIP3   OH219361   5.510   1.494   2.187 -0.1878  0.1051  0.0147
 6466TIP3    H119362   5.461   1.422   2.228  0.1127  0.1442  0.4436
 6466TIP3    H219363   5.573   1.451   2.130 -0.6704  0.0519 -0.4843
 6467TIP3   OH219364   1.540   3.575   3.789  0.0109 -0.1273  0.3720
 6467TIP3    H119365   1.546   3.494   3.738  2.2534 -0.6135  1.2658
 6467TIP3    H219366   1.520   3.642   3.725 -2.0653 -1.3596 -0.3783
 6468TIP3   OH219367   0.890   4.445   0.148  0.1321  0.4873  0.0779
 6468TIP3    H119368   0.919   4.359   0.119  0.4586  0.5756  0.1372
 6468TIP3    H219369   0.795   4.437   0.156  0.0403  0.4291 -0.9008
 6469TIP3   OH219370   2.732   3.738   2.437  0.1224  0.6851  0.6998
 6469TIP3    H119371   2.783   3.691   2.502  1.6786  0.9325 -0.2831
 6469TIP3    H219372   2.782   3.819   2.422 -0.0923  0.5423 -0.9147
 6470TIP3   OH219373   4.034   0.811   1.143 -0.6044  0.0619  0.6948
 6470TIP3    H119374   4.128   0.827   1.157  0.2270 -0.3458 -3.0852
 6470TIP3    H219375   4.010   0.749   1.211  1.6027  0.9367  2.4069
 6471TIP3   OH219376   4.171   4.443   0.869 -0.3613  0.4287 -1.1061
 6471TIP3    H119377   4.165   4.496   0.948  0.6650  0.1067 -0.7859
 6471TIP3    H219378   4.094   4.386   0.872 -0.4840  0.6172 -0.4807
 6472TIP3   OH219379   1.918   1.285   1.302 -0.0507  0.2946 -0.1912
 6472TIP3    H119380   1.876   1.242   1.227 -0.5725 -1.1071  0.8592
 6472TIP3    H219381   1.865   1.259   1.377  1.2412  0.5634  0.8423
 6473TIP3   OH219382   4.523   6.185   2.319 -0.5134  0.2170  0.6172
 6473TIP3    H119383   4.617   6.171   2.328 -0.3937  1.7877  2.4363
 6473TIP3    H219384   4.483   6.114   2.369 -0.3769 -0.9785 -0.8926
 6474TIP3   OH219385   0.738   2.254   1.776 -0.1977  0.4482 -0.1209
 6474TIP3    H119386   0.809   2.205   1.819 -0.5786 -0.4573 -0.5128
 6474TIP3    H219387   0.780   2.335   1.747 -0.0890  1.5136  2.6849
 6475TIP3   OH219388   5.376   6.736   2.086  0.4001 -0.0559  0.3063
 6475TIP3    H119389   5.311   6.782   2.033  0.8490  1.8296  1.3125
 6475TIP3    H219390   5.456   6.741   2.035 -0.3260 -3.1708 -1.3591
 6476TIP3   OH219391   2.223   0.505   1.059 -0.2532 -0.5049  0.6406
 6476TIP3    H119392   2.290   0.525   0.994 -0.4183 -0.0150  0.6131
 6476TIP3    H219393   2.270   0.465   1.131 -0.1354 -1.5273  0.0100
 6477TIP3   OH219394   0.144   6.513   5.190 -0.5130  0.2782 -0.0844
 6477TIP3    H119395   0.189   6.512   5.275  2.2405 -0.5419 -1.4602
 6477TIP3    H219396   0.149   6.604   5.162  0.0787  0.2354 -0.1200
 6478TIP3   OH219397   5.365   1.937   0.898 -0.4241  0.3537 -0.4186
 6478TIP3    H119398   5.387   2.030   0.895 -0.6605  0.4020 -0.9204
 6478TIP3    H219399   5.353   1.917   0.991  0.0445  0.7215 -0.2789
 6479TIP3   OH219400   0.587   6.688   1.920  0.1231 -0.4763 -0.3779
 6479TIP3    H119401   0.588   6.782   1.904 -2.0578 -0.1621  0.9256
 6479TIP3    H219402   0.679   6.664   1.932  0.7141  1.4517 -0.7726
 6480TIP3   OH219403   6.859   1.585   3.773 -0.2376 -0.8702  0.0968
 6480TIP3    H119404   6.909   1.609   3.695  0.7077 -0.6777  0.7313
 6480TIP3    H219405   6.899   1.503   3.802 -0.6489 -0.9951  0.3169
 6481TIP3   OH219406   2.482   6.747   1.874 -0.2405 -0.5246 -0.1680
 6481TIP3    H119407   2.559   6.696   1.899  0.9528  1.6985  1.0006
 6481TIP3    H219408   2.513   6.808   1.808 -0.8168  0.8325  0.7706
 6482TIP3   OH219409   6.968   1.066   1.716  0.3851 -0.1972  0.3180
 6482TIP3    H119410   7.036   1.008   1.681 -0.1166 -3.3166  3.8852
 6482TIP3    H219411   7.016   1.131   1.767  0.8018  0.0276 -0.3457
 6483TIP3   OH219412   5.974   3.760   1.842 -0.0488 -0.1998  0.4498
 6483TIP3    H119413   5.941   3.807   1.765 -0.4534  0.9970  1.3279
 6483TIP3    H219414   5.898   3.751   1.899 -0.0706 -2.2904  0.1709
 6484TIP3   OH219415   5.185   6.325   0.494 -0.2178  0.4862  0.2226
 6484TIP3    H119416   5.120   6.287   0.553 -0.8050 -0.6361 -1.0828
 6484TIP3    H219417   5.153   6.413   0.475 -2.7699 -0.8110 -2.2722
 6485TIP3   OH219418   4.406   6.479   3.790 -0.4531 -0.2335 -0.5690
 6485TIP3    H119419   4.420   6.472   3.885 -1.3748 -1.1236 -0.4852
 6485TIP3    H219420   4.479   6.430   3.752 -1.3621 -1.9428 -0.2308
 6486TIP3   OH219421   5.957   5.427   0.495  0.0786 -0.0226  0.7529
 6486TIP3    H119422   6.017   5.383   0.436 -1.0172 -0.9132  0.2470
 6486TIP3    H219423   5.901   5.356   0.529 -1.0706  0.8326  0.7208
 6487TIP3   OH219424   0.582   0.899   0.724 -0.0397  0.0467 -0.1169
 6487TIP3    H119425   0.612   0.975   0.774 -0.2009 -0.3170  0.5437
 6487TIP3    H219426   0.626   0.825   0.764 -1.2202 -0.4104  0.3945
 6488TIP3   OH219427   5.310   3.136   0.349 -0.8060 -0.0124 -0.0112
 6488TIP3    H119428   5.301   3.231   0.343  0.3312  0.1160  0.1613
 6488TIP3    H219429   5.221   3.102   0.333 -1.7062  1.1705  2.0680
 6489TIP3   OH219430   3.862   2.649   4.698  0.6017 -0.0181 -0.3116
 6489TIP3    H119431   3.827   2.648   4.787  1.1339 -0.4548 -0.1066
 6489TIP3    H219432   3.954   2.674   4.708  0.9654 -1.1969 -0.6261
 6490TIP3   OH219433   0.172   4.057   0.163  0.5222  0.6399  0.3925
 6490TIP3    H119434   0.213   4.065   0.077 -1.4652  1.3330 -0.5691
 6490TIP3    H219435   0.226   4.110   0.221  1.1987  1.1932 -0.7161
 6491TIP3   OH219436   4.695   5.026   4.769 -0.1013  0.0476 -0.2937
 6491TIP3    H119437   4.761   5.006   4.835  0.9269 -0.7033 -1.5232
 6491TIP3    H219438   4.622   4.968   4.791  0.6902 -1.0630 -0.5010
 6492TIP3   OH219439   0.379   1.737   1.061 -0.3159  0.2287 -0.4441
 6492TIP3    H119440   0.373   1.693   1.146 -2.4957  3.2172  1.1438
 6492TIP3    H219441   0.300   1.710   1.014 -1.0893  1.4730  0.0909
 6493TIP3   OH219442   5.867   3.174   0.849 -0.3381 -0.3978 -0.6180
 6493TIP3    H119443   5.950   3.128   0.840  0.2791  0.7594 -0.9247
 6493TIP3    H219444   5.835   3.182   0.759 -0.5868 -0.4624 -0.5364
 6494TIP3   OH219445   3.450   0.509   3.815  0.2069 -0.2954  0.3983
 6494TIP3    H119446   3.465   0.469   3.730 -0.8128 -1.5874  0.7890
 6494TIP3    H219447   3.535   0.505   3.859  0.6752  0.1415 -0.4450
 6495TIP3   OH219448   2.893   5.748   2.516 -0.2884 -0.3976  0.2713
 6495TIP3    H119449   2.812   5.776   2.559  0.5642  3.4438 -0.2675
 6495TIP3    H219450   2.877   5.761   2.423 -0.0974 -2.9058 -0.1782
 6496TIP3   OH219451   6.026   1.119   5.540  0.5008 -0.1336 -0.3492
 6496TIP3    H119452   6.025   1.085   5.630  1.7457 -0.4430 -0.4397
 6496TIP3    H219453   5.942   1.091   5.504  0.2887 -0.6437  0.4882
 6497TIP3   OH219454   6.117   5.940   5.419  0.1806  0.3110  0.3316
 6497TIP3    H119455   6.069   5.865   5.453 -0.3872  0.6168  0.2105
 6497TIP3    H219456   6.204   5.932   5.459 -0.1014  0.0040  0.9024
 6498TIP3   OH219457   3.038   5.911   2.755  0.0242  0.2233  0.5952
 6498TIP3    H119458   3.043   5.817   2.738 -1.4725  0.5154 -1.9876
 6498TIP3    H219459   3.117   5.948   2.716  0.3286  0.1311  1.1076
 6499TIP3   OH219460   0.099   3.110   2.147 -0.2362 -0.0390 -0.8392
 6499TIP3    H119461   0.125   3.046   2.081  0.0187  0.2861 -1.0566
 6499TIP3    H219462   0.062   3.182   2.096 -0.1602  0.1562 -0.6171
 6500TIP3   OH219463   6.260   1.262   0.705  0.3778 -0.0170 -0.2353
 6500TIP3    H119464   6.190   1.322   0.681  1.8760  1.6138 -0.7480
 6500TIP3    H219465   6.305   1.244   0.622  2.5863  1.7042  0.4967
 6501TIP3   OH219466   0.234   5.224   1.746  0.5953 -0.2463 -0.0240
 6501TIP3    H119467   0.252   5.199   1.655  1.0134  1.1081 -0.3428
 6501TIP3    H219468   0.157   5.173   1.770 -0.6144  0.6668 -1.7495
 6502TIP3   OH219469   6.667   0.049   0.895 -0.7331 -0.0901  0.1010
 6502TIP3    H119470   6.705   0.127   0.854  1.9845 -0.8445  1.0202
 6502TIP3    H219471   6.608   0.013   0.829  1.2891  0.3301 -2.0298
 6503TIP3   OH219472   0.307   1.930   4.515 -0.3650  0.4649 -0.0439
 6503TIP3    H119473   0.379   1.980   4.553 -0.6074 -1.0194  2.6447
 6503TIP3    H219474   0.339   1.840   4.513 -1.2454  0.1531 -1.2494
 6504TIP3   OH219475   7.130   5.974   2.285 -0.0707  0.1018  0.5223
 6504TIP3    H119476   7.068   5.901   2.287 -0.5524  0.4567 -0.5976
 6504TIP3    H219477   7.205   5.940   2.235  0.4413 -0.1517  1.4240
 6505TIP3   OH219478   4.522   1.454   4.988  0.2005  0.1473 -0.3270
 6505TIP3    H119479   4.473   1.532   5.011 -0.8332 -1.0908  2.0581
 6505TIP3    H219480   4.613   1.476   5.007  0.0749  1.1071 -0.7739
 6506TIP3   OH219481   0.416   5.582   1.367  0.2199  0.1001 -0.1444
 6506TIP3    H119482   0.383   5.641   1.300  1.8775  0.4291 -0.7389
 6506TIP3    H219483   0.504   5.616   1.387  0.2844 -0.7863  1.2222
 6507TIP3   OH219484   6.001   5.616   2.234  0.2268 -0.5145  0.3412
 6507TIP3    H119485   5.991   5.678   2.163 -1.6518 -0.6754  0.4157
 6507TIP3    H219486   6.072   5.651   2.288  1.1701 -0.0094 -1.1839
 6508TIP3   OH219487   3.401   0.666   2.945 -0.4353  0.0555  0.0761
 6508TIP3    H119488   3.402   0.577   2.981 -2.6158  0.5885  1.6297
 6508TIP3    H219489   3.366   0.720   3.015  0.8329  2.1869 -0.8432
 6509TIP3   OH219490   5.038   5.308   0.497  0.0991 -0.0433  0.4419
 6509TIP3    H119491   5.055   5.388   0.448 -1.1774 -0.4440 -0.6946
 6509TIP3    H219492   4.943   5.297   0.495  0.3274 -2.5981 -1.1287
 6510TIP3   OH219493   6.699   6.787   4.971 -0.0398 -0.2432 -0.2781
 6510TIP3    H119494   6.667   6.707   5.012 -1.8719  1.2340  1.3904
 6510TIP3    H219495   6.627   6.816   4.914  0.8622 -0.1019 -1.3927
 6511TIP3   OH219496   4.055   6.214   3.471 -0.1886  0.1138  0.0623
 6511TIP3    H119497   4.051   6.286   3.408  0.3390  1.6347  1.6823
 6511TIP3    H219498   4.006   6.245   3.546  1.4088 -0.5456  1.4376
 6512TIP3   OH219499   6.992   5.084   4.349  0.4274  0.7081 -0.0223
 6512TIP3    H119500   6.936   5.101   4.425  0.4335  1.1470 -0.1100
 6512TIP3    H219501   6.969   5.154   4.287 -0.4150 -0.3209 -0.9052
 6513TIP3   OH219502   3.588   3.900   1.606  0.6637  0.0686 -0.5826
 6513TIP3    H119503   3.546   3.861   1.682  0.3270 -1.9313 -1.7119
 6513TIP3    H219504   3.637   3.975   1.640 -0.8902  0.2785  1.2931
 6514TIP3   OH219505   2.454   5.012   0.919  0.2806 -0.8241  0.1507
 6514TIP3    H119506   2.458   5.054   1.005  0.1052 -1.4271  0.4611
 6514TIP3    H219507   2.466   5.084   0.857  0.5782 -0.4043  0.6795
 6515TIP3   OH219508   3.181   0.195   2.104  0.1739 -0.0229 -0.1214
 6515TIP3    H119509   3.243   0.187   2.177  1.5542  0.3840 -1.1868
 6515TIP3    H219510   3.099   0.222   2.144  0.8803  0.1327  1.2788
 6516TIP3   OH219511   0.203   6.619   2.346 -0.2561  0.4931  0.1143
 6516TIP3    H119512   0.243   6.651   2.265 -0.1016 -0.7490 -0.3296
 6516TIP3    H219513   0.221   6.525   2.346 -0.0660  0.4987  1.7121
 6517TIP3   OH219514   3.649   3.814   4.176  0.0487 -0.0058 -0.6871
 6517TIP3    H119515   3.717   3.782   4.117 -0.6088 -4.4502  0.5606
 6517TIP3    H219516   3.696   3.860   4.245  1.1515  1.8567 -2.5730
 6518TIP3   OH219517   3.541   4.434   1.224 -0.2515 -0.0479 -0.3269
 6518TIP3    H119518   3.558   4.527   1.232 -3.6016  0.8099 -1.5286
 6518TIP3    H219519   3.572   4.411   1.136 -0.7553  0.2913 -0.5945
 6519TIP3   OH219520   3.314   1.130   5.845 -0.0477 -0.0163  0.5574
 6519TIP3    H119521   3.387   1.185   5.874  0.5846 -0.3842 -0.2569
 6519TIP3    H219522   3.283   1.087   5.924  0.2583  0.5802  1.0054
 6520TIP3   OH219523   2.061   3.199   2.925 -0.0694 -0.4419  0.4790
 6520TIP3    H119524   2.051   3.251   3.005 -0.5805  0.7090 -0.2972
 6520TIP3    H219525   2.091   3.262   2.860  0.7276 -1.4495 -0.1509
 6521TIP3   OH219526   4.053   2.727   4.428 -0.4094  0.4750 -0.0613
 6521TIP3    H119527   4.072   2.787   4.356  0.4277 -1.4424 -1.5175
 6521TIP3    H219528   3.981   2.672   4.396  1.0653 -1.5063 -0.1831
 6522TIP3   OH219529   5.980   3.784   1.279  0.2188 -0.1353 -0.2304
 6522TIP3    H119530   5.910   3.734   1.239 -3.3148  1.0633  3.6942
 6522TIP3    H219531   5.971   3.872   1.243 -1.2981  0.3372  1.1994
 6523TIP3   OH219532   0.370   4.337   1.789 -0.0605  0.2752 -0.2547
 6523TIP3    H119533   0.310   4.306   1.721 -0.1429  0.9826 -0.5086
 6523TIP3    H219534   0.316   4.392   1.845  0.3928  1.1040 -0.6161
 6524TIP3   OH219535   3.198   1.096   5.049  0.6104 -0.3326 -0.5431
 6524TIP3    H119536   3.233   1.175   5.007  0.0475  0.1197 -0.1713
 6524TIP3    H219537   3.197   1.117   5.142 -0.0234 -0.5869 -0.4916
 6525TIP3   OH219538   3.564   0.656   5.142  0.3024 -0.5694  0.0036
 6525TIP3    H119539   3.622   0.580   5.131  2.0440  0.6788  0.1696
 6525TIP3    H219540   3.610   0.713   5.203 -2.1429 -0.4477  1.8917
 6526TIP3   OH219541   0.999   3.146   0.713 -0.3822  0.2003  0.1522
 6526TIP3    H119542   0.967   3.100   0.636 -1.1018 -0.0473  0.5912
 6526TIP3    H219543   1.080   3.101   0.737  0.1783  0.6537 -0.7977
 6527TIP3   OH219544   3.742   5.633   0.042  0.0075 -0.1602  0.0802
 6527TIP3    H119545   3.829   5.641   0.001 -0.5422 -0.1163 -1.1351
 6527TIP3    H219546   3.686   5.687  -0.014 -1.3840 -2.5019 -0.9267
 6528TIP3   OH219547   5.125   3.976   4.493  0.5843  0.0014  0.4804
 6528TIP3    H119548   5.217   4.000   4.505  0.2660  0.4413  2.3565
 6528TIP3    H219549   5.117   3.888   4.528 -0.2295  1.0347  3.1608
 6529TIP3   OH219550   5.290   3.369   5.798  0.8284 -0.0737 -0.2535
 6529TIP3    H119551   5.384   3.380   5.811  0.4851  0.6246  2.0573
 6529TIP3    H219552   5.259   3.329   5.880 -0.4608 -3.3180 -2.1399
 6530TIP3   OH219553   1.809   0.216   2.365  0.4559  0.2402  0.7036
 6530TIP3    H119554   1.794   0.265   2.446 -0.1403 -0.7050  1.1850
 6530TIP3    H219555   1.832   0.128   2.395  1.4603  0.1924 -0.1413
 6531TIP3   OH219556   5.360   4.717   4.986 -0.5599  0.1899 -0.0312
 6531TIP3    H119557   5.316   4.803   4.984 -3.5261 -1.2121 -0.8848
 6531TIP3    H219558   5.290   4.654   4.969  1.8800 -2.2857 -1.8095
 6532TIP3   OH219559   6.995   3.022   1.418  0.7521 -0.1242 -0.6128
 6532TIP3    H119560   7.064   3.004   1.354 -0.1022 -0.4997 -1.4403
 6532TIP3    H219561   6.934   3.080   1.372  1.2849  1.4910  0.6147
 6533TIP3   OH219562   6.201   4.971   3.358  0.1430 -0.4725  0.2471
 6533TIP3    H119563   6.215   4.877   3.368 -1.6907 -0.6480  1.7287
 6533TIP3    H219564   6.269   4.999   3.296  0.9803 -2.6765  0.0768
 6534TIP3   OH219565   1.694   1.978   0.540  0.2987 -0.4459 -0.1373
 6534TIP3    H119566   1.725   1.921   0.469 -1.3307 -2.1100  0.4146
 6534TIP3    H219567   1.675   1.918   0.612 -3.0991  0.5008 -0.0788
 6535TIP3   OH219568   0.427   2.801   4.672 -0.5709 -0.4072  0.5101
 6535TIP3    H119569   0.441   2.779   4.764  0.2547  0.9625  0.7397
 6535TIP3    H219570   0.344   2.848   4.671 -0.2269  0.2249  0.6921
 6536TIP3   OH219571   3.414   2.579   3.161 -0.1005  0.1163  0.3754
 6536TIP3    H119572   3.352   2.576   3.087 -0.0124  0.2892  0.2955
 6536TIP3    H219573   3.417   2.671   3.186 -0.8992 -0.0758  1.2469
 6537TIP3   OH219574   1.907   6.069   3.752  0.2366 -0.5287 -0.6388
 6537TIP3    H119575   1.945   6.117   3.826  1.1701 -0.9156 -0.8470
 6537TIP3    H219576   1.911   5.977   3.777  0.2028 -0.6362 -1.0091
 6538TIP3   OH219577   3.682   5.089   3.799 -0.0416 -0.3034 -0.8252
 6538TIP3    H119578   3.639   5.164   3.839 -0.1516 -0.2419 -1.0615
 6538TIP3    H219579   3.741   5.057   3.867  0.0550  0.0367 -0.7483
 6539TIP3   OH219580   1.865   1.085   5.671 -0.1968 -0.3055 -0.3574
 6539TIP3    H119581   1.888   1.161   5.619  0.4922 -0.7294 -0.6904
 6539TIP3    H219582   1.775   1.102   5.701  0.4368  1.2790  0.7577
 6540TIP3   OH219583   7.136   0.294   3.299  0.2669  0.1447  0.4344
 6540TIP3    H119584   7.230   0.290   3.280  1.0449 -0.1610  3.6784
 6540TIP3    H219585   7.118   0.212   3.345 -1.1837  0.8968  1.2729
 6541TIP3   OH219586   0.646   6.405   3.178  0.0403 -0.0353  0.6081
 6541TIP3    H119587   0.698   6.432   3.253  1.3604 -3.3476  1.0598
 6541TIP3    H219588   0.657   6.475   3.114  1.6637  1.2852  2.2418
 6542TIP3   OH219589   1.214   3.554   5.190  0.0051 -0.6359 -0.1048
 6542TIP3    H119590   1.139   3.522   5.139 -1.4563  2.6644 -0.3059
 6542TIP3    H219591   1.278   3.581   5.124 -0.6459  0.8801 -0.1507
 6543TIP3   OH219592   1.246   2.945   0.731 -0.0919  0.2970  0.6501
 6543TIP3    H119593   1.328   2.896   0.728  0.4444  1.1982 -0.0216
 6543TIP3    H219594   1.179   2.883   0.705  0.7180  0.2064 -1.3802
 6544TIP3   OH219595   6.254   3.314   4.498 -0.4472 -0.4855  0.4430
 6544TIP3    H119596   6.227   3.244   4.558 -0.4988 -0.0279  0.9626
 6544TIP3    H219597   6.218   3.394   4.536  0.1376 -0.0943  0.1994
 6545TIP3   OH219598   4.809   4.136   0.073 -0.5483  0.2132  0.2164
 6545TIP3    H119599   4.817   4.231   0.086 -1.1406  0.2293  0.4876
 6545TIP3    H219600   4.725   4.125   0.028  1.3466  0.1720 -3.7630
 6546TIP3   OH219601   3.193   1.766   4.970  0.6465  0.0415 -0.4645
 6546TIP3    H119602   3.157   1.824   5.037 -0.9391 -1.4841  0.0735
 6546TIP3    H219603   3.119   1.713   4.941  2.0501 -1.8547 -0.7758
 6547TIP3   OH219604   6.214   2.470   1.663 -0.0108 -0.1543  0.1630
 6547TIP3    H119605   6.307   2.474   1.640  0.2235  0.6815  1.1480
 6547TIP3    H219606   6.168   2.481   1.580  0.7799  0.6505 -0.1858
 6548TIP3   OH219607   6.981   0.949   2.044 -0.4789 -0.6073 -0.2159
 6548TIP3    H119608   6.893   0.984   2.059 -1.2649 -2.1442 -1.0423
 6548TIP3    H219609   7.014   0.998   1.969 -0.3038  0.4849  0.5406
 6549TIP3   OH219610   2.686   4.530   2.025 -0.0904  0.2366 -0.5344
 6549TIP3    H119611   2.650   4.485   1.948 -1.4926  1.0741 -0.4046
 6549TIP3    H219612   2.708   4.617   1.994  0.0222  0.3501 -0.1454
 6550TIP3   OH219613   0.681   2.394   2.544 -0.1004  0.0415  0.3047
 6550TIP3    H119614   0.696   2.488   2.551  1.1997 -0.1664  0.5341
 6550TIP3    H219615   0.740   2.365   2.475  1.2601 -0.9648  1.8275
 6551TIP3   OH219616   2.776   3.264   5.587  0.4656  0.4431 -0.5625
 6551TIP3    H119617   2.745   3.259   5.677  1.2478  1.0371 -0.2516
 6551TIP3    H219618   2.827   3.184   5.574  0.1279  0.2262 -0.5738
 6552TIP3   OH219619   7.127   5.926   2.575  0.7802 -0.4502  0.2196
 6552TIP3    H119620   7.173   5.983   2.636 -1.1932  1.8164 -0.2601
 6552TIP3    H219621   7.139   5.967   2.489  0.9647 -1.8887 -0.4826
 6553TIP3   OH219622   6.035   2.976   2.000  0.7882  0.0696  0.1126
 6553TIP3    H119623   5.944   2.949   1.990  0.8012  0.4658 -1.3328
 6553TIP3    H219624   6.030   3.065   2.034  0.6055  0.4522 -0.8994
 6554TIP3   OH219625   0.840   1.103   4.715  0.2069 -0.2496  0.2089
 6554TIP3    H119626   0.890   1.180   4.688 -0.8217  0.4944  0.4075
 6554TIP3    H219627   0.776   1.136   4.777  0.9471 -1.5594  1.7541
 6555TIP3   OH219628   0.603   4.588   1.661 -0.3046  0.2552  0.1213
 6555TIP3    H119629   0.627   4.501   1.630  2.7409 -0.1642  3.0251
 6555TIP3    H219630   0.585   4.638   1.582  1.7305 -2.0011 -1.9220
 6556TIP3   OH219631   0.317   5.258   3.846 -0.4660 -0.0105  0.5902
 6556TIP3    H119632   0.403   5.246   3.887 -0.1591  2.5720  0.8839
 6556TIP3    H219633   0.262   5.189   3.885  0.5861  0.4827  3.1371
 6557TIP3   OH219634   1.689   0.511   3.488 -0.1841 -0.0374  0.3469
 6557TIP3    H119635   1.760   0.448   3.480  0.7264  0.9134  0.7237
 6557TIP3    H219636   1.631   0.491   3.414  0.5456 -0.7180 -0.0637
 6558TIP3   OH219637   6.217   0.628   3.456  0.0168 -0.4650  0.1571
 6558TIP3    H119638   6.182   0.542   3.435  3.4106 -2.1079  0.4975
 6558TIP3    H219639   6.221   0.630   3.552  1.1291 -0.5114  0.1285
 6559TIP3   OH219640   2.638   4.808   1.074  0.1764 -0.4511  0.0496
 6559TIP3    H119641   2.644   4.854   1.158  0.1413  1.2397 -0.8350
 6559TIP3    H219642   2.576   4.859   1.023  1.1705 -0.6904 -1.4604
 6560TIP3   OH219643   6.470   2.874   2.438  0.0932 -0.3622  0.2154
 6560TIP3    H119644   6.509   2.846   2.520  0.3487  1.0694  0.6062
 6560TIP3    H219645   6.376   2.860   2.450  0.2678 -1.7098  0.1128
 6561TIP3   OH219646   2.322   2.125   2.734 -0.2334  0.3055  0.3763
 6561TIP3    H119647   2.329   2.167   2.820  1.6709  0.0614  0.3957
 6561TIP3    H219648   2.299   2.195   2.674  1.3705  1.1240  0.6533
 6562TIP3   OH219649   4.517   1.939   3.509 -0.0503 -0.0678 -0.1973
 6562TIP3    H119650   4.565   2.021   3.501 -0.9447  0.3801 -1.2777
 6562TIP3    H219651   4.553   1.884   3.439  0.1484 -0.4004  0.1596
 6563TIP3   OH219652   5.978   5.270   1.433  0.1594 -0.1097 -0.6209
 6563TIP3    H119653   5.902   5.281   1.490  1.1166 -0.2674  0.7439
 6563TIP3    H219654   6.005   5.179   1.447  1.7088  0.4651  0.3988
 6564TIP3   OH219655   0.309   4.255   0.317 -0.2746 -0.4118 -0.3086
 6564TIP3    H119656   0.402   4.246   0.334 -0.3951 -0.6348  0.2344
 6564TIP3    H219657   0.271   4.283   0.400 -0.8582 -1.4434 -0.2034
 6565TIP3   OH219658   6.682   5.969   1.313  0.1011 -0.1608 -0.8509
 6565TIP3    H119659   6.653   6.003   1.229  0.1988 -1.2662 -1.3381
 6565TIP3    H219660   6.729   6.043   1.353 -1.8567  1.1152 -0.7668
 6566TIP3   OH219661   3.556   4.802   5.803  0.1079  0.0414  0.2370
 6566TIP3    H119662   3.635   4.853   5.784 -0.2668  0.6958  0.4043
 6566TIP3    H219663   3.589   4.717   5.831  0.7871  0.5335  0.9928
 6567TIP3   OH219664   6.703   3.306   4.316 -0.3007 -0.4542 -0.1940
 6567TIP3    H119665   6.652   3.287   4.238 -0.2318  0.0727 -0.3704
 6567TIP3    H219666   6.772   3.365   4.286 -0.4033 -0.0741  0.3071
 6568TIP3   OH219667   6.112   3.690   4.899  0.1932  0.0998 -0.1020
 6568TIP3    H119668   6.176   3.697   4.970 -1.2322  1.0875  1.1330
 6568TIP3    H219669   6.135   3.760   4.839  1.0167 -0.3419 -0.3231
 6569TIP3   OH219670   6.245   3.916   0.394 -0.6614 -0.6173 -0.1905
 6569TIP3    H119671   6.286   3.906   0.480 -0.9110 -1.0022 -0.1149
 6569TIP3    H219672   6.246   4.010   0.378  0.5014 -0.6337 -0.3130
 6570TIP3   OH219673   4.468   2.006   1.370 -0.3233  0.4351  0.7222
 6570TIP3    H119674   4.554   1.985   1.407 -0.0388  1.8042  0.9080
 6570TIP3    H219675   4.474   2.099   1.347 -1.0959  0.0913 -1.1078
 6571TIP3   OH219676   7.213   3.049   5.145  0.7360  0.4402  0.5385
 6571TIP3    H119677   7.188   2.957   5.142 -0.1195  0.6571  0.8300
 6571TIP3    H219678   7.240   3.069   5.055 -1.8022  0.6218 -0.2634
 6572TIP3   OH219679   3.468   3.345   5.666  0.1476 -0.3581  0.4036
 6572TIP3    H119680   3.552   3.307   5.692 -0.2888 -0.6778  1.4386
 6572TIP3    H219681   3.490   3.414   5.605  1.1079 -1.0015 -0.0061
 6573TIP3   OH219682   0.096   2.089   4.729 -0.7651 -0.1081 -0.5816
 6573TIP3    H119683   0.145   2.072   4.648 -0.1565 -2.2124  0.1465
 6573TIP3    H219684   0.066   2.179   4.720  0.2789  0.1147 -2.6235
 6574TIP3   OH219685   1.949   3.773   2.659 -0.3063  0.0695 -0.1153
 6574TIP3    H119686   1.917   3.860   2.636  0.5206  0.2071 -0.8088
 6574TIP3    H219687   2.025   3.760   2.602 -1.8925 -2.1590 -1.9522
 6575TIP3   OH219688   3.521   6.546   4.193  0.7228 -0.1205  0.3371
 6575TIP3    H119689   3.586   6.506   4.251  0.8174 -0.1600  0.2041
 6575TIP3    H219690   3.532   6.640   4.207  0.2983 -0.1448  0.8710
 6576TIP3   OH219691   4.886   4.164   3.322  0.4877 -0.3088  0.5147
 6576TIP3    H119692   4.857   4.255   3.331  0.9939 -0.2823  2.5687
 6576TIP3    H219693   4.896   4.134   3.413 -0.2716 -2.6162 -0.1164
 6577TIP3   OH219694   5.844   0.489   3.908  0.4492  0.7183 -0.2623
 6577TIP3    H119695   5.835   0.401   3.944  3.5646  0.7303  0.9117
 6577TIP3    H219696   5.778   0.494   3.839 -1.5714 -1.5585  1.3635
 6578TIP3   OH219697   1.288   5.619   3.258  0.1521  0.3984 -0.4131
 6578TIP3    H119698   1.263   5.657   3.174 -0.8448 -3.1737 -1.9308
 6578TIP3    H219699   1.227   5.546   3.271  2.3611 -1.2540  1.7241
 6579TIP3   OH219700   3.725   3.873   4.667  0.4319 -0.5068  0.3299
 6579TIP3    H119701   3.634   3.876   4.637  0.1485  0.4359  1.2538
 6579TIP3    H219702   3.724   3.812   4.741  0.5865 -0.5802  0.2737
 6580TIP3   OH219703   3.913   3.349   4.737 -0.0300  0.4971  0.5447
 6580TIP3    H119704   4.008   3.343   4.748 -0.1337  0.7687  1.6691
 6580TIP3    H219705   3.899   3.436   4.699  0.2825 -0.2201 -1.3400
 6581TIP3   OH219706   6.832   0.189   1.700 -0.1303 -0.0254 -0.3836
 6581TIP3    H119707   6.895   0.117   1.701 -1.7183 -1.4981 -1.2666
 6581TIP3    H219708   6.842   0.228   1.613  1.7069  1.8079  0.5697
 6582TIP3   OH219709   3.303   6.642   0.168 -0.3366 -0.0417 -0.5598
 6582TIP3    H119710   3.264   6.729   0.161  0.8227  0.4803 -0.8003
 6582TIP3    H219711   3.258   6.601   0.242  0.9404  1.7873  1.3482
 6583TIP3   OH219712   2.608   6.697   0.074  0.1462  0.3835 -0.0641
 6583TIP3    H119713   2.585   6.735   0.159 -0.3548 -0.2248  0.0726
 6583TIP3    H219714   2.571   6.758   0.010  2.7879  2.3294  0.0653
 6584TIP3   OH219715   6.876   5.290   0.604  0.0283 -0.1408  0.2424
 6584TIP3    H119716   6.788   5.303   0.641  0.1120 -0.9961  0.7632
 6584TIP3    H219717   6.936   5.312   0.675  0.2884  1.4974 -0.4376
 6585TIP3   OH219718   0.925   3.520   4.546  0.3205 -0.2697  0.6500
 6585TIP3    H119719   0.879   3.604   4.547  1.5819  0.5003 -0.9924
 6585TIP3    H219720   0.991   3.530   4.478  0.8992 -2.4076  0.8320
 6586TIP3   OH219721   0.897   2.851   1.372 -0.6800 -0.6502  0.1010
 6586TIP3    H119722   0.803   2.852   1.355 -1.0243  3.1424  1.3095
 6586TIP3    H219723   0.903   2.861   1.467  0.9181  0.4028 -0.0864
 6587TIP3   OH219724   0.419   3.498   4.257  0.4510  0.8221 -0.0757
 6587TIP3    H119725   0.446   3.464   4.343  0.3882  1.8451  0.3630
 6587TIP3    H219726   0.499   3.531   4.218  0.2159  1.8984  0.3173
 6588TIP3   OH219727   1.098   2.224   3.573 -0.0715  0.0710 -0.2102
 6588TIP3    H119728   1.163   2.160   3.602 -0.3207 -0.3430 -0.5517
 6588TIP3    H219729   1.018   2.201   3.621  0.0541  0.6441  0.2881
 6589TIP3   OH219730   6.899   2.010   0.059 -0.6705 -0.1835 -0.3494
 6589TIP3    H119731   6.947   1.982   0.137 -2.0674 -0.2799  0.5068
 6589TIP3    H219732   6.932   2.099   0.041 -1.0372  0.2442  0.9721
 6590TIP3   OH219733   2.753   5.111   4.392 -0.4113  0.0935  0.2328
 6590TIP3    H119734   2.658   5.105   4.386 -0.4750 -0.3767  1.4527
 6590TIP3    H219735   2.771   5.131   4.484  0.6228  1.7350 -0.2797
 6591TIP3   OH219736   4.904   2.403   1.183 -0.2234  0.4549 -0.1233
 6591TIP3    H119737   4.813   2.383   1.205 -0.0060 -0.0522  0.3613
 6591TIP3    H219738   4.899   2.468   1.113 -0.9683 -0.5572 -1.0443
 6592TIP3   OH219739   7.191   5.619   0.601  0.5560 -0.8008 -0.3082
 6592TIP3    H119740   7.105   5.600   0.637 -0.8798  1.9471 -1.9520
 6592TIP3    H219741   7.251   5.610   0.675 -1.4868 -0.4209  1.4829
 6593TIP3   OH219742   0.260   0.467   3.670 -0.0705 -0.1853 -0.0203
 6593TIP3    H119743   0.330   0.450   3.733 -1.0484  1.4570  1.6355
 6593TIP3    H219744   0.188   0.503   3.724 -0.1398  3.5841 -2.2853
 6594TIP3   OH219745   1.985   1.526   2.780  0.1540 -0.1972  0.3974
 6594TIP3    H119746   1.985   1.582   2.702  1.6186  1.2410  1.3430
 6594TIP3    H219747   1.900   1.483   2.780  0.5418 -1.1351 -2.5829
 6595TIP3   OH219748   5.250   0.196   0.411 -0.2905  0.1316  0.2050
 6595TIP3    H119749   5.322   0.215   0.472  0.8810 -0.1631 -1.0128
 6595TIP3    H219750   5.248   0.101   0.406 -0.8710  0.1382  0.3557
 6596TIP3   OH219751   4.390   5.988   0.588 -0.0725 -0.1061  0.1514
 6596TIP3    H119752   4.377   6.026   0.501 -0.5095 -0.1749  0.1834
 6596TIP3    H219753   4.472   5.939   0.581 -0.6029 -0.9340 -0.5189
 6597TIP3   OH219754   2.143   2.641   0.568  0.0083  0.1771 -0.7538
 6597TIP3    H119755   2.165   2.696   0.493  3.4591 -1.3152 -1.0492
 6597TIP3    H219756   2.195   2.561   0.555 -3.0266 -2.2544  0.7695
 6598TIP3   OH219757   1.313   1.845   4.126 -0.3696 -0.1768  0.0146
 6598TIP3    H119758   1.293   1.759   4.089 -2.3491  0.4645 -0.5023
 6598TIP3    H219759   1.276   1.907   4.063 -1.1244  1.0020  1.5651
 6599TIP3   OH219760   5.619   4.858   1.689 -0.6642 -0.1073 -0.9707
 6599TIP3    H119761   5.607   4.832   1.780  1.7495 -1.0908 -0.8496
 6599TIP3    H219762   5.565   4.936   1.678 -0.4866  0.4363  1.4942
 6600TIP3   OH219763   0.299   4.031   1.547  0.4480  0.6012 -0.6386
 6600TIP3    H119764   0.249   4.094   1.599  0.4980  1.4669 -1.6230
 6600TIP3    H219765   0.347   4.084   1.484  0.6700 -0.4141 -1.3477
 6601TIP3   OH219766   4.312   0.109   2.632  0.2419  0.3885  0.6018
 6601TIP3    H119767   4.314   0.140   2.722 -2.0164  0.1649  0.7889
 6601TIP3    H219768   4.265   0.177   2.584  0.0062 -0.2388 -0.0798
 6602TIP3   OH219769   0.480   3.218   3.778 -0.0499 -0.3203 -0.1101
 6602TIP3    H119770   0.474   3.312   3.764  2.4368  0.3395  2.2299
 6602TIP3    H219771   0.410   3.198   3.840 -0.5800 -0.0130 -0.6072
 6603TIP3   OH219772   0.564   5.038   3.955  0.3737  0.4274 -0.3219
 6603TIP3    H119773   0.598   4.997   4.035 -0.5335  0.3174  0.0209
 6603TIP3    H219774   0.557   5.131   3.977  0.0967  0.3928 -0.2617
 6604TIP3   OH219775   6.714   1.825   5.513 -0.1350  0.2686  0.1774
 6604TIP3    H119776   6.746   1.893   5.453 -2.2489  0.9792 -0.2455
 6604TIP3    H219777   6.635   1.864   5.552 -1.3917 -1.9127 -0.0460
 6605TIP3   OH219778   3.240   5.211   4.605 -0.6581 -0.2445  0.2290
 6605TIP3    H119779   3.162   5.175   4.646  0.0865 -1.2363  0.8327
 6605TIP3    H219780   3.297   5.234   4.679  0.2593 -1.0294 -0.2101
 6606TIP3   OH219781   7.186   1.058   3.799 -0.4108 -0.2096  0.7815
 6606TIP3    H119782   7.230   1.108   3.731  0.4263 -3.3650 -1.2320
 6606TIP3    H219783   7.242   1.067   3.876 -0.0145  1.3979  0.3438
 6607TIP3   OH219784   3.197   4.693   4.916  0.1140 -0.2575  0.5683
 6607TIP3    H119785   3.243   4.765   4.961  0.7134 -0.6406  0.5847
 6607TIP3    H219786   3.236   4.614   4.952 -0.8439 -0.6004  0.8494
 6608TIP3   OH219787   2.805   2.478   3.251  0.1006  0.4812  0.3544
 6608TIP3    H119788   2.853   2.396   3.255  0.6331  0.8003  0.6631
 6608TIP3    H219789   2.836   2.528   3.326 -1.8521  0.0959  1.4761
 6609TIP3   OH219790   2.782   4.708   3.377 -0.0611  0.0510  0.6555
 6609TIP3    H119791   2.839   4.742   3.446  0.8866 -3.8151  1.9999
 6609TIP3    H219792   2.695   4.707   3.417  0.0445  0.0940  0.8891
 6610TIP3   OH219793   6.312   5.547   1.159  0.7309 -0.1067  0.3435
 6610TIP3    H119794   6.231   5.496   1.147  0.2246  1.0051 -1.2495
 6610TIP3    H219795   6.380   5.480   1.170  0.0858 -1.1670 -1.6379
 6611TIP3   OH219796   3.604   5.903   0.950  0.0412 -0.5579 -0.1421
 6611TIP3    H119797   3.646   5.844   0.887  0.2519 -0.2212 -0.3165
 6611TIP3    H219798   3.649   5.885   1.033  0.5633 -0.1640 -0.3382
 6612TIP3   OH219799   4.591   4.037   3.141 -0.1973 -0.2834 -0.7552
 6612TIP3    H119800   4.505   4.049   3.099 -1.1012 -0.1755  1.0356
 6612TIP3    H219801   4.596   4.108   3.205  0.2716 -1.5571  0.6659
 6613TIP3   OH219802   1.519   5.185   5.358 -0.3089  0.3779 -0.4206
 6613TIP3    H119803   1.582   5.148   5.297  1.7599 -1.0218  2.3352
 6613TIP3    H219804   1.522   5.279   5.341  1.5385  0.2047 -1.2878
 6614TIP3   OH219805   5.552   4.530   0.932 -0.3305  0.0313  0.2420
 6614TIP3    H119806   5.606   4.579   0.994  0.0093  0.3887 -0.3187
 6614TIP3    H219807   5.496   4.597   0.891  0.0734 -0.0568 -0.4676
 6615TIP3   OH219808   0.876   2.398   5.640 -0.4365 -0.1989 -0.1478
 6615TIP3    H119809   0.878   2.316   5.592 -0.4084  0.5892 -1.5571
 6615TIP3    H219810   0.831   2.378   5.721  1.2220 -2.0258  0.3934
 6616TIP3   OH219811   5.606   6.324   1.558 -0.1290  0.9403  0.1485
 6616TIP3    H119812   5.685   6.296   1.604  0.0191 -0.6774 -1.0190
 6616TIP3    H219813   5.542   6.340   1.627  1.1260  2.0338  1.0952
 6617TIP3   OH219814   0.139   0.339   4.230 -0.3306 -0.2104  0.3328
 6617TIP3    H119815   0.077   0.368   4.162  0.2798  0.5909  0.1055
 6617TIP3    H219816   0.083   0.309   4.301 -0.9939  0.1562 -0.0183
 6618TIP3   OH219817   4.021   6.072   0.782  0.1548  0.0652 -0.5382
 6618TIP3    H119818   4.013   5.998   0.842  2.0688 -0.9563 -1.4616
 6618TIP3    H219819   3.934   6.079   0.741 -0.4304 -0.8152  0.5012
 6619TIP3   OH219820   0.960   6.102   2.638  0.2902  0.0295 -0.0681
 6619TIP3    H119821   1.020   6.071   2.571  1.3237  2.0405 -0.1345
 6619TIP3    H219822   0.931   6.022   2.682  0.7686 -1.2092 -1.8846
 6620TIP3   OH219823   0.275   5.488   4.518 -0.0532  0.4248  0.0384
 6620TIP3    H119824   0.269   5.392   4.512  1.2378  0.1311  2.2078
 6620TIP3    H219825   0.362   5.504   4.554  0.1587  2.5180 -1.2641
 6621TIP3   OH219826   2.717   5.205   4.664 -0.6669 -0.2637 -0.6474
 6621TIP3    H119827   2.626   5.174   4.659 -0.7710 -0.4555  1.5125
 6621TIP3    H219828   2.712   5.288   4.711  0.0828  0.9510 -2.5754
 6622TIP3   OH219829   5.212   4.247   2.511  0.1912 -0.1885  0.0291
 6622TIP3    H119830   5.178   4.203   2.433  0.6025 -0.5641  0.0587
 6622TIP3    H219831   5.266   4.181   2.555  0.8980  0.3658  0.0228
 6623TIP3   OH219832   3.655   0.128   3.091 -0.0788 -0.2476  0.4810
 6623TIP3    H119833   3.672   0.149   3.183 -0.6572  0.6388  0.3953
 6623TIP3    H219834   3.742   0.115   3.053  0.1196 -2.1726  1.4875
 6624TIP3   OH219835   0.832   5.185   0.850  0.3403  0.0763  0.1397
 6624TIP3    H119836   0.833   5.227   0.764  0.1331 -0.7252 -0.2573
 6624TIP3    H219837   0.753   5.131   0.850  0.4046 -0.0278  0.7897
 6625TIP3   OH219838   2.970   2.755   0.210 -0.3795  0.5271 -0.0697
 6625TIP3    H119839   3.028   2.750   0.134  0.6926  0.6840  0.7152
 6625TIP3    H219840   2.919   2.673   0.206  2.4817 -1.4697  1.2057
 6626TIP3   OH219841   1.818   4.449   0.457 -0.0596  0.0410 -0.6841
 6626TIP3    H119842   1.870   4.378   0.417  0.4424 -0.2705  0.4968
 6626TIP3    H219843   1.864   4.469   0.538 -1.8025 -0.2661  0.4210
 6627TIP3   OH219844   4.762   2.567   5.279 -0.1382 -0.6498 -0.3745
 6627TIP3    H119845   4.692   2.632   5.271 -0.8629 -1.2831  0.6412
 6627TIP3    H219846   4.732   2.508   5.347  1.1037 -1.3184 -0.3855
 6628TIP3   OH219847   2.231   5.531   0.769  0.1621  0.0286 -0.0567
 6628TIP3    H119848   2.198   5.583   0.842 -0.3289  0.1569 -0.3645
 6628TIP3    H219849   2.179   5.560   0.693  0.5122 -0.2583 -0.4113
 6629TIP3   OH219850   3.678   5.212   2.792  0.0515 -0.0131 -0.4558
 6629TIP3    H119851   3.618   5.174   2.856  0.3827  0.4157  0.1238
 6629TIP3    H219852   3.753   5.240   2.844  0.7648 -0.5631 -1.1741
 6630TIP3   OH219853   3.168   1.728   0.222 -0.2108 -0.0566  0.2412
 6630TIP3    H119854   3.139   1.793   0.287  0.6042  0.1290  0.4315
 6630TIP3    H219855   3.112   1.652   0.238 -1.2861  0.6367 -0.0806
 6631TIP3   OH219856   1.819   0.307   2.633 -0.2417  0.3347 -0.4813
 6631TIP3    H119857   1.836   0.245   2.704  1.1207  0.6219 -0.5353
 6631TIP3    H219858   1.789   0.387   2.676  0.0346  0.3205 -0.2627
 6632TIP3   OH219859   5.034   2.409   3.932 -0.6798  0.6307  0.2920
 6632TIP3    H119860   5.061   2.416   4.023 -0.7848 -0.1685  0.3891
 6632TIP3    H219861   5.026   2.315   3.916 -1.4394  0.7885 -0.3128
 6633TIP3   OH219862   6.880   6.100   5.388 -0.4781 -0.1008  0.1735
 6633TIP3    H119863   6.947   6.063   5.445 -0.2700 -2.1694 -1.3351
 6633TIP3    H219864   6.906   6.074   5.300 -2.1988  0.7962 -0.6423
 6634TIP3   OH219865   4.040   4.136   3.214  0.6916 -0.2545  0.3092
 6634TIP3    H119866   3.950   4.105   3.202  0.7192 -0.0182 -0.5196
 6634TIP3    H219867   4.034   4.231   3.207  1.4634 -0.3203 -3.2574
 6635TIP3   OH219868   3.938   5.422   0.154 -0.0656 -0.3275  0.4929
 6635TIP3    H119869   3.848   5.453   0.152 -0.6006 -1.8208 -0.2209
 6635TIP3    H219870   3.989   5.495   0.118 -1.4283 -0.6933 -2.5182
 6636TIP3   OH219871   4.632   0.040   0.573  0.2022  0.3757  0.3529
 6636TIP3    H119872   4.672  -0.047   0.576  1.5149  0.9654  0.8192
 6636TIP3    H219873   4.706   0.101   0.573 -0.6892  1.5049  0.1448
 6637TIP3   OH219874   6.245   4.324   4.518 -0.1405 -0.0645  0.0788
 6637TIP3    H119875   6.251   4.348   4.426 -2.2851 -0.7234 -0.2979
 6637TIP3    H219876   6.334   4.333   4.552  0.5918  0.6629 -1.9273
 6638TIP3   OH219877   6.152   0.502  -0.011 -0.4721 -0.6985  0.0334
 6638TIP3    H119878   6.060   0.504   0.016 -0.4659  0.9858  0.0607
 6638TIP3    H219879   6.199   0.540   0.062  0.0819 -0.2982 -0.5227
 6639TIP3   OH219880   6.643   6.031   4.327  0.1578 -0.2073 -0.1092
 6639TIP3    H119881   6.599   6.015   4.244  1.0650 -1.5284 -0.3700
 6639TIP3    H219882   6.702   6.104   4.309  0.2152 -0.3658 -0.5901
 6640TIP3   OH219883   3.322   3.965   2.426  0.7496 -0.1075  0.5073
 6640TIP3    H119884   3.351   4.039   2.373  4.1411 -1.9519 -0.5039
 6640TIP3    H219885   3.269   3.912   2.367 -1.5393  1.2983  1.1842
 6641TIP3   OH219886   4.307   0.596   1.299 -0.3902  0.3012 -0.3609
 6641TIP3    H119887   4.294   0.678   1.346 -0.9620 -0.3974  0.7321
 6641TIP3    H219888   4.402   0.585   1.294 -0.3040 -0.2664  1.8221
 6642TIP3   OH219889   5.468   2.010   0.451  1.0854 -0.5740  0.2352
 6642TIP3    H119890   5.508   2.034   0.535  1.2538 -1.4525  0.4087
 6642TIP3    H219891   5.379   1.983   0.473  1.0248 -0.4996  0.0874
 6643TIP3   OH219892   6.223   3.453   1.609  0.1756  0.3109 -0.2356
 6643TIP3    H119893   6.219   3.496   1.695  0.3697 -1.0075  0.4588
 6643TIP3    H219894   6.315   3.431   1.597  0.3722  1.6005 -1.3881
 6644TIP3   OH219895   4.700   0.608   4.668 -0.1544  0.0550 -0.2055
 6644TIP3    H119896   4.754   0.668   4.720  2.9244  0.0899 -3.0819
 6644TIP3    H219897   4.737   0.521   4.684 -1.5710 -0.4719  0.3859
 6645TIP3   OH219898   2.121   1.928   1.038 -0.3474 -0.2799  0.1366
 6645TIP3    H119899   2.064   1.953   1.110 -1.3964  1.6119 -1.2575
 6645TIP3    H219900   2.166   2.009   1.014  0.9271 -1.1527 -0.5357
 6646TIP3   OH219901   3.066   6.314   2.292 -0.1576  0.1108  0.6995
 6646TIP3    H119902   3.057   6.218   2.291 -0.0719  0.1030  0.4791
 6646TIP3    H219903   3.009   6.344   2.221 -0.1262  0.2185  0.7195
 6647TIP3   OH219904   5.634   6.448   3.204  0.3663 -0.0667  0.2143
 6647TIP3    H119905   5.636   6.467   3.298  0.0250 -0.1669  0.2422
 6647TIP3    H219906   5.672   6.360   3.197  1.1963  0.2875  0.1670
 6648TIP3   OH219907   1.883   6.144   0.957  0.5437 -0.0772  0.4166
 6648TIP3    H119908   1.843   6.145   1.044  0.5368 -0.1682  0.4143
 6648TIP3    H219909   1.900   6.051   0.939 -2.6187 -0.4620 -1.1509
 6649TIP3   OH219910   2.254   4.040   4.601  0.3663  0.3101  0.0601
 6649TIP3    H119911   2.203   4.084   4.670  0.4104  1.3572 -0.5631
 6649TIP3    H219912   2.302   4.110   4.558  0.7177 -0.4017 -0.7300
 6650TIP3   OH219913   4.938   0.816   4.518  0.1543  0.2641  0.4868
 6650TIP3    H119914   4.865   0.818   4.580 -0.1451 -1.3612  0.2430
 6650TIP3    H219915   4.896   0.827   4.432  0.5638  2.4993  0.5125
 6651TIP3   OH219916   6.786   3.702   0.436 -0.5750  0.4745 -0.7132
 6651TIP3    H119917   6.767   3.683   0.344 -1.2267 -0.1990 -0.4506
 6651TIP3    H219918   6.877   3.732   0.436  0.2315 -1.7695 -1.3208
 6652TIP3   OH219919   7.202   6.452   3.589 -0.3109  0.2183  0.5245
 6652TIP3    H119920   7.201   6.361   3.560 -1.0192  0.6562 -0.8941
 6652TIP3    H219921   7.195   6.447   3.685 -1.5169 -1.1823  0.3909
 6653TIP3   OH219922   5.991   6.581   5.720 -0.0306  0.1308  0.0451
 6653TIP3    H119923   5.929   6.625   5.779  0.5813  1.4039 -0.2194
 6653TIP3    H219924   6.070   6.635   5.724 -0.3536  1.0117 -2.8627
 6654TIP3   OH219925   6.685   1.541   1.258 -0.5383 -0.3451 -0.2015
 6654TIP3    H119926   6.780   1.554   1.260 -0.6233  0.1486  0.9585
 6654TIP3    H219927   6.669   1.502   1.172  0.7546 -0.7803 -0.2681
 6655TIP3   OH219928   2.303   3.643   2.846  0.3840 -0.8108  0.0478
 6655TIP3    H119929   2.293   3.572   2.783  0.4339 -0.2880 -0.5556
 6655TIP3    H219930   2.333   3.718   2.794  1.2772 -0.6109  0.8316
 6656TIP3   OH219931   4.798   1.932   0.717  0.0958 -0.1366  0.2429
 6656TIP3    H119932   4.747   1.895   0.645 -0.1593 -1.6091  1.1466
 6656TIP3    H219933   4.770   1.884   0.794 -0.8115  2.4748  1.6614
 6657TIP3   OH219934   2.849   0.299   3.682 -0.1006 -0.1490  0.1184
 6657TIP3    H119935   2.880   0.358   3.751  0.1397  0.0265 -0.1392
 6657TIP3    H219936   2.866   0.345   3.601  0.4598 -0.7438 -0.1100
 6658TIP3   OH219937   0.004   5.787   2.111  0.5110 -0.4225 -0.2059
 6658TIP3    H119938  -0.005   5.692   2.124 -1.4386 -0.6206 -2.3483
 6658TIP3    H219939   0.050   5.795   2.028 -0.7427  0.4545 -0.8417
 6659TIP3   OH219940   0.315   0.919   5.149  0.0600  0.4674  0.3259
 6659TIP3    H119941   0.260   0.945   5.075 -0.2700  0.3672  0.5342
 6659TIP3    H219942   0.393   0.882   5.108 -0.0361  0.5847  0.0278
 6660TIP3   OH219943   3.363   5.902   4.688 -0.1345  0.1195  0.5825
 6660TIP3    H119944   3.354   5.836   4.619 -0.9615  0.3491  0.4612
 6660TIP3    H219945   3.412   5.858   4.757 -0.8410 -0.6959  0.5819
 6661TIP3   OH219946   7.194   0.356   4.897  0.2318 -0.4960 -0.2731
 6661TIP3    H119947   7.282   0.326   4.877 -0.3494 -2.7111  0.2400
 6661TIP3    H219948   7.163   0.394   4.815  2.1764  1.8441 -0.0308
 6662TIP3   OH219949   5.178   3.633   2.769 -0.4330 -0.0689 -0.4264
 6662TIP3    H119950   5.083   3.645   2.761 -0.2631  0.6136 -1.7847
 6662TIP3    H219951   5.215   3.693   2.704  0.9645  0.1533  0.5453
 6663TIP3   OH219952   3.903   4.142   4.159  0.3275 -0.1716  0.0701
 6663TIP3    H119953   3.820   4.109   4.124  0.4307 -0.8970  0.4839
 6663TIP3    H219954   3.892   4.136   4.254  1.1628 -1.0791  0.1233
 6664TIP3   OH219955   1.072   0.742   1.628 -0.1805 -0.3762 -0.1416
 6664TIP3    H119956   1.153   0.786   1.601 -0.2462 -1.0279 -1.4891
 6664TIP3    H219957   1.064   0.762   1.721  1.3317  0.0160 -0.0666
 6665TIP3   OH219958   5.824   4.145   0.875  0.1125  0.1983  0.1293
 6665TIP3    H119959   5.825   4.173   0.967  0.1692 -0.6950  0.4099
 6665TIP3    H219960   5.888   4.074   0.871  0.4625  0.5428 -0.7110
 6666TIP3   OH219961   5.383   1.516   4.156  0.0502 -0.1877 -0.3099
 6666TIP3    H119962   5.388   1.608   4.182 -1.1428 -0.6735  1.9536
 6666TIP3    H219963   5.445   1.472   4.215 -0.9796 -1.0770  0.1369
 6667TIP3   OH219964   0.550   1.344   0.231  0.0117 -0.8486 -0.9753
 6667TIP3    H119965   0.612   1.320   0.162  0.8160  2.7075 -1.6974
 6667TIP3    H219966   0.601   1.399   0.290 -2.5288  3.3371 -2.2624
 6668TIP3   OH219967   5.539   1.807   2.175 -0.6501  0.3850  0.1355
 6668TIP3    H119968   5.459   1.845   2.210 -0.6787  1.0604 -0.6380
 6668TIP3    H219969   5.534   1.714   2.199 -2.4043  0.0770 -1.2037
 6669TIP3   OH219970   0.829   5.055   4.984  0.4518  0.6460  0.5939
 6669TIP3    H119971   0.785   5.057   4.900  1.3731  0.5686  0.0950
 6669TIP3    H219972   0.762   5.080   5.048 -0.6715 -0.8429  0.0375
 6670TIP3   OH219973   1.203   4.617   5.186 -0.1460 -0.0825  0.3213
 6670TIP3    H119974   1.142   4.692   5.185 -0.5293 -0.3969 -0.2034
 6670TIP3    H219975   1.183   4.569   5.105  0.4805 -0.4479  0.3818
 6671TIP3   OH219976   0.489   4.701   4.309  0.7459  0.4073 -1.0247
 6671TIP3    H119977   0.499   4.710   4.214 -1.0946  3.5266 -1.0643
 6671TIP3    H219978   0.557   4.757   4.346  1.3579 -0.6755 -0.4271
 6672TIP3   OH219979   3.735   1.714   1.753  0.2797 -0.3393  0.1380
 6672TIP3    H119980   3.805   1.651   1.738  0.0316 -0.3848 -0.9079
 6672TIP3    H219981   3.659   1.660   1.776  0.5439 -0.2974  1.1430
 6673TIP3   OH219982   0.928   3.936   3.365  0.3285  0.0829 -0.0753
 6673TIP3    H119983   0.840   3.933   3.328  0.5987 -0.8332 -0.6761
 6673TIP3    H219984   0.948   3.845   3.387  1.2841  0.2148 -0.3454
 6674TIP3   OH219985   1.087   4.602   3.437  0.0997  0.1235 -0.3630
 6674TIP3    H119986   1.026   4.666   3.475  0.1500 -1.2624  2.2114
 6674TIP3    H219987   1.167   4.652   3.421  0.1703  0.7552  1.6849
 6675TIP3   OH219988   5.715   2.526   1.644 -1.1582 -0.0625 -0.3796
 6675TIP3    H119989   5.688   2.583   1.716 -1.1739 -0.3567 -0.1468
 6675TIP3    H219990   5.647   2.536   1.578 -0.5126  1.1469 -0.8802
 6676TIP3   OH219991   2.384   0.399   2.080  0.0062  0.7595 -0.2136
 6676TIP3    H119992   2.290   0.380   2.078 -0.0312  0.9638 -0.3637
 6676TIP3    H219993   2.424   0.325   2.035 -0.0864  0.7031 -0.2039
 6677TIP3   OH219994   5.726   0.311   3.318 -0.2742  0.5993 -0.1191
 6677TIP3    H119995   5.639   0.305   3.278 -0.5136  1.7134  0.1820
 6677TIP3    H219996   5.712   0.361   3.399  1.0120  3.3720 -1.4490
 6678TIP3   OH219997   4.483   3.217   5.710  0.0304 -0.0557  0.1812
 6678TIP3    H119998   4.514   3.173   5.789 -0.8079  1.3242  1.3164
 6678TIP3    H219999   4.466   3.307   5.737  1.2436  0.9046 -1.9429
 6679TIP3   OH220000   2.102   1.179   4.038  0.3118  0.0835  0.6134
 6679TIP3    H120001   2.191   1.185   4.005  0.4268 -0.1060  0.8874
 6679TIP3    H220002   2.063   1.106   3.988 -1.0555  2.7738 -2.6421
 6680TIP3   OH220003   2.030   1.160   5.114  0.5625 -0.1104 -0.1656
 6680TIP3    H120004   1.954   1.217   5.113 -1.1548 -2.2584 -0.6659
 6680TIP3    H220005   2.095   1.206   5.168 -0.9811  1.8960  0.0768
 6681TIP3   OH220006   6.222   0.632   0.999  0.4388 -0.3241  0.2282
 6681TIP3    H120007   6.153   0.699   0.999  0.0840 -0.6772  0.9940
 6681TIP3    H220008   6.303   0.682   1.010  0.2256  0.0248  0.2575
 6682TIP3   OH220009   3.295   1.649   2.419 -0.1459  0.1474  0.0259
 6682TIP3    H120010   3.360   1.629   2.487  1.3868 -1.2017 -1.7356
 6682TIP3    H220011   3.311   1.741   2.397 -0.9485  0.7298  1.7373
 6683TIP3   OH220012   0.819   4.413   3.380 -0.5678 -0.4742  0.4796
 6683TIP3    H120013   0.877   4.356   3.431 -1.8893 -1.7730  0.6136
 6683TIP3    H220014   0.828   4.381   3.290 -0.4306 -0.1049  0.3600
 6684TIP3   OH220015   0.168   1.333   1.794 -0.3876 -0.3081  0.3129
 6684TIP3    H120016   0.184   1.397   1.725 -0.2488  1.2220  1.7051
 6684TIP3    H220017   0.216   1.256   1.767  1.8948  1.1518 -0.0335
 6685TIP3   OH220018   0.638   5.571   4.105 -0.5875  0.4799 -0.3695
 6685TIP3    H120019   0.710   5.588   4.167 -0.9608  2.5126 -0.4234
 6685TIP3    H220020   0.562   5.556   4.162 -0.4854  0.1351 -0.3229
 6686TIP3   OH220021   5.860   4.199   4.349 -0.1399 -0.0421  0.1270
 6686TIP3    H120022   5.802   4.259   4.396  0.1304 -0.3836  0.9109
 6686TIP3    H220023   5.874   4.126   4.409 -1.6225 -1.6464 -1.3226
 6687TIP3   OH220024   0.953   2.413   2.630 -0.0720 -0.1342 -0.1802
 6687TIP3    H120025   0.973   2.352   2.700 -0.8480 -0.4788 -0.2442
 6687TIP3    H220026   0.874   2.377   2.588 -1.0838  1.3666  0.3463
 6688TIP3   OH220027   6.592   5.467   2.906  0.1555  0.1346  0.0323
 6688TIP3    H120028   6.544   5.534   2.954 -0.1774 -0.8464  1.1229
 6688TIP3    H220029   6.524   5.411   2.868  0.4293 -0.3620  0.2638
 6689TIP3   OH220030   2.025   2.909   5.292 -0.3573  0.2504  0.1808
 6689TIP3    H120031   1.996   2.999   5.279 -0.9839 -0.0792 -0.9052
 6689TIP3    H220032   2.116   2.916   5.320  0.0705  1.2041 -1.3074
 6690TIP3   OH220033   7.217   5.029   4.201 -0.1862 -0.0944 -0.4462
 6690TIP3    H120034   7.131   5.027   4.243 -1.8227  1.9184 -3.3232
 6690TIP3    H220035   7.245   5.121   4.208  0.8848 -0.3522 -1.1451
 6691TIP3   OH220036   2.586   6.703   0.348  0.4112 -0.3238  0.1748
 6691TIP3    H120037   2.568   6.797   0.349  0.4257 -0.2883  2.2253
 6691TIP3    H220038   2.676   6.696   0.381  0.1383 -1.0759  0.7867
 6692TIP3   OH220039   0.289   6.785   4.248  0.0071  0.3629 -0.0654
 6692TIP3    H120040   0.365   6.757   4.199 -1.5524 -1.3355 -1.6705
 6692TIP3    H220041   0.265   6.870   4.210  0.3435  0.3001 -0.4229
 6693TIP3   OH220042   6.390   5.480   3.478 -0.0353 -0.1809 -0.3658
 6693TIP3    H120043   6.443   5.401   3.494  0.4921  0.0692 -0.8533
 6693TIP3    H220044   6.320   5.451   3.420 -0.3075 -0.4661  0.1010
 6694TIP3   OH220045   0.068   3.293   4.842  0.4559 -0.4732 -0.1879
 6694TIP3    H120046   0.139   3.337   4.795  0.7755 -0.3217  0.4282
 6694TIP3    H220047   0.044   3.353   4.912 -1.1509  0.0384 -1.1289
 6695TIP3   OH220048   3.876   1.232   1.870  0.0290  0.4076  0.2931
 6695TIP3    H120049   3.902   1.324   1.870  0.5522  0.2680 -0.1004
 6695TIP3    H220050   3.811   1.225   1.940 -0.2882  1.1462  0.0778
 6696TIP3   OH220051   2.184   3.948   3.364  0.1440 -0.4264 -0.3658
 6696TIP3    H120052   2.183   4.038   3.397 -1.0509 -0.9178  1.0799
 6696TIP3    H220053   2.270   3.914   3.390  0.8126  0.4231 -1.3793
 6697TIP3   OH220054   2.166   2.100   1.686 -0.2307 -0.4036 -0.6073
 6697TIP3    H120055   2.084   2.074   1.728 -0.1870 -0.4267 -0.5374
 6697TIP3    H220056   2.222   2.023   1.692  0.7183  0.3726  1.5904
 6698TIP3   OH220057   2.371   5.351   4.173 -0.2999  0.2318 -0.7055
 6698TIP3    H120058   2.394   5.334   4.264  2.7270  1.2643 -1.1633
 6698TIP3    H220059   2.344   5.265   4.139 -0.4891 -0.3716  0.8747
 6699TIP3   OH220060   6.338   0.621   0.474  0.2405 -0.4840  0.4330
 6699TIP3    H120061   6.390   0.541   0.465 -0.1996 -0.6507 -0.8403
 6699TIP3    H220062   6.317   0.625   0.567  3.2029  0.0329  1.1786
 6700TIP3   OH220063   3.833   4.755   3.812 -0.1396  0.1265  0.1146
 6700TIP3    H120064   3.847   4.718   3.899  0.3647 -0.1339 -0.0672
 6700TIP3    H220065   3.917   4.795   3.790 -0.6563  1.3194  0.2692
 6701TIP3   OH220066   4.687   5.787   0.650 -0.1833 -0.1146  0.7586
 6701TIP3    H120067   4.620   5.722   0.672 -0.2242  0.3834  2.2265
 6701TIP3    H220068   4.728   5.808   0.734 -1.7837  3.5277  0.7881
 6702TIP3   OH220069   5.300   5.158   4.207 -0.3112 -0.6799  0.6129
 6702TIP3    H120070   5.300   5.113   4.291 -2.0597 -1.1477  0.4024
 6702TIP3    H220071   5.389   5.190   4.196 -0.3132  0.4498  3.2189
 6703TIP3   OH220072   2.525   4.416   5.500 -0.0637  0.3508 -0.3672
 6703TIP3    H120073   2.548   4.335   5.546  0.8568 -0.0883 -1.5481
 6703TIP3    H220074   2.538   4.485   5.565  2.3520 -0.1335 -0.2604
 6704TIP3   OH220075   5.996   2.187   5.535  0.1349 -0.4560 -0.4994
 6704TIP3    H120076   5.961   2.251   5.474  1.0652  1.1708  0.5859
 6704TIP3    H220077   5.930   2.117   5.538 -1.6246  1.1299 -0.6323
 6705TIP3   OH220078   1.304   6.196   2.084 -0.3813  0.0546 -0.3845
 6705TIP3    H120079   1.342   6.114   2.117 -1.1503  0.4620  1.6745
 6705TIP3    H220080   1.361   6.264   2.117 -0.9447  0.4631 -0.2299
 6706TIP3   OH220081   1.034   6.244   2.120  0.4418 -0.5697  0.6252
 6706TIP3    H120082   1.124   6.213   2.111  1.6836  2.8987 -1.1472
 6706TIP3    H220083   1.029   6.280   2.209  1.9212  1.8096 -0.1452
 6707TIP3   OH220084   5.435   3.906   2.890 -0.2851  0.0172 -0.8236
 6707TIP3    H120085   5.394   3.988   2.918  0.6490  0.0059  0.7208
 6707TIP3    H220086   5.522   3.931   2.861 -0.5457 -0.2429 -1.8540
 6708TIP3   OH220087   2.690   2.308   5.090 -0.0534 -0.2021 -0.2772
 6708TIP3    H120088   2.706   2.383   5.149 -0.3645 -1.0961  0.9820
 6708TIP3    H220089   2.763   2.249   5.107 -0.4027 -0.6878 -0.4496
 6709TIP3   OH220090   4.661   2.043   2.309 -0.6594 -0.2668  0.1263
 6709TIP3    H120091   4.742   2.018   2.353 -0.7318 -0.5645  0.0944
 6709TIP3    H220092   4.609   1.962   2.307 -0.5512 -0.3291 -0.7254
 6710TIP3   OH220093   2.516   3.344   4.604  0.2784 -0.4964  0.4039
 6710TIP3    H120094   2.473   3.301   4.678  0.2687  0.3532  0.9064
 6710TIP3    H220095   2.530   3.434   4.633 -0.6661  0.1493 -1.0086
 6711TIP3   OH220096   3.707   4.769   0.346 -0.6068 -0.0420 -0.2527
 6711TIP3    H120097   3.775   4.830   0.317 -0.5324 -0.5923 -1.2994
 6711TIP3    H220098   3.672   4.732   0.265 -0.0186 -2.0881  0.3782
 6712TIP3   OH220099   4.803   0.839   1.209  0.2224 -0.0571  0.1356
 6712TIP3    H120100   4.788   0.933   1.210  3.0213  0.5768 -2.4859
 6712TIP3    H220101   4.816   0.816   1.301 -2.2741  1.6716  1.0340
 6713TIP3   OH220102   6.391   3.557   1.227  0.6484  0.3345 -0.0097
 6713TIP3    H120103   6.304   3.549   1.266  0.9545 -2.1283  0.3261
 6713TIP3    H220104   6.449   3.574   1.302  0.6304  0.4661 -0.0266
 6714TIP3   OH220105   3.959   3.023   2.660  0.0064 -0.0822  0.0098
 6714TIP3    H120106   3.872   3.053   2.688 -0.7730  0.0568 -2.3044
 6714TIP3    H220107   3.944   2.983   2.574  1.9944 -1.6371  0.3157
 6715TIP3   OH220108   0.499   4.197   5.125 -0.4985 -0.2091 -0.7716
 6715TIP3    H120109   0.407   4.181   5.106 -0.6553  1.4248 -1.6160
 6715TIP3    H220110   0.533   4.238   5.046  0.4573  0.9577  0.1836
 6716TIP3   OH220111   4.483   6.363   3.084 -0.3532  0.7635  0.2127
 6716TIP3    H120112   4.437   6.282   3.065  1.3677 -0.1253 -0.2930
 6716TIP3    H220113   4.445   6.427   3.024 -0.5184 -0.0947 -0.6212
 6717TIP3   OH220114   6.359   2.268   4.683 -0.6215  0.3814  0.1885
 6717TIP3    H120115   6.297   2.217   4.735 -0.0395 -0.4262  0.1027
 6717TIP3    H220116   6.434   2.282   4.740  0.2623 -0.9905 -0.5681
 6718TIP3   OH220117   4.911   2.176   3.428 -0.0676 -0.1163 -0.6132
 6718TIP3    H120118   4.924   2.084   3.451  0.6880 -0.5203 -2.4418
 6718TIP3    H220119   4.985   2.221   3.469 -0.9152 -0.1474  1.0284
 6719TIP3   OH220120   4.428   4.018   4.252  0.1005 -0.2072 -0.3224
 6719TIP3    H120121   4.489   4.026   4.179  0.6373 -0.2491  0.1194
 6719TIP3    H220122   4.444   4.096   4.305 -1.5709  0.7989 -1.1942
 6720TIP3   OH220123   1.150   2.321   1.323 -0.5475 -0.2437  0.3390
 6720TIP3    H120124   1.109   2.306   1.238  0.3460  0.2068 -0.1847
 6720TIP3    H220125   1.213   2.392   1.308  0.9713 -1.4133  0.9279
 6721TIP3   OH220126   5.572   4.396   2.798 -0.1070  0.5282 -0.4110
 6721TIP3    H120127   5.481   4.415   2.778 -0.6799 -1.5956 -0.1185
 6721TIP3    H220128   5.581   4.410   2.892 -0.2934  0.1683 -0.3395
 6722TIP3   OH220129   0.311   1.187   5.857  0.0513  0.3129 -0.1092
 6722TIP3    H120130   0.249   1.258   5.838 -1.1213  0.6549  4.0130
 6722TIP3    H220131   0.273   1.111   5.813 -2.6469  0.8089  1.1450
 6723TIP3   OH220132   5.831   0.744   5.371  0.2657 -0.5124  0.6299
 6723TIP3    H120133   5.910   0.701   5.404  1.4685  0.9915 -0.1483
 6723TIP3    H220134   5.825   0.717   5.280 -0.3155 -0.8803  0.7744
 6724TIP3   OH220135   6.409   1.817   4.148  0.5734 -0.1622 -0.0362
 6724TIP3    H120136   6.413   1.791   4.240 -1.5319 -1.4088 -0.2236
 6724TIP3    H220137   6.421   1.912   4.150 -0.7509  0.0331  1.7128
 6725TIP3   OH220138   2.184   4.114   2.155 -0.5036  0.4988 -0.2220
 6725TIP3    H120139   2.243   4.078   2.221  0.6375  0.3599 -1.2685
 6725TIP3    H220140   2.238   4.178   2.107 -0.9146 -0.2569 -1.7662
 6726TIP3   OH220141   5.560   3.511   0.490 -0.7279 -0.1629  0.3226
 6726TIP3    H120142   5.613   3.580   0.449 -2.1990 -0.0381 -1.5424
 6726TIP3    H220143   5.499   3.559   0.546 -0.4376 -0.1323  0.6206
 6727TIP3   OH220144   1.014   6.152   1.785 -0.2477 -0.4528  0.1481
 6727TIP3    H120145   0.943   6.095   1.815  0.2257 -1.1073  0.0355
 6727TIP3    H220146   0.973   6.238   1.777 -1.2207 -0.9583 -0.6091
 6728TIP3   OH220147   6.214   3.492   4.269  0.0793  0.1160  0.1387
 6728TIP3    H120148   6.291   3.512   4.216 -0.9053 -0.3868 -1.5717
 6728TIP3    H220149   6.229   3.403   4.301 -0.5467 -0.7018 -1.7067
 6729TIP3   OH220150   0.156   2.054   3.460  0.0420  0.1319 -0.5061
 6729TIP3    H120151   0.118   2.063   3.547  1.3696  0.5600  0.0525
 6729TIP3    H220152   0.232   2.111   3.461 -0.0452  0.3141 -2.0384
 6730TIP3   OH220153   3.181   2.272   0.296  0.0434 -0.0223 -0.1178
 6730TIP3    H120154   3.155   2.305   0.209  1.9412  0.2802 -0.6068
 6730TIP3    H220155   3.209   2.182   0.280 -0.2237 -0.1855  0.3188
 6731TIP3   OH220156   1.139   3.091   0.276  0.0248  0.1290 -0.5270
 6731TIP3    H120157   1.066   3.144   0.245  1.0315  2.0524  0.1920
 6731TIP3    H220158   1.154   3.027   0.207 -1.7323  0.2937 -1.1008
 6732TIP3   OH220159   3.465   2.842   1.793 -0.1614  0.1176 -0.5614
 6732TIP3    H120160   3.553   2.810   1.772  0.0955  0.4752 -0.0217
 6732TIP3    H220161   3.460   2.927   1.749  0.5487  1.0884  1.1690
 6733TIP3   OH220162   3.173   3.591   1.034 -0.1271  0.3440  0.8578
 6733TIP3    H120163   3.102   3.653   1.047 -0.9148 -0.3162 -0.1435
 6733TIP3    H220164   3.142   3.511   1.077  0.2084  0.1898  0.8114
 6734TIP3   OH220165   6.658   1.778   2.404 -0.1339 -0.3254  0.4056
 6734TIP3    H120166   6.572   1.816   2.419  0.3464  1.1278 -0.2956
 6734TIP3    H220167   6.684   1.811   2.317  1.7412  0.5122  1.2172
 6735TIP3   OH220168   2.160   4.743   3.227 -0.1967  0.5295  0.1128
 6735TIP3    H120169   2.153   4.711   3.317 -0.6686  0.1383 -0.0532
 6735TIP3    H220170   2.149   4.664   3.173 -1.7588  1.0002 -0.3150
 6736TIP3   OH220171   1.844   0.281   0.539  0.1127 -0.7345 -1.0854
 6736TIP3    H120172   1.872   0.350   0.479 -2.7908  1.4877 -0.1312
 6736TIP3    H220173   1.767   0.243   0.496  0.3461 -1.8543 -0.5407
 6737TIP3   OH220174   4.369   0.247   4.930  0.1606 -0.1686  0.0002
 6737TIP3    H120175   4.298   0.271   4.990 -0.3600 -0.5417 -0.4632
 6737TIP3    H220176   4.339   0.166   4.888 -0.3202  1.0226 -2.1065
 6738TIP3   OH220177   2.826   4.655   0.225 -0.1442 -0.2460 -0.3776
 6738TIP3    H120178   2.797   4.660   0.133  1.2920 -0.6938 -0.8809
 6738TIP3    H220179   2.919   4.634   0.219  0.0164 -0.0481  1.1975
 6739TIP3   OH220180   2.420   1.525   3.171 -0.4507 -0.0786  0.0494
 6739TIP3    H120181   2.447   1.612   3.140 -1.9781  0.7354  0.8641
 6739TIP3    H220182   2.499   1.489   3.212  0.9559 -0.2271 -2.5924
 6740TIP3   OH220183   0.399   6.618   0.132  0.0995 -0.7153 -0.0767
 6740TIP3    H120184   0.331   6.598   0.196  0.7016 -1.3080  0.3852
 6740TIP3    H220185   0.473   6.651   0.183  0.8195 -1.7963 -0.3754
 6741TIP3   OH220186   1.079   2.509   3.165 -0.6398 -0.5842 -0.4319
 6741TIP3    H120187   1.154   2.550   3.207  0.8961 -2.1568 -1.4806
 6741TIP3    H220188   1.055   2.437   3.223 -0.6813 -0.6983 -0.5885
 6742TIP3   OH220189   5.073   5.474   0.171  0.3013 -0.2603 -0.4863
 6742TIP3    H120190   5.156   5.486   0.125 -1.0252  2.1264 -2.4837
 6742TIP3    H220191   5.056   5.558   0.213 -0.7126 -0.9974  0.6301
 6743TIP3   OH220192   1.128   3.218   1.259 -0.2396 -0.5078 -0.1862
 6743TIP3    H120193   1.136   3.123   1.256 -0.0641 -0.4616 -2.6360
 6743TIP3    H220194   1.205   3.247   1.308  1.1742 -1.5083 -1.7109
 6744TIP3   OH220195   0.933   3.667   3.364  0.1730  0.2495  0.4752
 6744TIP3    H120196   0.871   3.616   3.311  0.9092 -0.9491  0.7355
 6744TIP3    H220197   1.016   3.659   3.318  1.1084 -1.8027  2.3613
 6745TIP3   OH220198   0.879   4.439   1.870 -1.0836  0.1104 -0.0747
 6745TIP3    H120199   0.814   4.372   1.853 -0.9474  0.0399 -0.3298
 6745TIP3    H220200   0.902   4.428   1.962 -1.1904 -0.0770 -0.0701
 6746TIP3   OH220201   1.176   0.797   0.737 -0.1455  0.6139  0.2150
 6746TIP3    H120202   1.258   0.763   0.772  0.0123  0.0065 -0.7286
 6746TIP3    H220203   1.191   0.891   0.727  0.8452  0.3386 -1.0519
 6747TIP3   OH220204   3.395   2.138   4.797  0.4384  0.0889 -0.3467
 6747TIP3    H120205   3.302   2.155   4.787  0.8129  2.4732 -0.5108
 6747TIP3    H220206   3.407   2.127   4.892  0.0760  0.4516 -0.2552
 6748TIP3   OH220207   2.636   1.494   3.376  0.7732 -0.2801 -0.5197
 6748TIP3    H120208   2.678   1.543   3.447 -0.0480 -0.9472  0.4541
 6748TIP3    H220209   2.560   1.452   3.417  0.7644 -1.3804 -1.5979
 6749TIP3   OH220210   6.898   5.182   5.648  0.6369 -0.1689  0.6561
 6749TIP3    H120211   6.876   5.092   5.624  1.3417  0.0486 -0.9625
 6749TIP3    H220212   6.992   5.181   5.665  0.7740  0.3769 -0.0181
 6750TIP3   OH220213   1.588   5.031   2.596 -0.4219  0.4593  0.3120
 6750TIP3    H120214   1.648   5.038   2.670  1.9642  0.0368 -1.4288
 6750TIP3    H220215   1.589   5.118   2.556  1.7489 -0.3308 -1.5765
 6751TIP3   OH220216   0.668   6.256   4.025 -0.5947 -0.1248 -0.2524
 6751TIP3    H120217   0.608   6.190   4.060 -1.1871  0.4642 -0.1417
 6751TIP3    H220218   0.645   6.263   3.932  0.4361 -1.1050 -0.5966
 6752TIP3   OH220219   4.332   6.368   4.505  0.0532  0.6123  0.2116
 6752TIP3    H120220   4.400   6.425   4.469  0.7118 -1.1489 -1.5156
 6752TIP3    H220221   4.250   6.409   4.478  0.4954  1.1425 -0.3645
 6753TIP3   OH220222   4.637   3.357   0.507  0.5692 -0.1628  0.3677
 6753TIP3    H120223   4.560   3.377   0.453 -0.0119 -0.1681  1.1622
 6753TIP3    H220224   4.683   3.440   0.515  1.1736 -0.3562 -0.8923
 6754TIP3   OH220225   6.300   2.914   2.127  0.1009 -0.0619  0.0302
 6754TIP3    H120226   6.220   2.956   2.097  0.6339  1.3797  0.5423
 6754TIP3    H220227   6.280   2.886   2.216 -0.2254 -0.8410 -0.2796
 6755TIP3   OH220228   6.276   5.785   3.277 -0.4200  1.0452  0.0251
 6755TIP3    H120229   6.354   5.749   3.319 -0.5712  0.2707 -0.3251
 6755TIP3    H220230   6.244   5.851   3.338 -0.1163  0.5830  0.6963
 6756TIP3   OH220231   4.705   0.651   5.464 -0.0274 -0.4513 -0.2090
 6756TIP3    H120232   4.610   0.647   5.448  0.0914 -0.3933 -0.9506
 6756TIP3    H220233   4.718   0.596   5.542 -0.8986  0.9513  0.9968
 6757TIP3   OH220234   0.879   3.737   4.872 -0.3405 -0.1977 -0.2785
 6757TIP3    H120235   0.795   3.732   4.826  0.1254 -0.6559 -1.0925
 6757TIP3    H220236   0.903   3.829   4.868 -0.0802 -0.3002 -1.3809
 6758TIP3   OH220237   6.142   0.756   4.091  0.6470  0.4575  0.0866
 6758TIP3    H120238   6.067   0.813   4.078  0.8614  0.7637  0.1908
 6758TIP3    H220239   6.206   0.786   4.027  0.5688  0.0012 -0.2086
 6759TIP3   OH220240   6.954   0.350   4.203  0.8846 -0.2781 -0.1850
 6759TIP3    H120241   6.924   0.295   4.276 -0.7705  0.4435 -0.2665
 6759TIP3    H220242   6.881   0.349   4.141 -0.2464  3.7091  0.7906
 6760TIP3   OH220243   3.270   2.888   1.423  0.4733  0.1211  0.5369
 6760TIP3    H120244   3.330   2.824   1.460  0.8807  0.8758  1.2079
 6760TIP3    H220245   3.309   2.973   1.443 -0.3325  0.6031  0.1435
 6761TIP3   OH220246   2.298   6.735   4.728  0.0052 -0.1440 -0.8567
 6761TIP3    H120247   2.341   6.760   4.646  0.6233  1.2863 -0.1394
 6761TIP3    H220248   2.307   6.640   4.733  2.5830  0.0293 -1.0354
 6762TIP3   OH220249   6.683   3.533   4.543  0.1769 -0.2587 -0.5687
 6762TIP3    H120250   6.732   3.471   4.597  0.4804 -0.8083 -1.4406
 6762TIP3    H220251   6.631   3.584   4.605 -0.5972 -1.8353  0.1437
 6763TIP3   OH220252   2.220   4.680   5.600  0.4605  0.0306  0.4078
 6763TIP3    H120253   2.254   4.695   5.512 -0.1668  0.3985  0.2262
 6763TIP3    H220254   2.190   4.589   5.599  1.2575 -0.2429  0.5151
 6764TIP3   OH220255   6.960   2.305   0.112 -0.2051 -0.3738 -0.5061
 6764TIP3    H120256   6.901   2.280   0.183 -1.3273 -1.1289 -1.6604
 6764TIP3    H220257   6.930   2.392   0.086  0.5688  0.1462  0.2920
 6765TIP3   OH220258   4.004   1.242   0.897  0.4689 -0.1571  0.1718
 6765TIP3    H120259   3.918   1.278   0.873  1.0668  0.9260 -0.4149
 6765TIP3    H220260   4.008   1.157   0.853  0.0351  0.1613 -0.4982
 6766TIP3   OH220261   5.559   2.402   1.299 -0.1213 -0.3161 -0.5910
 6766TIP3    H120262   5.529   2.454   1.374  1.2781 -0.3429  0.0137
 6766TIP3    H220263   5.516   2.442   1.223 -0.2307  0.7800  0.0310
 6767TIP3   OH220264   4.521   6.496   5.688  0.3874  0.3570  0.3254
 6767TIP3    H120265   4.480   6.444   5.619  0.2562 -1.1831  1.5213
 6767TIP3    H220266   4.614   6.496   5.666  0.1783  1.2594 -0.6988
 6768TIP3   OH220267   5.788   6.276   0.525  0.6656  0.4032 -0.8455
 6768TIP3    H120268   5.762   6.354   0.574  0.5259  0.3004 -0.7549
 6768TIP3    H220269   5.725   6.271   0.453 -0.7287 -0.8636  0.3955
 6769TIP3   OH220270   1.163   0.026   0.687 -0.5947  0.4924 -0.0738
 6769TIP3    H120271   1.229   0.029   0.756 -1.0998  1.2717  0.3928
 6769TIP3    H220272   1.135   0.117   0.676 -0.9826  0.2908 -0.8577
 6770TIP3   OH220273   3.927   3.131   3.970 -0.2389  0.7347 -0.2763
 6770TIP3    H120274   3.993   3.145   3.903 -0.0397  0.2188 -0.1935
 6770TIP3    H220275   3.844   3.129   3.923  0.0780 -2.3317 -0.9415
 6771TIP3   OH220276   0.809   5.633   3.481 -0.3541  0.2621  0.7082
 6771TIP3    H120277   0.857   5.550   3.486 -0.5431  0.1601  0.8233
 6771TIP3    H220278   0.830   5.677   3.564 -0.9731 -0.0644  1.0470
 6772TIP3   OH220279   4.656   6.680   4.197 -0.2993 -0.1784  0.3588
 6772TIP3    H120280   4.682   6.611   4.258  0.0494 -0.9717 -0.6514
 6772TIP3    H220281   4.719   6.750   4.212  1.5395 -1.4344 -0.9173
 6773TIP3   OH220282   4.039   5.685   0.059 -0.2509  0.1419  0.8310
 6773TIP3    H120283   3.985   5.762   0.042  0.6984  0.3962 -1.2769
 6773TIP3    H220284   4.111   5.717   0.112 -0.8377  0.2973  1.5567
 6774TIP3   OH220285   5.670   5.073   0.285 -0.6375 -0.3623  1.1743
 6774TIP3    H120286   5.668   5.133   0.360  1.7220 -1.1730  1.9649
 6774TIP3    H220287   5.755   5.088   0.244 -1.9232  0.2140 -1.5743
 6775TIP3   OH220288   5.775   0.675   0.546  0.6419 -0.0302 -0.2784
 6775TIP3    H120289   5.775   0.609   0.476 -0.7568 -0.5293  0.1484
 6775TIP3    H220290   5.852   0.653   0.599  1.5976  0.2257 -1.5144
 6776TIP3   OH220291   4.956   0.167   5.336  0.5197 -0.1299 -0.2114
 6776TIP3    H120292   4.987   0.166   5.246  0.4709  1.5954 -0.2725
 6776TIP3    H220293   4.874   0.117   5.334 -0.5324  1.5244 -1.5571
 6777TIP3   OH220294   2.796   5.573   0.934 -0.1474 -0.0888 -0.4193
 6777TIP3    H120295   2.729   5.566   0.866  0.5040 -0.4651 -1.0361
 6777TIP3    H220296   2.763   5.520   1.006 -1.3115  1.1053 -0.0346
 6778TIP3   OH220297   6.238   5.458   2.417 -0.1736  0.3318 -0.6837
 6778TIP3    H120298   6.160   5.514   2.410  0.3953  1.3793  0.9061
 6778TIP3    H220299   6.298   5.507   2.473  1.2970 -0.8599 -1.1470
 6779TIP3   OH220300   4.190   5.308   3.282 -0.0704 -0.1506 -0.4657
 6779TIP3    H120301   4.214   5.399   3.300  1.0551 -0.7984  1.8176
 6779TIP3    H220302   4.096   5.304   3.297 -0.0995  0.6170 -0.4232
 6780TIP3   OH220303   2.673   1.255   4.251 -0.5723  0.3313 -0.2210
 6780TIP3    H120304   2.750   1.313   4.252  0.6782 -1.2225 -0.6792
 6780TIP3    H220305   2.668   1.219   4.339 -0.6613  0.2998 -0.2388
 6781TIP3   OH220306   0.803   5.555   3.115 -0.2281 -0.0268 -0.4722
 6781TIP3    H120307   0.755   5.528   3.193 -0.1557 -2.9358 -1.3255
 6781TIP3    H220308   0.842   5.475   3.081  2.4681  1.6593 -1.7323
 6782TIP3   OH220309   4.443   2.469   3.331 -0.5158  0.2500  0.1729
 6782TIP3    H120310   4.442   2.426   3.417 -1.4529  0.3356  0.2233
 6782TIP3    H220311   4.351   2.492   3.316 -0.0171  2.4996  0.2794
 6783TIP3   OH220312   3.354   4.267   1.983 -0.4315 -0.5855  0.4592
 6783TIP3    H120313   3.444   4.297   1.995  0.2353 -2.5535  0.6993
 6783TIP3    H220314   3.351   4.182   2.026 -1.7177 -1.7006 -1.6867
 6784TIP3   OH220315   1.134   2.601   2.528 -0.0046 -0.9304  0.4774
 6784TIP3    H120316   1.078   2.540   2.577  0.6268 -0.5598  1.6867
 6784TIP3    H220317   1.178   2.546   2.463 -3.0388 -0.9865 -1.7636
 6785TIP3   OH220318   5.725   1.928   3.005 -0.0987 -0.1085 -0.0907
 6785TIP3    H120319   5.717   1.869   2.929 -0.4183  1.1874 -1.0936
 6785TIP3    H220320   5.819   1.941   3.016  0.0271 -1.4038  0.6513
 6786TIP3   OH220321   2.836   5.161   5.474 -0.3237  0.0741  0.4178
 6786TIP3    H120322   2.899   5.149   5.546  0.5239 -0.6973 -0.4185
 6786TIP3    H220323   2.804   5.073   5.456  0.0223  0.1467 -0.6118
 6787TIP3   OH220324   5.640   5.031   4.481 -0.1968 -0.0721 -0.3828
 6787TIP3    H120325   5.732   5.043   4.456 -0.4851  1.3918 -0.8052
 6787TIP3    H220326   5.626   4.936   4.473  1.9243 -0.7134  2.0499
 6788TIP3   OH220327   0.536   4.661   0.842 -0.7273 -0.6671  0.1469
 6788TIP3    H120328   0.576   4.603   0.779 -0.8842 -0.1196 -0.4737
 6788TIP3    H220329   0.558   4.749   0.811 -1.4995 -0.3792  0.3857
 6789TIP3   OH220330   2.935   0.337   1.440  0.0273 -0.1600  0.1266
 6789TIP3    H120331   2.862   0.344   1.502 -1.2831 -1.4474 -1.1702
 6789TIP3    H220332   2.905   0.385   1.362  0.7794 -0.2957 -0.2579
 6790TIP3   OH220333   3.889   0.871   2.131  0.0101 -0.2405 -0.1148
 6790TIP3    H120334   3.868   0.929   2.204  3.0105  2.0995 -0.8866
 6790TIP3    H220335   3.809   0.866   2.080 -0.5451  3.0184  0.2182
 6791TIP3   OH220336   5.479   3.667   5.328  0.0286 -0.6906 -0.0222
 6791TIP3    H120337   5.502   3.758   5.311 -0.8266 -0.1534  1.4341
 6791TIP3    H220338   5.419   3.644   5.257  1.2033 -0.5353 -1.0883
 6792TIP3   OH220339   6.986   5.232   1.203  0.6410 -0.5326  0.3815
 6792TIP3    H120340   6.936   5.183   1.138 -3.8597  2.9569  0.7352
 6792TIP3    H220341   7.046   5.287   1.152  0.4686 -1.1169 -0.4631
 6793TIP3   OH220342   3.688   1.723   2.824 -0.2822 -0.3849  0.0570
 6793TIP3    H120343   3.710   1.679   2.907  1.1561 -0.2608 -0.2263
 6793TIP3    H220344   3.698   1.816   2.844  0.7989 -0.3831 -0.4327
 6794TIP3   OH220345   5.220   6.037   1.861 -1.1275 -0.1983  0.0084
 6794TIP3    H120346   5.135   6.001   1.837 -0.1904 -1.0770 -2.2873
 6794TIP3    H220347   5.201   6.125   1.894 -2.7986  0.4497 -2.4327
 6795TIP3   OH220348   5.590   2.373   5.321  0.0452  0.3987  0.4092
 6795TIP3    H120349   5.603   2.457   5.276  2.2090 -0.0060  0.1623
 6795TIP3    H220350   5.546   2.318   5.256  0.0369  0.8616  0.0141
 6796TIP3   OH220351   6.527   0.401   4.113 -0.2197 -0.0663  0.3102
 6796TIP3    H120352   6.518   0.388   4.207 -0.9714 -3.0651 -0.0788
 6796TIP3    H220353   6.615   0.370   4.092  0.3326  1.5382  0.1060
 6797TIP3   OH220354   1.214   1.233   2.902 -0.0385 -0.3651  0.4101
 6797TIP3    H120355   1.175   1.308   2.948 -0.0769 -0.0335 -0.1554
 6797TIP3    H220356   1.145   1.202   2.843  0.2487 -0.3319  0.0503
 6798TIP3   OH220357   3.173   5.196   0.166 -0.2162 -0.2220  0.0040
 6798TIP3    H120358   3.128   5.157   0.241 -0.4421  0.2839  0.1378
 6798TIP3    H220359   3.136   5.284   0.160 -0.7871 -0.5187 -1.1886
 6799TIP3   OH220360   2.034   3.219   2.606 -0.2113  0.3522 -0.3826
 6799TIP3    H120361   1.991   3.304   2.614  0.2406  0.5694 -0.1763
 6799TIP3    H220362   1.968   3.156   2.634 -1.3779  0.4022 -2.8134
 6800TIP3   OH220363   1.743   1.393   0.902  0.5481  0.3740 -0.7482
 6800TIP3    H120364   1.798   1.317   0.881 -1.7644 -1.0080 -2.1734
 6800TIP3    H220365   1.712   1.376   0.991  0.4817 -0.0719 -0.8547
 6801TIP3   OH220366   6.500   0.548   4.485 -0.3100 -0.0867 -0.2260
 6801TIP3    H120367   6.441   0.609   4.528  0.0711  0.6550 -0.7400
 6801TIP3    H220368   6.544   0.502   4.556 -2.3485 -1.5356  0.2141
 6802TIP3   OH220369   2.009   6.614   4.462  0.5036  0.9256 -0.1175
 6802TIP3    H120370   2.052   6.669   4.396  1.2599 -0.7313 -1.0808
 6802TIP3    H220371   1.930   6.662   4.486 -0.0672  1.3785 -2.6409
 6803TIP3   OH220372   3.146   3.371   1.479 -0.4615  0.0314 -0.2661
 6803TIP3    H120373   3.184   3.397   1.563 -0.5515  0.7749 -0.4441
 6803TIP3    H220374   3.116   3.282   1.493  1.1151 -0.5027 -0.0342
 6804TIP3   OH220375   0.874   3.027   1.580  0.8613  0.1746 -0.0162
 6804TIP3    H120376   0.933   3.091   1.619  0.6522  0.3247  0.0575
 6804TIP3    H220377   0.794   3.032   1.633  0.4534  0.6136 -0.6540
 6805TIP3   OH220378   5.608   4.606   2.192 -0.0485  0.4051  0.0799
 6805TIP3    H120379   5.541   4.590   2.258 -0.6656  0.7285 -0.4590
 6805TIP3    H220380   5.689   4.615   2.242 -0.5640  1.0412  0.8256
 6806TIP3   OH220381   5.920   0.965   2.644 -0.2456  0.3502 -0.3297
 6806TIP3    H120382   5.902   1.045   2.595 -2.0775  0.1559 -0.0677
 6806TIP3    H220383   5.979   0.992   2.714 -0.8094  1.4719 -0.2687
 6807TIP3   OH220384   3.148   6.450   0.794  0.1831 -0.4202 -0.1683
 6807TIP3    H120385   3.104   6.417   0.716 -1.7782 -2.4293  1.6278
 6807TIP3    H220386   3.178   6.371   0.839  0.4659  0.6021  1.5279
 6808TIP3   OH220387   1.413   2.028   2.821 -0.4305 -0.0721 -0.2209
 6808TIP3    H120388   1.488   2.076   2.857 -0.0065 -1.6607  1.1229
 6808TIP3    H220389   1.339   2.058   2.873 -0.7760  1.4271 -1.4866
 6809TIP3   OH220390   6.633   5.395   1.827  0.2633  0.4147  0.2935
 6809TIP3    H120391   6.649   5.488   1.810 -0.7292  0.2234 -2.1780
 6809TIP3    H220392   6.591   5.393   1.913  0.7393  2.1898  0.6094
 6810TIP3   OH220393   3.682   1.261   3.241 -0.2463 -0.1942  0.0881
 6810TIP3    H120394   3.706   1.305   3.323  0.6059 -1.6441  0.6756
 6810TIP3    H220395   3.749   1.288   3.178 -1.8570  2.2700 -0.6779
 6811TIP3   OH220396   2.097   4.032   0.868  0.1870 -0.2356  0.3022
 6811TIP3    H120397   2.081   4.036   0.774  0.4053  1.2855  0.3032
 6811TIP3    H220398   2.191   4.048   0.877 -0.2773  2.9557  0.8896
 6812TIP3   OH220399   5.395   2.527   1.961 -0.0084  0.1500  0.1759
 6812TIP3    H120400   5.424   2.603   1.911  0.8446 -0.0896  0.2955
 6812TIP3    H220401   5.322   2.559   2.014  0.9847  1.1496  0.9890
 6813TIP3   OH220402   2.567   4.890   5.657 -0.3960  0.0620 -0.3771
 6813TIP3    H120403   2.610   4.954   5.601 -0.6948 -0.3650 -1.1106
 6813TIP3    H220404   2.510   4.942   5.713  0.0505  0.5119 -0.3364
 6814TIP3   OH220405   3.992   4.360   1.142 -0.2380 -0.0935  0.3948
 6814TIP3    H120406   3.945   4.414   1.206  1.4315  0.5833  1.1317
 6814TIP3    H220407   4.079   4.401   1.136  0.2946 -1.3165 -0.8365
 6815TIP3   OH220408   5.329   1.953   0.116 -0.6257 -0.7849 -0.2626
 6815TIP3    H120409   5.389   1.949   0.190 -0.0777  5.0278  0.0741
 6815TIP3    H220410   5.386   1.957   0.039 -0.2217  3.7008 -0.0043
 6816TIP3   OH220411   4.179   3.725   2.487 -0.0662 -0.3298 -0.0403
 6816TIP3    H120412   4.269   3.700   2.506  0.5390  2.4718  1.3232
 6816TIP3    H220413   4.185   3.776   2.406 -0.7207 -1.4525 -0.8284
 6817TIP3   OH220414   4.465   4.020   4.614 -0.0646  0.0172 -0.6233
 6817TIP3    H120415   4.486   4.066   4.532  1.8488 -1.1505 -0.8448
 6817TIP3    H220416   4.520   4.062   4.679  0.3702 -0.7741 -0.4737
 6818TIP3   OH220417   3.164   6.187   0.893 -1.0769  0.8080 -0.1043
 6818TIP3    H120418   3.108   6.150   0.826 -2.3164  2.2402  0.0828
 6818TIP3    H220419   3.216   6.113   0.925 -0.6840  0.0215 -2.3710
 6819TIP3   OH220420   6.213   5.107   5.397  0.0336 -0.2138  0.4930
 6819TIP3    H120421   6.195   5.163   5.321  0.5407  0.1817  0.6540
 6819TIP3    H220422   6.170   5.024   5.377 -0.7587  0.2452  0.2609
 6820TIP3   OH220423   6.529   1.375   5.426  0.0196  0.5308 -0.1770
 6820TIP3    H120424   6.569   1.450   5.381  1.0398  0.3160  0.3481
 6820TIP3    H220425   6.494   1.321   5.355  0.7916  0.6629 -0.6703
 6821TIP3   OH220426   1.929   1.510   0.689 -0.0272  0.0157  0.2800
 6821TIP3    H120427   1.985   1.451   0.739  1.0122  1.3433  0.7394
 6821TIP3    H220428   1.856   1.529   0.748 -0.6571 -1.1885 -0.0704
 6822TIP3   OH220429   0.393   4.974   5.358  0.4154 -0.5152 -0.0748
 6822TIP3    H120430   0.322   4.923   5.397 -0.2904  1.5207  1.4693
 6822TIP3    H220431   0.352   5.022   5.286 -0.0495  1.2664  1.3062
 6823TIP3   OH220432   4.006   1.418   1.620 -0.4501  0.2980  0.2052
 6823TIP3    H120433   4.048   1.332   1.624 -1.3077 -0.1418 -0.0362
 6823TIP3    H220434   4.055   1.465   1.553  1.1400  0.6342  1.5283
 6824TIP3   OH220435   0.824   0.753   5.166  0.5740  0.1332 -0.7450
 6824TIP3    H120436   0.896   0.749   5.103  0.5711 -0.2042 -0.7333
 6824TIP3    H220437   0.764   0.684   5.137 -0.4553  1.3617 -1.6051
 6825TIP3   OH220438   6.688   5.506   3.323 -0.2433 -0.4922 -0.5480
 6825TIP3    H120439   6.605   5.470   3.293 -0.4578 -0.8573  0.4433
 6825TIP3    H220440   6.666   5.593   3.355 -0.4611 -1.0028  0.7356
 6826TIP3   OH220441   2.007   5.828   3.871  0.5065  0.0596  0.2722
 6826TIP3    H120442   2.007   5.750   3.925  2.3644 -0.0678  0.1665
 6826TIP3    H220443   2.090   5.823   3.822 -0.7685  0.5264 -2.0541
 6827TIP3   OH220444   2.630   3.871   0.861 -0.4409 -0.1511 -0.0554
 6827TIP3    H120445   2.662   3.913   0.782 -1.1297 -1.8011 -1.2771
 6827TIP3    H220446   2.538   3.899   0.868 -0.4805 -0.2794 -0.0489
 6828TIP3   OH220447   6.476   4.375   4.648  0.4942  0.2778  0.1043
 6828TIP3    H120448   6.511   4.377   4.738 -0.2049  2.6673  0.3769
 6828TIP3    H220449   6.465   4.467   4.624 -1.9662 -0.3198 -1.4128
 6829TIP3   OH220450   0.296   0.510   1.425 -0.4054  0.0860  0.5014
 6829TIP3    H120451   0.262   0.457   1.353  0.2833 -0.6895  0.7170
 6829TIP3    H220452   0.222   0.523   1.483 -1.0167  0.8861 -0.4290
 6830TIP3   OH220453   1.830   5.821   0.939  0.2146 -0.2302 -0.4897
 6830TIP3    H120454   1.756   5.762   0.922  0.7489 -1.2325  0.5362
 6830TIP3    H220455   1.888   5.809   0.864 -0.4402  0.2282 -1.0829
 6831TIP3   OH220456   2.427   1.821   3.353  0.1447 -0.2176 -0.0274
 6831TIP3    H120457   2.363   1.801   3.284  0.0313 -1.9611  0.5233
 6831TIP3    H220458   2.508   1.838   3.306  0.5833 -3.3556 -0.6521
 6832TIP3   OH220459   0.046   2.597   0.510 -0.4388 -0.3410  0.0108
 6832TIP3    H120460  -0.019   2.531   0.537 -1.4195  0.8037  0.5720
 6832TIP3    H220461   0.083   2.562   0.429 -2.3020 -0.7106 -0.7517
 6833TIP3   OH220462   5.835   1.718   0.776  0.2148 -0.1646  0.0205
 6833TIP3    H120463   5.743   1.742   0.779  0.3061  0.1800  0.1613
 6833TIP3    H220464   5.880   1.799   0.750  0.3046 -0.8297 -2.0812
 6834TIP3   OH220465   2.646   2.361   3.596  0.3060 -0.4124  0.0787
 6834TIP3    H120466   2.673   2.436   3.648  1.3436  0.4880 -1.6504
 6834TIP3    H220467   2.729   2.319   3.570 -0.1983 -1.1398 -0.3956
 6835TIP3   OH220468   0.076   3.517   5.828 -0.1084  0.4312 -0.3968
 6835TIP3    H120469   0.134   3.571   5.776  0.3089  1.3519  0.9601
 6835TIP3    H220470   0.036   3.578   5.891 -1.0908 -0.5111 -0.0654
 6836TIP3   OH220471   4.449   3.585   3.605  0.2932  0.4579  0.1396
 6836TIP3    H120472   4.428   3.639   3.528  2.4231  1.2521  0.0534
 6836TIP3    H220473   4.472   3.648   3.673 -1.1027 -0.2607  1.3439
 6837TIP3   OH220474   4.666   6.531   3.955  0.1941  0.3622  0.2036
 6837TIP3    H120475   4.676   6.583   4.034  0.0358  1.1845 -0.3087
 6837TIP3    H220476   4.723   6.574   3.891 -0.6722  0.4821 -0.5005
 6838TIP3   OH220477   0.395   4.150   3.235  0.3174  0.2042  1.0495
 6838TIP3    H120478   0.407   4.203   3.156  2.3928 -2.0475 -0.3078
 6838TIP3    H220479   0.451   4.191   3.301  0.2313  0.8812  0.7097
 6839TIP3   OH220480   2.837   3.381   4.447  0.1050 -0.2509  0.6076
 6839TIP3    H120481   2.931   3.390   4.437  0.1627 -1.4093 -0.1510
 6839TIP3    H220482   2.799   3.448   4.391  0.4727 -0.0090  0.6504
 6840TIP3   OH220483   0.691   4.822   4.461  0.3335  0.6478  0.1049
 6840TIP3    H120484   0.779   4.799   4.429 -0.2650 -0.5705 -0.7496
 6840TIP3    H220485   0.691   4.917   4.463  0.9997  0.7484 -1.9496
 6841TIP3   OH220486   5.210   5.793   0.801 -0.2899 -0.2763 -0.0170
 6841TIP3    H120487   5.162   5.799   0.884 -0.0714  1.8843  0.0099
 6841TIP3    H220488   5.203   5.701   0.776 -2.3266 -0.5246  1.2204
 6842TIP3   OH220489   6.462   3.784   3.473  0.4051  0.1461  0.3443
 6842TIP3    H120490   6.398   3.745   3.414 -0.1719 -0.2743  1.2297
 6842TIP3    H220491   6.515   3.711   3.504  0.0679  0.2064  1.1000
 6843TIP3   OH220492   4.070   2.343   0.946  0.4410 -0.3042 -0.6295
 6843TIP3    H120493   4.006   2.276   0.923  0.6928 -0.3398 -1.2432
 6843TIP3    H220494   4.018   2.419   0.972  0.1495 -0.8024  0.2738
 6844TIP3   OH220495   7.144   4.627   0.036 -0.2477 -0.0069 -0.5307
 6844TIP3    H120496   7.091   4.674   0.100  1.5141  0.7105  0.4518
 6844TIP3    H220497   7.234   4.645   0.061  0.4907 -0.9104 -2.3587
 6845TIP3   OH220498   2.946   5.467   2.920  0.4033 -0.2621  0.1121
 6845TIP3    H120499   2.973   5.444   2.831 -0.6646  0.0410 -0.3062
 6845TIP3    H220500   3.016   5.523   2.953 -0.5530  2.1803 -1.6712
 6846TIP3   OH220501   6.858   4.113   3.479 -0.1377 -0.3483 -0.1064
 6846TIP3    H120502   6.858   4.187   3.539 -1.8816 -0.2802 -0.1412
 6846TIP3    H220503   6.839   4.151   3.393 -0.8839 -0.8087 -0.1541
 6847TIP3   OH220504   0.268   2.496   0.905 -0.1625 -0.3208  0.5778
 6847TIP3    H120505   0.291   2.539   0.822 -1.2253  2.2248  1.5107
 6847TIP3    H220506   0.178   2.524   0.922 -0.8626 -2.8062  1.4363
 6848TIP3   OH220507   5.310   6.451   4.400 -0.1106 -0.1394  0.6644
 6848TIP3    H120508   5.232   6.458   4.455 -0.3717 -1.6884  0.5472
 6848TIP3    H220509   5.276   6.445   4.310  0.1877 -0.0187  0.5411
 6849TIP3   OH220510   0.065   6.072   3.869 -0.5885 -0.0875 -0.8322
 6849TIP3    H120511   0.049   6.013   3.796  0.4612 -0.7779 -0.5256
 6849TIP3    H220512   0.130   6.027   3.923  0.1505  1.3043 -0.5186
 6850TIP3   OH220513   1.830   5.654   1.231  0.0529 -0.1350  0.1678
 6850TIP3    H120514   1.828   5.689   1.142  0.7522  1.2012  0.6641
 6850TIP3    H220515   1.745   5.611   1.241 -0.2303  0.1255 -0.9717
 6851TIP3   OH220516   5.854   2.139   4.062  0.1995  0.0007  0.0270
 6851TIP3    H120517   5.853   2.135   4.157 -0.5677  1.9147  0.1490
 6851TIP3    H220518   5.761   2.133   4.037  0.2333  1.2613 -0.4656
 6852TIP3   OH220519   1.759   4.159   0.830 -0.2041  0.5208  0.0479
 6852TIP3    H120520   1.755   4.133   0.738 -2.6621  0.7616  0.0241
 6852TIP3    H220521   1.779   4.253   0.827 -0.1606  0.5042 -0.2292
 6853TIP3   OH220522   5.551   6.808   5.214  0.6404 -0.2154 -0.5025
 6853TIP3    H120523   5.516   6.718   5.215  1.0369 -0.3789  1.4384
 6853TIP3    H220524   5.506   6.852   5.286  2.3350  0.3902  0.2284
 6854TIP3   OH220525   0.396   0.363   2.432 -0.0203  0.1536 -0.0387
 6854TIP3    H120526   0.425   0.454   2.442  1.0126 -0.3935  2.5685
 6854TIP3    H220527   0.415   0.342   2.340  0.1836  2.3848 -0.5657
 6855TIP3   OH220528   6.895   0.296   2.090 -0.4722  0.2161 -0.8314
 6855TIP3    H120529   6.925   0.275   2.001 -0.3726 -0.3018 -0.6783
 6855TIP3    H220530   6.925   0.222   2.143  2.7227  2.1099  0.3415
 6856TIP3   OH220531   3.266   6.408   3.989  0.3563  0.6629  0.3468
 6856TIP3    H120532   3.265   6.502   3.969 -1.3672  0.3585 -1.3231
 6856TIP3    H220533   3.350   6.378   3.955  1.6662  1.8010  2.3357
 6857TIP3   OH220534   1.014   1.254   2.017 -0.8414  0.6332 -0.1559
 6857TIP3    H120535   1.082   1.220   2.075 -0.6009  1.3010 -0.0360
 6857TIP3    H220536   0.943   1.190   2.023 -0.3912  0.1415  0.0343
 6858TIP3   OH220537   1.351   4.501   3.628  0.1367 -0.0885 -0.2583
 6858TIP3    H120538   1.271   4.472   3.671 -0.6485  0.9033 -0.9833
 6858TIP3    H220539   1.351   4.456   3.544  1.6330 -1.9763  0.6716
 6859TIP3   OH220540   5.105   1.546   3.145  0.2742  0.3133  0.1670
 6859TIP3    H120541   5.017   1.574   3.171 -0.1746 -2.1490  1.6081
 6859TIP3    H220542   5.140   1.502   3.222  2.3601  0.2799 -0.7428
 6860TIP3   OH220543   5.734   5.543   1.306 -0.4160  0.4770 -0.3664
 6860TIP3    H120544   5.781   5.528   1.224  1.0437 -0.8653  0.6469
 6860TIP3    H220545   5.666   5.606   1.284 -0.4786 -0.3205 -2.7404
 6861TIP3   OH220546   3.848   1.611   1.068 -0.0822  0.2707 -0.1269
 6861TIP3    H120547   3.757   1.605   1.096 -0.2693  1.6269 -0.3819
 6861TIP3    H220548   3.873   1.701   1.086  0.8289  0.2627 -1.2174
 6862TIP3   OH220549   4.615   1.770   3.741 -0.0645 -0.3966  0.4481
 6862TIP3    H120550   4.577   1.831   3.678  0.3312  1.2103  1.7023
 6862TIP3    H220551   4.566   1.785   3.821 -0.3633 -2.2003  0.6519
 6863TIP3   OH220552   3.717   6.742   3.439 -0.0475 -0.7382  0.1783
 6863TIP3    H120553   3.717   6.678   3.510  0.8520 -2.0144 -0.9194
 6863TIP3    H220554   3.799   6.725   3.391  0.6495  1.8085  0.3215
 6864TIP3   OH220555   5.975   4.759   4.890  0.0336  0.1239  0.1901
 6864TIP3    H120556   5.884   4.788   4.886  0.8006  2.7788  0.3860
 6864TIP3    H220557   6.021   4.815   4.828  1.5853 -1.1490  0.1169
 6865TIP3   OH220558   2.090   1.495   4.484  0.3302 -0.7752 -0.7421
 6865TIP3    H120559   2.153   1.470   4.551 -0.0200 -1.7205 -0.7518
 6865TIP3    H220560   2.064   1.412   4.443 -1.1124 -0.4479 -0.5537
 6866TIP3   OH220561   3.230   1.243   1.419 -0.5338 -0.5103  0.1650
 6866TIP3    H120562   3.292   1.300   1.464 -1.3926  1.4340 -0.9603
 6866TIP3    H220563   3.144   1.266   1.455 -1.2785  1.2675 -2.4092
 6867TIP3   OH220564   1.116   6.758   2.082  0.3235  0.0260 -0.0974
 6867TIP3    H120565   1.103   6.718   2.168 -0.3695  0.6136  0.0874
 6867TIP3    H220566   1.189   6.710   2.044  1.8048  0.8899  1.5189
 6868TIP3   OH220567   2.678   4.346   3.751  0.2628 -0.1461 -0.1458
 6868TIP3    H120568   2.680   4.309   3.663  1.2884  1.1252 -0.6802
 6868TIP3    H220569   2.725   4.429   3.744  0.5924 -0.1374  1.6625
 6869TIP3   OH220570   3.817   5.132   3.584  0.1946 -0.1335  0.0604
 6869TIP3    H120571   3.767   5.099   3.658  0.5820  0.0452  0.4060
 6869TIP3    H220572   3.892   5.177   3.623  1.0182 -1.0116 -0.4610
 6870TIP3   OH220573   3.569   5.512   5.472 -0.6209  0.0283 -0.0042
 6870TIP3    H120574   3.566   5.430   5.523  2.3310 -0.9172 -1.1492
 6870TIP3    H220575   3.564   5.483   5.381  1.7483  0.9447 -0.4792
 6871TIP3   OH220576   7.190   6.756   1.513 -0.1069  0.3035 -0.0246
 6871TIP3    H120577   7.153   6.737   1.600 -1.1508  0.8889 -0.3257
 6871TIP3    H220578   7.114   6.776   1.459  0.7080  2.3601 -0.4776
 6872TIP3   OH220579   1.866   6.706   1.414  0.0953 -0.0781  0.2150
 6872TIP3    H120580   1.851   6.645   1.342 -2.2483 -0.7417  1.1973
 6872TIP3    H220581   1.902   6.652   1.484  2.9578  0.6712 -0.5468
 6873TIP3   OH220582   6.131   1.877   2.071 -0.0920  0.3857 -0.0429
 6873TIP3    H120583   6.194   1.858   2.001  0.2595  0.9873  0.1030
 6873TIP3    H220584   6.075   1.946   2.035 -0.1068  0.4774  0.1581
 6874TIP3   OH220585   1.348   5.090   2.842  0.0381  0.1222  0.1448
 6874TIP3    H120586   1.358   5.152   2.770 -0.9921 -1.3482 -1.3415
 6874TIP3    H220587   1.428   5.038   2.841 -0.2240 -0.2930 -0.3867
 6875TIP3   OH220588   0.520   4.307   0.902 -0.1460 -0.0782 -0.0770
 6875TIP3    H120589   0.575   4.373   0.944 -0.5831  0.7873 -0.8516
 6875TIP3    H220590   0.505   4.242   0.971  0.1267  0.7213  0.7561
 6876TIP3   OH220591   2.185   6.286   3.779  0.0236 -0.0819  0.2069
 6876TIP3    H120592   2.140   6.337   3.713 -0.8095 -0.3691  0.5400
 6876TIP3    H220593   2.201   6.348   3.851 -0.6691 -0.1984  0.4654
 6877TIP3   OH220594   2.385   3.262   4.365  0.0515 -0.0014  0.0061
 6877TIP3    H120595   2.291   3.245   4.352  0.1168 -2.6170  2.0244
 6877TIP3    H220596   2.393   3.279   4.459  1.7476 -1.3124  0.1482
 6878TIP3   OH220597   1.066   3.405   3.526  0.1429  0.6586  0.0458
 6878TIP3    H120598   1.033   3.450   3.449  2.5745  2.3113 -0.1356
 6878TIP3    H220599   1.105   3.324   3.492 -1.2707 -0.0150 -0.0472
 6879TIP3   OH220600   2.865   2.752   5.311 -0.1029 -0.8468 -0.2645
 6879TIP3    H120601   2.947   2.736   5.358  1.2360  1.2540 -1.7149
 6879TIP3    H220602   2.812   2.804   5.372  0.8663  0.2894 -0.3646
 6880TIP3   OH220603   0.080   1.647   0.845  0.5684  0.1742  0.3364
 6880TIP3    H120604  -0.012   1.650   0.818  0.9656  4.1273 -1.2977
 6880TIP3    H220605   0.118   1.578   0.791 -1.0090  0.0697 -0.7280
 6881TIP3   OH220606   2.244   0.240   5.715 -0.3532 -0.3466 -0.1127
 6881TIP3    H120607   2.250   0.145   5.724  1.2811 -0.6034 -2.9224
 6881TIP3    H220608   2.171   0.253   5.655  0.1810  0.0818 -0.6761
 6882TIP3   OH220609   7.033   2.380   3.778 -0.2929  0.0944 -0.6499
 6882TIP3    H120610   6.984   2.444   3.830 -0.2048 -1.7127  1.8735
 6882TIP3    H220611   6.991   2.380   3.693 -0.8621  2.8007 -0.4580
 6883TIP3   OH220612   5.419   2.793   2.816  0.0594  0.0711 -0.4217
 6883TIP3    H120613   5.350   2.772   2.754 -0.8287 -0.3677  0.6953
 6883TIP3    H220614   5.499   2.792   2.763 -0.5460 -1.2810 -1.3763
 6884TIP3   OH220615   7.090   1.921   3.787 -0.0876  0.4105 -0.4267
 6884TIP3    H120616   7.172   1.874   3.770  0.9040  1.7787  0.3373
 6884TIP3    H220617   7.110   1.978   3.861 -0.9844  2.5669 -1.7387
 6885TIP3   OH220618   5.159   4.364   3.966  0.4988 -0.2086  0.9225
 6885TIP3    H120619   5.133   4.375   3.875  0.2905  1.4003  1.1495
 6885TIP3    H220620   5.252   4.387   3.967  0.6859 -0.9621  0.9872
 6886TIP3   OH220621   1.756   0.513   4.721  0.8101 -0.0579 -0.2032
 6886TIP3    H120622   1.827   0.537   4.662  1.0596 -0.0711  0.0850
 6886TIP3    H220623   1.685   0.484   4.664  0.3390  1.7384 -0.5964
 6887TIP3   OH220624   5.873   5.277   1.977  0.1753 -0.1183  0.3098
 6887TIP3    H120625   5.830   5.289   2.062  0.0074  2.8622 -0.0761
 6887TIP3    H220626   5.954   5.232   1.998  0.9508  2.0330  2.3758
 6888TIP3   OH220627   4.569   4.982   2.418  0.2612 -0.7136  0.3762
 6888TIP3    H120628   4.512   4.908   2.397  1.3243 -1.9818  1.8165
 6888TIP3    H220629   4.544   5.006   2.508  0.9372 -0.2868  0.4544
 6889TIP3   OH220630   7.189   5.445   1.541 -0.1956  0.2923  0.0283
 6889TIP3    H120631   7.195   5.459   1.635  1.4058 -0.5228  0.0780
 6889TIP3    H220632   7.265   5.491   1.504 -0.2244 -0.2543 -0.7487
 6890TIP3   OH220633   1.653   4.689   0.799 -0.1514  0.4124 -0.2681
 6890TIP3    H120634   1.698   4.772   0.817 -0.2915  0.2963  0.6178
 6890TIP3    H220635   1.712   4.643   0.740  0.9550  0.2174  0.9572
 6891TIP3   OH220636   4.298   2.339   4.490  0.5607  0.4532 -0.0032
 6891TIP3    H120637   4.241   2.317   4.564 -1.0005 -0.5948 -1.4262
 6891TIP3    H220638   4.253   2.410   4.445  0.7189  0.0930 -0.7551
 6892TIP3   OH220639   4.535   4.279   4.148 -0.8219 -0.8684 -0.5888
 6892TIP3    H120640   4.570   4.265   4.237 -0.0445  0.0395 -0.7384
 6892TIP3    H220641   4.440   4.279   4.159 -0.7614 -1.8546  0.0721
 6893TIP3   OH220642   7.034   0.688   1.415  0.3749  0.1823  0.4428
 6893TIP3    H120643   7.106   0.633   1.384  0.2837  0.3419 -0.0672
 6893TIP3    H220644   7.077   0.756   1.468  0.4494 -0.5777  1.3780
 6894TIP3   OH220645   2.848   6.235   0.101 -0.0588  0.3967 -0.1959
 6894TIP3    H120646   2.829   6.328   0.102  2.9506  1.1482 -0.9518
 6894TIP3    H220647   2.884   6.217   0.188  0.4440  0.2419 -0.4287
 6895TIP3   OH220648   3.087   4.355   1.669 -0.1779 -0.2112  0.2353
 6895TIP3    H120649   3.178   4.376   1.647 -0.6346  2.5157  0.7257
 6895TIP3    H220650   3.074   4.391   1.756 -1.7411 -0.6083  0.1904
 6896TIP3   OH220651   0.001   0.599   1.918 -0.5630  0.1157  0.4687
 6896TIP3    H120652   0.020   0.520   1.969  2.2880  0.2777 -0.1800
 6896TIP3    H220653   0.080   0.653   1.927 -2.2002  2.7070  0.4535
 6897TIP3   OH220654   5.275   4.081   0.671  0.1578  0.4872 -0.1259
 6897TIP3    H120655   5.246   4.173   0.673 -1.2704  0.0659  0.9454
 6897TIP3    H220656   5.368   4.085   0.649  0.0286  2.1668 -0.4939
 6898TIP3   OH220657   6.274   6.498   1.306 -0.3821  0.5064  0.1955
 6898TIP3    H120658   6.352   6.477   1.358  1.2661  0.6134 -2.0737
 6898TIP3    H220659   6.307   6.507   1.216 -2.5522  3.3792 -0.4505
 6899TIP3   OH220660   5.246   3.731   4.563 -0.6513 -0.1370 -0.4059
 6899TIP3    H120661   5.229   3.688   4.479  1.8492 -1.1048 -0.5145
 6899TIP3    H220662   5.263   3.658   4.623  0.1234  0.6017  0.2939
 6900TIP3   OH220663   5.860   1.777   3.344 -0.5174 -0.0557  0.0406
 6900TIP3    H120664   5.820   1.695   3.314 -1.6445  0.4583  0.1106
 6900TIP3    H220665   5.904   1.753   3.425  1.5924 -1.2032 -1.3400
 6901TIP3   OH220666   6.591   5.609   5.688 -0.4808  0.1013  0.0997
 6901TIP3    H120667   6.642   5.688   5.670 -1.3106  1.2139  2.2005
 6901TIP3    H220668   6.652   5.552   5.736  0.0103 -0.4215 -1.1068
 6902TIP3   OH220669   2.437   1.771   2.976  0.3797  0.3227  0.0299
 6902TIP3    H120670   2.380   1.826   3.029 -1.1977 -0.1891 -1.0960
 6902TIP3    H220671   2.392   1.761   2.892  0.4932 -2.8067  0.2228
 6903TIP3   OH220672   0.398   5.724   1.059  0.2308 -0.1635  0.5329
 6903TIP3    H120673   0.381   5.796   1.121 -0.0790 -1.0037  1.4489
 6903TIP3    H220674   0.490   5.701   1.073  0.1818 -0.3017  0.6328
 6904TIP3   OH220675   4.212   4.757   2.885 -0.0070  0.8447  0.3287
 6904TIP3    H120676   4.211   4.851   2.903  0.2383  0.8430  0.3472
 6904TIP3    H220677   4.157   4.748   2.807  0.6593  1.1121 -0.1796
 6905TIP3   OH220678   5.784   4.223   0.267 -0.2286  0.7008  0.2936
 6905TIP3    H120679   5.773   4.141   0.219  0.6272  0.8541 -0.1938
 6905TIP3    H220680   5.746   4.207   0.353  0.2809 -0.3307  0.3361
 6906TIP3   OH220681   0.043   5.733   0.348  0.4065 -0.0829  0.1729
 6906TIP3    H120682  -0.006   5.812   0.328  2.1309  1.1189  0.4274
 6906TIP3    H220683   0.023   5.714   0.439 -0.4814 -0.3022 -0.0634
 6907TIP3   OH220684   0.765   6.079   0.776 -0.2903  0.1056  0.0279
 6907TIP3    H120685   0.717   6.161   0.768 -1.3577 -0.5270 -0.2304
 6907TIP3    H220686   0.735   6.026   0.703 -0.7629 -1.0803  1.0386
 6908TIP3   OH220687   2.794   3.645   3.205  0.0484  0.1277 -0.1316
 6908TIP3    H120688   2.809   3.582   3.276  3.5542 -1.9092 -2.3808
 6908TIP3    H220689   2.699   3.649   3.196 -0.3965 -2.5155  2.0966
 6909TIP3   OH220690   1.814   3.732   0.936 -0.1101  0.2962 -0.1315
 6909TIP3    H120691   1.771   3.740   0.851 -0.3103 -0.8620 -0.1531
 6909TIP3    H220692   1.814   3.638   0.955  1.0786  0.4066  0.5618
 6910TIP3   OH220693   6.143   4.347   5.622  0.0472  0.4176  0.1318
 6910TIP3    H120694   6.221   4.313   5.666 -0.3093 -0.2667  0.2477
 6910TIP3    H220695   6.173   4.426   5.578  1.1797 -0.6662 -1.1046
 6911TIP3   OH220696   4.848   1.091   2.367 -0.4353  0.0699  0.2611
 6911TIP3    H120697   4.904   1.155   2.323 -1.5054  1.2983  0.6169
 6911TIP3    H220698   4.789   1.144   2.421 -1.8316 -1.1786  0.0282
 6912TIP3   OH220699   4.271   4.016   5.534 -0.8907  0.1306  0.4702
 6912TIP3    H120700   4.283   3.929   5.574  0.5536  0.1018  0.0135
 6912TIP3    H220701   4.313   4.076   5.595  0.1758  0.2351 -0.3562
 6913TIP3   OH220702   2.041   5.423   4.369  0.1019  0.4992 -0.7927
 6913TIP3    H120703   2.030   5.329   4.356 -0.9455  0.5213 -0.1676
 6913TIP3    H220704   1.984   5.463   4.304  0.9764  0.7243 -1.4364
 6914TIP3   OH220705   2.689   2.968   2.913  0.1580  0.1654 -0.2430
 6914TIP3    H120706   2.623   3.036   2.901 -0.0493  0.0808  0.3687
 6914TIP3    H220707   2.662   2.923   2.994  2.5344  1.9237  1.6605
 6915TIP3   OH220708   4.932   1.279   4.614 -0.5794 -0.4429 -0.0107
 6915TIP3    H120709   4.903   1.277   4.705 -0.2584  1.6430  0.1914
 6915TIP3    H220710   4.896   1.361   4.580  0.7251 -0.3584 -1.2673
 6916TIP3   OH220711   4.313   3.252   5.161  0.3991  0.9760  0.5450
 6916TIP3    H120712   4.381   3.250   5.227 -0.2597 -0.0211  1.2198
 6916TIP3    H220713   4.359   3.240   5.078  1.1891  1.8650  0.8376
 6917TIP3   OH220714   5.073   6.265   0.235  1.0302  0.3893 -0.2348
 6917TIP3    H120715   5.125   6.260   0.315 -0.4172  0.1132  0.7230
 6917TIP3    H220716   5.004   6.329   0.255 -0.3698 -0.9282 -0.6197
 6918TIP3   OH220717   1.700   0.870   5.168 -0.0901  0.3378  0.0929
 6918TIP3    H120718   1.794   0.879   5.155  0.0757  1.5836  1.8161
 6918TIP3    H220719   1.692   0.810   5.243 -0.5476  1.9158  1.3573
 6919TIP3   OH220720   2.381   1.359   0.256  0.4035 -0.2620  0.2302
 6919TIP3    H120721   2.419   1.383   0.340  1.2627 -0.8855  0.0300
 6919TIP3    H220722   2.291   1.332   0.277  0.6334 -0.4810  0.9524
 6920TIP3   OH220723   4.275   0.383   2.154 -0.3256 -0.1295  0.0303
 6920TIP3    H120724   4.194   0.371   2.203  0.4067  2.6968  2.1758
 6920TIP3    H220725   4.342   0.342   2.208  0.0732  0.1409 -0.2494
 6921TIP3   OH220726   3.885   1.060   3.688 -0.3739 -0.5482 -0.2319
 6921TIP3    H120727   3.810   1.115   3.666  1.1845  1.3939 -1.0065
 6921TIP3    H220728   3.960   1.120   3.685  1.1637 -2.3096  0.9379
 6922TIP3   OH220729   6.607   0.486   1.879  0.9021  0.0037 -0.1739
 6922TIP3    H120730   6.547   0.560   1.893 -1.1376 -1.7811  1.2301
 6922TIP3    H220731   6.600   0.467   1.786 -0.0735  0.3547 -0.1841
 6923TIP3   OH220732   2.835   5.039   1.931 -0.3002 -0.3426 -0.0056
 6923TIP3    H120733   2.860   5.132   1.929 -1.4811 -0.0270 -0.9884
 6923TIP3    H220734   2.915   4.992   1.908 -0.1742  0.5518 -1.4887
 6924TIP3   OH220735   7.069   2.866   4.579  0.3937 -0.2855 -0.1028
 6924TIP3    H120736   7.100   2.944   4.534 -2.2145  0.2075 -1.2149
 6924TIP3    H220737   7.057   2.894   4.670  0.9768  0.1470 -0.1537
 6925TIP3   OH220738   2.537   6.325   0.174  0.1350  0.1587  0.5310
 6925TIP3    H120739   2.573   6.237   0.171  0.2960  0.2151  0.7649
 6925TIP3    H220740   2.608   6.379   0.209  0.6492  0.6875 -1.2174
 6926TIP3   OH220741   0.285   4.907   0.937 -0.1423  0.0648 -0.4111
 6926TIP3    H120742   0.345   4.930   0.866 -1.5424  2.4211 -0.9396
 6926TIP3    H220743   0.268   4.990   0.981 -1.6362 -0.8503  0.8296
 6927TIP3   OH220744   1.198   5.844   5.098  0.0862  0.0274  0.5472
 6927TIP3    H120745   1.160   5.925   5.132 -0.6698 -1.2325  2.9238
 6927TIP3    H220746   1.123   5.788   5.078  0.5827 -0.0215 -1.4355
 6928TIP3   OH220747   5.891   1.081   1.466 -0.7455 -0.3264 -0.1717
 6928TIP3    H120748   5.875   1.022   1.393 -1.8310 -0.6920  0.3389
 6928TIP3    H220749   5.852   1.037   1.542  1.2565 -0.4628  0.8513
 6929TIP3   OH220750   0.476   2.895   3.333  0.1645 -0.3881  0.0892
 6929TIP3    H120751   0.509   2.985   3.333  0.5376 -0.5268 -0.1211
 6929TIP3    H220752   0.551   2.842   3.308  0.2120 -0.8606  1.1689
 6930TIP3   OH220753   2.166   3.355   4.697  0.1084  0.0743  0.1087
 6930TIP3    H120754   2.224   3.343   4.773 -1.0426 -0.8610  0.8808
 6930TIP3    H220755   2.221   3.399   4.632  1.3902  0.1076  1.1578
 6931TIP3   OH220756   3.749   2.331   3.303  0.1642  0.3637 -0.4165
 6931TIP3    H120757   3.742   2.279   3.383 -0.1628  1.2338  0.1404
 6931TIP3    H220758   3.659   2.342   3.274 -0.3833  4.3423  1.9898
 6932TIP3   OH220759   3.300   6.101   2.981  0.6973 -0.0764  0.4084
 6932TIP3    H120760   3.306   6.169   3.049 -1.4543 -1.0159  1.6414
 6932TIP3    H220761   3.286   6.020   3.029  2.9365 -1.4481 -1.0503
 6933TIP3   OH220762   5.540   3.921   5.297  0.2306 -0.3160 -0.3452
 6933TIP3    H120763   5.508   3.958   5.214  1.2387 -0.5379 -0.8493
 6933TIP3    H220764   5.596   3.990   5.333 -0.1674 -0.2396  0.1401
 6934TIP3   OH220765   5.031   0.683   2.713  0.3644  0.3377  0.7262
 6934TIP3    H120766   4.954   0.685   2.770 -0.9089  0.3370 -0.9169
 6934TIP3    H220767   5.008   0.620   2.645  0.6757  2.3542 -1.3424
 6935TIP3   OH220768   2.738   3.047   1.331 -0.1032  0.8477  0.1150
 6935TIP3    H120769   2.648   3.016   1.341 -0.0302  0.1488 -1.1406
 6935TIP3    H220770   2.769   3.060   1.421 -0.0413 -3.1060  0.8502
 6936TIP3   OH220771   1.530   1.744   4.216  0.2544 -0.0908 -0.1834
 6936TIP3    H120772   1.458   1.779   4.164 -0.2865 -0.0329  0.5954
 6936TIP3    H220773   1.494   1.667   4.259  1.1005 -0.9639 -0.9665
 6937TIP3   OH220774   6.021   4.058   1.875  0.1542 -1.0137 -0.2123
 6937TIP3    H120775   5.984   4.007   1.802  0.9300 -1.3427 -0.3874
 6937TIP3    H220776   6.084   4.116   1.833  0.2461 -0.8565  0.1441
 6938TIP3   OH220777   7.105   1.408   1.827  0.1036 -0.1313  0.2501
 6938TIP3    H120778   7.091   1.494   1.866  1.3352  0.1950  0.0189
 6938TIP3    H220779   7.166   1.424   1.755  0.2633 -1.1778  0.1340
 6939TIP3   OH220780   1.674   2.781   2.226  0.3094 -0.2163  0.0582
 6939TIP3    H120781   1.736   2.725   2.274  1.8830 -0.1415 -1.7473
 6939TIP3    H220782   1.626   2.720   2.169 -1.4941 -0.2988  1.5823
 6940TIP3   OH220783   0.548   2.544   2.131  0.0540 -0.3044 -0.0757
 6940TIP3    H120784   0.555   2.450   2.113  0.0425 -1.1006  3.3604
 6940TIP3    H220785   0.634   2.579   2.107 -0.4240 -0.7920 -2.8614
 6941TIP3   OH220786   3.345   2.340   3.990  0.9608 -0.0855 -0.2889
 6941TIP3    H120787   3.416   2.404   3.989  0.4313  0.6223  1.8890
 6941TIP3    H220788   3.303   2.352   4.075 -1.6721 -0.6211 -1.4239
 6942TIP3   OH220789   6.107   0.223   4.402 -0.2685  0.6860  0.0341
 6942TIP3    H120790   6.166   0.168   4.454 -0.7380  1.6686  1.6887
 6942TIP3    H220791   6.164   0.289   4.363 -0.0236  0.4841  0.0424
 6943TIP3   OH220792   6.890   5.460   5.542  0.3474  0.2083  0.3675
 6943TIP3    H120793   6.800   5.467   5.574  0.4175  1.0214  0.4073
 6943TIP3    H220794   6.935   5.406   5.607 -0.0984 -0.1629  0.3707
 6944TIP3   OH220795   4.457   2.669   1.957  0.6337 -0.0924  0.0638
 6944TIP3    H120796   4.447   2.591   2.011  0.4280 -0.1211 -0.0117
 6944TIP3    H220797   4.413   2.738   2.008  0.8270 -0.0222  0.1371
 6945TIP3   OH220798   5.655   1.701   1.371 -0.3140  0.0678 -0.1978
 6945TIP3    H120799   5.676   1.792   1.392  1.1101 -0.4458  0.7615
 6945TIP3    H220800   5.633   1.702   1.278 -1.0422  1.4980 -0.0346
 6946TIP3   OH220801   0.410   1.392   4.355 -0.1529 -0.1427 -0.0497
 6946TIP3    H120802   0.412   1.441   4.273 -0.1630  0.3588  0.2401
 6946TIP3    H220803   0.502   1.377   4.376 -0.1452 -0.1339 -0.0772
 6947TIP3   OH220804   4.585   4.445   2.485 -0.6037 -0.0015 -1.0878
 6947TIP3    H120805   4.649   4.389   2.440  0.6037 -0.0782  0.6318
 6947TIP3    H220806   4.636   4.489   2.553 -1.4298  3.4406 -2.4816
 6948TIP3   OH220807   4.479   2.185   2.573 -0.4766 -0.3548  0.3255
 6948TIP3    H120808   4.394   2.217   2.602 -1.1871 -0.4333 -1.5363
 6948TIP3    H220809   4.542   2.230   2.629 -1.7371 -0.6459  2.0560
 6949TIP3   OH220810   3.773   3.974   3.664  0.8533 -0.0628  0.2171
 6949TIP3    H120811   3.769   3.897   3.607  0.9887  0.1384 -0.0677
 6949TIP3    H220812   3.861   3.973   3.701  1.0659  0.2882 -0.2630
 6950TIP3   OH220813   1.413   2.240   5.521  0.7510  0.6149  0.7213
 6950TIP3    H120814   1.478   2.172   5.540  0.0954  0.0442  0.9433
 6950TIP3    H220815   1.416   2.249   5.426 -0.8989 -1.5245  0.3861
 6951TIP3   OH220816   0.738   4.360   1.536 -0.5807  0.6704 -0.4062
 6951TIP3    H120817   0.697   4.386   1.454  0.3146  1.9529 -0.4817
 6951TIP3    H220818   0.831   4.357   1.517 -0.5342 -1.7719 -0.1213
 6952TIP3   OH220819   5.476   1.903   5.443 -0.1159 -0.0618  0.1952
 6952TIP3    H120820   5.484   1.994   5.469  1.2452  0.3253 -1.3927
 6952TIP3    H220821   5.567   1.874   5.428 -0.5311 -1.6007  0.4496
 6953TIP3   OH220822   3.698   5.503   5.852  0.2296 -0.2306 -0.0663
 6953TIP3    H120823   3.706   5.555   5.772  0.2153  0.2440  0.2384
 6953TIP3    H220824   3.745   5.422   5.833 -2.1943 -1.3794 -1.5957
 6954TIP3   OH220825   4.951   0.552   3.246  0.1106 -0.3423  0.0117
 6954TIP3    H120826   4.964   0.457   3.244  0.9544 -0.2290 -0.7430
 6954TIP3    H220827   4.858   0.564   3.228  0.1811 -1.0002 -0.8783
 6955TIP3   OH220828   4.302   1.704   4.442 -0.1309 -0.6595  0.6015
 6955TIP3    H120829   4.266   1.780   4.397 -2.0355 -0.5503  2.1564
 6955TIP3    H220830   4.346   1.740   4.519  0.8151 -1.0172  0.2440
 6956TIP3   OH220831   5.304   2.189   3.909  0.1130 -0.3090 -0.1187
 6956TIP3    H120832   5.301   2.216   4.001 -0.5233 -1.5790  0.2491
 6956TIP3    H220833   5.218   2.150   3.892  0.1201  0.1570 -1.3435
 6957TIP3   OH220834   3.669   1.123   2.254 -0.3924 -0.2922 -0.0873
 6957TIP3    H120835   3.616   1.130   2.333  1.3142 -0.3439  1.1139
 6957TIP3    H220836   3.614   1.074   2.193 -2.0996  0.5067  0.7152
 6958TIP3   OH220837   1.021   3.058   4.850 -0.2705 -0.5099  0.6907
 6958TIP3    H120838   0.942   3.014   4.818 -0.2542  0.9453 -1.5278
 6958TIP3    H220839   0.992   3.108   4.926 -1.8391  0.9510 -0.7745
 6959TIP3   OH220840   6.696   0.863   1.926 -0.3359 -0.1542  0.1770
 6959TIP3    H120841   6.730   0.860   1.836 -0.0847 -1.1878  0.2887
 6959TIP3    H220842   6.629   0.931   1.925 -1.5590 -1.3148 -1.2288
 6960TIP3   OH220843   5.478   4.425   0.595 -0.0424 -0.5825  0.1027
 6960TIP3    H120844   5.466   4.388   0.508  1.5629 -0.1012 -0.3726
 6960TIP3    H220845   5.565   4.395   0.622  0.1409  0.5613  0.8541
 6961TIP3   OH220846   2.335   2.412   4.248 -0.1026 -0.4415  0.4196
 6961TIP3    H120847   2.398   2.474   4.285 -1.4442  0.1926  1.7422
 6961TIP3    H220848   2.297   2.457   4.173  1.0516 -0.8644 -0.4453
 6962TIP3   OH220849   0.053   0.039   0.381 -0.4923 -0.5731 -0.1483
 6962TIP3    H120850   0.117  -0.003   0.324 -1.4942 -1.1099 -0.9232
 6962TIP3    H220851  -0.030  -0.001   0.356 -0.8794 -1.4050  2.2454
 6963TIP3   OH220852   5.277   4.888   4.696  0.0603  0.7685  0.8468
 6963TIP3    H120853   5.279   4.793   4.707  2.5609  0.5748 -0.4940
 6963TIP3    H220854   5.239   4.921   4.777  1.8673 -1.2413  2.6283
 6964TIP3   OH220855   3.960   6.390   4.500  0.5451  0.3808  0.4769
 6964TIP3    H120856   3.889   6.339   4.539  1.3385 -0.1091  1.3082
 6964TIP3    H220857   3.981   6.344   4.419 -0.5587  0.9347 -0.1356
 6965TIP3   OH220858   3.643   6.510   1.583 -0.2258  0.0156  0.5681
 6965TIP3    H120859   3.724   6.544   1.545 -0.8553  0.7702 -0.1432
 6965TIP3    H220860   3.588   6.587   1.594 -0.8196 -0.4830  1.1144
 6966TIP3   OH220861   5.683   3.091   5.392 -0.0925 -0.1727  0.3532
 6966TIP3    H120862   5.637   3.087   5.308 -0.1993 -3.7545  0.4686
 6966TIP3    H220863   5.763   3.141   5.372 -0.7061  0.1229 -1.5602
 6967TIP3   OH220864   4.503   4.425   1.310  1.2200 -0.2150 -0.7168
 6967TIP3    H120865   4.507   4.520   1.313  0.3929 -0.1911  0.9450
 6967TIP3    H220866   4.440   4.401   1.378  1.6631 -1.9663 -0.8597
 6968TIP3   OH220867   7.015   2.976   4.201  0.3614  0.0428  0.4226
 6968TIP3    H120868   6.993   3.043   4.136  0.5678 -0.5915 -0.3222
 6968TIP3    H220869   6.993   3.016   4.285  0.7954  1.1700  0.0195
 6969TIP3   OH220870   0.366   2.161   3.825 -0.2372  0.2016 -0.2180
 6969TIP3    H120871   0.298   2.227   3.830  0.3087  0.8820 -1.3753
 6969TIP3    H220872   0.396   2.150   3.915 -2.4143 -0.7296  0.4543
 6970TIP3   OH220873   1.241   5.585   5.760  0.1273  0.2380  0.3093
 6970TIP3    H120874   1.234   5.494   5.734 -0.7322  0.4854 -0.3455
 6970TIP3    H220875   1.151   5.618   5.761  0.5253  1.5290 -1.1479
 6971TIP3   OH220876   4.347   3.518   4.355 -0.3388 -0.3013 -0.4597
 6971TIP3    H120877   4.438   3.545   4.345 -0.5139  0.1335 -0.8922
 6971TIP3    H220878   4.323   3.547   4.444 -0.5462  1.0660 -0.9365
 6972TIP3   OH220879   5.737   0.404   4.376 -0.1065 -0.4138 -0.2940
 6972TIP3    H120880   5.736   0.362   4.462  0.6440 -1.3363 -0.7114
 6972TIP3    H220881   5.809   0.468   4.382 -0.4622 -0.0299 -0.0454
 6973TIP3   OH220882   2.675   0.651   3.777 -0.2171  0.1257  0.0337
 6973TIP3    H120883   2.641   0.712   3.712 -1.4051  0.6938  1.1597
 6973TIP3    H220884   2.630   0.568   3.758 -1.1204  0.4827  0.5768
 6974TIP3   OH220885   5.458   5.406   3.245 -0.3803  0.3409  0.0446
 6974TIP3    H120886   5.484   5.428   3.156 -3.0895  0.0004 -0.9103
 6974TIP3    H220887   5.450   5.490   3.290  0.8194  0.5184 -0.0354
 6975TIP3   OH220888   6.255   6.017   1.867  0.0634  0.2251  0.3108
 6975TIP3    H120889   6.239   5.968   1.948 -0.6061 -0.4964 -0.2434
 6975TIP3    H220890   6.347   5.998   1.845 -0.2733 -1.1041 -0.0821
 6976TIP3   OH220891   2.114   4.179   5.574 -0.0836 -0.0077  0.0899
 6976TIP3    H120892   2.172   4.135   5.636  0.0328  0.8687  0.6160
 6976TIP3    H220893   2.026   4.159   5.606 -0.0595 -0.4811 -0.1195
 6977TIP3   OH220894   0.288   6.158   5.860  0.3047  0.0755 -0.1496
 6977TIP3    H120895   0.295   6.156   5.956 -1.8191  0.1935  0.0728
 6977TIP3    H220896   0.372   6.191   5.830  0.5242  1.4646  1.7783
 6978TIP3   OH220897   6.197   2.807   4.887 -0.2096  1.1105 -0.2390
 6978TIP3    H120898   6.186   2.890   4.933  2.1972  0.5026  1.6079
 6978TIP3    H220899   6.203   2.741   4.956 -0.5448 -0.4306 -1.6078
 6979TIP3   OH220900   5.090   4.103   5.352 -0.3861  0.2076  0.2583
 6979TIP3    H120901   5.089   4.188   5.307 -0.8139  0.2775  0.3949
 6979TIP3    H220902   5.048   4.120   5.436  1.3988  0.3422  1.1802
 6980TIP3   OH220903   3.440   4.525   3.418 -0.1131 -0.3401  0.0810
 6980TIP3    H120904   3.464   4.440   3.382  0.2139 -0.4825  0.6226
 6980TIP3    H220905   3.521   4.558   3.457 -0.6275 -0.5150  1.3247
 6981TIP3   OH220906   0.274   0.713   2.470 -0.9932 -0.1569 -0.0742
 6981TIP3    H120907   0.223   0.794   2.479  0.3212  0.6474  0.4295
 6981TIP3    H220908   0.211   0.649   2.435 -2.6772  0.4475  1.6372
 6982TIP3   OH220909   1.306   1.373   3.506 -0.0001 -0.1708 -0.0626
 6982TIP3    H120910   1.307   1.406   3.596  0.0991 -0.2525 -0.0336
 6982TIP3    H220911   1.396   1.345   3.490 -0.3045 -1.3955  0.2692
 6983TIP3   OH220912   4.751   1.345   5.424  0.0609  0.0422 -0.3281
 6983TIP3    H120913   4.669   1.369   5.381 -0.6488  0.2976  1.1146
 6983TIP3    H220914   4.771   1.419   5.481  0.8202 -0.4024  0.0025
 6984TIP3   OH220915   5.858   6.290   1.131  0.4510 -0.2337 -0.0662
 6984TIP3    H120916   5.796   6.288   1.203  0.5326 -0.5993 -0.0024
 6984TIP3    H220917   5.829   6.219   1.073  0.2413  0.2131 -0.5146
 6985TIP3   OH220918   1.609   5.877   4.282 -0.2553  0.2288 -0.7847
 6985TIP3    H120919   1.615   5.817   4.207 -2.5154  0.5015 -1.2867
 6985TIP3    H220920   1.683   5.937   4.271  0.0302 -0.3429 -2.2590
 6986TIP3   OH220921   2.424   0.841   0.582  0.2317 -0.5702 -0.6838
 6986TIP3    H120922   2.452   0.751   0.562  0.1720 -0.7905  0.1884
 6986TIP3    H220923   2.501   0.882   0.620  0.1233 -0.3861 -0.6631
 6987TIP3   OH220924   6.905   1.184   0.281  0.2406  0.2598 -0.2224
 6987TIP3    H120925   6.916   1.275   0.309 -1.1591 -0.0252  1.4363
 6987TIP3    H220926   6.882   1.137   0.361 -0.4506 -1.2921 -1.2783
 6988TIP3   OH220927   5.587   5.342   3.786 -0.0298  0.0127 -0.4480
 6988TIP3    H120928   5.572   5.251   3.763 -0.4253  0.2572 -1.1734
 6988TIP3    H220929   5.617   5.339   3.877  2.9645 -1.0976 -1.3535
 6989TIP3   OH220930   1.914   5.850   2.436 -0.1667 -0.7612 -0.3021
 6989TIP3    H120931   1.881   5.934   2.406 -1.5101 -1.2123 -0.1489
 6989TIP3    H220932   1.921   5.859   2.531  0.1464 -0.6812 -0.3295
 6990TIP3   OH220933   5.249   0.931   3.925 -0.1522 -0.9173 -0.3909
 6990TIP3    H120934   5.212   0.922   3.837 -3.5914 -0.1232  0.8192
 6990TIP3    H220935   5.276   1.022   3.931 -1.6565 -0.4663 -0.0857
 6991TIP3   OH220936   0.511   5.376   0.227 -0.6250  0.5603  0.2239
 6991TIP3    H120937   0.555   5.299   0.190  0.3453  0.5134  1.4088
 6991TIP3    H220938   0.419   5.350   0.233 -0.2397 -0.7084  1.0491
 6992TIP3   OH220939   0.548   5.754   1.572  0.3449 -0.2224 -0.0952
 6992TIP3    H120940   0.519   5.748   1.663 -0.2921 -2.0413 -0.3775
 6992TIP3    H220941   0.552   5.848   1.554 -1.6812  0.1505  1.1403
 6993TIP3   OH220942   0.611   3.335   0.366 -0.1896  0.2919 -0.4822
 6993TIP3    H120943   0.609   3.398   0.438 -0.9203 -0.5039  0.2200
 6993TIP3    H220944   0.519   3.316   0.348 -0.0009  0.2246 -1.4041
 6994TIP3   OH220945   0.992   1.923   4.993  0.8909  0.3908 -0.2637
 6994TIP3    H120946   1.011   1.930   5.087  0.5510  2.0147 -0.2865
 6994TIP3    H220947   1.076   1.942   4.951  1.1350 -0.7110 -0.3100
 6995TIP3   OH220948   0.094   0.910   2.528 -0.1295 -0.0655 -0.1309
 6995TIP3    H120949   0.088   0.915   2.623 -1.6193  0.9265 -0.2476
 6995TIP3    H220950   0.014   0.866   2.501 -0.5419  1.1848 -1.0241
 6996TIP3   OH220951   0.631   2.885   1.365  0.5856 -0.3290  0.9215
 6996TIP3    H120952   0.605   2.976   1.353  0.4388 -0.6185 -1.4899
 6996TIP3    H220953   0.549   2.836   1.359  0.9738 -0.8130 -0.8835
 6997TIP3   OH220954   5.864   4.068   3.832  0.2589 -0.1848 -0.3026
 6997TIP3    H120955   5.816   4.080   3.751 -0.7702 -0.1113  0.2972
 6997TIP3    H220956   5.855   3.975   3.853  1.1465 -0.3576 -0.6407
 6998TIP3   OH220957   6.182   2.515   5.535 -0.2508  0.0349 -0.2406
 6998TIP3    H120958   6.210   2.606   5.531 -0.3859  0.0554 -0.9720
 6998TIP3    H220959   6.124   2.510   5.610 -0.1859  0.5375 -0.1597
 6999TIP3   OH220960   2.258   5.926   1.781  0.2787 -0.2765  0.6169
 6999TIP3    H120961   2.261   5.830   1.782  1.2272 -0.2643  1.7699
 6999TIP3    H220962   2.170   5.948   1.811 -0.3859 -0.7728 -0.9016
 7000TIP3   OH220963   5.457   2.759   1.843 -0.2844 -0.4390  0.4159
 7000TIP3    H120964   5.407   2.833   1.879 -0.2654 -1.1657  2.0125
 7000TIP3    H220965   5.496   2.794   1.762 -0.3665  1.2741  1.0672
 7001TIP3   OH220966   4.897   5.449   3.457  0.8147 -0.1052 -0.2591
 7001TIP3    H120967   4.915   5.516   3.523  1.9897 -0.5337 -0.1169
 7001TIP3    H220968   4.953   5.375   3.482  0.4961 -0.6634 -1.1436
 7002TIP3   OH220969   6.334   4.215   3.691  0.0118  0.5552 -0.6309
 7002TIP3    H120970   6.361   4.123   3.695  0.6081  0.7690  1.7010
 7002TIP3    H220971   6.258   4.221   3.749  0.6938  1.7202  0.1853
 7003TIP3   OH220972   1.623   5.974   3.835  0.1673 -0.5960 -0.1479
 7003TIP3    H120973   1.617   5.994   3.742  2.4061  2.6547  0.2335
 7003TIP3    H220974   1.535   5.989   3.869 -0.0708  0.8980 -1.3284
 7004TIP3   OH220975   2.691   2.637   5.860  0.1279 -0.1086 -0.0648
 7004TIP3    H120976   2.671   2.544   5.867 -0.9732  0.1069 -0.0933
 7004TIP3    H220977   2.766   2.650   5.919  0.2731 -0.9960 -0.0378
 7005TIP3   OH220978   2.181   5.465   2.209 -0.7500  0.5404  0.2223
 7005TIP3    H120979   2.265   5.505   2.233 -0.9592  0.0718  1.8529
 7005TIP3    H220980   2.116   5.532   2.230 -0.9574  0.0215  1.3352
 7006TIP3   OH220981   5.949   1.681   2.657 -0.5488 -0.1913  0.2655
 7006TIP3    H120982   5.861   1.717   2.665  0.0797  1.2316  1.3103
 7006TIP3    H220983   5.950   1.606   2.717 -1.5562 -1.3686 -1.1236
 7007TIP3   OH220984   0.306   6.409   4.654 -0.4937  0.0414 -0.0825
 7007TIP3    H120985   0.307   6.490   4.705 -1.0563  0.4540 -0.7296
 7007TIP3    H220986   0.391   6.409   4.609 -0.2099 -0.0700  0.4413
 7008TIP3   OH220987   3.325   0.354   3.581 -0.2153 -0.4451  0.0139
 7008TIP3    H120988   3.362   0.269   3.557 -0.4505 -0.5843  0.1413
 7008TIP3    H220989   3.264   0.334   3.651 -1.0939 -0.3197 -0.6933
 7009TIP3   OH220990   5.348   6.065   0.070  0.3400  0.1241 -0.3429
 7009TIP3    H120991   5.424   6.012   0.048  0.1500 -1.4820  2.4051
 7009TIP3    H220992   5.384   6.138   0.121  0.1900  0.3685 -0.5806
 7010TIP3   OH220993   1.114   3.707   0.255  0.1918  0.4377 -0.0534
 7010TIP3    H120994   1.065   3.650   0.315  1.5988  0.5568  1.2802
 7010TIP3    H220995   1.111   3.662   0.171 -0.5914 -0.4970  0.4552
 7011TIP3   OH220996   4.529   6.159   0.771  0.3610 -0.4805 -0.2140
 7011TIP3    H120997   4.479   6.106   0.708  1.0616 -0.4114 -0.8393
 7011TIP3    H220998   4.605   6.189   0.722 -0.2622  1.5474 -0.0382
 7012TIP3   OH220999   4.764   3.294   0.884  0.2904  0.3488  0.1887
 7012TIP3    H121000   4.838   3.352   0.902 -0.3550  1.2730 -0.0579
 7012TIP3    H221001   4.688   3.352   0.885 -0.2978 -0.3843 -0.7447
 7013TIP3   OH221002   2.119   0.087   5.021 -0.1436 -0.1743 -0.6496
 7013TIP3    H121003   2.062   0.010   5.011 -0.6207  0.1327 -0.3701
 7013TIP3    H221004   2.058   0.161   5.019  0.0137  0.0710  1.5685
 7014TIP3   OH221005   4.361   5.275   1.455 -0.1475  0.4357  0.3026
 7014TIP3    H121006   4.291   5.287   1.519  0.2435  1.5761  0.5299
 7014TIP3    H221007   4.441   5.296   1.502  0.1098  1.7177 -0.6441
 7015TIP3   OH221008   5.951   2.363   5.748 -0.4449  0.3746  0.3260
 7015TIP3    H121009   5.874   2.310   5.768 -0.0597 -0.8807 -1.3545
 7015TIP3    H221010   6.007   2.305   5.696  1.7501  1.1713  1.6539
 7016TIP3   OH221011   3.445   0.087   0.499 -0.4399 -0.3637  0.6565
 7016TIP3    H121012   3.437   0.168   0.549 -1.5429  0.3723 -0.6205
 7016TIP3    H221013   3.536   0.085   0.471 -0.3274  0.2857  0.9514
 7017TIP3   OH221014   5.809   6.527   3.009 -0.0635  0.1283  0.8809
 7017TIP3    H121015   5.760   6.496   3.085 -0.1180 -0.1273  0.7424
 7017TIP3    H221016   5.763   6.490   2.934 -2.0259  2.9802  0.4957
 7018TIP3   OH221017   1.530   1.542   0.273  0.2283 -0.1756  0.1578
 7018TIP3    H121018   1.590   1.506   0.208 -1.5782 -2.5783 -0.3535
 7018TIP3    H221019   1.454   1.571   0.223  1.1017  3.5672  0.6938
 7019TIP3   OH221020   6.242   3.623   1.865  0.3011  0.4120 -0.4669
 7019TIP3    H121021   6.163   3.675   1.860  0.0831  0.1130 -0.1708
 7019TIP3    H221022   6.219   3.550   1.922  1.2074  1.0831  0.8153
 7020TIP3   OH221023   3.036   2.988   2.251  0.1733 -0.2207 -0.2802
 7020TIP3    H121024   3.005   2.956   2.335  1.1345 -2.3636 -0.6919
 7020TIP3    H221025   3.093   3.062   2.273 -0.9101  0.3403  0.7959
 7021TIP3   OH221026   2.834   3.289   3.219  0.2493  0.6222  0.0287
 7021TIP3    H121027   2.812   3.369   3.267 -2.2741 -0.1249  0.2723
 7021TIP3    H221028   2.851   3.224   3.287 -1.7984 -0.0405 -0.0209
 7022TIP3   OH221029   2.788   2.311   1.830 -0.2173 -0.1698  0.1044
 7022TIP3    H121030   2.747   2.312   1.917 -1.1162  1.3205 -0.3073
 7022TIP3    H221031   2.750   2.386   1.785 -0.4956 -1.4634 -1.9226
 7023TIP3   OH221032   5.490   4.745   5.608  0.0058 -0.6682 -0.3740
 7023TIP3    H121033   5.534   4.691   5.543  1.1545 -0.5677  0.2977
 7023TIP3    H221034   5.554   4.756   5.678  0.1058  2.1228 -0.7718
 7024TIP3   OH221035   1.527   3.891   2.973  0.3341  0.4002  0.0019
 7024TIP3    H121036   1.607   3.842   2.991  0.7650  1.2610  0.4558
 7024TIP3    H221037   1.552   3.954   2.906 -0.0981  0.3259 -0.2318
 7025TIP3   OH221038   0.622   1.649   1.243 -0.1965  1.1919  0.2193
 7025TIP3    H121039   0.697   1.706   1.260  1.3821 -0.9483  0.8306
 7025TIP3    H221040   0.590   1.625   1.330  0.7812 -0.8144  0.0781
 7026TIP3   OH221041   4.435   1.966   0.808 -0.0664 -0.2199 -0.1148
 7026TIP3    H121042   4.401   2.042   0.761  0.8069  0.9646  1.0493
 7026TIP3    H221043   4.498   1.926   0.748  0.9444  1.1843 -0.0431
 7027TIP3   OH221044   0.240   0.024   0.871 -0.4641 -0.6176 -0.2683
 7027TIP3    H121045   0.159  -0.004   0.914  0.1602 -1.7731  0.2213
 7027TIP3    H221046   0.211   0.070   0.792 -1.6083  0.1331  0.5464
 7028TIP3   OH221047   0.012   5.849   2.889  0.0507  0.0439  0.4431
 7028TIP3    H121048   0.009   5.772   2.833 -0.0535 -0.0862  0.6294
 7028TIP3    H221049   0.065   5.912   2.839 -0.6591  0.1974 -0.1406
 7029TIP3   OH221050   1.889   1.774   0.938  0.3827  0.8587  0.4794
 7029TIP3    H121051   1.862   1.740   1.023  0.4167 -0.7947 -0.1169
 7029TIP3    H221052   1.955   1.840   0.958  0.1527  0.7293  1.7379
 7030TIP3   OH221053   3.051   2.934   3.165  0.7397 -0.3748  0.0546
 7030TIP3    H121054   3.071   2.958   3.075  2.3527  0.1488  0.5143
 7030TIP3    H221055   3.116   2.867   3.187  1.1103  0.3207  1.1791
 7031TIP3   OH221056   3.919  -0.002   5.561  0.2848  0.3646 -0.0751
 7031TIP3    H121057   3.926   0.089   5.531  0.0616  0.3085 -0.3034
 7031TIP3    H221058   4.003  -0.020   5.602  0.2089  0.7845  0.2786
 7032TIP3   OH221059   1.939   5.859   1.376 -0.2328  0.0142  0.1010
 7032TIP3    H121060   1.908   5.780   1.333  0.6132 -0.8221  0.9522
 7032TIP3    H221061   2.035   5.849   1.378  0.1100  2.1432 -1.7967
 7033TIP3   OH221062   6.095   4.747   0.613 -0.4213  0.3231 -0.4948
 7033TIP3    H121063   6.189   4.727   0.608 -0.1068  1.2137  1.1926
 7033TIP3    H221064   6.071   4.769   0.523  0.5968 -1.4825 -1.2687
 7034TIP3   OH221065   3.715   5.382   0.593 -0.0781 -0.0479 -0.3856
 7034TIP3    H121066   3.745   5.294   0.569 -0.5160 -0.0978 -0.7770
 7034TIP3    H221067   3.777   5.441   0.551  0.4888 -0.1754  0.2650
 7035TIP3   OH221068   4.555   5.430   3.767  0.3909 -0.0547 -0.2014
 7035TIP3    H121069   4.641   5.408   3.803 -0.7186 -0.6886  2.2296
 7035TIP3    H221070   4.574   5.490   3.694  2.9537 -1.4228 -0.7907
 7036TIP3   OH221071   4.783   0.149   2.352 -0.1573 -0.0817 -0.1047
 7036TIP3    H121072   4.742   0.084   2.295  1.2221 -0.2583 -0.9544
 7036TIP3    H221073   4.845   0.195   2.294 -1.0357  1.9662  0.4729
 7037TIP3   OH221074   4.945   2.740   2.456  0.7750  0.6790 -0.4372
 7037TIP3    H121075   4.973   2.653   2.485 -0.8545  0.6143  1.1316
 7037TIP3    H221076   4.910   2.725   2.369  0.0501 -0.3686  0.0065
 7038TIP3   OH221077   3.521   4.590   5.314  0.8060 -0.0354  0.0459
 7038TIP3    H121078   3.576   4.526   5.358  1.6814 -0.0534 -1.0086
 7038TIP3    H221079   3.583   4.643   5.263 -0.2289 -0.8192 -2.1458
 7039TIP3   OH221080   1.475   5.457   5.369 -0.5025 -0.2578 -0.1425
 7039TIP3    H121081   1.540   5.513   5.410 -0.9901 -0.2377  0.6327
 7039TIP3    H221082   1.412   5.517   5.330 -0.2757 -0.2780 -0.5513
 7040TIP3   OH221083   6.856   0.560   5.633  0.2403  0.4330 -0.3289
 7040TIP3    H121084   6.838   0.480   5.683  0.6914 -0.0623 -0.9468
 7040TIP3    H221085   6.882   0.529   5.546 -0.7767  1.2948 -0.9597
 7041TIP3   OH221086   3.465   6.722   0.396  0.0903  0.7225 -0.6611
 7041TIP3    H121087   3.403   6.649   0.399  2.1652 -1.2017 -1.3978
 7041TIP3    H221088   3.500   6.720   0.307  1.3145  1.6154 -0.2290
 7042TIP3   OH221089   6.495   2.478   1.587  0.0939  0.0103  0.2252
 7042TIP3    H121090   6.538   2.474   1.502 -1.4154 -0.2932 -0.5620
 7042TIP3    H221091   6.511   2.392   1.625  0.2956 -0.0526  0.0031
 7043TIP3   OH221092   6.748   2.162   3.536  0.5326 -0.3011 -0.0062
 7043TIP3    H121093   6.712   2.156   3.447 -0.3583 -2.5745  0.4571
 7043TIP3    H221094   6.802   2.084   3.546  2.1646  0.8859  0.8454
 7044TIP3   OH221095   0.158   1.608   2.566 -0.9778  0.1675 -0.5525
 7044TIP3    H121096   0.211   1.532   2.590 -1.5831 -1.0055 -2.6341
 7044TIP3    H221097   0.186   1.678   2.625  1.5738 -0.9001 -0.4058
 7045TIP3   OH221098   0.685   2.604   0.402  0.2721 -0.6160 -0.0455
 7045TIP3    H121099   0.712   2.660   0.474  1.2262 -0.0539 -0.8067
 7045TIP3    H221100   0.712   2.652   0.323 -0.6994 -1.2286 -0.7749
 7046TIP3   OH221101   5.900   2.952   1.195 -0.3301  0.2657  0.3002
 7046TIP3    H121102   5.982   2.999   1.180 -1.0692  1.5789  0.2845
 7046TIP3    H221103   5.848   2.967   1.116  0.3896 -2.8093 -0.9134
 7047TIP3   OH221104   2.241   5.586   3.037  0.1666 -0.3454  0.4638
 7047TIP3    H121105   2.158   5.630   3.055  0.6448  1.7838 -2.0035
 7047TIP3    H221106   2.307   5.655   3.043  1.5874 -1.6920  0.9117
 7048TIP3   OH221107   3.945   4.119   1.014  0.1164  0.1209  0.3904
 7048TIP3    H121108   3.873   4.071   1.054 -1.0993  0.4832 -1.2142
 7048TIP3    H221109   3.950   4.201   1.064 -1.3802  0.5813 -0.1437
 7049TIP3   OH221110   2.801   0.784   3.257  0.0349 -0.0733 -0.2398
 7049TIP3    H121111   2.802   0.879   3.241  0.5603  0.1380  0.9518
 7049TIP3    H221112   2.870   0.770   3.322  1.9164 -1.6627 -2.4213
 7050TIP3   OH221113   4.802   2.742   0.280 -0.4029 -0.7448  0.1680
 7050TIP3    H121114   4.875   2.758   0.220  0.7997 -1.7457  1.3113
 7050TIP3    H221115   4.822   2.795   0.357 -0.1863 -1.9476  0.9853
 7051TIP3   OH221116   1.047   5.395   4.034 -0.2924 -0.0763  0.0785
 7051TIP3    H121117   1.062   5.304   4.059 -1.6174  0.1602  1.8648
 7051TIP3    H221118   1.030   5.440   4.116 -1.1731  1.4985 -0.9281
 7052TIP3   OH221119   2.746   4.036   2.225 -0.5212 -0.1103 -0.3827
 7052TIP3    H121120   2.796   4.055   2.304 -0.8668  1.1037 -0.4346
 7052TIP3    H221121   2.800   3.974   2.176  0.0844 -0.2126  0.4016
 7053TIP3   OH221122   1.391   1.999   2.275  0.1125  0.6853 -0.1410
 7053TIP3    H121123   1.389   1.917   2.326 -3.3769  0.9138  0.3502
 7053TIP3    H221124   1.417   2.065   2.339 -0.3305  0.4114  0.3336
 7054TIP3   OH221125   0.868   5.611   5.169 -0.4318  0.3633 -0.4680
 7054TIP3    H121126   0.813   5.533   5.166  0.3793 -0.1764 -2.0447
 7054TIP3    H221127   0.808   5.683   5.145 -0.6735 -0.0924 -1.2646
 7055TIP3   OH221128   5.149   2.290   1.174 -0.3194 -0.5311  0.1288
 7055TIP3    H121129   5.078   2.350   1.152  1.5652  0.5033 -4.0587
 7055TIP3    H221130   5.207   2.341   1.230 -0.3795  0.4574 -0.6763
 7056TIP3   OH221131   3.663   0.789   1.090  0.4856 -0.5393  0.3092
 7056TIP3    H121132   3.718   0.864   1.066  0.8718 -0.9659 -0.1545
 7056TIP3    H221133   3.718   0.713   1.072  0.0230 -0.9430  0.5931
 7057TIP3   OH221134   2.000   4.630   4.417 -0.5854 -0.3962 -0.5075
 7057TIP3    H121135   2.060   4.613   4.345 -2.0952 -0.8722 -1.7182
 7057TIP3    H221136   2.047   4.601   4.495  0.9939 -0.1274 -1.3101
 7058TIP3   OH221137   0.376   5.723   3.121 -0.1986 -0.3131  0.3736
 7058TIP3    H121138   0.345   5.699   3.034 -0.5002 -0.4876  0.5287
 7058TIP3    H221139   0.309   5.690   3.181  0.3159 -0.7650  0.7148
 7059TIP3   OH221140   4.270   4.322   4.287 -0.3316 -0.3563 -0.1701
 7059TIP3    H121141   4.209   4.388   4.256 -0.1271  1.2442  2.4917
 7059TIP3    H221142   4.217   4.265   4.344  0.1173 -0.6129 -0.0016
 7060TIP3   OH221143   4.593   6.461   0.366  0.0609  0.0102 -0.1037
 7060TIP3    H121144   4.614   6.526   0.299  0.7027 -0.1002 -0.0202
 7060TIP3    H221145   4.565   6.512   0.441  1.8193  0.2963  0.4160
 7061TIP3   OH221146   0.394   0.720   2.708 -0.3390 -0.0074  0.0910
 7061TIP3    H121147   0.323   0.674   2.754 -1.0975  0.3173 -0.7175
 7061TIP3    H221148   0.369   0.716   2.616  1.6095 -1.4444 -0.4305
 7062TIP3   OH221149   3.642   4.667   1.627 -0.1781 -0.9098  0.2126
 7062TIP3    H121150   3.687   4.587   1.654  0.2476 -0.2510  1.5461
 7062TIP3    H221151   3.593   4.694   1.704  1.1860  1.1417  0.4246
 7063TIP3   OH221152   3.890   0.074   3.267  0.2783 -0.4415 -0.3255
 7063TIP3    H121153   3.930   0.059   3.182 -0.5523 -0.4312 -0.7283
 7063TIP3    H221154   3.952   0.131   3.313  0.5571 -0.1305 -1.0669
 7064TIP3   OH221155   5.538   4.791   2.464 -0.0818 -0.1465 -0.5667
 7064TIP3    H121156   5.518   4.798   2.558 -0.4763  0.4325 -0.6910
 7064TIP3    H221157   5.524   4.698   2.444 -0.8279 -0.1204 -0.2296
 7065TIP3   OH221158   1.841   4.209   3.290  0.2785  0.6307 -0.1661
 7065TIP3    H121159   1.795   4.193   3.208  0.2129  2.0168 -0.4231
 7065TIP3    H221160   1.883   4.125   3.311 -2.7010 -0.8723  0.3332
 7066TIP3   OH221161   4.103   0.165   0.520 -0.2554 -0.1862 -0.2121
 7066TIP3    H121162   4.173   0.170   0.456  0.5515 -0.8825  0.5916
 7066TIP3    H221163   4.052   0.088   0.494 -0.5762  0.1634 -0.6377
 7067TIP3   OH221164   1.432   4.992   0.832  0.9917 -0.6043  0.0874
 7067TIP3    H121165   1.490   4.994   0.908  0.3861  2.4229  0.6104
 7067TIP3    H221166   1.465   5.062   0.775  0.0295 -1.2780 -1.3632
 7068TIP3   OH221167   5.327   6.092   3.844  0.4736 -0.2385 -0.0152
 7068TIP3    H121168   5.373   6.050   3.772  0.6741 -0.7692  0.4107
 7068TIP3    H221169   5.303   6.179   3.811 -1.2401 -1.2041 -1.4196
 7069TIP3   OH221170   5.477   1.103   4.139  0.0084  0.7359  0.5857
 7069TIP3    H121171   5.560   1.148   4.126 -0.2517  0.8291 -0.8735
 7069TIP3    H221172   5.448   1.078   4.051 -0.8344 -0.5273  1.1809
 7070TIP3   OH221173   5.825   6.457   5.159 -0.4161  0.1080 -0.1982
 7070TIP3    H121174   5.807   6.372   5.117 -0.2096 -0.1487  0.2281
 7070TIP3    H221175   5.897   6.494   5.108  0.0577 -0.3541  0.1238
 7071TIP3   OH221176   5.430   6.499   3.019 -0.1740  0.0120 -0.1341
 7071TIP3    H121177   5.451   6.436   2.950  1.4644  1.5147 -1.0835
 7071TIP3    H221178   5.493   6.481   3.089 -0.8927 -0.5565  0.3881
 7072TIP3   OH221179   3.171   3.121   0.640 -0.2754  0.0044 -0.0027
 7072TIP3    H121180   3.182   3.089   0.729  0.7752 -2.0269 -0.7905
 7072TIP3    H221181   3.116   3.056   0.597 -0.1116  0.5230 -1.0435
 7073TIP3   OH221182   4.586   0.400   4.197 -0.0072 -0.7050  0.4040
 7073TIP3    H121183   4.546   0.355   4.123 -0.3845 -2.0393  1.3887
 7073TIP3    H221184   4.673   0.425   4.166 -0.1377 -1.2938 -0.4676
 7074TIP3   OH221185   2.317   1.807   3.904  0.1710 -0.4914  0.3199
 7074TIP3    H121186   2.239   1.859   3.887  0.3591 -0.2089  0.3165
 7074TIP3    H221187   2.390   1.862   3.875  0.2447 -1.7016 -2.0460
 7075TIP3   OH221188   5.078   2.694   4.268 -0.1385  0.4119 -0.8724
 7075TIP3    H121189   5.044   2.746   4.195 -1.6508 -1.9099 -1.9217
 7075TIP3    H221190   5.001   2.657   4.310  0.8496 -2.1873 -1.1539
 7076TIP3   OH221191   0.725   5.452   0.954  0.0066  0.4258  0.0957
 7076TIP3    H121192   0.667   5.450   0.877  0.5544 -0.1133 -0.3155
 7076TIP3    H221193   0.699   5.376   1.005 -1.0237  1.3334  0.9602
 7077TIP3   OH221194   4.972   6.617   4.779 -0.3739  0.2510 -0.5431
 7077TIP3    H121195   4.901   6.675   4.807 -0.6021  0.1921 -0.9756
 7077TIP3    H221196   4.930   6.531   4.773  0.0954 -0.0790  0.6430
 7078TIP3   OH221197   2.244   5.371   0.190  0.2868 -0.1472  0.2718
 7078TIP3    H121198   2.238   5.467   0.184  1.3439 -0.1249 -1.0532
 7078TIP3    H221199   2.185   5.348   0.262 -0.2952  1.4580  0.3672
 7079TIP3   OH221200   5.173   4.489   5.290 -0.1607  0.0904 -0.0771
 7079TIP3    H121201   5.206   4.567   5.245  1.5232 -0.7272 -0.3512
 7079TIP3    H221202   5.195   4.416   5.231 -1.7579 -0.6107  0.1375
 7080TIP3   OH221203   1.313   4.128   5.416  0.1308 -0.2446 -0.5361
 7080TIP3    H121204   1.277   4.214   5.394  0.7636 -0.3748 -2.2247
 7080TIP3    H221205   1.358   4.100   5.336  0.5652 -1.8227  0.2300
 7081TIP3   OH221206   4.844   6.564   1.669 -0.0006  0.1004  0.2808
 7081TIP3    H121207   4.906   6.596   1.735 -0.3101  2.6882 -0.5475
 7081TIP3    H221208   4.763   6.547   1.717  0.6164 -0.8921  0.9890
 7082TIP3   OH221209   1.661   2.258   2.315  0.5502 -0.0343 -0.8074
 7082TIP3    H121210   1.717   2.197   2.267  0.3757 -1.0596  0.2487
 7082TIP3    H221211   1.702   2.266   2.401  0.8599  1.7865 -1.0786
 7083TIP3   OH221212   6.399   3.303   0.864 -0.0273  0.2011 -0.4244
 7083TIP3    H121213   6.482   3.333   0.901  1.7542 -0.6665 -3.2974
 7083TIP3    H221214   6.362   3.380   0.821 -1.3417  0.8499  1.7557
 7084TIP3   OH221215   4.211   3.718   3.847  0.5779  0.1808  0.2424
 7084TIP3    H121216   4.183   3.708   3.756 -0.8681  1.8213  0.4658
 7084TIP3    H221217   4.163   3.650   3.894  2.0289 -1.2964 -0.2821
 7085TIP3   OH221218   6.197   4.904   1.727  0.1482  0.0057 -0.3536
 7085TIP3    H121219   6.289   4.911   1.702  0.2787 -1.8328 -0.5339
 7085TIP3    H221220   6.199   4.866   1.815 -0.4188  2.2879  0.7123
 7086TIP3   OH221221   2.574   3.966   2.576 -0.2374 -0.0504 -0.2208
 7086TIP3    H121222   2.582   4.056   2.606 -1.0657  0.3163 -1.0630
 7086TIP3    H221223   2.659   3.926   2.596  0.3111  1.0504 -0.2956
 7087TIP3   OH221224   6.604   2.494   2.546  0.2239 -0.3075  0.1019
 7087TIP3    H121225   6.583   2.401   2.545  0.7787 -0.4353  0.1183
 7087TIP3    H221226   6.579   2.524   2.634  0.0813 -0.4510  0.1088
 7088TIP3   OH221227   4.882   2.183   0.919 -0.4948  0.0654  0.6453
 7088TIP3    H121228   4.861   2.136   1.000 -0.3326 -0.1717  0.5498
 7088TIP3    H221229   4.972   2.158   0.899 -0.3377  0.5727  0.7007
 7089TIP3   OH221230   6.069   6.045   2.594  0.0243 -0.1263  0.2715
 7089TIP3    H121231   6.074   6.121   2.651  0.3824  0.6194 -0.7297
 7089TIP3    H221232   6.160   6.026   2.570 -0.0073 -1.2213  0.9489
 7090TIP3   OH221233   1.772   1.544   1.822 -0.7266 -0.0003 -0.3778
 7090TIP3    H121234   1.702   1.609   1.818 -0.4241  0.3004 -0.9116
 7090TIP3    H221235   1.759   1.499   1.906 -0.0438  1.7527  0.7251
 7091TIP3   OH221236   0.978   0.168   4.798 -0.3289 -0.4915  0.1030
 7091TIP3    H121237   1.067   0.134   4.789 -0.1500  0.4326 -2.6997
 7091TIP3    H221238   0.985   0.261   4.776 -2.0325 -0.5349 -0.8190
 7092TIP3   OH221239   5.442   6.517   2.620  0.4500  0.0929 -0.5136
 7092TIP3    H121240   5.505   6.457   2.580  1.0984  1.2989 -1.3735
 7092TIP3    H221241   5.360   6.498   2.575  1.1156  1.2625 -2.3373
 7093TIP3   OH221242   5.070   5.060   1.548 -0.0326 -0.1408  0.0010
 7093TIP3    H121243   5.118   5.143   1.551  0.9847 -0.6955 -0.3996
 7093TIP3    H221244   5.071   5.029   1.638  0.4059 -0.1721 -0.0132
 7094TIP3   OH221245   2.960   4.358   3.912  0.4158  0.1771  0.4008
 7094TIP3    H121246   3.030   4.293   3.919  1.0255  0.8180  0.5023
 7094TIP3    H221247   2.993   4.420   3.846  0.4276  1.0520  1.1947
 7095TIP3   OH221248   7.110   3.441   1.496 -0.1321 -0.1446 -0.0704
 7095TIP3    H121249   7.080   3.511   1.554  0.7325  1.2186 -1.1990
 7095TIP3    H221250   7.099   3.361   1.548 -0.7100  0.8557  1.4395
 7096TIP3   OH221251   5.877   2.041   3.289 -0.3313  0.1049  0.1754
 7096TIP3    H121252   5.932   2.042   3.210 -0.0353 -0.8089  0.3657
 7096TIP3    H221253   5.881   1.951   3.320 -1.5105  0.1527  0.5019
 7097TIP3   OH221254   6.180   1.863   5.644  0.4562 -0.1012 -0.6482
 7097TIP3    H121255   6.086   1.850   5.653  0.5056 -0.5690 -0.7665
 7097TIP3    H221256   6.212   1.872   5.734  0.4351 -0.9792 -0.5436
 7098TIP3   OH221257   0.743   1.510   5.687 -0.4802 -0.3603  0.0547
 7098TIP3    H121258   0.673   1.455   5.651  0.5396 -1.7687  0.0898
 7098TIP3    H221259   0.741   1.494   5.781  0.4412 -1.1569 -0.0374
 7099TIP3   OH221260   2.230   6.685   1.611  0.8820  0.3827  0.7999
 7099TIP3    H121261   2.194   6.598   1.625 -3.1690  1.9078  1.1539
 7099TIP3    H221262   2.220   6.701   1.517 -0.4418  1.2123  1.0639
 7100TIP3   OH221263   0.827   5.895   3.695  0.8286  0.1324 -0.4198
 7100TIP3    H121264   0.889   5.822   3.697  0.6700  0.0025  1.0963
 7100TIP3    H221265   0.863   5.958   3.758  0.6097  1.0740 -1.2137
 7101TIP3   OH221266   6.619   1.165   0.318  0.2976 -0.2776 -0.1840
 7101TIP3    H121267   6.713   1.178   0.304  0.4548 -0.0723  1.0180
 7101TIP3    H221268   6.578   1.233   0.264  0.9430  1.5610  1.5064
 7102TIP3   OH221269   7.154   2.887   0.285  0.0133  0.2155 -0.1391
 7102TIP3    H121270   7.110   2.829   0.223 -0.3613 -0.8549  1.0885
 7102TIP3    H221271   7.093   2.961   0.294 -0.1726  0.1307 -0.6240
 7103TIP3   OH221272   1.307   6.345   3.640 -0.2308  0.0102  0.1622
 7103TIP3    H121273   1.234   6.404   3.659 -1.8826 -2.1069  0.7051
 7103TIP3    H221274   1.300   6.329   3.545  0.1027  0.5020  0.0494
 7104TIP3   OH221275   1.988   5.023   4.378  0.0269 -0.0348  0.3813
 7104TIP3    H121276   2.061   4.976   4.418 -1.0599 -2.1604  0.0171
 7104TIP3    H221277   1.910   4.981   4.413 -0.9962  0.4058 -1.2574
 7105TIP3   OH221278   5.319   1.721   4.415  0.2766 -0.1778  0.5598
 7105TIP3    H121279   5.280   1.636   4.393 -0.3621  0.2967 -0.1807
 7105TIP3    H221280   5.248   1.770   4.455  0.0000  0.7714 -1.0029
 7106TIP3   OH221281   1.605   2.205   2.916  0.1976 -0.5759 -0.3119
 7106TIP3    H121282   1.558   2.273   2.964  1.9328 -1.0798  2.3163
 7106TIP3    H221283   1.622   2.243   2.830  0.3505  1.9834  0.7710
 7107TIP3   OH221284   5.401   2.482   4.879  0.0924  0.1364  0.5467
 7107TIP3    H121285   5.384   2.564   4.833  0.6508  0.2499  0.5309
 7107TIP3    H221286   5.431   2.422   4.810  0.0885  0.0446  0.6247
 7108TIP3   OH221287  -0.004   3.465   5.323 -0.8036  0.2447  0.1512
 7108TIP3    H121288   0.030   3.429   5.405  0.2538 -0.0569 -0.4050
 7108TIP3    H221289  -0.024   3.388   5.270 -2.0410  0.4275  0.3307
 7109TIP3   OH221290   6.916   3.418   4.190  0.6662  0.3051 -0.1282
 7109TIP3    H121291   6.974   3.355   4.232  0.8889  0.6395  0.0624
 7109TIP3    H221292   6.952   3.504   4.213 -0.9786  0.6012  1.6128
 7110TIP3   OH221293   4.294   3.321   0.536 -0.1573  0.3020 -0.1682
 7110TIP3    H121294   4.369   3.288   0.585  1.3079  1.2013 -1.7196
 7110TIP3    H221295   4.240   3.244   0.520  1.3167 -0.6849 -0.5318
 7111TIP3   OH221296   3.293   1.064   0.485  0.2870  0.2895  0.3299
 7111TIP3    H121297   3.252   1.029   0.564 -0.7569 -0.1472 -0.3717
 7111TIP3    H221298   3.220   1.103   0.436  0.9018  0.4839 -0.4479
 7112TIP3   OH221299   6.572   1.013   4.083 -0.2087  0.4578 -0.8093
 7112TIP3    H121300   6.601   1.011   4.175  0.3706 -0.3812 -0.9941
 7112TIP3    H221301   6.538   1.101   4.070  1.0617  1.0602 -0.2022
 7113TIP3   OH221302   5.137   6.589   0.520  0.0844  0.4199  0.0394
 7113TIP3    H121303   5.194   6.665   0.524  0.8678 -0.2040  1.5274
 7113TIP3    H221304   5.070   6.606   0.587 -0.6471  0.4833 -0.6904
 7114TIP3   OH221305   6.001   1.626   1.614 -0.3972  0.9011  0.1187
 7114TIP3    H121306   5.973   1.692   1.550  0.8189  1.5669  0.2341
 7114TIP3    H221307   6.097   1.626   1.607 -0.2469  0.9064  1.8627
 7115TIP3   OH221308   5.222   6.310   1.570 -0.2355  0.1095  0.2160
 7115TIP3    H121309   5.154   6.360   1.526  1.2460  1.3885 -0.7278
 7115TIP3    H221310   5.270   6.268   1.498  0.6138  0.0970  0.7781
 7116TIP3   OH221311   0.308   6.580   1.317 -0.5273  0.0141 -0.3538
 7116TIP3    H121312   0.257   6.622   1.386 -0.0453  0.1636 -0.0846
 7116TIP3    H221313   0.397   6.615   1.328  0.3126 -2.3348  0.9691
 7117TIP3   OH221314   6.164   1.080   0.488  0.4914 -0.1748 -0.4116
 7117TIP3    H121315   6.081   1.110   0.527  0.0542 -0.2715 -1.2290
 7117TIP3    H221316   6.147   0.989   0.464  0.4607  0.1060 -1.5394
 7118TIP3   OH221317   6.539   3.721   3.900 -0.1890 -0.4406  0.4286
 7118TIP3    H121318   6.606   3.659   3.930 -0.5496 -0.4222  1.3020
 7118TIP3    H221319   6.583   3.774   3.834  1.0442  0.3645  1.8324
 7119TIP3   OH221320   6.737   1.077   5.375 -0.3965 -0.1277  0.3462
 7119TIP3    H121321   6.792   1.140   5.328 -0.2857 -0.4517  0.0401
 7119TIP3    H221322   6.734   1.110   5.465  0.0402  0.0645  0.2900
 7120TIP3   OH221323   5.177   0.143   0.141 -0.0348  0.3027  0.0640
 7120TIP3    H121324   5.081   0.135   0.141 -0.1841  1.2579  2.6200
 7120TIP3    H221325   5.198   0.181   0.226  2.8570 -2.5686  0.8484
 7121TIP3   OH221326   3.623   6.357   5.077  0.6404 -0.0772 -0.0053
 7121TIP3    H121327   3.643   6.268   5.107  0.4277 -0.8864 -2.0746
 7121TIP3    H221328   3.574   6.344   4.996 -1.0369  1.9286  0.5908
 7122TIP3   OH221329   0.447   3.158   4.774  0.6686 -0.2982 -0.2200
 7122TIP3    H121330   0.456   3.080   4.718  0.5016  0.0302 -0.7072
 7122TIP3    H221331   0.387   3.131   4.843  2.0926 -1.2137  0.7284
 7123TIP3   OH221332   2.854   5.315   5.130  0.1839  0.0414 -0.1070
 7123TIP3    H121333   2.826   5.255   5.061  0.0824  1.6287 -1.5152
 7123TIP3    H221334   2.864   5.260   5.208 -0.8173 -1.6070 -1.0957
 7124TIP3   OH221335   4.353   6.697   5.404  0.2036  0.3253 -0.3067
 7124TIP3    H121336   4.333   6.604   5.398 -0.3382  0.5532 -3.4951
 7124TIP3    H221337   4.403   6.717   5.325  1.2631  2.5736  0.8123
 7125TIP3   OH221338   4.293   2.183   0.646  0.1245  0.0902 -0.2231
 7125TIP3    H121339   4.257   2.188   0.557  0.9395  2.2656 -0.5030
 7125TIP3    H221340   4.331   2.269   0.661  1.6171 -0.8026  1.5752
 7126TIP3   OH221341   5.848   5.024   1.862 -0.0112  0.5677 -0.9570
 7126TIP3    H121342   5.864   5.113   1.893  1.9518  0.3864 -1.3243
 7126TIP3    H221343   5.891   4.968   1.926 -2.3980 -0.2552  0.0336
 7127TIP3   OH221344   6.303   5.106   0.398  0.4252 -0.0793  0.4567
 7127TIP3    H121345   6.398   5.112   0.403  0.4160  0.7333 -0.2016
 7127TIP3    H221346   6.286   5.020   0.359  0.8197 -0.9958  2.1955
 7128TIP3   OH221347   7.063   2.071   3.009 -0.4540  0.1419  0.3249
 7128TIP3    H121348   6.969   2.092   3.012 -0.1009  2.3433 -1.4743
 7128TIP3    H221349   7.085   2.050   3.100 -3.3515 -4.2953  0.3567
 7129TIP3   OH221350   0.146   6.723   4.786  0.2192  0.2572  0.2456
 7129TIP3    H121351   0.098   6.727   4.704 -0.7544  1.5097  0.8383
 7129TIP3    H221352   0.079   6.736   4.854  0.8658 -1.5583  1.3036
 7130TIP3   OH221353   3.388   0.864   3.696  0.1175  0.0541 -0.1031
 7130TIP3    H121354   3.313   0.810   3.670  1.1221 -0.9230 -1.0768
 7130TIP3    H221355   3.354   0.921   3.765 -1.5863 -0.1769 -0.7026
 7131TIP3   OH221356   1.902   1.460   4.822 -0.8008 -0.6031 -0.2422
 7131TIP3    H121357   1.950   1.539   4.797 -2.0442  0.5209  0.7527
 7131TIP3    H221358   1.818   1.467   4.776 -0.3152 -2.2240 -1.4712
 7132TIP3   OH221359   0.439   5.286   1.999  0.3226 -0.0921  0.3797
 7132TIP3    H121360   0.512   5.342   2.026 -0.1083  0.6842 -0.0454
 7132TIP3    H221361   0.480   5.218   1.946  1.0386 -1.0223  2.0654
 7133TIP3   OH221362   0.909   0.856   3.597  0.0826  0.0703  0.1042
 7133TIP3    H121363   0.818   0.879   3.579 -0.2816 -0.0451  1.6119
 7133TIP3    H221364   0.904   0.767   3.633  1.1861 -1.4638 -3.1210
 7134TIP3   OH221365   3.707   1.405   2.777 -0.4821 -0.2000 -0.0471
 7134TIP3    H121366   3.682   1.427   2.687 -0.2764  1.2039  0.2269
 7134TIP3    H221367   3.623   1.393   2.822 -0.6064  0.4817 -0.0932
 7135TIP3   OH221368   3.047   1.911   0.390  0.0043  0.3149  0.4556
 7135TIP3    H121369   2.951   1.901   0.387  0.0637 -0.0567 -0.7154
 7135TIP3    H221370   3.065   1.944   0.478 -1.2788  1.2239  0.3991
 7136TIP3   OH221371   5.793   6.027   4.255  0.5080 -0.6076  0.2087
 7136TIP3    H121372   5.870   6.063   4.213 -0.6258  1.3978 -0.2577
 7136TIP3    H221373   5.822   5.944   4.292  3.2964  0.8127  1.4483
 7137TIP3   OH221374   0.965   6.423   3.207  0.4373 -0.1395 -0.3246
 7137TIP3    H121375   0.957   6.337   3.249  3.2006 -1.1287 -1.5596
 7137TIP3    H221376   0.960   6.404   3.113  1.6937  0.9176 -0.6425
 7138TIP3   OH221377   0.578   6.087   5.523 -0.2742  0.1069 -0.1457
 7138TIP3    H121378   0.572   6.074   5.618 -1.3953 -0.0645 -0.2309
 7138TIP3    H221379   0.670   6.110   5.508 -0.3091  1.1224  1.0907
 7139TIP3   OH221380   2.076   1.814   1.340  0.4457  0.1504 -0.2190
 7139TIP3    H121381   2.085   1.908   1.360  1.2404 -0.3530  2.1160
 7139TIP3    H221382   2.166   1.785   1.323  0.1719 -0.1689 -1.1728
 7140TIP3   OH221383   4.313   6.289   3.536  0.2533  0.3693 -0.1493
 7140TIP3    H121384   4.228   6.245   3.545 -0.0759  0.8322 -0.8809
 7140TIP3    H221385   4.355   6.245   3.462  1.6006 -1.3179  1.5097
 7141TIP3   OH221386   6.566   0.671   5.408  0.1661  0.8134  0.6558
 7141TIP3    H121387   6.617   0.730   5.464  0.9488  1.5972 -0.8339
 7141TIP3    H221388   6.527   0.608   5.469  1.6740  1.1172  1.9869
 7142TIP3   OH221389   5.579   0.195   2.250  0.1355 -0.3814  0.2118
 7142TIP3    H121390   5.564   0.106   2.281  0.0395  0.1610  1.8082
 7142TIP3    H221391   5.506   0.246   2.285  0.1290  0.3180 -0.7701
 7143TIP3   OH221392   0.830   1.464   4.980  0.6156 -0.6560 -0.1309
 7143TIP3    H121393   0.759   1.408   5.012  1.1672 -1.9477 -1.0940
 7143TIP3    H221394   0.907   1.408   4.977  1.2556  0.2187 -0.8848
 7144TIP3   OH221395   5.619   5.447   2.371  0.1267 -0.2848 -0.2921
 7144TIP3    H121396   5.710   5.478   2.374  0.4623 -1.2554 -0.0189
 7144TIP3    H221397   5.595   5.452   2.278  0.4355  0.0158 -0.3593
 7145TIP3   OH221398   3.001   4.758   3.572  0.0882  0.9582 -0.2352
 7145TIP3    H121399   3.014   4.845   3.610 -2.7076  1.9905 -1.3612
 7145TIP3    H221400   3.027   4.768   3.480 -1.6377  1.1101 -0.7496
 7146TIP3   OH221401   5.575   0.788   4.193  0.0131  0.4811 -0.1899
 7146TIP3    H121402   5.632   0.861   4.218  0.0881  0.7184 -1.0234
 7146TIP3    H221403   5.609   0.759   4.108 -1.1699  0.6891 -0.7487
 7147TIP3   OH221404   5.879   2.622   1.073  0.3077 -0.2810  0.0516
 7147TIP3    H121405   5.855   2.590   0.987  0.7109  0.8681 -0.5148
 7147TIP3    H221406   5.972   2.602   1.081  0.2849 -0.3315  0.1855
 7148TIP3   OH221407   4.973   1.295   2.206 -0.2511 -0.4161  0.4495
 7148TIP3    H121408   4.950   1.387   2.203 -0.6718 -0.5438 -1.4776
 7148TIP3    H221409   5.053   1.289   2.153  0.8844 -0.9023  2.1218
 7149TIP3   OH221410   1.664   3.422   2.536  0.1727 -0.2713  0.0234
 7149TIP3    H121411   1.665   3.368   2.457 -1.4619 -0.6010  0.1972
 7149TIP3    H221412   1.629   3.365   2.604 -0.3172  0.5967  0.5240
 7150TIP3   OH221413   0.699   2.788   0.211 -0.1090  0.3394 -0.6974
 7150TIP3    H121414   0.732   2.838   0.136  0.7672  0.5472 -0.1900
 7150TIP3    H221415   0.611   2.823   0.226  0.7326  2.2586  0.0730
 7151TIP3   OH221416   5.900   2.285   3.736 -0.6125  0.1796 -0.1017
 7151TIP3    H121417   5.883   2.344   3.663  0.8693 -1.3764 -1.7920
 7151TIP3    H221418   5.862   2.202   3.709 -0.9257 -0.1874  1.3691
 7152TIP3   OH221419   2.083   1.642   4.760 -0.3901  0.0915  0.2161
 7152TIP3    H121420   2.079   1.730   4.798  1.1863  1.2251 -2.0027
 7152TIP3    H221421   2.060   1.655   4.668  2.1479 -1.3663 -0.7130
 7153TIP3   OH221422   5.491   2.575   2.453 -0.2084 -0.6426 -0.5298
 7153TIP3    H121423   5.569   2.620   2.422 -0.1266 -0.1493  0.3631
 7153TIP3    H221424   5.513   2.546   2.542 -1.0273 -0.5010 -0.2674
 7154TIP3   OH221425   5.067   0.416   1.674 -0.3232  0.3886  0.0871
 7154TIP3    H121426   5.146   0.394   1.724 -1.3963 -0.1095  1.6321
 7154TIP3    H221427   5.079   0.373   1.589  0.8170 -0.1383  0.5026
 7155TIP3   OH221428   5.665   4.366   4.452 -0.3061  0.9296  0.5021
 7155TIP3    H121429   5.592   4.320   4.494 -0.7563  1.5403  0.3915
 7155TIP3    H221430   5.624   4.438   4.404  0.3097  0.9087 -0.0756
 7156TIP3   OH221431   7.154   3.344   4.448  0.0527 -0.1437 -0.2599
 7156TIP3    H121432   7.140   3.405   4.521  0.4051 -0.7955  0.3679
 7156TIP3    H221433   7.216   3.390   4.391 -0.8668  0.7236 -0.6011
 7157TIP3   OH221434   4.194   4.622   2.382  0.5427 -0.7698  0.1576
 7157TIP3    H121435   4.113   4.586   2.345 -0.5639 -0.6129  2.3032
 7157TIP3    H221436   4.253   4.630   2.306 -1.4666 -0.7473 -1.4961
 7158TIP3   OH221437   2.915   3.016   0.538 -0.6723 -0.4514  0.4249
 7158TIP3    H121438   2.831   3.001   0.495 -1.2839  0.1297  1.3604
 7158TIP3    H221439   2.895   3.081   0.606  0.4698 -0.5529  0.8769
 7159TIP3   OH221440   2.464   5.158   2.742 -0.1006  0.0331 -0.1040
 7159TIP3    H121441   2.521   5.108   2.800 -1.1416  0.1430  1.0653
 7159TIP3    H221442   2.472   5.249   2.773  0.4929  0.3500 -1.1340
 7160TIP3   OH221443   6.715   1.868   2.149 -0.0846 -0.1532  0.2762
 7160TIP3    H121444   6.657   1.943   2.160 -1.7732 -1.4027  0.3304
 7160TIP3    H221445   6.668   1.810   2.090  1.5710 -0.8112 -0.4503
 7161TIP3   OH221446   2.416   1.331   0.877 -0.0660  0.7114 -0.0914
 7161TIP3    H121447   2.399   1.245   0.839  0.2911  0.8431 -0.5593
 7161TIP3    H221448   2.426   1.389   0.802 -0.7225  1.2465  0.2268
 7162TIP3   OH221449   3.661   2.217   3.545  0.1458  0.0368  0.3367
 7162TIP3    H121450   3.602   2.249   3.613 -0.5761  1.0700 -0.7341
 7162TIP3    H221451   3.749   2.235   3.578 -0.1178  5.3454 -1.0167
 7163TIP3   OH221452   3.620   2.905   1.123 -0.1029 -0.4250 -0.0796
 7163TIP3    H121453   3.551   2.895   1.058 -0.5919  0.0823  0.3573
 7163TIP3    H221454   3.668   2.983   1.096  0.2255 -0.7031 -0.3094
 7164TIP3   OH221455   4.783   3.568   3.966 -0.0889  0.0233 -0.1550
 7164TIP3    H121456   4.691   3.587   3.948 -0.3012  0.1449  1.0195
 7164TIP3    H221457   4.828   3.652   3.950 -0.5547  0.6761  1.7411
 7165TIP3   OH221458   1.779   4.608   4.725  0.2292 -0.2575 -0.5916
 7165TIP3    H121459   1.770   4.534   4.666  1.1638  0.0020 -1.0822
 7165TIP3    H221460   1.853   4.584   4.782 -1.0806 -0.8064  0.9528
 7166TIP3   OH221461   2.294   1.974   1.990 -0.3773  0.0201 -0.2780
 7166TIP3    H121462   2.234   2.048   2.003 -0.0891  0.5472 -1.7174
 7166TIP3    H221463   2.252   1.901   2.035 -1.1056  0.8585  0.4401
 7167TIP3   OH221464   4.278   1.873   1.503 -0.3355  0.6160 -0.0948
 7167TIP3    H121465   4.340   1.918   1.445 -0.5741  0.5844 -0.3788
 7167TIP3    H221466   4.313   1.887   1.591  1.6803 -1.8122 -0.3868
 7168TIP3   OH221467   3.859   3.581   3.803  0.0955  0.1644  0.3379
 7168TIP3    H121468   3.793   3.516   3.778  0.1578  0.0003  0.6006
 7168TIP3    H221469   3.932   3.529   3.837  0.0861  0.3795  0.6899
 7169TIP3   OH221470   3.460   5.570   0.934  0.1096 -0.1195  0.2047
 7169TIP3    H121471   3.434   5.575   0.842 -0.0390 -1.7150  0.1281
 7169TIP3    H221472   3.387   5.607   0.982 -0.3118 -0.3317 -0.2623
 7170TIP3   OH221473   2.480   6.580   2.226  0.2521  0.8258 -0.3049
 7170TIP3    H121474   2.560   6.529   2.211 -0.7823 -0.5737 -1.3746
 7170TIP3    H221475   2.412   6.514   2.239 -0.6937  1.9873  1.0016
 7171TIP3   OH221476   5.787   0.961   4.274  0.4634 -0.0314  0.3063
 7171TIP3    H121477   5.761   1.022   4.343  2.1310  1.0756  0.0251
 7171TIP3    H221478   5.859   0.911   4.313 -0.3528 -1.2888  0.2495
 7172TIP3   OH221479   6.617   4.962   2.847  0.5607  0.5328  0.3214
 7172TIP3    H121480   6.531   5.004   2.837  0.4302 -0.1917 -2.3801
 7172TIP3    H221481   6.669   5.026   2.895 -0.9158  1.8769  0.2272
 7173TIP3   OH221482   5.653   5.322   1.423  0.3911  0.0635 -0.2585
 7173TIP3    H121483   5.701   5.393   1.381 -0.0489  1.5215  1.5472
 7173TIP3    H221484   5.568   5.361   1.446  0.1352 -1.0402  0.7678
 7174TIP3   OH221485   4.379   4.740   1.306 -0.5207 -0.0380  0.0548
 7174TIP3    H121486   4.409   4.794   1.233 -1.5154  1.5987  0.8123
 7174TIP3    H221487   4.400   4.791   1.384  1.2453 -2.0942  1.0318
 7175TIP3   OH221488   2.728   1.203   4.866 -0.4689 -0.0894  0.1900
 7175TIP3    H121489   2.751   1.116   4.834  0.8844 -0.2368  1.4686
 7175TIP3    H221490   2.692   1.189   4.953  1.0839  0.6981  1.0019
 7176TIP3   OH221491   1.920   1.402   2.115 -0.0767  0.3717 -0.0092
 7176TIP3    H121492   1.836   1.402   2.160 -0.3586 -0.4733 -0.5046
 7176TIP3    H221493   1.979   1.448   2.175 -0.9095  1.0842  0.2874
 7177TIP3   OH221494   3.665   1.785   0.349 -0.0381  0.0115  0.2424
 7177TIP3    H121495   3.593   1.760   0.290 -0.7832  0.8517  0.7723
 7177TIP3    H221496   3.742   1.787   0.293  0.0957 -3.2718  0.0989
 7178TIP3   OH221497   5.653   0.842   4.520 -0.3315 -0.0404 -0.5957
 7178TIP3    H121498   5.582   0.780   4.538  0.8501 -0.6778  2.5605
 7178TIP3    H221499   5.608   0.921   4.490 -2.1108 -1.4088 -1.7543
 7179TIP3   OH221500   3.225   5.006   5.718 -0.0037  0.4364 -0.1647
 7179TIP3    H121501   3.226   4.910   5.708 -0.4553  0.5961 -2.0641
 7179TIP3    H221502   3.135   5.031   5.697 -0.1225  1.2244  1.1858
 7180TIP3   OH221503   4.505   0.011   4.314 -0.5276 -0.0550 -0.2880
 7180TIP3    H121504   4.479   0.049   4.230 -0.3802  0.1702 -0.2327
 7180TIP3    H221505   4.447   0.052   4.378  0.4174  0.9786 -0.0710
 7181TIP3   OH221506   0.019   5.296   4.120  0.0011 -0.4409  0.2052
 7181TIP3    H121507  -0.069   5.331   4.133  0.9501  2.1131  0.2337
 7181TIP3    H221508   0.077   5.364   4.153  2.0232 -2.0125  0.0814
 7182TIP3   OH221509   3.925   5.259   3.324 -0.1012 -0.3567  0.0565
 7182TIP3    H121510   3.887   5.339   3.360  1.3387 -0.3323  1.6788
 7182TIP3    H221511   3.889   5.189   3.379  1.3886 -0.4170  1.0197
 7183TIP3   OH221512   1.461   2.807   5.250 -0.4974  0.5072 -0.1152
 7183TIP3    H121513   1.554   2.821   5.235 -0.8168  2.7566 -0.4061
 7183TIP3    H221514   1.438   2.873   5.316 -1.4160 -1.6310  1.8251
 7184TIP3   OH221515   5.047   6.046   0.863 -0.6500  0.8742 -0.2028
 7184TIP3    H121516   5.116   6.022   0.925 -0.1716  1.4332 -0.5083
 7184TIP3    H221517   5.071   6.133   0.833  1.4157 -0.8374 -4.2704
 7185TIP3   OH221518   1.806   3.925   1.231  0.1668  0.7454  0.3343
 7185TIP3    H121519   1.898   3.923   1.206  0.5148 -0.6901  1.5968
 7185TIP3    H221520   1.763   3.971   1.159  1.4709 -0.9077 -1.6181
 7186TIP3   OH221521   2.267   1.038   4.245  0.0086  0.3676  0.6689
 7186TIP3    H121522   2.195   1.073   4.193 -0.2092 -0.4344  0.4116
 7186TIP3    H221523   2.313   0.979   4.186  1.1571  1.2128  0.6952
 7187TIP3   OH221524   0.973   1.171   4.173 -0.2764  0.1498  0.3653
 7187TIP3    H121525   0.941   1.173   4.263  0.1537 -0.3589  0.5293
 7187TIP3    H221526   0.904   1.125   4.125 -1.3670  1.9936  0.0781
 7188TIP3   OH221527   6.602   3.468   2.363  0.0378 -0.3204 -0.3455
 7188TIP3    H121528   6.622   3.541   2.421 -1.0559 -0.3769  0.1436
 7188TIP3    H221529   6.515   3.439   2.391  0.5522 -1.9840 -0.3438
 7189TIP3   OH221530   4.673   1.351   3.614  0.3708  0.0917  0.4088
 7189TIP3    H121531   4.680   1.416   3.683 -0.6820  0.4473  0.1947
 7189TIP3    H221532   4.653   1.401   3.535 -1.1007 -0.5048  0.3579
 7190TIP3   OH221533   1.231   3.624   3.639 -0.3629  0.7913 -0.3736
 7190TIP3    H121534   1.302   3.623   3.574  0.6778  0.3116  0.7384
 7190TIP3    H221535   1.187   3.539   3.628  0.7722  0.0583  0.5452
 7191TIP3   OH221536   0.628   3.536   4.468  0.2990 -0.6255  0.0347
 7191TIP3    H121537   0.671   3.484   4.400  0.9752  0.2191 -0.2053
 7191TIP3    H221538   0.610   3.474   4.538 -1.9425 -1.9217 -1.5479
 7192TIP3   OH221539   1.460   5.319   0.972 -0.9001 -0.0772  0.0737
 7192TIP3    H121540   1.548   5.336   1.006 -0.8886 -0.0488  0.0302
 7192TIP3    H221541   1.476   5.272   0.889 -0.9379 -0.9110  0.5226
 7193TIP3   OH221542  -0.016   4.147   0.667 -0.1180 -0.2578  0.3960
 7193TIP3    H121543   0.001   4.125   0.575  2.4648  0.8815  0.5034
 7193TIP3    H221544   0.051   4.100   0.716 -0.0236  0.9177  1.4513
 7194TIP3   OH221545   2.070   4.265   3.482  0.1598 -0.8313  0.2715
 7194TIP3    H121546   2.000   4.331   3.485  0.5393 -0.4577  1.2525
 7194TIP3    H221547   2.038   4.194   3.537  0.2011 -1.0241  0.0486
 7195TIP3   OH221548   2.434   4.127   3.171  0.0063  0.0044 -0.8636
 7195TIP3    H121549   2.502   4.132   3.238  0.2341  0.4976 -1.1281
 7195TIP3    H221550   2.359   4.175   3.208  1.1566  3.0554 -2.1644
 7196TIP3   OH221551   2.870   5.895   4.080 -0.2246  0.1925  0.2039
 7196TIP3    H121552   2.864   5.956   4.154  0.4855 -2.6302  2.8085
 7196TIP3    H221553   2.779   5.875   4.059 -0.5145 -1.0222  2.2874
 7197TIP3   OH221554   3.178   4.684   4.655  0.6531  0.2923  0.0083
 7197TIP3    H121555   3.187   4.703   4.748 -2.4048 -0.2912  0.5385
 7197TIP3    H221556   3.248   4.621   4.637  1.2061  0.2756  1.9583
 7198TIP3   OH221557   7.018   2.579   5.450  0.2521 -0.3459 -0.2702
 7198TIP3    H121558   6.936   2.603   5.493  1.3104  1.7553  0.7214
 7198TIP3    H221559   7.055   2.663   5.420  2.8623 -0.9670  0.8857
 7199TIP3   OH221560   1.420   1.654   3.639 -0.0698 -0.3007  0.2536
 7199TIP3    H121561   1.334   1.693   3.624  0.2000  1.5466  2.8979
 7199TIP3    H221562   1.456   1.642   3.552 -2.8731 -0.9541 -0.9461
 7200TIP3   OH221563   6.691   0.770   4.082 -0.5836 -0.9969 -0.3539
 7200TIP3    H121564   6.624   0.837   4.088  0.1444 -0.3813  2.1510
 7200TIP3    H221565   6.682   0.719   4.162  2.7629  0.0085  0.8367
 7201TIP3   OH221566   3.356   0.682   2.560  0.3374  0.1032 -0.5511
 7201TIP3    H121567   3.377   0.745   2.629  1.7940  1.7628 -2.4050
 7201TIP3    H221568   3.268   0.650   2.583 -0.0444  2.0398  0.9891
 7202TIP3   OH221569   2.903   3.249   2.313 -0.3606 -0.1023  0.5752
 7202TIP3    H121570   2.812   3.240   2.343 -0.3243  1.8317  1.3963
 7202TIP3    H221571   2.900   3.220   2.221 -1.4542 -1.5670  1.0250
 7203TIP3   OH221572   0.448   3.908   4.848 -0.2370  0.5544 -0.3163
 7203TIP3    H121573   0.529   3.913   4.898  0.6052 -0.0964 -1.5686
 7203TIP3    H221574   0.385   3.959   4.899  0.1696 -1.2399  2.1128
 7204TIP3   OH221575   0.763   2.822   5.647 -0.7307  0.4561  0.0656
 7204TIP3    H121576   0.844   2.803   5.693  0.3720  0.6735 -1.6667
 7204TIP3    H221577   0.788   2.887   5.580 -1.7042 -1.3702 -2.2307
 7205TIP3   OH221578   5.111   4.850   0.413 -0.1937 -0.1119  0.6742
 7205TIP3    H121579   5.046   4.817   0.475  0.1682 -1.9641  0.1270
 7205TIP3    H221580   5.174   4.897   0.468 -0.0434 -1.4563  1.7095
 7206TIP3   OH221581   0.175   2.513   3.630 -0.1139 -0.2202  0.1808
 7206TIP3    H121582   0.195   2.584   3.570 -2.9208  1.3754  0.9435
 7206TIP3    H221583   0.089   2.482   3.604  0.1038 -1.8904  1.2390
 7207TIP3   OH221584   6.532   4.896   3.575 -0.4621  0.5873  0.5792
 7207TIP3    H121585   6.443   4.866   3.560 -1.5125  3.9949 -0.9995
 7207TIP3    H221586   6.581   4.866   3.499 -0.7236  0.3239  0.5151
 7208TIP3   OH221587   1.917   0.012   5.260  0.0259  0.3679  0.5618
 7208TIP3    H121588   1.943   0.104   5.252  0.6000  0.1553 -0.0444
 7208TIP3    H221589   1.908  -0.018   5.170  0.3785 -0.3280  0.7592
 7209TIP3   OH221590   0.214   4.849   0.167  0.0989  0.3410 -0.5185
 7209TIP3    H121591   0.231   4.901   0.089  2.3579 -0.4514 -0.6105
 7209TIP3    H221592   0.294   4.798   0.181 -0.4966 -0.0657  1.9087
 7210TIP3   OH221593   3.405   3.778   4.285  0.1587  0.6341  0.0127
 7210TIP3    H121594   3.488   3.797   4.242 -0.1303  0.6884 -0.5293
 7210TIP3    H221595   3.349   3.853   4.263 -0.4220  0.0165 -0.6425
 7211TIP3   OH221596   4.228   2.648   0.283 -0.5091  0.0129 -0.4256
 7211TIP3    H121597   4.304   2.653   0.225 -0.6001  1.3118 -0.4580
 7211TIP3    H221598   4.164   2.707   0.244 -2.0543 -1.9408 -1.0710
 7212TIP3   OH221599   0.474   3.313   5.124  0.2894  0.1702 -0.2458
 7212TIP3    H121600   0.481   3.255   5.049 -0.2684 -1.1779  0.7047
 7212TIP3    H221601   0.556   3.301   5.172 -0.3833 -0.9406  0.6855
 7213TIP3   OH221602   3.294   0.969   3.428  0.6618  0.0260 -0.4432
 7213TIP3    H121603   3.348   0.893   3.449  0.5540  0.5186  2.0130
 7213TIP3    H221604   3.344   1.017   3.362  1.4281 -1.4140 -0.9441
 7214TIP3   OH221605   2.850   0.499   0.622  0.6147 -0.1293 -0.6336
 7214TIP3    H121606   2.810   0.413   0.633 -1.9376  0.8898 -1.1675
 7214TIP3    H221607   2.936   0.491   0.662  0.2561 -2.7724 -0.2254
 7215TIP3   OH221608   4.461   6.279   5.193 -0.0705 -0.5374  0.0999
 7215TIP3    H121609   4.412   6.206   5.155  0.7827 -1.4860  0.7914
 7215TIP3    H221610   4.552   6.251   5.189  0.1472 -0.1117  1.6682
 7216TIP3   OH221611   3.159   6.344   5.851  0.1307  0.3124  0.3582
 7216TIP3    H121612   3.186   6.265   5.802  2.6187  1.0127  0.4428
 7216TIP3    H221613   3.068   6.358   5.826 -0.1452 -2.1474 -0.2543
 7217TIP3   OH221614   4.335   0.687   2.979 -0.1036 -0.0394  0.6287
 7217TIP3    H121615   4.352   0.686   3.074 -0.0513  1.3876  0.6504
 7217TIP3    H221616   4.247   0.723   2.970 -0.2690 -0.5495  0.1447
 7218TIP3   OH221617   0.932   5.372   3.501  0.2006  0.0208  0.7386
 7218TIP3    H121618   0.850   5.340   3.463 -0.5486  0.2006  2.1209
 7218TIP3    H221619   0.952   5.309   3.571  0.2769  0.9459  1.5696
 7219TIP3   OH221620   5.985   3.719   5.831 -0.4032  0.2478  0.0208
 7219TIP3    H121621   6.024   3.758   5.752 -0.9224  1.1703  0.2060
 7219TIP3    H221622   6.026   3.766   5.904  0.4050 -0.9085  0.3343
 7220TIP3   OH221623   6.730   2.969   0.605 -0.3153  0.4926  0.0583
 7220TIP3    H121624   6.691   3.049   0.642  0.8460  1.1705 -0.1274
 7220TIP3    H221625   6.662   2.934   0.548 -1.4765  0.4120  1.4380
 7221TIP3   OH221626   2.992   2.032   3.185  0.5648 -0.0034 -0.4936
 7221TIP3    H121627   2.980   1.984   3.267 -0.7535  0.6276 -0.2940
 7221TIP3    H221628   3.033   1.968   3.126 -0.9123 -1.3433 -0.1654
 7222TIP3   OH221629   4.013   5.761   3.019 -0.2697 -0.4221  0.1970
 7222TIP3    H121630   4.082   5.736   2.957 -0.8350  1.1326 -1.1472
 7222TIP3    H221631   3.932   5.742   2.972 -0.7282 -0.5621  1.0409
 7223TIP3   OH221632   2.859   3.283   2.927  0.3352  0.1036  0.4498
 7223TIP3    H121633   2.857   3.268   3.022 -1.0813 -1.4684  0.2238
 7223TIP3    H221634   2.785   3.341   2.911 -0.7807 -1.3444  0.1082
 7224TIP3   OH221635   1.962   6.826   4.756 -0.0774 -0.0483 -0.1403
 7224TIP3    H121636   1.973   6.836   4.661  0.1715  1.7316  0.0369
 7224TIP3    H221637   1.898   6.755   4.766 -2.0714  1.4055 -1.7348
 7225TIP3   OH221638   0.417   5.889   5.025 -0.4668 -0.5465  0.1864
 7225TIP3    H121639   0.346   5.949   5.004  0.5349  0.6770  0.1833
 7225TIP3    H221640   0.422   5.889   5.120  0.9291  1.1418  0.1704
 7226TIP3   OH221641   6.944   4.120   0.702 -0.4747 -0.7056 -0.6357
 7226TIP3    H121642   7.038   4.105   0.704 -0.4591 -0.5555  0.1263
 7226TIP3    H221643   6.930   4.178   0.627 -0.1157 -1.6850 -1.4763
 7227TIP3   OH221644   3.460   5.062   2.047 -0.0372 -0.2159 -0.3858
 7227TIP3    H121645   3.375   5.053   2.006 -0.5707 -0.2470  0.6922
 7227TIP3    H221646   3.448   5.131   2.113 -0.0418 -2.0962  1.7266
 7228TIP3   OH221647   6.540   5.592   5.032 -0.0405  0.2614  0.3510
 7228TIP3    H121648   6.571   5.654   4.966  0.3307 -1.1684 -0.8878
 7228TIP3    H221649   6.506   5.646   5.102 -0.6025  1.8672 -1.0910
 7229TIP3   OH221650   1.800   5.456   3.870  0.0511  0.1598 -0.2049
 7229TIP3    H121651   1.771   5.538   3.910  1.4560  0.8367 -0.5009
 7229TIP3    H221652   1.758   5.455   3.784  0.5797  0.9248 -0.4783
 7230TIP3   OH221653   4.662   1.458   0.314  0.6776 -0.5281  0.5448
 7230TIP3    H121654   4.657   1.509   0.233 -0.9388  2.0780  2.1290
 7230TIP3    H221655   4.756   1.450   0.331  1.0362 -0.7844 -1.3517
 7231TIP3   OH221656   4.583   4.785   3.133 -0.4998  0.1336  0.6740
 7231TIP3    H121657   4.606   4.696   3.105 -0.3842 -0.0024  1.1930
 7231TIP3    H221658   4.506   4.773   3.189 -0.2339  0.3162  1.0838
 7232TIP3   OH221659   6.996   0.106   0.066  0.4061 -0.1495 -0.4600
 7232TIP3    H121660   6.919   0.050   0.054  1.2584 -1.1596 -1.2803
 7232TIP3    H221661   6.994   0.128   0.159  0.0580 -1.5375 -0.1191
 7233TIP3   OH221662   0.804   3.438   1.907 -0.1704  0.0103 -0.6348
 7233TIP3    H121663   0.885   3.486   1.926 -0.8065  1.5199 -1.5448
 7233TIP3    H221664   0.745   3.462   1.979  0.1233 -0.9544 -0.0626
 7234TIP3   OH221665   4.016   4.987   1.058 -0.5475  0.3690 -0.0644
 7234TIP3    H121666   3.974   4.903   1.041 -0.8816  0.2965  1.0526
 7234TIP3    H221667   4.048   4.981   1.148  1.6617  0.5119 -0.7669
 7235TIP3   OH221668   6.821   6.255   2.388 -0.2283 -0.2822  0.0481
 7235TIP3    H121669   6.733   6.283   2.414 -0.9552 -2.2655 -0.0549
 7235TIP3    H221670   6.814   6.238   2.294 -0.0479 -1.4184  0.2230
 7236TIP3   OH221671   0.267   3.081   1.688 -0.2359 -0.7599 -0.4986
 7236TIP3    H121672   0.335   3.093   1.753 -1.7067 -2.0593  1.3790
 7236TIP3    H221673   0.256   3.168   1.648  1.9137 -0.3618 -0.3023
 7237TIP3   OH221674   6.820   2.417   1.241  0.0260  0.5756 -0.1124
 7237TIP3    H121675   6.824   2.366   1.322  0.5498  2.0550  0.8328
 7237TIP3    H221676   6.898   2.472   1.243  0.3801  0.1967 -1.9532
 7238TIP3   OH221677   2.385   4.507   0.064 -0.4765  0.0182 -0.2295
 7238TIP3    H121678   2.324   4.438   0.039 -0.1924 -0.1634 -0.4211
 7238TIP3    H221679   2.467   4.462   0.084 -0.3984  0.2624  0.0151
 7239TIP3   OH221680   4.504   5.574   2.681 -0.1614  0.3840 -0.1165
 7239TIP3    H121681   4.510   5.485   2.647  1.6994 -0.5438  2.3083
 7239TIP3    H221682   4.595   5.603   2.685 -0.7371  2.4603 -0.8852
 7240TIP3   OH221683   6.220   0.211   2.343 -0.1392 -0.3387 -0.0287
 7240TIP3    H121684   6.259   0.291   2.377 -0.0944 -0.4949  0.2867
 7240TIP3    H221685   6.127   0.217   2.367 -0.1385 -0.3778 -0.0161
 7241TIP3   OH221686   5.793   1.214   1.779  0.0436  0.1909 -0.2672
 7241TIP3    H121687   5.806   1.123   1.805 -0.7510 -0.0018 -0.4974
 7241TIP3    H221688   5.876   1.241   1.740  0.2413 -0.4792 -0.3143
 7242TIP3   OH221689   4.262   2.594   5.774  0.1756  0.1573  0.2913
 7242TIP3    H121690   4.314   2.532   5.826  0.1082  1.1407  1.5908
 7242TIP3    H221691   4.227   2.655   5.838 -0.8087  0.7988 -0.8214
 7243TIP3   OH221692   5.892   3.537   5.010  0.5229 -0.1059  0.2097
 7243TIP3    H121693   5.801   3.567   5.017  0.5572 -0.3575  3.2950
 7243TIP3    H221694   5.933   3.597   4.949 -1.0927  1.6864  0.7923
 7244TIP3   OH221695   5.625   1.433   5.117 -0.2119  0.8563 -0.0869
 7244TIP3    H121696   5.717   1.433   5.089  0.9789 -1.1738  3.2301
 7244TIP3    H221697   5.583   1.369   5.059  1.0778 -0.0180 -0.1098
 7245TIP3   OH221698   1.859   0.009   2.562  0.3741  0.0517  0.0691
 7245TIP3    H121699   1.904  -0.064   2.605  1.4165  1.6148  1.8021
 7245TIP3    H221700   1.840   0.070   2.633 -3.6605 -0.0215 -0.7361
 7246TIP3   OH221701   0.074   5.591   5.341 -0.1621 -0.3366  0.3582
 7246TIP3    H121702   0.165   5.596   5.370  0.1250  0.3270 -0.6062
 7246TIP3    H221703   0.023   5.611   5.420  0.5045 -0.9976  0.9759
 7247TIP3   OH221704   3.274   6.777   3.265  0.3794  0.4496  0.0435
 7247TIP3    H121705   3.260   6.845   3.330 -0.0620  1.1645 -0.7881
 7247TIP3    H221706   3.363   6.793   3.233  1.2930 -0.9918  1.7063
 7248TIP3   OH221707   0.679   5.957   4.874 -0.2789  0.3300  0.3530
 7248TIP3    H121708   0.588   5.968   4.900  0.0677  0.0284  1.7973
 7248TIP3    H221709   0.695   6.028   4.812 -1.4026  0.5680  0.3180
 7249TIP3   OH221710   4.684   5.345   1.895 -0.3171 -0.2466 -0.5393
 7249TIP3    H121711   4.721   5.414   1.840  0.3306 -0.3471 -0.2417
 7249TIP3    H221712   4.597   5.377   1.918 -0.5748 -0.1764 -1.5590
 7250TIP3   OH221713   0.688   5.584   4.935 -0.0469 -0.5108 -0.0763
 7250TIP3    H121714   0.596   5.579   4.960 -0.2259 -0.0891 -0.6271
 7250TIP3    H221715   0.709   5.498   4.900 -0.2029 -0.6412  0.1511
 7251TIP3   OH221716   2.536   3.139   0.614  0.6646  0.3022  0.3105
 7251TIP3    H121717   2.542   3.180   0.528 -1.4188  0.4659  0.1951
 7251TIP3    H221718   2.482   3.061   0.599 -0.6353  0.9074  1.6281
 7252TIP3   OH221719   0.121   5.020   3.264 -0.4479  0.2311 -0.8596
 7252TIP3    H121720   0.033   5.035   3.228 -2.5302  0.0897  3.5614
 7252TIP3    H221721   0.135   5.094   3.323  1.2879 -1.0618  0.4282
 7253TIP3   OH221722   3.066   2.021   5.193  0.2898 -0.0669 -0.5162
 7253TIP3    H121723   3.008   2.063   5.257  0.6710 -0.9074  0.4154
 7253TIP3    H221724   3.007   1.990   5.124 -0.4592 -1.2563  0.6084
 7254TIP3   OH221725   6.214   3.342   0.310  0.6268 -0.1917 -0.2312
 7254TIP3    H121726   6.235   3.272   0.372  0.0276  0.9567  1.3371
 7254TIP3    H221727   6.287   3.404   0.318  1.0944 -0.5515 -1.5192
 7255TIP3   OH221728   4.927   5.823   3.419  0.0995  0.1307 -0.1236
 7255TIP3    H121729   4.905   5.885   3.488  0.6143  0.3757 -0.1691
 7255TIP3    H221730   4.869   5.846   3.346  1.3646  1.6247 -0.7121
 7256TIP3   OH221731   3.690   2.650   4.446 -0.9120  0.3071  0.1588
 7256TIP3    H121732   3.734   2.627   4.529  0.9724 -0.0777 -0.8779
 7256TIP3    H221733   3.641   2.571   4.423 -2.3292  0.7789  1.3966
 7257TIP3   OH221734   2.976   5.407   0.655  0.1248  0.5547  0.0170
 7257TIP3    H121735   3.038   5.416   0.583 -0.7701  0.7470 -0.7598
 7257TIP3    H221736   2.907   5.471   0.636 -0.2710  0.4079  0.8904
 7258TIP3   OH221737   6.560   5.212   0.417 -0.7413 -0.3806 -0.3086
 7258TIP3    H121738   6.565   5.302   0.449 -1.4162 -0.4599  0.0477
 7258TIP3    H221739   6.595   5.159   0.488 -0.5622 -0.4175 -0.4240
 7259TIP3   OH221740   6.268   1.940   1.452  0.1565  0.1205  0.2090
 7259TIP3    H121741   6.174   1.955   1.455 -0.1720 -1.6343 -0.3360
 7259TIP3    H221742   6.282   1.857   1.497  0.9293 -1.5293 -2.7505
 7260TIP3   OH221743   5.700   6.070   3.722 -0.5313  0.2037  0.0432
 7260TIP3    H121744   5.703   6.078   3.627  2.3955  0.5650  0.0693
 7260TIP3    H221745   5.706   5.975   3.738 -2.1589  0.0462 -0.0765
 7261TIP3   OH221746   5.898   1.139   3.544 -0.0469 -0.2982 -0.6540
 7261TIP3    H121747   5.943   1.057   3.567  0.4602 -0.2149 -1.3022
 7261TIP3    H221748   5.929   1.203   3.608  0.5954 -0.2956 -0.9623
 7262TIP3   OH221749   4.826   5.971   3.126  0.5117  0.4030  0.3007
 7262TIP3    H121750   4.783   6.056   3.129  0.8544  0.6850 -1.6944
 7262TIP3    H221751   4.753   5.908   3.130 -0.0012  0.8537 -1.2177
 7263TIP3   OH221752   5.275   4.353   2.797  0.4868  0.2056  0.5667
 7263TIP3    H121753   5.184   4.378   2.814  0.6975  4.1299 -2.5365
 7263TIP3    H221754   5.271   4.301   2.717  0.9206 -1.0550  1.3355
 7264TIP3   OH221755   0.338   6.084   2.837  0.6369  0.3417  0.1659
 7264TIP3    H121756   0.322   6.084   2.931  1.9109 -0.9499  0.4154
 7264TIP3    H221757   0.386   6.165   2.820  0.6808  0.4226  0.6781
 7265TIP3   OH221758   1.409   0.040   2.627 -0.0163 -0.1112  0.2496
 7265TIP3    H121759   1.474   0.003   2.688  0.2779 -1.1932 -0.6900
 7265TIP3    H221760   1.408   0.133   2.648  0.0857 -0.4399  1.8957
 7266TIP3   OH221761   3.250   1.923  -0.001  0.4429 -0.2671  0.0458
 7266TIP3    H121762   3.243   1.861   0.071  0.5115 -0.8070 -0.4045
 7266TIP3    H221763   3.322   1.981   0.024 -2.0331  2.1068  2.2805
 7267TIP3   OH221764   1.189   0.330   3.808  0.1437  0.2153 -0.2429
 7267TIP3    H121765   1.269   0.372   3.840  1.3502 -3.4641  2.2268
 7267TIP3    H221766   1.129   0.334   3.882  0.4291 -2.4546  0.2152
 7268TIP3   OH221767   4.156   6.420   0.416 -0.0821 -0.4054 -0.4786
 7268TIP3    H121768   4.158   6.336   0.462  0.3161 -0.9478 -1.4502
 7268TIP3    H221769   4.095   6.474   0.466 -1.6794 -1.8419 -0.7970
 7269TIP3   OH221770   1.746   2.381   0.502 -0.1052  0.3633 -0.8315
 7269TIP3    H121771   1.741   2.401   0.595 -2.7399  0.0808 -0.8475
 7269TIP3    H221772   1.668   2.421   0.464  0.4560 -0.2543 -2.7925
 7270TIP3   OH221773   0.133   2.195   2.835 -0.1228  0.4796  0.3805
 7270TIP3    H121774   0.140   2.101   2.818  0.8996  0.7186 -0.7487
 7270TIP3    H221775   0.161   2.205   2.925  0.8707 -0.1958  0.1665
 7271TIP3   OH221776   0.017   4.808   0.827  0.1749  0.6327 -0.3791
 7271TIP3    H121777   0.105   4.844   0.832  1.2444 -1.6324 -1.4448
 7271TIP3    H221778  -0.002   4.805   0.733 -0.2183 -0.7242 -0.2707
 7272TIP3   OH221779   0.037   3.211   2.575 -0.5719 -0.0820 -0.1049
 7272TIP3    H121780  -0.034   3.178   2.520 -2.3778  1.5369  1.0879
 7272TIP3    H221781   0.103   3.244   2.514 -1.4133 -0.5270 -1.2693
 7273TIP3   OH221782   1.494   1.168   4.496  0.0342 -0.6008  0.0229
 7273TIP3    H121783   1.508   1.243   4.553 -0.1793  0.7093 -1.5714
 7273TIP3    H221784   1.500   1.092   4.554  2.9574  0.4355  1.2943
 7274TIP3   OH221785   5.759   4.365   1.054 -0.0749 -0.3533  0.6838
 7274TIP3    H121786   5.700   4.441   1.049 -0.1558 -0.4651 -3.6628
 7274TIP3    H221787   5.846   4.404   1.058 -0.1758 -0.1928  3.3413
 7275TIP3   OH221788   1.275   2.434   1.944 -0.6183 -0.1040 -0.1844
 7275TIP3    H121789   1.368   2.457   1.940 -0.3924 -0.8263  0.5672
 7275TIP3    H221790   1.266   2.360   1.884 -0.9617  0.6842 -1.1440
 7276TIP3   OH221791   6.004   0.326   2.902 -0.0006  0.1040 -0.0278
 7276TIP3    H121792   5.945   0.255   2.875 -0.7790  0.4639  0.6641
 7276TIP3    H221793   6.081   0.282   2.938 -0.4659 -0.3967  0.3667
 7277TIP3   OH221794   6.220   3.908   1.385  0.3012  0.0802  0.4117
 7277TIP3    H121795   6.238   3.998   1.410  0.7199 -0.0133  0.4646
 7277TIP3    H221796   6.128   3.894   1.404  0.0487  0.7285 -0.2866
 7278TIP3   OH221797   2.055   3.138   0.959 -0.3047 -0.5535 -0.6474
 7278TIP3    H121798   2.066   3.177   0.872 -0.3387 -0.8054 -0.7648
 7278TIP3    H221799   2.111   3.060   0.957 -0.1143 -0.4256 -0.3589
 7279TIP3   OH221800   6.676   4.130   4.735  0.0625  0.2017 -0.0337
 7279TIP3    H121801   6.679   4.045   4.691 -1.6554  0.5412 -0.8896
 7279TIP3    H221802   6.692   4.194   4.666 -0.0770  0.6281  0.3208
 7280TIP3   OH221803   4.731   0.518   3.873  0.0161 -0.2768  0.3042
 7280TIP3    H121804   4.741   0.543   3.781  0.6831 -1.1179  0.1376
 7280TIP3    H221805   4.763   0.428   3.877 -3.4475 -1.6565  0.6126
 7281TIP3   OH221806   1.736   2.006   4.843 -0.5346  0.6318  0.0278
 7281TIP3    H121807   1.821   2.006   4.798  0.0366  1.2060  1.0907
 7281TIP3    H221808   1.739   1.930   4.900  0.0198  1.6579  1.4214
 7282TIP3   OH221809   4.392   1.705   3.440 -0.5719 -0.4184 -0.1238
 7282TIP3    H121810   4.375   1.736   3.351 -1.1724  0.2026  0.1960
 7282TIP3    H221811   4.401   1.784   3.492 -0.1834 -0.7758  0.3645
 7283TIP3   OH221812   1.430   1.956   3.471 -0.8742  0.5007 -0.0907
 7283TIP3    H121813   1.370   1.881   3.467  0.2172 -0.4466  0.7944
 7283TIP3    H221814   1.434   1.980   3.563  0.5539  0.1680 -0.0455
 7284TIP3   OH221815   3.169   3.648   0.095 -0.8173  0.3882  0.4815
 7284TIP3    H121816   3.241   3.655   0.033 -1.5205  1.6150 -0.2304
 7284TIP3    H221817   3.187   3.715   0.161 -0.8211  0.0463  0.8421
 7285TIP3   OH221818   2.699   2.977   4.936  0.0656 -0.0349  0.0626
 7285TIP3    H121819   2.640   2.931   4.876  0.1879 -0.3573  0.1902
 7285TIP3    H221820   2.732   3.051   4.885 -1.5668  0.9946  0.4358
 7286TIP3   OH221821   2.506   0.319   5.600  0.0957  0.3019 -0.2886
 7286TIP3    H121822   2.571   0.344   5.666 -0.3361 -1.3393  0.8380
 7286TIP3    H221823   2.422   0.331   5.644 -0.2449  0.1592 -0.8958
 7287TIP3   OH221824   3.620   6.560   2.259 -0.5882 -0.5386 -0.6787
 7287TIP3    H121825   3.684   6.589   2.323  0.7381 -0.4460 -1.9886
 7287TIP3    H221826   3.539   6.606   2.283 -0.5413 -1.5593  1.7101
 7288TIP3   OH221827   1.664   4.722   3.721  0.1801  0.1557  0.4506
 7288TIP3    H121828   1.610   4.754   3.649  0.7674 -1.6742 -0.8745
 7288TIP3    H221829   1.619   4.751   3.800 -1.1024  1.2284 -0.6347
 7289TIP3   OH221830   1.831   5.788   1.959 -0.1375  0.9720 -0.3908
 7289TIP3    H121831   1.832   5.788   2.054 -1.3719  0.1246 -0.3503
 7289TIP3    H221832   1.899   5.850   1.934  1.6904 -0.3378  1.0165
 7290TIP3   OH221833   6.102   6.263   2.752  0.1703 -0.3952  0.0251
 7290TIP3    H121834   6.088   6.281   2.845 -0.4694 -0.5464 -0.0337
 7290TIP3    H221835   6.144   6.342   2.718  0.0524 -0.1841  0.3643
 7291TIP3   OH221836   4.885   5.920   2.861  0.0562  0.0079  0.5390
 7291TIP3    H121837   4.909   6.002   2.817 -1.0147  0.2769  0.4153
 7291TIP3    H221838   4.873   5.944   2.953  0.6284 -0.1986  0.6677
 7292TIP3   OH221839   6.970   2.059   1.385  0.2248  0.2695 -0.6133
 7292TIP3    H121840   6.963   2.062   1.290  0.0072 -1.0930 -0.6615
 7292TIP3    H221841   6.936   2.144   1.414  0.4837  0.7786 -1.7526
 7293TIP3   OH221842   4.317   1.895   1.774  0.2259 -0.4345  0.8247
 7293TIP3    H121843   4.270   1.954   1.832 -0.9398 -1.4692  0.9713
 7293TIP3    H221844   4.325   1.814   1.824  0.0866 -1.0179 -0.0866
 7294TIP3   OH221845   0.453   6.272   1.578  0.6112 -0.0727  0.1248
 7294TIP3    H121846   0.529   6.276   1.636  0.5230  2.0649  0.1644
 7294TIP3    H221847   0.478   6.324   1.502  0.0427 -1.3440 -0.9675
 7295TIP3   OH221848   5.110   0.737   4.792  0.3388  0.2007  0.6639
 7295TIP3    H121849   5.053   0.741   4.869 -1.1881  2.4410 -0.4703
 7295TIP3    H221850   5.063   0.787   4.725  2.7607  0.4846 -0.9503
 7296TIP3   OH221851   3.397   2.589   1.730 -0.0955  0.0065  0.2895
 7296TIP3    H121852   3.310   2.581   1.769 -0.0523 -0.8188  0.2480
 7296TIP3    H221853   3.426   2.677   1.752  0.0872 -0.5338  2.4501
 7297TIP3   OH221854   4.816   5.468   2.775 -0.1033  0.4967 -0.1450
 7297TIP3    H121855   4.896   5.488   2.822  0.5383  0.9968 -1.3882
 7297TIP3    H221856   4.801   5.545   2.720 -2.3653  1.1504  1.2384
 7298TIP3   OH221857   4.125   1.765   5.848  0.5155  0.1840 -0.6971
 7298TIP3    H121858   4.074   1.831   5.801 -0.1311  0.8338  0.8777
 7298TIP3    H221859   4.120   1.687   5.793 -3.4717 -0.2875  0.0528
 7299TIP3   OH221860   4.274   1.651   3.927 -0.3518  0.1710 -0.2877
 7299TIP3    H121861   4.271   1.654   3.832  1.4335  0.1950 -0.3725
 7299TIP3    H221862   4.236   1.566   3.950  0.4857 -0.4314 -1.1023
 7300TIP3   OH221863   7.099   5.902   4.903 -0.3427  0.2343 -0.0587
 7300TIP3    H121864   7.075   5.821   4.948  0.8611  0.0554  0.2959
 7300TIP3    H221865   7.048   5.970   4.947  1.0519  0.1202  1.8651
 7301TIP3   OH221866   5.162   5.939   0.329 -0.1286  0.0062  0.8177
 7301TIP3    H121867   5.185   5.963   0.418  1.2052  0.2315  0.4251
 7301TIP3    H221868   5.182   6.017   0.277  1.4729 -0.9378 -0.0339
 7302TIP3   OH221869   4.884   4.143   4.570  0.7476  0.1785  0.0066
 7302TIP3    H121870   4.849   4.224   4.607  0.8985  0.8668 -1.3241
 7302TIP3    H221871   4.925   4.099   4.645 -0.5984  0.6210  1.0420
 7303TIP3   OH221872   3.188   5.065   1.952 -0.1091  0.3891 -0.1200
 7303TIP3    H121873   3.145   4.991   1.908 -1.3307  0.9702  0.0320
 7303TIP3    H221874   3.144   5.142   1.916  1.1456  1.0500 -0.2771
 7304TIP3   OH221875   5.617   5.710   0.436 -0.2873  0.0641  0.3770
 7304TIP3    H121876   5.685   5.646   0.415  1.0290  0.9449  1.7574
 7304TIP3    H221877   5.594   5.691   0.527 -0.7479  0.7932  0.4194
 7305TIP3   OH221878   1.381   6.129   3.818 -0.4868 -0.2176  0.3980
 7305TIP3    H121879   1.374   6.200   3.755 -0.3769 -1.3047 -0.8972
 7305TIP3    H221880   1.383   6.049   3.764  2.1387 -1.0872  1.6208
 7306TIP3   OH221881   5.077   5.879   3.759  0.0866 -0.1421  0.0964
 7306TIP3    H121882   5.136   5.945   3.721  0.7091 -0.3691  0.6408
 7306TIP3    H221883   5.041   5.921   3.837  0.2467 -0.3326  0.2745
 7307TIP3   OH221884   3.440   6.652   3.475 -0.4146  0.0231  0.0763
 7307TIP3    H121885   3.522   6.700   3.463 -1.1813  1.6472  0.9836
 7307TIP3    H221886   3.379   6.694   3.414 -0.2400 -2.2106 -1.7836
 7308TIP3   OH221887   6.058   4.975   1.023 -0.1932 -0.1535  0.3663
 7308TIP3    H121888   6.085   4.985   0.932  0.1629  1.3601  0.6162
 7308TIP3    H221889   6.015   5.057   1.045 -0.1324 -0.4306  1.6209
 7309TIP3   OH221890   1.331   4.621   3.096  0.2757 -0.0019 -0.4169
 7309TIP3    H121891   1.249   4.591   3.136  0.0095  0.6645 -0.4571
 7309TIP3    H221892   1.332   4.580   3.010 -0.3164  0.4817 -0.6592
 7310TIP3   OH221893   4.697   0.914   3.401  0.1577 -0.4110 -0.2656
 7310TIP3    H121894   4.791   0.926   3.409  0.2652 -0.8578 -0.8012
 7310TIP3    H221895   4.681   0.906   3.307 -0.7787  2.4280 -0.4417
 7311TIP3   OH221896   3.001   0.164   1.895 -0.1178  0.2793  0.2954
 7311TIP3    H121897   3.048   0.212   1.964  0.0966 -0.1029  0.4219
 7311TIP3    H221898   2.920   0.213   1.883  0.4827  1.1752 -0.2058
 7312TIP3   OH221899   2.294   3.686   5.760  0.8413  0.4395 -0.1550
 7312TIP3    H121900   2.226   3.752   5.753  1.4478  0.9478 -1.8323
 7312TIP3    H221901   2.250   3.609   5.796 -0.1788  1.3143  0.5233
 7313TIP3   OH221902   4.137   3.166   4.160 -0.3509 -0.3821 -0.6111
 7313TIP3    H121903   4.072   3.162   4.090  1.3596 -0.5462 -2.2318
 7313TIP3    H221904   4.181   3.250   4.147 -0.5034 -0.0605  0.7694
 7314TIP3   OH221905   3.965   3.983   1.946  0.2478  0.0671  0.0470
 7314TIP3    H121906   4.016   3.958   1.868  0.3821 -0.0649  0.1760
 7314TIP3    H221907   4.029   3.985   2.017  0.1118  0.1174  0.1688
 7315TIP3   OH221908   6.618   1.967  -0.006  0.0014  0.0738 -0.0199
 7315TIP3    H121909   6.709   1.962   0.023 -0.3445 -0.7647  0.9997
 7315TIP3    H221910   6.571   1.910   0.054 -0.9355 -0.9086 -1.6286
 7316TIP3   OH221911   3.745   3.155   0.272  0.0077  0.7681  0.6893
 7316TIP3    H121912   3.766   3.202   0.353  1.3758  0.8719  0.2984
 7316TIP3    H221913   3.684   3.213   0.226 -1.5115  0.2866  2.0442
 7317TIP3   OH221914   6.839   3.207   1.787  0.0147  0.2091 -0.0702
 7317TIP3    H121915   6.872   3.267   1.854  0.2362 -0.3145  0.2916
 7317TIP3    H221916   6.808   3.131   1.836 -0.5919  0.1697 -0.5011
 7318TIP3   OH221917   4.819   2.889   0.502  0.0472 -0.4502  0.5495
 7318TIP3    H121918   4.778   2.961   0.549 -2.1523 -1.4417  0.2688
 7318TIP3    H221919   4.847   2.828   0.571 -1.3487 -0.9667  0.6852
 7319TIP3   OH221920   0.733   2.976   5.016 -0.2040  0.3958  0.6627
 7319TIP3    H121921   0.642   2.976   5.047 -0.2224  1.0454  0.6297
 7319TIP3    H221922   0.736   2.903   4.954 -1.4130  1.8548 -1.2580
 7320TIP3   OH221923   3.625   5.440   3.666 -0.0564  0.5215  0.4844
 7320TIP3    H121924   3.571   5.361   3.666  0.5068  0.0853 -1.5781
 7320TIP3    H221925   3.564   5.511   3.685 -1.0989 -0.1108 -0.3675
 7321TIP3   OH221926   0.714   0.534   4.739  0.8097  0.0007 -0.3186
 7321TIP3    H121927   0.762   0.521   4.821  0.6649  0.0420 -0.2275
 7321TIP3    H221928   0.624   0.553   4.766  0.9770  1.0646 -0.4508
 7322TIP3   OH221929   4.130   4.690   1.943  0.2189  0.2159  0.5060
 7322TIP3    H121930   4.086   4.762   1.989 -0.3786 -1.0623  2.0457
 7322TIP3    H221931   4.079   4.612   1.966  0.2096 -0.5989 -1.9708
 7323TIP3   OH221932   5.431   4.598   4.219 -0.1864 -0.3243  0.0322
 7323TIP3    H121933   5.448   4.549   4.138  0.5781  0.8052 -0.5249
 7323TIP3    H221934   5.511   4.589   4.270  0.4065  1.1968 -0.5602
 7324TIP3   OH221935   4.251   1.606   3.661 -0.0274 -0.2735 -0.2225
 7324TIP3    H121936   4.181   1.579   3.602 -1.2247  1.0850  0.5258
 7324TIP3    H221937   4.311   1.656   3.605 -0.4858 -0.0748 -0.5411
 7325TIP3   OH221938   0.245   1.318   4.586 -0.0303  0.1041 -0.4025
 7325TIP3    H121939   0.289   1.340   4.505  1.1720 -1.4794 -0.2107
 7325TIP3    H221940   0.200   1.235   4.569 -2.2896  1.2164 -0.3220
 7326TIP3   OH221941   0.483   5.577   5.261 -0.3955  0.6781 -0.0597
 7326TIP3    H121942   0.421   5.618   5.321 -1.6861 -2.5832  1.0888
 7326TIP3    H221943   0.543   5.528   5.317  1.3137  1.2439 -1.3094
 7327TIP3   OH221944   1.775   4.217   5.293  0.3651  0.5272  0.7074
 7327TIP3    H121945   1.799   4.143   5.348 -3.1056 -1.2151  0.1780
 7327TIP3    H221946   1.709   4.264   5.344  0.6807  1.7834 -0.0134
 7328TIP3   OH221947   7.091   3.951   5.339  0.2548  0.1629 -0.1409
 7328TIP3    H121948   7.169   3.911   5.377 -0.4366 -0.9725  0.1283
 7328TIP3    H221949   7.125   4.020   5.282  1.4519 -0.3453 -0.0737
 7329TIP3   OH221950   6.145   0.452   5.769  0.4504 -0.5104  0.0468
 7329TIP3    H121951   6.198   0.375   5.793  0.3246 -0.0879  1.8207
 7329TIP3    H221952   6.167   0.467   5.677  1.4001 -1.9393 -0.0103
 7330TIP3   OH221953   0.651   5.821   0.914 -0.4446  0.2242 -0.1828
 7330TIP3    H121954   0.699   5.756   0.965 -2.1449 -0.6085  0.4423
 7330TIP3    H221955   0.687   5.814   0.826  0.3260 -0.6177  0.1861
 7331TIP3   OH221956   5.123   6.737   0.203 -0.0135 -0.0584  0.0691
 7331TIP3    H121957   5.181   6.661   0.209 -0.0142 -0.2981 -2.0442
 7331TIP3    H221958   5.162   6.802   0.261  1.0516 -1.0086  0.4668
 7332TIP3   OH221959   6.929   6.636   0.313  0.1625 -0.2275 -0.0123
 7332TIP3    H121960   6.965   6.723   0.298  0.8836 -0.7299 -1.3018
 7332TIP3    H221961   6.839   6.652   0.342  0.1424  0.9358 -0.6799
 7333TIP3   OH221962   3.091   0.436   2.858  0.0257 -0.3891  0.2295
 7333TIP3    H121963   3.065   0.412   2.947  0.3092 -1.2335  0.0874
 7333TIP3    H221964   3.185   0.418   2.855 -0.0741 -0.8080 -0.3905
 7334TIP3   OH221965   1.237   3.191   1.857 -0.7145  0.3157 -0.3597
 7334TIP3    H121966   1.290   3.117   1.828 -0.1523  0.4114  0.3890
 7334TIP3    H221967   1.301   3.255   1.889 -1.2334  0.8036 -0.2906
 7335TIP3   OH221968   4.435   0.298   3.976  0.3157 -0.5195  0.0582
 7335TIP3    H121969   4.419   0.205   3.991 -0.0922 -0.8662 -2.2174
 7335TIP3    H221970   4.463   0.304   3.885  0.6100  1.5686  0.2277
 7336TIP3   OH221971   1.733   4.629   5.530  0.4871 -0.0547 -0.1027
 7336TIP3    H121972   1.664   4.688   5.499 -0.4738 -1.1880 -0.1471
 7336TIP3    H221973   1.813   4.681   5.522 -0.5563  2.0470  1.9101
 7337TIP3   OH221974   6.321   1.654   0.742 -0.6473 -0.6098 -0.3499
 7337TIP3    H121975   6.242   1.689   0.782  0.4749  2.2613 -0.3943
 7337TIP3    H221976   6.306   1.661   0.647  0.7703  3.3256 -0.4862
 7338TIP3   OH221977   2.365   4.251   5.176  0.2426 -0.0141 -0.4864
 7338TIP3    H121978   2.319   4.175   5.213  2.1640 -0.4794  1.1358
 7338TIP3    H221979   2.456   4.222   5.169  0.7355  1.6382 -1.3751
 7339TIP3   OH221980   0.936   2.586   0.897 -0.2926  0.5490 -0.0980
 7339TIP3    H121981   0.866   2.531   0.932 -1.4150  1.8064 -0.2679
 7339TIP3    H221982   1.000   2.591   0.968 -0.1825 -0.9169 -0.0749
 7340TIP3   OH221983   0.484   2.411   3.524 -0.0507 -0.2505 -0.1156
 7340TIP3    H121984   0.515   2.500   3.508  1.2502 -0.6968 -0.1831
 7340TIP3    H221985   0.391   2.421   3.544 -0.5061  0.8955 -2.4584
 7341TIP3   OH221986   5.286   4.925   2.855 -0.2747  0.0168  0.4541
 7341TIP3    H121987   5.312   4.992   2.918 -1.5407  0.2428  0.7691
 7341TIP3    H221988   5.366   4.876   2.837  0.6128  1.4587  0.3967
 7342TIP3   OH221989   6.037   1.444   0.628  0.1752 -0.3918  0.3546
 7342TIP3    H121990   6.012   1.517   0.571 -1.1608 -0.9359  0.2099
 7342TIP3    H221991   6.020   1.476   0.716  0.4978 -0.1944  0.3459
 7343TIP3   OH221992   5.448   3.983   4.400  0.6757 -0.0612 -0.1745
 7343TIP3    H121993   5.505   4.008   4.328  1.5609  0.8105  0.7956
 7343TIP3    H221994   5.505   3.941   4.464  0.0418 -0.1977  0.3208
 7344TIP3   OH221995   0.654   5.985   0.126 -0.1675  0.5848  0.0232
 7344TIP3    H121996   0.647   6.041   0.203 -1.6766  0.0481  0.3061
 7344TIP3    H221997   0.721   6.028   0.072 -0.2265  1.8438  0.8932
 7345TIP3   OH221998   3.954   3.547   0.937 -0.0143  0.0534 -0.6669
 7345TIP3    H121999   3.960   3.539   1.032 -0.8439 -0.5330 -0.6433
 7345TIP3    H222000   4.018   3.614   0.914 -0.7290  1.1633  0.4430
 7346TIP3   OH222001   3.806   5.858   5.113  0.4708 -0.4832 -0.4410
 7346TIP3    H122002   3.813   5.937   5.168 -1.1333  0.3140 -1.2907
 7346TIP3    H222003   3.793   5.787   5.176  2.0042 -0.1087  0.3503
 7347TIP3   OH222004   6.283   1.765   3.570 -0.0279  0.5877  0.0946
 7347TIP3    H122005   6.224   1.690   3.582 -0.7668  0.6179 -2.5523
 7347TIP3    H222006   6.263   1.824   3.643 -4.2597  1.1123 -1.2032
 7348TIP3   OH222007   5.333   1.907   4.215  0.4268 -0.4801  0.0321
 7348TIP3    H122008   5.324   1.885   4.308  1.5692  0.1836  0.3160
 7348TIP3    H222009   5.420   1.875   4.190  0.2494 -0.3961 -0.7362
 7349TIP3   OH222010   3.246   6.531   5.541 -0.0607 -0.3805  0.5518
 7349TIP3    H122011   3.167   6.515   5.489 -0.7012  1.3904  0.9185
 7349TIP3    H222012   3.217   6.518   5.631  0.3619 -0.8047  0.6285
 7350TIP3   OH222013   3.406   3.692   0.875  0.1131 -0.1518  0.2217
 7350TIP3    H122014   3.337   3.652   0.928 -2.0133  1.6852 -0.9859
 7350TIP3    H222015   3.439   3.764   0.930 -0.0663 -0.0459  0.1925
 7351TIP3   OH222016   5.348   1.861   1.182 -0.2511 -0.5218 -0.4597
 7351TIP3    H122017   5.341   1.898   1.270 -2.9226  0.9306 -1.1621
 7351TIP3    H222018   5.272   1.804   1.174  0.4800 -1.3920 -1.5331
 7352TIP3   OH222019   2.049   3.683   1.710  0.5680 -0.1307 -0.2821
 7352TIP3    H122020   2.020   3.743   1.778  0.0126  1.2163 -1.6641
 7352TIP3    H222021   2.139   3.710   1.691  0.1067  0.7158 -1.3479
 7353TIP3   OH222022   6.878   3.242   1.022  0.4398  0.4514 -0.1963
 7353TIP3    H122023   6.858   3.162   0.972 -1.2803  1.2997 -0.9419
 7353TIP3    H222024   6.923   3.298   0.959 -1.7657  1.5376 -0.8965
 7354TIP3   OH222025   2.789   2.642   1.137  0.5032 -0.3624 -0.4113
 7354TIP3    H122026   2.852   2.680   1.198  0.0150 -1.5615  0.9037
 7354TIP3    H222027   2.734   2.716   1.109 -1.0434 -0.1379  2.8037
 7355TIP3   OH222028   2.568   1.448   2.840  0.3671 -0.5988 -0.3640
 7355TIP3    H122029   2.508   1.390   2.795  0.4104 -1.7854  1.0226
 7355TIP3    H222030   2.515   1.486   2.911  0.2151  1.4370 -1.4946
 7356TIP3   OH222031   1.054   5.883   3.308 -0.6696  0.1173 -0.8408
 7356TIP3    H122032   1.110   5.861   3.382 -1.8965 -1.0505 -0.2094
 7356TIP3    H222033   1.108   5.866   3.231  0.5694  1.1975 -0.2498
 7357TIP3   OH222034   4.517   4.984   5.664  0.3153 -0.1241  0.5463
 7357TIP3    H122035   4.599   4.937   5.648  0.0865 -0.5805  0.6971
 7357TIP3    H222036   4.491   4.960   5.753 -0.7612 -1.2066 -0.0246
 7358TIP3   OH222037   4.320   3.708   2.815 -0.3542  0.2102  0.2841
 7358TIP3    H122038   4.391   3.688   2.877  0.5655  2.4039  0.0181
 7358TIP3    H222039   4.361   3.703   2.729 -1.4665 -2.1313 -0.1847
 7359TIP3   OH222040   0.181   5.879   1.026  0.0678 -0.1464  0.5071
 7359TIP3    H122041   0.207   5.923   1.107  1.8607 -0.3556  0.1014
 7359TIP3    H222042   0.149   5.949   0.969 -1.8924 -0.0882  1.5985
 7360TIP3   OH222043   3.443   2.708   5.233 -0.9175 -0.1884  0.0920
 7360TIP3    H122044   3.442   2.658   5.314 -1.0118 -0.2743  0.0376
 7360TIP3    H222045   3.426   2.798   5.260  0.0727 -0.0514  0.2833
 7361TIP3   OH222046   2.702   5.528   5.013 -0.7660  0.6020 -0.5560
 7361TIP3    H122047   2.780   5.476   5.031  0.0921  1.8105 -0.6556
 7361TIP3    H222048   2.657   5.535   5.097 -1.3821 -1.0030 -0.7069
 7362TIP3   OH222049   6.798   6.319   0.799 -0.5222 -0.2358 -0.1194
 7362TIP3    H122050   6.835   6.377   0.865  0.9546  0.2753 -1.3477
 7362TIP3    H222051   6.859   6.323   0.726 -2.3288 -0.4287 -1.7260
 7363TIP3   OH222052   4.075   3.717   1.460 -0.3351 -0.0948  0.2162
 7363TIP3    H122053   4.023   3.792   1.431  0.8492  0.6255 -0.1215
 7363TIP3    H222054   4.158   3.725   1.413  0.1093 -1.1864  0.7661
 7364TIP3   OH222055   3.871   6.039   1.756 -0.6078 -0.7629 -0.3028
 7364TIP3    H122056   3.894   6.101   1.687 -1.9523  0.1525  0.0192
 7364TIP3    H222057   3.862   6.093   1.835 -2.1342 -1.2689 -0.0902
 7365TIP3   OH222058   7.224   0.333   4.567  0.3543 -0.0076 -0.5104
 7365TIP3    H122059   7.212   0.240   4.587  0.0695  0.1408  0.0327
 7365TIP3    H222060   7.135   0.369   4.564  0.5132  0.6394  1.2914
 7366TIP3   OH222061   6.602   3.206   2.874  0.4211 -0.1420 -0.2781
 7366TIP3    H122062   6.562   3.246   2.797  0.9165  0.8229 -0.0456
 7366TIP3    H222063   6.529   3.172   2.925 -0.1012  1.5154  0.1068
 7367TIP3   OH222064   1.948   3.390   2.317  0.3166  0.8488  0.2670
 7367TIP3    H122065   1.975   3.437   2.239 -1.0560 -0.0523 -0.8066
 7367TIP3    H222066   2.028   3.379   2.368  1.5282  0.2999 -1.6433
 7368TIP3   OH222067   0.970   2.480   0.037  0.2460  0.0435 -0.3568
 7368TIP3    H122068   0.938   2.434   0.115  0.6726  0.7315  0.2339
 7368TIP3    H222069   1.065   2.479   0.046  0.2667  0.7722 -0.4965
 7369TIP3   OH222070   0.248   1.405   3.799 -0.0611  0.2267 -0.2240
 7369TIP3    H122071   0.157   1.385   3.819  0.1379  1.3807  2.3140
 7369TIP3    H222072   0.298   1.349   3.858  0.9215 -0.7528 -1.9352
 7370TIP3   OH222073   5.172   0.766   0.467  0.3448 -0.1061 -0.1774
 7370TIP3    H122074   5.261   0.798   0.457  0.2137  0.2157 -0.3206
 7370TIP3    H222075   5.173   0.679   0.427  0.3003  0.3863 -1.3037
 7371TIP3   OH222076   0.190   0.416   2.956  0.3887 -0.5241  0.2898
 7371TIP3    H122077   0.146   0.499   2.939  0.4407 -0.0343  2.2647
 7371TIP3    H222078   0.260   0.411   2.890 -1.1361 -0.2282 -1.4295
 7372TIP3   OH222079   2.349   5.692   5.557  0.3879  0.6261  0.3390
 7372TIP3    H122080   2.263   5.688   5.598 -0.3824 -0.2458 -1.2917
 7372TIP3    H222081   2.347   5.626   5.488  1.8891  1.5230 -0.6357
 7373TIP3   OH222082   2.408   2.548   4.560 -0.2821  0.3013  0.6100
 7373TIP3    H122083   2.388   2.464   4.601  0.8368  0.0284  0.6188
 7373TIP3    H222084   2.335   2.605   4.585 -0.7672 -0.5097  1.0659
 7374TIP3   OH222085   0.953   3.259   3.021  0.5719 -0.4419 -0.6615
 7374TIP3    H122086   0.877   3.289   2.970  0.1796 -1.5140 -0.7287
 7374TIP3    H222087   1.022   3.323   3.001 -0.1986  0.3381 -0.8892
 7375TIP3   OH222088   0.652   1.320   3.371 -0.2384  0.1317 -0.1344
 7375TIP3    H122089   0.666   1.339   3.464 -0.7641  1.1514 -0.2579
 7375TIP3    H222090   0.687   1.232   3.360  2.8169  1.1895  0.3184
 7376TIP3   OH222091   2.723   5.400   5.719  0.2465  0.4660 -0.0658
 7376TIP3    H122092   2.792   5.376   5.657 -0.2631 -0.2377 -0.3727
 7376TIP3    H222093   2.751   5.361   5.802  0.1968  0.1367 -0.2024
 7377TIP3   OH222094   1.187   1.240   1.350 -0.2125  0.0324 -0.1462
 7377TIP3    H122095   1.133   1.294   1.407 -1.2913  0.4714 -1.5151
 7377TIP3    H222096   1.248   1.301   1.309  0.7947 -0.3328  0.7599
 7378TIP3   OH222097   0.128   1.852   3.940 -0.1085 -0.4553  0.4747
 7378TIP3    H122098   0.201   1.861   3.879 -0.2508 -2.0476  0.0219
 7378TIP3    H222099   0.169   1.830   4.024  0.0039  0.2763  0.6191
 7379TIP3   OH222100   2.940   5.166   3.334 -0.0474  0.1337 -0.2113
 7379TIP3    H122101   2.931   5.229   3.263  0.1590 -0.9093 -1.1804
 7379TIP3    H222102   2.850   5.138   3.352  0.0562 -1.0588 -1.4249
 7380TIP3   OH222103   5.123   0.187   4.057 -0.2322 -0.6491 -0.0237
 7380TIP3    H122104   5.171   0.269   4.071  1.9530 -1.8508  0.0143
 7380TIP3    H222105   5.032   0.209   4.078  0.5546  1.3155  1.7960
 7381TIP3   OH222106   5.004   3.755   2.103  0.1626  0.1832 -0.4238
 7381TIP3    H122107   4.979   3.837   2.060 -0.8165  0.7633  1.1887
 7381TIP3    H222108   4.957   3.756   2.186  2.2266 -0.7342  0.8385
 7382TIP3   OH222109   4.722   3.363   4.235 -0.2249 -0.3291 -0.2562
 7382TIP3    H122110   4.815   3.356   4.214 -0.2584  1.2896 -1.1027
 7382TIP3    H222111   4.680   3.297   4.180  0.2044  0.5197 -1.6442
 7383TIP3   OH222112   6.677   2.215   5.605  0.1423 -0.3020  0.0769
 7383TIP3    H122113   6.624   2.293   5.589  1.2472  0.6558  0.8803
 7383TIP3    H222114   6.657   2.190   5.694  0.1158 -0.6774 -0.0339
 7384TIP3   OH222115   1.237   2.147   3.014 -0.7668  0.0704  0.1461
 7384TIP3    H122116   1.144   2.164   3.030 -0.8078 -1.3459  1.6101
 7384TIP3    H222117   1.278   2.154   3.100  0.1987 -1.0098 -0.1944
 7385TIP3   OH222118   5.518   4.246   0.884  0.3852  0.0226  0.5314
 7385TIP3    H122119   5.604   4.229   0.845 -0.4832  0.9172 -1.9674
 7385TIP3    H222120   5.515   4.340   0.897  1.0178 -0.3133  3.9402
 7386TIP3   OH222121   5.007   5.922   4.723 -0.1177  0.1867  0.1688
 7386TIP3    H122122   4.965   5.925   4.637  2.1119 -2.5880 -1.1890
 7386TIP3    H222123   4.969   5.846   4.766  0.2326  0.3556  0.7888
 7387TIP3   OH222124   7.054   0.722   2.188  0.0305  0.2321  0.5793
 7387TIP3    H122125   7.077   0.651   2.129 -2.0000 -0.1755  0.2002
 7387TIP3    H222126   7.041   0.798   2.131 -1.6350 -0.0882  0.4783
 7388TIP3   OH222127   1.125   2.164   5.559  0.1337 -0.1964  0.4840
 7388TIP3    H122128   1.216   2.194   5.557  0.1417 -0.2055  0.6790
 7388TIP3    H222129   1.110   2.139   5.651  0.4573 -1.7939  0.1180
 7389TIP3   OH222130   5.333   1.223   5.133 -0.2652  0.4762  0.1725
 7389TIP3    H122131   5.315   1.148   5.077  0.3984  0.0297  0.5488
 7389TIP3    H222132   5.328   1.298   5.074  0.5142  0.0038 -0.5162
 7390TIP3   OH222133   1.749   3.558   4.371 -0.1139  0.3017 -0.4602
 7390TIP3    H122134   1.761   3.496   4.299  1.5010  0.0861 -0.0430
 7390TIP3    H222135   1.711   3.636   4.330  0.5273  0.0776 -1.5137
 7391TIP3   OH222136   3.835   6.292   0.475  0.2983 -0.1533  0.1134
 7391TIP3    H122137   3.774   6.309   0.403  0.6659  0.5592 -0.0426
 7391TIP3    H222138   3.890   6.371   0.478 -0.8088  0.6031  2.2990
 7392TIP3   OH222139   6.481   3.570   5.347 -0.4266 -0.0023 -0.4831
 7392TIP3    H122140   6.544   3.552   5.278 -0.5459 -2.3125 -0.0601
 7392TIP3    H222141   6.535   3.583   5.425 -0.3882  0.2793 -0.5555
 7393TIP3   OH222142   3.932   3.622   4.209  0.2142 -0.4983 -0.3794
 7393TIP3    H122143   3.841   3.598   4.227 -0.8515  2.2737 -1.5879
 7393TIP3    H222144   3.938   3.714   4.233  2.0376  0.0085 -2.4681
 7394TIP3   OH222145   3.532   6.775   1.344 -0.4793  0.0696 -0.2817
 7394TIP3    H122146   3.474   6.822   1.284  0.2025  1.0014 -0.2338
 7394TIP3    H222147   3.578   6.712   1.288  0.4665  1.2197 -0.8637
 7395TIP3   OH222148   1.406   0.529   5.517  0.6360  0.2683  0.2105
 7395TIP3    H122149   1.367   0.592   5.578 -1.1107 -1.0937  0.5641
 7395TIP3    H222150   1.383   0.444   5.552  0.4648 -0.5659 -1.8109
 7396TIP3   OH222151   3.374   3.528   0.283  0.0308  0.0906 -0.2901
 7396TIP3    H122152   3.331   3.564   0.206 -0.6101 -0.6547 -0.2969
 7396TIP3    H222153   3.308   3.471   0.322  1.4009 -2.0504 -0.9503
 7397TIP3   OH222154   7.065   3.001   2.044  0.2629  0.6895 -0.5415
 7397TIP3    H122155   7.088   2.990   1.952 -0.7502  2.2852 -1.0408
 7397TIP3    H222156   7.145   3.031   2.086  1.2561 -1.8843 -0.4620
 7398TIP3   OH222157   1.465   1.155   3.049  0.5578 -0.1549 -0.5502
 7398TIP3    H122158   1.378   1.182   3.018 -0.6924 -1.6863  1.3385
 7398TIP3    H222159   1.474   1.198   3.134  0.7734 -1.5253  0.1454
 7399TIP3   OH222160   3.262   0.528   5.492  0.3760 -0.1584 -0.4288
 7399TIP3    H122161   3.286   0.452   5.545 -1.0300 -0.5758 -0.3475
 7399TIP3    H222162   3.240   0.492   5.406 -1.1032  0.0229 -0.1555
 7400TIP3   OH222163   1.652   5.597   5.509  0.1253 -0.5167  0.3050
 7400TIP3    H122164   1.590   5.643   5.566 -1.4082 -1.2654 -0.7114
 7400TIP3    H222165   1.737   5.610   5.552 -0.9237 -0.8740  2.6535
 7401TIP3   OH222166   5.209   5.563   4.537 -0.2160 -0.2392 -0.0268
 7401TIP3    H122167   5.117   5.545   4.554 -0.2685  0.9962  1.1587
 7401TIP3    H222168   5.210   5.601   4.449 -0.9659  0.6087  0.3151
 7402TIP3   OH222169   1.450   4.369   1.156  0.2311 -0.2714 -0.0186
 7402TIP3    H122170   1.495   4.377   1.072  1.8182 -0.5481  0.7816
 7402TIP3    H222171   1.357   4.363   1.133  0.6535 -0.5141 -1.7494
 7403TIP3   OH222172   1.529   1.197   4.195  0.0384  0.2775 -0.3996
 7403TIP3    H122173   1.473   1.194   4.118  0.2024 -0.2555 -0.5030
 7403TIP3    H222174   1.555   1.106   4.210  0.9224  0.5161 -0.3937
 7404TIP3   OH222175   4.049   4.731   2.669  0.1300  0.5076  0.7185
 7404TIP3    H122176   3.967   4.682   2.662  0.7962 -0.5022 -0.4003
 7404TIP3    H222177   4.106   4.693   2.601  1.7826  0.6508  1.9500
 7405TIP3   OH222178   6.126   4.187   3.858  0.6283  0.3475  0.2936
 7405TIP3    H122179   6.043   4.185   3.811  1.4149 -2.0936 -1.1626
 7405TIP3    H222180   6.110   4.134   3.937  0.3417  1.3585  0.9303
 7406TIP3   OH222181   1.068   5.497   1.226  0.6811  0.2295 -0.2749
 7406TIP3    H122182   1.065   5.459   1.314 -1.0106  0.3192 -0.2668
 7406TIP3    H222183   1.153   5.469   1.191 -0.5683 -4.0220 -0.4495
 7407TIP3   OH222184   3.211   4.636   1.847  0.1225 -0.0914  0.5349
 7407TIP3    H122185   3.223   4.595   1.761 -0.5682  2.6203 -0.9857
 7407TIP3    H222186   3.290   4.690   1.858 -0.3974  0.6049  0.9459
 7408TIP3   OH222187   5.808   0.222   4.873 -0.3104 -0.4923 -0.1077
 7408TIP3    H122188   5.851   0.274   4.942  2.1688 -2.7070  0.1829
 7408TIP3    H222189   5.802   0.282   4.799 -0.8711  1.2485  1.2645
 7409TIP3   OH222190   0.599   5.070   0.895  0.7304 -0.2369 -0.0398
 7409TIP3    H122191   0.540   5.053   0.821  1.4644 -1.4637 -0.3696
 7409TIP3    H222192   0.540   5.078   0.970  0.1711 -3.7391  0.0389
 7410TIP3   OH222193   1.996   6.016   1.746  0.2890  0.1751 -1.0793
 7410TIP3    H122194   1.995   6.093   1.803  1.8092 -0.2233 -0.4792
 7410TIP3    H222195   1.923   6.031   1.686 -1.2949  0.6844  0.8502
 7411TIP3   OH222196   0.010   5.998   4.418  0.3267  0.4888  0.6454
 7411TIP3    H122197  -0.008   5.963   4.505 -0.7441 -0.0896  0.2120
 7411TIP3    H222198   0.097   6.037   4.425 -0.2947  1.6962  2.3562
 7412TIP3   OH222199   0.330   4.672   1.675 -0.0502  0.3930  0.4229
 7412TIP3    H122200   0.415   4.635   1.698 -0.4820 -1.7941 -1.1612
 7412TIP3    H222201   0.351   4.757   1.635  1.1990  0.7245  1.6862
 7413TIP3   OH222202   2.898   4.679   4.935 -0.1229 -0.6919  0.3054
 7413TIP3    H122203   2.950   4.600   4.918 -1.2787 -1.4644  0.2287
 7413TIP3    H222204   2.950   4.730   4.997  0.4926 -1.6800  0.6141
 7414TIP3   OH222205   7.092   1.695   4.482 -0.1574 -0.1701 -0.7453
 7414TIP3    H122206   7.170   1.646   4.506 -0.2705 -0.2153 -0.4639
 7414TIP3    H222207   7.021   1.631   4.489 -0.5982  0.4839  1.5454
 7415TIP3   OH222208   5.902   0.648   1.050 -0.8355 -0.0830  0.1475
 7415TIP3    H122209   5.923   0.655   1.143 -2.1516  0.7135  0.4136
 7415TIP3    H222210   5.814   0.612   1.048 -0.3598 -1.2549 -0.8499
 7416TIP3   OH222211   0.896   5.759   4.873  0.1570  0.1982  0.2431
 7416TIP3    H122212   0.836   5.834   4.865  0.9833  0.8677  0.1528
 7416TIP3    H222213   0.846   5.694   4.923 -1.0010  0.3335 -0.6769
 7417TIP3   OH222214   5.756   3.412   5.682 -0.1138  0.0212  0.5276
 7417TIP3    H122215   5.691   3.363   5.733  1.0259 -0.7635  1.2854
 7417TIP3    H222216   5.823   3.436   5.746  0.7506  0.0811 -0.3861
 7418TIP3   OH222217   3.999   1.856   1.444  0.1466  0.0814  0.6563
 7418TIP3    H122218   4.019   1.839   1.352  0.7130  1.8033  0.4319
 7418TIP3    H222219   4.085   1.856   1.488  0.0464  0.9004  0.8757
 7419TIP3   OH222220   4.997   1.172   3.973  0.1487  0.2446 -0.2753
 7419TIP3    H122221   5.026   1.202   4.060 -1.3203  1.4231 -0.1471
 7419TIP3    H222222   4.976   1.253   3.926  0.4933 -0.4044 -1.5855
 7420TIP3   OH222223   0.630   4.925   1.184  0.2515 -0.6945 -0.6182
 7420TIP3    H122224   0.680   4.927   1.265  1.2978  1.5796 -1.2333
 7420TIP3    H222225   0.690   4.961   1.118 -2.0988  2.2101 -1.3981
 7421TIP3   OH222226   4.261   3.814   4.236 -0.4818 -0.0084 -0.0658
 7421TIP3    H122227   4.320   3.741   4.258 -1.0558 -0.0100  1.6073
 7421TIP3    H222228   4.319   3.890   4.229  0.1062 -0.5472 -1.6983
 7422TIP3   OH222229   6.209   2.817   3.213  0.1931  0.3092  0.2533
 7422TIP3    H122230   6.263   2.800   3.290 -1.5838 -0.2713  1.4178
 7422TIP3    H222231   6.209   2.912   3.204  2.2306  0.3037 -0.4387
 7423TIP3   OH222232   3.636   3.449   0.235 -0.6775 -0.3344  0.0794
 7423TIP3    H122233   3.543   3.466   0.254 -0.6407 -0.3163  0.2495
 7423TIP3    H222234   3.679   3.458   0.320 -0.4410  0.1762 -0.0947
 7424TIP3   OH222235   2.336   3.118   5.558 -0.0490 -0.5468  0.1191
 7424TIP3    H122236   2.418   3.142   5.514  0.1651  1.0197  1.2669
 7424TIP3    H222237   2.276   3.189   5.535 -0.0740  0.0493  1.8772
 7425TIP3   OH222238   3.850   0.978   0.993  0.5358  0.3142  0.3990
 7425TIP3    H122239   3.916   0.965   1.061  0.3347 -2.0628  0.2195
 7425TIP3    H222240   3.877   0.920   0.922  1.4633  3.6553 -2.2225
 7426TIP3   OH222241   5.255   5.118   0.409 -0.2391 -0.5557 -0.1014
 7426TIP3    H122242   5.267   5.114   0.314  0.6149 -0.9822  0.0155
 7426TIP3    H222243   5.222   5.207   0.425  3.2839  0.9890 -0.4608
 7427TIP3   OH222244   5.805   0.331   2.516 -0.3892  0.2241 -0.0191
 7427TIP3    H122245   5.801   0.235   2.511 -0.2845  0.0964  1.7865
 7427TIP3    H222246   5.721   0.360   2.482 -1.1614 -0.6183  1.1033
 7428TIP3   OH222247   4.357   0.207   1.800  0.6938  0.0106  0.1947
 7428TIP3    H122248   4.356   0.287   1.852  0.5003  0.1880 -0.0752
 7428TIP3    H222249   4.305   0.228   1.723  1.1194 -0.1931 -0.1532
 7429TIP3   OH222250   5.983   4.214   4.951 -0.2948  0.1770 -0.0688
 7429TIP3    H122251   6.026   4.298   4.964 -2.4938  0.9436  3.8846
 7429TIP3    H222252   6.053   4.149   4.961  0.8045  1.4723  1.0062
 7430TIP3   OH222253   6.190   2.888   2.383 -0.2642  0.5704 -0.1860
 7430TIP3    H122254   6.112   2.839   2.409 -0.0632  0.7702  0.8379
 7430TIP3    H222255   6.163   2.979   2.385  0.0515  0.6581  0.4193
 7431TIP3   OH222256   0.523   3.020   5.700 -0.1265 -0.0610  0.1003
 7431TIP3    H122257   0.490   2.966   5.773 -1.3443  0.8692  0.2563
 7431TIP3    H222258   0.606   3.054   5.732 -0.9948  0.9412  1.3925
 7432TIP3   OH222259   6.017   0.942   4.443  0.5619  0.7522 -0.0063
 7432TIP3    H122260   6.074   0.868   4.466 -0.7563 -0.3122 -0.0655
 7432TIP3    H222261   6.005   0.989   4.525 -1.3325 -1.0715  0.8269
 7433TIP3   OH222262   6.336   1.248   4.475  0.3137  0.2481  0.4869
 7433TIP3    H122263   6.336   1.249   4.571  2.7765  0.1377  0.5511
 7433TIP3    H222264   6.344   1.155   4.452  1.7287  0.4038  0.2592
 7434TIP3   OH222265   6.094   4.074   5.808  0.0063 -0.0589 -0.0021
 7434TIP3    H122266   6.120   4.038   5.893 -0.8576 -0.4043  0.1250
 7434TIP3    H222267   6.169   4.127   5.781  0.7309 -0.8048  0.4746
 7435TIP3   OH222268   1.839   4.871   5.799 -0.0828 -0.1599 -0.1792
 7435TIP3    H122269   1.775   4.901   5.735  0.4834  1.6335  0.0403
 7435TIP3    H222270   1.886   4.800   5.755 -0.4411  0.2944 -1.3208
 7436TIP3   OH222271   4.108   1.329   1.300 -0.2707  0.6726 -0.0525
 7436TIP3    H122272   4.117   1.365   1.212 -0.5140  2.2475  0.5212
 7436TIP3    H222273   4.046   1.257   1.291  1.4641 -0.7191 -1.5331
 7437TIP3   OH222274   3.583   0.996   4.133  0.2803 -0.3580  0.2495
 7437TIP3    H122275   3.496   1.034   4.134 -0.0758 -1.1393  1.2116
 7437TIP3    H222276   3.606   0.986   4.226  0.5122 -2.0579  0.0464
 7438TIP3   OH222277   4.740   5.971   1.448  0.3698  0.3156  0.1112
 7438TIP3    H122278   4.705   6.023   1.375  0.0587 -0.4304 -0.2764
 7438TIP3    H222279   4.664   5.930   1.488  0.7261 -1.0231 -0.5119
 7439TIP3   OH222280   1.322   3.256   3.129  0.2925 -0.0319  0.0230
 7439TIP3    H122281   1.411   3.232   3.155  0.2548  1.8272  2.2191
 7439TIP3    H222282   1.328   3.271   3.035  2.1959 -0.4304  0.0365
 7440TIP3   OH222283   2.393   4.525   3.204 -0.5405 -0.7632  0.2690
 7440TIP3    H122284   2.308   4.516   3.161 -0.7796 -1.8250  0.9507
 7440TIP3    H222285   2.414   4.438   3.237  0.7123 -0.4682  0.3141
 7441TIP3   OH222286   1.703   4.616   1.795  0.1728  0.1568 -0.7920
 7441TIP3    H122287   1.634   4.679   1.773 -1.0405 -0.7468  0.2545
 7441TIP3    H222288   1.676   4.535   1.751  1.1338  0.0763 -1.2378
 7442TIP3   OH222289   1.850   6.574   1.958 -0.2065  0.4733  0.5622
 7442TIP3    H122290   1.826   6.583   1.866 -1.0129  0.8071  0.7999
 7442TIP3    H222291   1.778   6.524   1.996  1.2118 -1.7305  0.5502
 7443TIP3   OH222292   4.321   1.571   0.446 -0.3794 -0.2254 -0.3614
 7443TIP3    H122293   4.259   1.562   0.518 -0.1817  2.1157  0.1997
 7443TIP3    H222294   4.402   1.533   0.479 -0.5752 -0.1038  0.2726
 7444TIP3   OH222295   4.035   5.714   1.263 -0.2190 -0.4540 -0.3028
 7444TIP3    H122296   4.014   5.625   1.236  2.7598 -1.1159 -0.8164
 7444TIP3    H222297   4.078   5.704   1.348  0.9016  0.3760 -0.7465
 7445TIP3   OH222298   4.808   0.843   4.778  0.3360 -0.8036 -0.2200
 7445TIP3    H122299   4.785   0.928   4.740 -0.1115 -1.1574 -0.7534
 7445TIP3    H222300   4.865   0.865   4.852  0.2510 -0.0412 -0.3683
 7446TIP3   OH222301   3.179   4.484   3.486 -0.2384  0.0024  0.1885
 7446TIP3    H122302   3.275   4.488   3.487 -0.2399  0.0072  0.7049
 7446TIP3    H222303   3.153   4.553   3.426  0.1294 -1.2269 -1.4650
 7447TIP3   OH222304   6.250   3.314   4.834  0.5165  0.0082  0.2868
 7447TIP3    H122305   6.202   3.390   4.802  0.2528 -0.6728 -0.9878
 7447TIP3    H222306   6.218   3.241   4.781  2.3791 -0.6023 -0.0680
 7448TIP3   OH222307   1.536   1.539   3.870 -0.0514 -0.8820 -0.6177
 7448TIP3    H122308   1.472   1.572   3.933  1.0930  0.5449 -0.1543
 7448TIP3    H222309   1.498   1.561   3.785 -0.3628 -0.3844 -0.3567
 7449TIP3   OH222310   3.107   5.616   2.642 -0.3113  0.0875 -0.2145
 7449TIP3    H122311   3.034   5.647   2.588 -0.8968  0.7577  0.9286
 7449TIP3    H222312   3.156   5.557   2.585 -0.2017  1.7196 -1.8762
 7450TIP3   OH222313   4.734   3.211   5.836  0.2436 -0.2162 -0.0400
 7450TIP3    H122314   4.820   3.174   5.817 -0.3402 -1.5184 -0.3135
 7450TIP3    H222315   4.728   3.288   5.780 -0.3906 -2.4712 -3.3713
 7451TIP3   OH222316   6.182   6.740   2.014  0.2920 -0.2215 -0.4061
 7451TIP3    H122317   6.133   6.819   2.038  0.0288 -0.1843 -1.0425
 7451TIP3    H222318   6.271   6.755   2.047  0.0667  0.0404  0.0834
 7452TIP3   OH222319   6.410   3.814   0.637  0.5208  0.2934 -0.1399
 7452TIP3    H122320   6.379   3.791   0.724 -1.0381  1.7257 -0.2486
 7452TIP3    H222321   6.491   3.765   0.626 -0.5280 -1.8679  1.1098
 7453TIP3   OH222322   2.655   4.008   1.899 -0.6001 -0.5447  0.1119
 7453TIP3    H122323   2.609   4.084   1.865 -2.2868 -1.9165 -0.8513
 7453TIP3    H222324   2.699   4.039   1.978 -4.3707  0.6323  1.9914
 7454TIP3   OH222325   0.102   0.762   0.794 -1.0775  0.0051 -0.5313
 7454TIP3    H122326   0.067   0.673   0.784 -0.9230 -0.2100  0.6757
 7454TIP3    H222327   0.030   0.813   0.831 -1.0978  0.3320 -1.0173
 7455TIP3   OH222328   2.292   2.057   5.702  0.2618 -0.3666 -0.3561
 7455TIP3    H122329   2.231   1.983   5.691  1.9189 -1.5699 -2.0627
 7455TIP3    H222330   2.359   2.023   5.762 -0.3908  0.7529  1.0587
 7456TIP3   OH222331   4.981   0.369   0.101  0.3822  0.0057  0.5661
 7456TIP3    H122332   5.038   0.440   0.129 -0.4849  1.2932 -0.8070
 7456TIP3    H222333   4.904   0.376   0.157 -0.0088  0.6164 -0.0358
 7457TIP3   OH222334   3.222   2.911   2.697  0.3621  0.5411 -0.4153
 7457TIP3    H122335   3.180   2.931   2.781  0.8225  0.7735 -0.2382
 7457TIP3    H222336   3.211   2.817   2.686  1.2191  0.3248  0.4183
 7458TIP3   OH222337   4.955   3.603   0.831  0.5337  0.3205  0.0503
 7458TIP3    H122338   4.883   3.660   0.857  1.5468  1.3702  0.6896
 7458TIP3    H222339   4.965   3.619   0.737  0.2138  0.5127  0.0464
 7459TIP3   OH222340   0.239   5.306   0.248  0.4455  0.5559  0.3001
 7459TIP3    H122341   0.194   5.308   0.164  2.8957 -1.1516 -1.1840
 7459TIP3    H222342   0.200   5.232   0.295 -0.1436  0.7964  0.1904
 7460TIP3   OH222343   2.872   2.463   4.209 -0.2012  0.2766  0.3399
 7460TIP3    H122344   2.788   2.493   4.243  0.4181  0.3835  1.8729
 7460TIP3    H222345   2.881   2.374   4.244  0.1359  0.1184 -0.1525
 7461TIP3   OH222346   0.274   3.862   2.872  0.2251 -0.4190  0.6258
 7461TIP3    H122347   0.335   3.839   2.942 -1.2451 -1.2052  1.7261
 7461TIP3    H222348   0.328   3.877   2.796  1.9678  0.9990  2.0540
 7462TIP3   OH222349   4.116   2.561   3.842 -0.2811 -0.3111  0.2167
 7462TIP3    H122350   4.145   2.629   3.781  0.6387 -0.5416  0.3702
 7462TIP3    H222351   4.046   2.601   3.892  0.1309  0.4719  0.1779
 7463TIP3   OH222352   6.136   1.053   4.222  0.3031  0.3651 -0.0472
 7463TIP3    H122353   6.222   1.051   4.265  0.5345  0.4019 -0.5026
 7463TIP3    H222354   6.080   1.000   4.278  0.6996  0.1066  0.1068
 7464TIP3   OH222355   1.104   5.123   2.962  0.2120  0.2721 -0.3132
 7464TIP3    H122356   1.191   5.109   2.925  0.2886  0.1499 -0.0911
 7464TIP3    H222357   1.105   5.075   3.045  0.2837  1.1292  0.1891
 7465TIP3   OH222358   6.193   6.764   5.228 -0.0232 -0.0711  0.3919
 7465TIP3    H122359   6.119   6.727   5.180 -0.0796 -0.3064  0.6627
 7465TIP3    H222360   6.205   6.707   5.304 -1.1405  1.3607  1.7162
 7466TIP3   OH222361   2.177   5.205   5.310  0.3012  0.5005 -0.0165
 7466TIP3    H122362   2.189   5.114   5.336 -2.3525 -0.1395 -0.7560
 7466TIP3    H222363   2.254   5.225   5.256  0.7930 -1.3678 -0.0649
 7467TIP3   OH222364   0.517   4.572   3.997  0.2985  0.0706  0.0548
 7467TIP3    H122365   0.439   4.620   3.972  0.9993  1.0004 -0.4270
 7467TIP3    H222366   0.491   4.521   4.074 -0.8777  0.0464 -0.3427
 7468TIP3   OH222367   2.410   2.729   3.990 -0.4161 -0.5394 -0.2671
 7468TIP3    H122368   2.400   2.636   3.969  0.5351 -0.4936 -0.9826
 7468TIP3    H222369   2.499   2.750   3.965 -0.5546  0.5321  0.0741
 7469TIP3   OH222370   6.164   3.412   2.062 -0.5562 -0.6590  0.4592
 7469TIP3    H122371   6.234   3.350   2.082 -0.8584 -1.4707 -0.8258
 7469TIP3    H222372   6.182   3.488   2.117  1.2771 -0.8799  0.2275
 7470TIP3   OH222373   4.561   1.684   3.997  0.3232  0.0964 -0.3084
 7470TIP3    H122374   4.570   1.725   4.083  1.1046 -1.4688  0.4064
 7470TIP3    H222375   4.468   1.661   3.991  0.1956  0.5318 -0.0323
 7471TIP3   OH222376   3.523   4.969   0.413 -0.3043 -0.1539 -0.0505
 7471TIP3    H122377   3.458   4.958   0.344  0.7378  2.3385 -1.5529
 7471TIP3    H222378   3.561   4.881   0.424 -0.8862 -0.7481 -2.2656
 7472TIP3   OH222379   1.673   1.375   5.760 -0.6652 -0.0702  0.0018
 7472TIP3    H122380   1.681   1.330   5.676  0.7453 -1.4614  0.8368
 7472TIP3    H222381   1.742   1.441   5.758 -0.4056 -0.3356  0.2045
 7473TIP3   OH222382   1.432   1.230   3.938  0.0491 -0.4420 -0.2284
 7473TIP3    H122383   1.395   1.161   3.883  2.2427 -0.5939 -1.6720
 7473TIP3    H222384   1.381   1.308   3.917  0.7915 -0.5071 -2.5778
 7474TIP3   OH222385   0.396   2.386   1.127 -0.0331  0.3796  0.0760
 7474TIP3    H122386   0.323   2.424   1.079 -0.6640  0.8406  1.3663
 7474TIP3    H222387   0.442   2.332   1.062 -2.4412 -1.2642 -0.3988
 7475TIP3   OH222388   7.148   1.817   1.243 -0.4460 -0.4800 -0.2207
 7475TIP3    H122389   7.206   1.741   1.236 -0.6712 -0.6466 -0.3019
 7475TIP3    H222390   7.154   1.844   1.334  0.6706  0.2320 -0.4927
 7476TIP3   OH222391   0.083   5.482   5.099  0.6039  0.0908 -0.1319
 7476TIP3    H122392   0.055   5.515   5.185 -0.0781 -1.5973  0.3303
 7476TIP3    H222393   0.105   5.390   5.115  0.3331 -0.2888 -1.7893
 7477TIP3   OH222394   2.512   1.957   1.805  0.1788  0.7409 -0.2848
 7477TIP3    H122395   2.510   1.969   1.900  3.6834 -0.1255  0.0492
 7477TIP3    H222396   2.422   1.936   1.781 -0.6024 -0.2487  3.0128
 7478TIP3   OH222397   2.990   1.892   3.413 -0.3860  0.2579 -0.2078
 7478TIP3    H122398   2.950   1.931   3.491 -0.9616  0.6668 -0.6980
 7478TIP3    H222399   3.025   1.808   3.443  0.1867  0.8065  0.6883
 7479TIP3   OH222400   5.131   1.051   0.075  0.0658 -0.0411 -1.0470
 7479TIP3    H122401   5.226   1.042   0.061 -0.1290 -0.4870 -2.2206
 7479TIP3    H222402   5.119   1.041   0.169  1.0605 -1.1837 -1.0168
 7480TIP3   OH222403   2.222   1.116   0.960 -0.5141 -0.0819  0.4353
 7480TIP3    H122404   2.219   1.053   0.888 -0.7271 -0.2967  0.6279
 7480TIP3    H222405   2.291   1.083   1.018  0.6380  0.8549 -0.3549
 7481TIP3   OH222406   0.303   6.296   5.150  0.1790 -0.2068 -0.7258
 7481TIP3    H122407   0.235   6.236   5.181 -0.3802 -0.6322 -2.6367
 7481TIP3    H222408   0.261   6.382   5.150  0.5640  0.0069  0.7563
 7482TIP3   OH222409   2.975   1.770   5.570  0.4920 -0.1176 -0.0615
 7482TIP3    H122410   3.019   1.695   5.609  0.5408  0.4526  1.0242
 7482TIP3    H222411   2.882   1.756   5.590  0.2152 -0.9837 -1.7743
 7483TIP3   OH222412   4.829   0.143   3.270  0.1873 -0.3471  0.1481
 7483TIP3    H122413   4.898   0.168   3.209  0.0600  0.7897  0.4290
 7483TIP3    H222414   4.848   0.193   3.350  0.7474 -2.3385  1.3129
 7484TIP3   OH222415   7.009   4.180   2.480  0.3393  0.6088  0.3442
 7484TIP3    H122416   7.051   4.106   2.523  0.8751  0.7536  0.0809
 7484TIP3    H222417   7.035   4.172   2.388 -0.8485  0.2534  0.0202
 7485TIP3   OH222418   6.670   1.220   2.458  0.7317  0.4288  0.1154
 7485TIP3    H122419   6.609   1.284   2.420  0.2122 -0.0636  0.1005
 7485TIP3    H222420   6.614   1.162   2.510  0.8718 -1.2298 -1.4828
 7486TIP3   OH222421   0.993   1.876   5.262 -0.9834 -0.1456  0.1449
 7486TIP3    H122422   1.063   1.896   5.324 -1.3310  1.3147  0.1156
 7486TIP3    H222423   0.988   1.781   5.260  1.2504 -0.2998 -0.1396
 7487TIP3   OH222424   7.026   2.441   4.173  0.0766  0.0912  0.3242
 7487TIP3    H122425   6.994   2.516   4.224 -0.9296 -1.2036  1.6652
 7487TIP3    H222426   6.948   2.391   4.152  0.6833 -0.3506 -1.0105
 7488TIP3   OH222427   3.744   3.886   0.641  0.1474 -0.6302 -0.0911
 7488TIP3    H122428   3.672   3.936   0.677 -0.3942 -0.5452 -1.2286
 7488TIP3    H222429   3.771   3.827   0.711  0.9265  1.3430  1.3369
 7489TIP3   OH222430   1.751   2.638   3.375  0.0917  0.2281 -0.2779
 7489TIP3    H122431   1.684   2.580   3.410  0.2169  0.1264 -0.2107
 7489TIP3    H222432   1.745   2.717   3.429 -0.9049  0.7645 -1.1270
 7490TIP3   OH222433   6.294   3.826   2.978 -0.4788 -0.3766  0.2377
 7490TIP3    H122434   6.213   3.860   3.016 -0.5152 -0.3484  0.1345
 7490TIP3    H222435   6.340   3.787   3.052  0.6853  1.9932  0.8737
 7491TIP3   OH222436   6.524   1.178   2.717  0.0692  0.2074  0.5561
 7491TIP3    H122437   6.568   1.251   2.760 -1.1949  0.9134  0.7030
 7491TIP3    H222438   6.433   1.207   2.708 -0.4085 -1.2719  0.4152
 7492TIP3   OH222439   6.200   5.724   1.690  0.1125  0.1345 -0.2148
 7492TIP3    H122440   6.135   5.665   1.652 -0.6694  0.2557  0.8900
 7492TIP3    H222441   6.283   5.677   1.680 -0.4496 -1.0050  0.3258
 7493TIP3   OH222442   2.037   4.827   5.267 -0.3238 -0.4294  0.3906
 7493TIP3    H122443   2.129   4.802   5.255 -0.7133 -1.6841 -0.0740
 7493TIP3    H222444   2.016   4.876   5.187 -0.7137 -2.1844 -0.6299
 7494TIP3   OH222445   2.540   3.198   5.421  0.2775  0.5915 -0.4893
 7494TIP3    H122446   2.579   3.190   5.334  0.8007  0.3899 -0.2409
 7494TIP3    H222447   2.607   3.240   5.474 -0.9737  3.1113 -0.7849
 7495TIP3   OH222448   3.627   4.817   3.635  0.4308  0.4155 -0.5673
 7495TIP3    H122449   3.598   4.903   3.665 -2.0718 -0.3428 -0.5910
 7495TIP3    H222450   3.682   4.784   3.706 -0.3928  1.1469  0.4317
 7496TIP3   OH222451   3.790   6.598   2.514 -0.3873  0.0431 -0.0856
 7496TIP3    H122452   3.854   6.608   2.585  2.3305  3.3816 -2.6651
 7496TIP3    H222453   3.730   6.672   2.525 -0.9504 -0.3584 -0.4003
 7497TIP3   OH222454   0.182   6.273   2.141  0.1788  0.3353  0.1415
 7497TIP3    H122455   0.219   6.305   2.223 -0.2210  1.0877  0.0398
 7497TIP3    H222456   0.247   6.294   2.074  0.0644  0.6411  0.1243
 7498TIP3   OH222457   6.884   2.657   3.917 -0.0737 -0.6310  0.4441
 7498TIP3    H122458   6.822   2.727   3.938 -0.2155 -0.4085 -0.6145
 7498TIP3    H222459   6.965   2.682   3.961 -0.8338 -1.1309  2.1776
 7499TIP3   OH222460   0.672   5.023   3.174 -0.1315  0.3009  0.0076
 7499TIP3    H122461   0.663   5.041   3.080  0.1456  0.8095  0.0754
 7499TIP3    H222462   0.587   4.985   3.199  0.2010 -0.9528 -0.6827
 7500TIP3   OH222463   4.667   4.965   1.189 -0.5168  0.5181  0.6155
 7500TIP3    H122464   4.705   4.899   1.247 -0.6515  1.1746  1.4645
 7500TIP3    H222465   4.680   5.048   1.235 -1.1139  0.9888 -0.0457
 7501TIP3   OH222466   4.683   0.845   1.735 -0.1149 -0.0570 -0.0173
 7501TIP3    H122467   4.593   0.844   1.766  0.1902 -2.5827  1.0960
 7501TIP3    H222468   4.676   0.835   1.640 -0.9815  0.9009 -0.0746
 7502TIP3   OH222469   1.227   3.650   5.684 -0.4805 -0.2429 -0.5713
 7502TIP3    H122470   1.239   3.700   5.765 -1.9733  0.4522 -0.7500
 7502TIP3    H222471   1.132   3.643   5.674 -0.3107 -0.8811 -1.9339
 7503TIP3   OH222472   0.565   1.852   5.446  0.2010  0.2686  0.0183
 7503TIP3    H122473   0.635   1.828   5.506 -0.8133 -1.4001  0.6083
 7503TIP3    H222474   0.492   1.876   5.503 -0.4797 -0.4344 -0.5391
 7504TIP3   OH222475   4.684   2.663   3.883  0.4495 -0.0586  0.6113
 7504TIP3    H122476   4.616   2.600   3.857 -0.9864  0.6707  2.3053
 7504TIP3    H222477   4.765   2.629   3.846 -0.6254 -1.7353 -0.3149
 7505TIP3   OH222478   4.221   5.637   2.535  0.2059 -0.1001  0.1879
 7505TIP3    H122479   4.304   5.608   2.500 -0.0905 -0.0533 -0.5627
 7505TIP3    H222480   4.176   5.679   2.462 -1.0665 -1.3652  0.1976
 7506TIP3   OH222481   5.826   3.217   3.914 -0.2290  0.4688  0.3815
 7506TIP3    H122482   5.872   3.235   3.996  0.1839  1.5547 -0.0651
 7506TIP3    H222483   5.857   3.285   3.854 -1.2920  0.3088 -0.3744
 7507TIP3   OH222484   4.277   2.977   2.715 -0.2047  0.5838  0.6481
 7507TIP3    H122485   4.280   2.940   2.627 -3.2059  0.1338  0.6393
 7507TIP3    H222486   4.367   3.006   2.732  1.1841 -2.0802 -1.3370
 7508TIP3   OH222487   0.256   4.576   4.223  0.2508 -0.2035  0.9276
 7508TIP3    H122488   0.172   4.620   4.238 -0.2709 -1.2389  1.1610
 7508TIP3    H222489   0.313   4.609   4.292 -0.5159 -0.8625  1.9058
 7509TIP3   OH222490   0.309   6.326   2.370 -0.4272  0.0785  0.0016
 7509TIP3    H122491   0.281   6.244   2.410  1.5402 -0.8802 -0.4348
 7509TIP3    H222492   0.391   6.303   2.326  0.0738  2.2540 -0.2748
 7510TIP3   OH222493   1.978   0.158   0.270  0.1390 -0.3375  0.2102
 7510TIP3    H122494   2.072   0.139   0.276  0.8292  2.2753 -0.8126
 7510TIP3    H222495   1.942   0.081   0.225  1.5230 -1.9378  1.6603
 7511TIP3   OH222496   3.062   5.265   1.256 -0.4634 -0.3601  0.5973
 7511TIP3    H122497   2.984   5.289   1.306 -0.4847 -1.2378  1.0082
 7511TIP3    H222498   3.060   5.322   1.179 -1.2347 -0.0299  0.8505
 7512TIP3   OH222499   4.981   3.463   2.148  0.3168  0.1318  0.0320
 7512TIP3    H122500   4.990   3.555   2.123  1.6822 -0.7519 -3.1815
 7512TIP3    H222501   4.899   3.460   2.197 -0.6247  2.7913 -1.1738
 7513TIP3   OH222502   6.878   6.112   0.164  1.1769 -0.2098 -0.2458
 7513TIP3    H122503   6.910   6.201   0.178  1.7445 -0.4935  0.3171
 7513TIP3    H222504   6.786   6.123   0.139  1.1902  0.5205 -0.0012
 7514TIP3   OH222505   1.886   2.016   1.251 -0.2502 -0.3849  0.6201
 7514TIP3    H122506   1.809   2.032   1.196  0.5501 -0.1520 -0.4568
 7514TIP3    H222507   1.910   2.102   1.284  0.9200 -0.0888 -0.9297
 7515TIP3   OH222508   6.142   0.198   3.765 -0.3226  0.5748  0.1107
 7515TIP3    H122509   6.205   0.230   3.830  0.7173 -0.3550 -0.4036
 7515TIP3    H222510   6.194   0.182   3.687 -0.9556 -1.3873  0.0378
 7516TIP3   OH222511   5.002   4.658   5.493 -0.2306 -0.1749 -0.1611
 7516TIP3    H122512   5.093   4.644   5.519 -0.2047  1.0158  0.4534
 7516TIP3    H222513   5.006   4.723   5.423 -0.7026  1.7996  1.5206
 7517TIP3   OH222514   5.151   5.866   4.470  0.1959 -0.0004 -0.2901
 7517TIP3    H122515   5.197   5.882   4.388 -0.7017  0.5574 -0.6949
 7517TIP3    H222516   5.058   5.865   4.446 -0.0721  0.0743  0.7032
 7518TIP3   OH222517   0.792   4.718   5.495  0.0381  0.4188  0.1908
 7518TIP3    H122518   0.754   4.740   5.579 -0.3594  0.1915  0.0740
 7518TIP3    H222519   0.790   4.800   5.445 -0.7989  0.2853 -0.0031
 7519TIP3   OH222520   0.437   4.132   0.599  1.3242  0.2173 -0.5574
 7519TIP3    H122521   0.400   4.045   0.585  1.6840  0.0194 -0.3006
 7519TIP3    H222522   0.417   4.152   0.690  2.4156 -0.1785 -0.2125
 7520TIP3   OH222523   6.869   1.818   1.188  0.3962  0.4708 -0.3707
 7520TIP3    H122524   6.896   1.904   1.157  2.1135 -0.3659 -1.3388
 7520TIP3    H222525   6.950   1.778   1.220 -0.7249  0.0223  2.1941
 7521TIP3   OH222526   2.145   3.646   1.275 -0.0796 -0.0615  0.0266
 7521TIP3    H122527   2.096   3.727   1.257 -1.5346 -1.1307 -1.0664
 7521TIP3    H222528   2.210   3.643   1.205  0.8640  0.7933  0.8310
 7522TIP3   OH222529   6.852   2.565   1.873  0.6479  0.0718 -0.6257
 7522TIP3    H122530   6.854   2.656   1.844  0.3480 -0.2551 -1.7190
 7522TIP3    H222531   6.772   2.557   1.924  0.0226  0.1385 -1.5643
 7523TIP3   OH222532   1.631   0.422   0.984 -0.4030 -0.2048 -0.1286
 7523TIP3    H122533   1.713   0.382   0.953 -0.3607 -0.4644  0.3051
 7523TIP3    H222534   1.645   0.433   1.078 -0.6604  0.2540 -0.1467
 7524TIP3   OH222535   0.945   6.577   1.008 -0.1183  0.1505 -0.0413
 7524TIP3    H122536   0.967   6.664   0.975 -2.7773  0.9314  0.0437
 7524TIP3    H222537   0.961   6.582   1.102 -0.1142  0.5068 -0.0610
 7525TIP3   OH222538   3.530   1.599   3.565 -0.4412  0.0692 -0.3256
 7525TIP3    H122539   3.469   1.635   3.629  0.1618  0.3491  0.0962
 7525TIP3    H222540   3.499   1.510   3.550 -0.7916  0.1187  0.0986
 7526TIP3   OH222541   5.490   4.735   2.807  0.0842 -0.5582 -0.2228
 7526TIP3    H122542   5.496   4.684   2.888 -1.6216 -0.5313 -0.0458
 7526TIP3    H222543   5.573   4.783   2.803 -0.7485  1.4619  2.9236
 7527TIP3   OH222544   3.292   6.161   1.347  0.0808  0.5901  0.2704
 7527TIP3    H122545   3.212   6.135   1.393  0.6457 -1.5943  0.1168
 7527TIP3    H222546   3.262   6.193   1.262 -0.7353  1.5475  0.9031
 7528TIP3   OH222547   6.542   3.808   1.181 -0.6386  0.1644  0.2869
 7528TIP3    H122548   6.544   3.784   1.274 -0.3430 -0.8815  0.0235
 7528TIP3    H222549   6.475   3.751   1.143 -1.3076  1.1272 -0.0151
 7529TIP3   OH222550   6.098   0.088   0.650  0.3435 -0.3062  0.4528
 7529TIP3    H122551   6.023   0.148   0.651 -0.1824 -0.9512  1.9017
 7529TIP3    H222552   6.141   0.102   0.735  0.2167 -1.9522  0.8197
 7530TIP3   OH222553   3.188   5.705   1.380  0.1668  0.1507 -0.3548
 7530TIP3    H122554   3.119   5.731   1.441  0.6068  0.8166 -0.1335
 7530TIP3    H222555   3.256   5.666   1.435 -0.0774 -0.6399 -0.5875
 7531TIP3   OH222556   3.512   0.897   0.374  0.5789 -0.6813  0.3582
 7531TIP3    H122557   3.454   0.964   0.412  0.8809 -0.5898  0.6668
 7531TIP3    H222558   3.453   0.825   0.350  0.0493  0.2461 -1.2836
 7532TIP3   OH222559   4.223   4.495   1.126  0.7387  0.0500 -0.0591
 7532TIP3    H122560   4.223   4.512   1.220 -0.8357 -0.8629  0.1408
 7532TIP3    H222561   4.315   4.493   1.102  1.2852 -1.8057  1.8749
 7533TIP3   OH222562   5.563   4.139   5.794  0.6616  0.2835  0.1892
 7533TIP3    H122563   5.561   4.232   5.816  2.5218  0.8938 -1.8265
 7533TIP3    H222564   5.656   4.117   5.797  0.5699 -0.6944 -2.3259
 7534TIP3   OH222565   0.422   5.470   4.237  0.5552  0.3522 -0.0325
 7534TIP3    H122566   0.438   5.457   4.331  1.7499  0.7024 -0.1776
 7534TIP3    H222567   0.327   5.482   4.231  0.6381  2.0311  1.3323
 7535TIP3   OH222568   4.820   3.370   2.345 -0.2353  0.4052 -0.1329
 7535TIP3    H122569   4.848   3.342   2.433  0.1351  0.3740 -0.2574
 7535TIP3    H222570   4.829   3.292   2.291  0.5197  0.6749 -0.4177
 7536TIP3   OH222571   6.574   6.028   4.802  0.0577  0.1486 -0.0326
 7536TIP3    H122572   6.665   6.029   4.773  0.1916 -2.5344  0.0878
 7536TIP3    H222573   6.573   6.084   4.880  1.2772  1.2766 -0.7877
 7537TIP3   OH222574   4.313   0.456   3.750 -0.3488  0.3051  0.6505
 7537TIP3    H122575   4.238   0.506   3.782 -1.5548  1.1367 -3.0465
 7537TIP3    H222576   4.282   0.366   3.742 -1.1661  0.7258 -1.2788
 7538TIP3   OH222577   5.587   5.190   5.015 -0.6842 -0.6247  0.5446
 7538TIP3    H122578   5.524   5.154   4.953 -0.2378 -0.7843  0.1856
 7538TIP3    H222579   5.552   5.276   5.037 -0.8068 -0.5377  0.0161
 7539TIP3   OH222580   4.731   3.300   3.097  0.5064 -0.1764  0.3435
 7539TIP3    H122581   4.663   3.366   3.109 -0.8895 -1.8274  2.0958
 7539TIP3    H222582   4.711   3.259   3.012 -0.2753 -0.1860  0.5318
 7540TIP3   OH222583   5.090   0.335   5.115 -0.4057 -0.0033 -0.2348
 7540TIP3    H122584   5.141   0.413   5.136 -1.7106  0.2787  2.1850
 7540TIP3    H222585   5.027   0.364   5.050 -0.8540  0.9842  0.6095
 7541TIP3   OH222586   5.264   2.200   3.281 -0.5221 -0.1810  0.1786
 7541TIP3    H122587   5.205   2.272   3.300 -0.0542  0.4553 -0.7089
 7541TIP3    H222588   5.270   2.198   3.185 -0.2653 -1.1839  0.1994
 7542TIP3   OH222589   4.519   4.667   5.560  0.3805 -0.2445 -0.0470
 7542TIP3    H122590   4.461   4.709   5.497  0.4235 -1.8028 -1.1835
 7542TIP3    H222591   4.599   4.719   5.557  0.1912  0.0083 -0.9182
 7543TIP3   OH222592   1.976   6.647   3.882  0.0420  0.1326 -0.0808
 7543TIP3    H122593   1.940   6.672   3.797  0.1704  0.7177  0.0327
 7543TIP3    H222594   1.925   6.571   3.908  0.3306 -0.3665 -0.9089
 7544TIP3   OH222595   4.040   0.351   0.043  0.0702 -0.3315  0.0559
 7544TIP3    H122596   4.002   0.345  -0.045  0.0161 -0.7716  0.1111
 7544TIP3    H222597   4.123   0.304   0.037  1.3137  1.7714 -0.4404
 7545TIP3   OH222598   1.701   5.471   0.385 -0.8120 -0.6736  0.2620
 7545TIP3    H122599   1.726   5.397   0.330 -1.6213 -1.3440  0.7751
 7545TIP3    H222600   1.606   5.466   0.390 -0.7499 -0.7147  1.8318
 7546TIP3   OH222601   2.314   5.765   4.338  0.3207  0.2118 -0.2171
 7546TIP3    H122602   2.398   5.736   4.301  0.7095  0.9237  0.0830
 7546TIP3    H222603   2.264   5.796   4.262 -0.3525 -1.7506 -0.6386
 7547TIP3   OH222604   0.687   4.208   2.500  0.1760 -0.4252 -0.3753
 7547TIP3    H122605   0.641   4.193   2.418  0.7112 -0.7420 -0.6233
 7547TIP3    H222606   0.689   4.123   2.543  0.1968 -0.3334 -0.1907
 7548TIP3   OH222607   3.568   2.950   0.397 -0.1938  0.1943  0.2002
 7548TIP3    H122608   3.525   2.994   0.470  1.2012  0.3651  0.9675
 7548TIP3    H222609   3.655   2.991   0.393  1.4196 -2.8162  1.3289
 7549TIP3   OH222610   2.872   0.756   4.300  0.0115  0.7665  0.5014
 7549TIP3    H122611   2.861   0.729   4.209 -2.8802 -1.1274  1.2713
 7549TIP3    H222612   2.800   0.818   4.315  0.8239  1.5222  1.3615
 7550TIP3   OH222613   1.979   1.983   1.840  0.0464  0.3945  0.2251
 7550TIP3    H122614   2.005   1.892   1.826  0.8794  0.5891  0.4401
 7550TIP3    H222615   1.888   1.978   1.870 -0.0092 -0.3449 -0.0427
 7551TIP3   OH222616   1.356   5.548   2.663  0.1031  0.1287 -0.2996
 7551TIP3    H122617   1.267   5.527   2.688  0.8953 -2.8206  0.4497
 7551TIP3    H222618   1.387   5.607   2.731 -0.2836 -1.5068  1.3881
 7552TIP3   OH222619   3.033   5.466   3.477  0.2234  0.3036  0.0438
 7552TIP3    H122620   3.066   5.403   3.413 -0.3336 -0.0773  0.1258
 7552TIP3    H222621   2.965   5.418   3.524  1.8369 -0.0580  2.1693
 7553TIP3   OH222622   5.251   1.442   3.342 -0.0790 -0.3852 -0.0224
 7553TIP3    H122623   5.258   1.348   3.327 -2.7682 -0.4038 -1.6752
 7553TIP3    H222624   5.197   1.451   3.420  1.4426 -0.1400  1.0656
 7554TIP3   OH222625   5.642   1.467   0.277 -0.1089 -0.5295  0.1652
 7554TIP3    H122626   5.680   1.513   0.352 -0.3090 -0.4789  0.2384
 7554TIP3    H222627   5.605   1.387   0.315 -1.5521  0.2103  0.3840
 7555TIP3   OH222628   1.387   3.011   5.801  0.1823  0.7419 -0.4309
 7555TIP3    H122629   1.453   2.995   5.734  0.1110 -0.0074 -0.3234
 7555TIP3    H222630   1.359   3.102   5.785 -0.4257  0.3278 -1.9474
 7556TIP3   OH222631   1.201   6.056   0.964  0.1725  0.1215  0.1657
 7556TIP3    H122632   1.280   6.066   0.912  0.1514  0.0423  0.1179
 7556TIP3    H222633   1.163   6.144   0.968 -1.0531 -0.2373 -1.8875
 7557TIP3   OH222634   0.708   4.495   0.706  0.0059  0.1874  0.5541
 7557TIP3    H122635   0.773   4.559   0.674 -0.1716  2.0284  3.4689
 7557TIP3    H222636   0.757   4.413   0.713  0.5450  0.1630 -2.2018
 7558TIP3   OH222637   0.600   6.435   4.871  0.0758  0.1831 -0.0421
 7558TIP3    H122638   0.664   6.498   4.838  0.3252  0.0113  0.1092
 7558TIP3    H222639   0.521   6.487   4.888  0.2910  0.4603  0.1141
 7559TIP3   OH222640   6.661   0.068   3.030 -0.2140 -0.6784 -0.1592
 7559TIP3    H122641   6.576   0.107   3.008  0.0327 -0.5702 -0.9437
 7559TIP3    H222642   6.650   0.036   3.120 -0.6331  0.5896  0.2591
 7560TIP3   OH222643   2.604   2.902   4.380 -0.2822  0.1871 -0.1180
 7560TIP3    H122644   2.611   2.997   4.369  0.1500  0.1437 -0.2105
 7560TIP3    H222645   2.669   2.866   4.319 -1.4285 -0.2135 -1.1524
 7561TIP3   OH222646   3.949   5.527   4.791 -0.3620 -0.0274  0.4776
 7561TIP3    H122647   3.967   5.459   4.856 -0.1767  0.0289  0.4854
 7561TIP3    H222648   3.990   5.496   4.711  0.3191  0.3953  0.6546
 7562TIP3   OH222649   2.169   4.058   2.526  0.3606 -0.7836 -0.8766
 7562TIP3    H122650   2.233   4.089   2.462  0.5754 -0.3742 -0.4642
 7562TIP3    H222651   2.181   4.114   2.602 -0.6348 -0.5637 -0.8624
 7563TIP3   OH222652   0.441   2.264   5.077 -0.5756  0.3304 -0.0762
 7563TIP3    H122653   0.400   2.184   5.044 -0.1305  0.4964 -1.0780
 7563TIP3    H222654   0.370   2.313   5.118 -1.3662  0.5089 -1.5789
 7564TIP3   OH222655   6.613   3.615   0.627  0.4114  0.5226  0.0952
 7564TIP3    H122656   6.660   3.580   0.702 -1.3142 -0.9038  0.5615
 7564TIP3    H222657   6.682   3.633   0.563  1.5739 -2.8375  0.1922
 7565TIP3   OH222658   5.326   0.387   4.833 -0.4773 -0.8771 -0.5109
 7565TIP3    H122659   5.398   0.344   4.879 -0.4054 -0.2007  0.0308
 7565TIP3    H222660   5.270   0.316   4.802 -0.7391 -1.3340  0.9582
 7566TIP3   OH222661   6.883   5.968   5.129 -0.3155  0.1671 -0.3641
 7566TIP3    H122662   6.938   5.904   5.173  0.8260  0.6090 -1.1016
 7566TIP3    H222663   6.794   5.938   5.144 -0.0006  0.4195  2.4410
 7567TIP3   OH222664   6.712   3.806   5.674 -0.1774  0.3431 -0.0806
 7567TIP3    H122665   6.695   3.860   5.751  2.1753  1.7144 -0.4202
 7567TIP3    H222666   6.702   3.867   5.600  0.0836 -0.3108 -0.6638
 7568TIP3   OH222667   0.759   1.016   1.874  0.2404  0.3185 -0.4093
 7568TIP3    H122668   0.788   0.926   1.858 -0.6635  0.0731 -0.7771
 7568TIP3    H222669   0.798   1.041   1.957  0.0597 -0.6148 -0.0393
 7569TIP3   OH222670   1.527   0.056   0.044  0.1351  0.2390  0.1413
 7569TIP3    H122671   1.456   0.076   0.106  1.1078  1.5516  0.8919
 7569TIP3    H222672   1.527   0.129  -0.018  0.1632 -0.2883 -0.4923
 7570TIP3   OH222673   4.362   3.218   0.245  0.1670  0.1690  0.0598
 7570TIP3    H122674   4.346   3.297   0.296  2.8110  0.6169  0.3477
 7570TIP3    H222675   4.342   3.243   0.155  0.6221  1.0693  0.1968
 7571TIP3   OH222676   0.302   2.456   4.836 -0.2791 -0.2865  0.1297
 7571TIP3    H122677   0.254   2.492   4.761  1.4985 -1.7409 -1.8490
 7571TIP3    H222678   0.339   2.533   4.879  1.0591  0.5486 -2.2768
 7572TIP3   OH222679   6.609   4.598   5.214  0.0397  0.8267  0.7148
 7572TIP3    H122680   6.595   4.627   5.124 -1.6545  1.2052  1.0497
 7572TIP3    H222681   6.687   4.645   5.243 -0.2065  1.7975 -0.1133
 7573TIP3   OH222682   1.751   1.141   1.483 -0.2258  0.2080  0.0786
 7573TIP3    H122683   1.721   1.168   1.570 -0.0535  2.7629 -0.5753
 7573TIP3    H222684   1.670   1.129   1.433 -0.2822  1.1722 -0.0677
 7574TIP3   OH222685   3.698   1.120   0.027 -0.2830  0.1782  0.1241
 7574TIP3    H122686   3.717   1.189   0.091 -0.7125 -1.1550  1.7636
 7574TIP3    H222687   3.779   1.070   0.022 -0.4703 -0.1309  0.1694
 7575TIP3   OH222688   2.219   4.187   2.760 -0.4970 -0.0015 -0.3616
 7575TIP3    H122689   2.283   4.256   2.773  0.0457 -0.6185  0.3482
 7575TIP3    H222690   2.139   4.219   2.803 -0.4301  0.4399 -0.5690
 7576TIP3   OH222691   1.320   0.233   1.666  0.0027 -0.1189 -0.7507
 7576TIP3    H122692   1.388   0.194   1.720 -1.2841  0.4166  1.3860
 7576TIP3    H222693   1.259   0.161   1.649 -0.9558  0.2400  0.8702
 7577TIP3   OH222694   4.654   3.577   0.279  0.4524 -0.2411 -0.2868
 7577TIP3    H122695   4.564   3.578   0.310  1.1279 -1.4574  1.8753
 7577TIP3    H222696   4.700   3.640   0.335  0.9875  0.3298 -1.3314
 7578TIP3   OH222697   7.203   6.285   0.144 -0.0196  0.0639 -0.2426
 7578TIP3    H122698   7.172   6.245   0.062 -0.4094  0.7080 -0.4228
 7578TIP3    H222699   7.125   6.327   0.180  0.3643  0.6117 -0.0393
 7579TIP3   OH222700   3.049   5.436   1.057  0.0457 -0.2568  0.4409
 7579TIP3    H122701   2.967   5.468   1.018  0.7896 -1.5924 -2.5048
 7579TIP3    H222702   3.104   5.514   1.066 -0.2530  0.1568 -1.0972
 7580TIP3   OH222703   0.975   4.826   2.794  0.2697 -0.1967 -0.1175
 7580TIP3    H122704   1.009   4.859   2.710 -0.1236 -0.2522 -0.3008
 7580TIP3    H222705   1.042   4.849   2.858 -0.5517  2.1376  0.0095
 7581TIP3   OH222706   1.298   5.574   3.979  0.0046 -0.5894  0.2480
 7581TIP3    H122707   1.213   5.540   4.007  0.0335 -0.5856  0.3427
 7581TIP3    H222708   1.343   5.499   3.941 -0.4780 -0.3332 -0.8477
 7582TIP3   OH222709   1.685   1.823   0.743 -0.0342  0.2427  0.6109
 7582TIP3    H122710   1.758   1.793   0.797  0.5336 -1.6660 -1.0855
 7582TIP3    H222711   1.627   1.748   0.738  0.8415 -0.3592 -2.8326
 7583TIP3   OH222712   0.142   0.609   4.937 -0.2077 -0.1071  0.0321
 7583TIP3    H122713   0.157   0.562   4.855 -0.5551  1.9754 -1.2782
 7583TIP3    H222714   0.183   0.554   5.004  1.7407 -0.9493 -1.7631
 7584TIP3   OH222715   2.166   2.816   0.363 -0.7758 -0.4959  0.2178
 7584TIP3    H122716   2.217   2.858   0.294  0.2838 -1.2918  0.4940
 7584TIP3    H222717   2.100   2.764   0.317  0.0640 -1.1974 -0.2214
 7585TIP3   OH222718   1.091   4.549   5.833  0.5918  0.1608 -0.2142
 7585TIP3    H122719   1.095   4.456   5.854  1.3973  0.3403  0.4353
 7585TIP3    H222720   1.181   4.575   5.817  0.1697  0.3088 -2.8100
 7586TIP3   OH222721   5.555   2.230   0.281  0.3014 -0.4460 -0.2550
 7586TIP3    H122722   5.484   2.290   0.302  0.5679 -0.3660  0.4430
 7586TIP3    H222723   5.531   2.148   0.324  0.0788 -0.7627 -0.9689
 7587TIP3   OH222724   3.866   5.834   2.395 -0.1883  0.0071 -0.1121
 7587TIP3    H122725   3.906   5.845   2.309  0.2362 -0.9589 -0.0558
 7587TIP3    H222726   3.889   5.913   2.443  0.9842 -0.1688 -0.3507
 7588TIP3   OH222727   3.470   3.308   1.423 -0.0818  0.2294  0.7443
 7588TIP3    H122728   3.474   3.395   1.384  0.4066 -0.2488 -0.3087
 7588TIP3    H222729   3.559   3.274   1.415 -0.7968 -1.3547 -1.2201
 7589TIP3   OH222730   3.203   6.699   1.316 -0.7049  0.1902 -0.2775
 7589TIP3    H122731   3.202   6.609   1.283 -0.9825  0.2383 -0.3989
 7589TIP3    H222732   3.186   6.690   1.410  0.5375  0.0182 -0.0521
 7590TIP3   OH222733   7.084   4.394   2.758  0.5506  0.4636  0.0952
 7590TIP3    H122734   7.091   4.460   2.828  0.4330  0.8016 -0.2113
 7590TIP3    H222735   6.993   4.399   2.730  0.3811 -0.2684  0.4974
 7591TIP3   OH222736   3.886   3.994   1.346 -0.1093 -0.4283  0.2532
 7591TIP3    H122737   3.847   3.953   1.268 -0.6570 -1.7487  1.1962
 7591TIP3    H222738   3.828   4.068   1.365 -1.0603 -1.2009  0.4699
 7592TIP3   OH222739   3.045   1.608   2.146 -0.1029  0.3127 -0.3675
 7592TIP3    H122740   2.961   1.565   2.162  0.1159 -0.2368 -0.6827
 7592TIP3    H222741   3.040   1.690   2.196  0.3709 -1.1088  2.1843
 7593TIP3   OH222742   3.224   3.621   3.503 -0.5177  0.6714  0.5129
 7593TIP3    H122743   3.222   3.671   3.422  1.8551  1.2467  0.7381
 7593TIP3    H222744   3.162   3.549   3.488 -0.3131  0.8789 -1.7318
 7594TIP3   OH222745   0.760   4.736   4.819  0.0539  0.1004  0.1423
 7594TIP3    H122746   0.700   4.685   4.764 -0.8158  1.1046  0.1293
 7594TIP3    H222747   0.726   4.727   4.907  0.7425 -0.5009  0.3615
 7595TIP3   OH222748   3.675   1.991   3.310  0.0258 -0.1474  0.8751
 7595TIP3    H122749   3.655   2.083   3.325 -1.1440 -0.4484  1.2677
 7595TIP3    H222750   3.770   1.988   3.298  0.3659  0.8320  2.9628
 7596TIP3   OH222751   6.231   1.900   0.559  0.4018  0.5208  0.3160
 7596TIP3    H122752   6.231   1.827   0.496  2.3786  0.6877  0.0633
 7596TIP3    H222753   6.281   1.969   0.515 -0.0132  1.4258  1.2342
 7597TIP3   OH222754   2.203   3.672   3.206  0.4291 -0.0720  0.7152
 7597TIP3    H122755   2.131   3.686   3.267  0.1333 -1.4719  0.7183
 7597TIP3    H222756   2.258   3.607   3.249  1.5816  0.7774  0.5959
 7598TIP3   OH222757   0.709   2.596   5.505 -0.0008  0.2524  0.1318
 7598TIP3    H122758   0.765   2.525   5.537  0.6679  0.0479 -1.4402
 7598TIP3    H222759   0.718   2.665   5.572 -0.5554 -1.0603  1.6100
 7599TIP3   OH222760   0.649   5.602   5.665  0.1471  1.1629  0.0166
 7599TIP3    H122761   0.703   5.613   5.587 -0.0325 -1.1828 -0.5282
 7599TIP3    H222762   0.699   5.643   5.735  1.8828  0.4940 -0.7649
 7600TIP3   OH222763   6.564   5.851   1.518  0.5378 -0.1701  0.0783
 7600TIP3    H122764   6.468   5.857   1.517  0.6172  2.3817  0.5350
 7600TIP3    H222765   6.590   5.873   1.429  0.7279  1.2941  0.4729
 7601TIP3   OH222766   4.673   3.315   1.477 -0.3183  0.3332 -0.5083
 7601TIP3    H122767   4.735   3.244   1.459 -0.3478  0.1550  0.0954
 7601TIP3    H222768   4.652   3.306   1.570 -2.5995 -0.6678 -1.0696
 7602TIP3   OH222769   0.790   6.028   2.354 -0.4933  0.7632  0.2666
 7602TIP3    H122770   0.792   5.935   2.379  0.5111  0.5481 -0.5757
 7602TIP3    H222771   0.872   6.064   2.388 -0.7264  1.2713  0.3010
 7603TIP3   OH222772   6.258   2.896   4.636  0.2106  0.5873 -0.1542
 7603TIP3    H122773   6.259   2.823   4.697 -0.4614 -0.4500 -1.3265
 7603TIP3    H222774   6.306   2.966   4.680  0.4432 -0.3958  1.1946
 7604TIP3   OH222775   3.366   5.959   5.042  0.0861  0.0956 -0.2198
 7604TIP3    H122776   3.420   5.893   4.999  0.8062  1.2740 -1.2216
 7604TIP3    H222777   3.423   5.998   5.108 -1.0157 -1.6938  1.8787
 7605TIP3   OH222778   5.284   6.732   0.947 -0.2913 -0.0709  0.3957
 7605TIP3    H122779   5.201   6.772   0.919 -1.8857 -2.7060  0.9691
 7605TIP3    H222780   5.306   6.673   0.875  0.8491  0.2430  0.4789
 7606TIP3   OH222781   5.027   4.771   5.847 -0.2203  0.2367 -0.4166
 7606TIP3    H122782   4.989   4.831   5.912 -0.0181 -0.8399  0.7233
 7606TIP3    H222783   5.092   4.824   5.801 -1.3678  1.4194 -0.7413
 7607TIP3   OH222784   3.587   1.191   1.946 -0.2948 -0.3224  0.1294
 7607TIP3    H122785   3.594   1.096   1.960 -0.1034 -0.6063 -1.6211
 7607TIP3    H222786   3.499   1.203   1.911 -0.0491  0.0181 -0.3926
 7608TIP3   OH222787   6.730   6.547   5.347  0.9371 -0.2584 -0.0507
 7608TIP3    H122788   6.701   6.546   5.438  0.1459 -0.6014 -0.2993
 7608TIP3    H222789   6.751   6.639   5.330  3.1167 -0.4872  1.0881
 7609TIP3   OH222790   0.961   3.843   0.482  0.3361 -0.0767 -0.2672
 7609TIP3    H122791   0.998   3.914   0.429  3.1080 -1.4341 -0.3534
 7609TIP3    H222792   0.918   3.786   0.419  1.4421 -0.3882 -0.7722
 7610TIP3   OH222793   5.340   2.212   1.650  0.2689 -0.5611 -0.2665
 7610TIP3    H122794   5.349   2.142   1.586  1.8366 -1.2213  0.6187
 7610TIP3    H222795   5.412   2.198   1.712 -0.8328  0.3778  1.3215
 7611TIP3   OH222796   4.514   1.729   4.258  0.0191  0.2861 -0.2461
 7611TIP3    H122797   4.578   1.749   4.326 -0.4714 -1.1494  0.6857
 7611TIP3    H222798   4.445   1.681   4.304 -2.4224  2.9186 -0.9378
 7612TIP3   OH222799   0.522   1.890   4.695  0.2118 -0.1845 -0.9309
 7612TIP3    H122800   0.468   1.962   4.729  0.0159  0.1578 -1.9133
 7612TIP3    H222801   0.608   1.929   4.681  0.8391 -0.8032  0.9020
 7613TIP3   OH222802   0.232   5.206   4.524  0.0986 -0.0664 -0.4736
 7613TIP3    H122803   0.251   5.183   4.615 -2.0871 -2.1818 -0.4608
 7613TIP3    H222804   0.188   5.129   4.488 -3.2211  2.2876 -1.9879
 7614TIP3   OH222805   4.449   3.783   5.057  0.2538  0.1723 -0.3848
 7614TIP3    H122806   4.362   3.743   5.047  1.0047 -2.0819  1.2995
 7614TIP3    H222807   4.434   3.858   5.114 -0.7728  0.6245 -1.2118
 7615TIP3   OH222808   2.130   5.303   1.199  0.3375 -0.1860  0.1672
 7615TIP3    H122809   2.188   5.305   1.275 -1.3097  2.0715  1.4768
 7615TIP3    H222810   2.043   5.284   1.235 -0.4129  0.5269 -1.1756
 7616TIP3   OH222811   0.370   2.972   1.083 -0.0303  0.9755  0.3961
 7616TIP3    H122812   0.325   2.922   1.016  0.1725  0.5463  0.5785
 7616TIP3    H222813   0.442   2.916   1.112  0.8745  1.8099 -0.1721
 7617TIP3   OH222814   1.802   2.263   3.512 -0.2657 -0.4710  0.2896
 7617TIP3    H122815   1.858   2.189   3.536 -0.1732 -0.3613  0.4148
 7617TIP3    H222816   1.784   2.250   3.419 -0.3495 -0.7169  0.3377
 7618TIP3   OH222817   6.987   0.536   3.842 -0.1967  0.1621 -0.4807
 7618TIP3    H122818   6.909   0.498   3.802 -0.9047  1.2771 -0.2185
 7618TIP3    H222819   6.954   0.610   3.892  1.0176  0.5465 -0.2182
 7619TIP3   OH222820   0.945   3.693   3.027 -0.1985 -0.5577  0.5750
 7619TIP3    H122821   0.893   3.673   3.105 -1.2433  1.7100  0.5311
 7619TIP3    H222822   0.926   3.621   2.967 -1.8450 -0.7499  1.2733
 7620TIP3   OH222823   1.813   0.191   3.934 -0.0011  0.3671 -0.1571
 7620TIP3    H122824   1.762   0.120   3.896  0.9064 -0.3453 -0.0818
 7620TIP3    H222825   1.837   0.160   4.022  1.7329  0.0665 -0.6970
 7621TIP3   OH222826   1.502   1.175   1.276  0.6936 -0.1497  0.1883
 7621TIP3    H122827   1.422   1.148   1.231  1.0589 -0.8135 -0.0813
 7621TIP3    H222828   1.479   1.175   1.369  0.7105 -1.5748  0.2211
 7622TIP3   OH222829   2.225   2.709   4.700  0.3705 -0.2624  0.6907
 7622TIP3    H122830   2.140   2.712   4.655  1.0932 -1.4081 -0.8544
 7622TIP3    H222831   2.203   2.711   4.793 -1.2314  1.4596  0.3437
 7623TIP3   OH222832   6.276   0.373   2.992 -0.4352  0.3426 -1.0986
 7623TIP3    H122833   6.319   0.394   2.910  0.1979  0.3044 -0.7833
 7623TIP3    H222834   6.255   0.457   3.032  1.9219  0.4601  0.0722
 7624TIP3   OH222835   3.606   1.233   5.035  0.2346  0.7068 -0.5711
 7624TIP3    H122836   3.548   1.287   5.088 -0.5025  0.5102 -1.1593
 7624TIP3    H222837   3.573   1.144   5.047 -0.3598  0.7276 -1.8495
 7625TIP3   OH222838   4.149   4.250   4.902  0.3616  0.0445 -0.1437
 7625TIP3    H122839   4.139   4.345   4.903  0.1827  0.0273 -0.0805
 7625TIP3    H222840   4.080   4.218   4.961  1.2686 -0.0495  0.9062
 7626TIP3   OH222841   5.881   2.623   5.685 -0.2295  0.0081  0.2304
 7626TIP3    H122842   5.959   2.677   5.679 -0.0212 -0.3194 -0.0630
 7626TIP3    H222843   5.914   2.535   5.703 -0.4439 -0.3644 -1.0485
 7627TIP3   OH222844   3.440   3.728   2.062  0.4210  0.1415 -0.9326
 7627TIP3    H122845   3.436   3.707   2.155  1.9633  1.0400 -0.6231
 7627TIP3    H222846   3.394   3.656   2.019 -1.9519  0.6251  0.6033
 7628TIP3   OH222847   5.992   5.686   5.434 -0.1287 -0.6991  0.0195
 7628TIP3    H122848   5.989   5.666   5.340 -0.7426 -0.1328 -0.0908
 7628TIP3    H222849   5.943   5.614   5.475 -0.8335 -0.3588 -0.2090
 7629TIP3   OH222850   1.271   4.141   3.350  0.0774 -0.0410 -0.5099
 7629TIP3    H122851   1.319   4.224   3.357 -0.1054  0.0642 -0.5042
 7629TIP3    H222852   1.185   4.166   3.317  0.4983 -0.3877 -1.9265
 7630TIP3   OH222853   7.099   3.005   2.400 -0.7474 -0.2526 -0.8600
 7630TIP3    H122854   7.082   2.914   2.374 -1.0919 -0.3404 -0.3498
 7630TIP3    H222855   7.018   3.051   2.379 -1.0784 -0.3482  0.1287
 7631TIP3   OH222856   2.429   5.617   4.667  0.6821 -0.2849  0.1264
 7631TIP3    H122857   2.416   5.573   4.583  0.2210  1.3959 -0.7133
 7631TIP3    H222858   2.348   5.602   4.715 -0.2743  1.2796 -0.9409
 7632TIP3   OH222859   5.679   2.840   0.716 -0.3356  0.6756 -0.5542
 7632TIP3    H122860   5.615   2.910   0.724  1.1467  2.0727 -0.4887
 7632TIP3    H222861   5.753   2.880   0.672  0.7352 -0.7431 -0.1214
 7633TIP3   OH222862   3.456   3.504   4.673 -0.2515  0.1186  0.2341
 7633TIP3    H122863   3.499   3.470   4.751 -0.7145 -0.6877  0.1493
 7633TIP3    H222864   3.451   3.429   4.613  1.0043  0.9504 -0.9864
 7634TIP3   OH222865   3.264   0.233   3.240  0.0498  0.3817  0.0442
 7634TIP3    H122866   3.251   0.207   3.331  0.0867 -1.0014 -0.3264
 7634TIP3    H222867   3.325   0.168   3.204 -0.6455  0.3712 -1.1932
 7635TIP3   OH222868   5.262   2.731   2.131  0.5854  0.1906  0.2456
 7635TIP3    H122869   5.333   2.792   2.114 -0.4573  0.9225 -1.9311
 7635TIP3    H222870   5.183   2.785   2.124 -0.2365 -0.5659  2.7233
 7636TIP3   OH222871   2.072   4.464   5.147 -0.4048  0.1200  0.3036
 7636TIP3    H122872   2.085   4.370   5.133 -1.3864 -0.0260  0.2775
 7636TIP3    H222873   2.128   4.485   5.221  1.0916 -0.1271 -0.7240
 7637TIP3   OH222874   5.709   5.145   1.229  0.3770 -0.1979 -1.0327
 7637TIP3    H122875   5.654   5.081   1.274 -0.2750  0.2397 -1.1913
 7637TIP3    H222876   5.712   5.220   1.288  3.1918 -1.2331  0.3322
 7638TIP3   OH222877   6.540   5.374   1.024  0.1798  0.2177 -0.4340
 7638TIP3    H122878   6.616   5.425   0.996  0.4396  0.5277  0.7720
 7638TIP3    H222879   6.551   5.365   1.118 -1.5025  0.6277 -0.1765
 7639TIP3   OH222880   4.361   2.361   4.912 -0.2864  0.7427 -0.2221
 7639TIP3    H122881   4.377   2.368   5.006  0.1763  0.1699 -0.2502
 7639TIP3    H222882   4.431   2.413   4.872  0.2221  0.0427 -0.2749
 7640TIP3   OH222883   6.998   0.670   5.835 -0.8409 -0.4623  0.6145
 7640TIP3    H122884   6.938   0.662   5.909 -0.7116 -1.1052  0.6521
 7640TIP3    H222885   6.948   0.638   5.759 -0.5214 -1.0871  0.6617
 7641TIP3   OH222886   4.650   5.290   4.613 -0.3573  0.0945  0.5028
 7641TIP3    H122887   4.641   5.196   4.629  2.7246 -0.4181 -0.1718
 7641TIP3    H222888   4.705   5.322   4.684 -1.1307  1.3691  0.5618
 7642TIP3   OH222889   5.730   5.180   0.941 -0.2779 -0.4830  0.3602
 7642TIP3    H122890   5.692   5.267   0.929 -0.3310 -0.5178  0.2821
 7642TIP3    H222891   5.720   5.163   1.035 -2.9366 -1.6483 -0.0530
 7643TIP3   OH222892   5.250   1.915   3.729  0.1030 -0.2051  0.0302
 7643TIP3    H122893   5.256   1.876   3.641  1.3033 -0.0996  0.0490
 7643TIP3    H222894   5.177   1.868   3.771  0.1984 -0.9986 -0.6596
 7644TIP3   OH222895   3.757   3.568   0.507  1.0152 -0.2247  0.4535
 7644TIP3    H122896   3.696   3.515   0.559  0.7776 -0.4958 -0.0982
 7644TIP3    H222897   3.742   3.658   0.537 -1.3133  0.0410 -1.2441
 7645TIP3   OH222898   5.539   2.886   0.014  0.3762  0.6050 -0.1377
 7645TIP3    H122899   5.518   2.960   0.070 -0.6100  0.0211  0.2929
 7645TIP3    H222900   5.606   2.837   0.062 -0.0121  0.4457  0.2442
 7646TIP3   OH222901   7.119   6.788   0.632 -0.4295 -0.9721  0.1820
 7646TIP3    H122902   7.111   6.753   0.721  0.6142 -1.2713  0.1702
 7646TIP3    H222903   7.046   6.849   0.624 -1.1916 -1.7604  0.8525
 7647TIP3   OH222904   4.581   2.047   1.743 -0.0870  1.0992  0.0130
 7647TIP3    H122905   4.597   2.030   1.651  0.7327  1.3922  0.0941
 7647TIP3    H222906   4.512   1.985   1.768  1.0782 -0.3643 -0.2916
 7648TIP3   OH222907   5.497   0.486   5.143  0.1899 -0.1428 -0.2971
 7648TIP3    H122908   5.506   0.411   5.084  0.8536  0.9720 -1.6539
 7648TIP3    H222909   5.411   0.522   5.122 -0.3446 -0.7840  0.7053
 7649TIP3   OH222910   5.985   2.326   0.362 -0.2005  0.0841  0.1430
 7649TIP3    H122911   5.926   2.261   0.399 -2.1764  1.3440 -0.6583
 7649TIP3    H222912   5.933   2.406   0.354  1.1787  0.8894 -1.8809
 7650TIP3   OH222913   1.031   2.679   3.557  0.5568  0.1113 -0.5023
 7650TIP3    H122914   1.096   2.620   3.596 -0.5008 -1.1101 -0.5509
 7650TIP3    H222915   0.993   2.629   3.485 -1.3189  0.3172  0.2919
 7651TIP3   OH222916   5.709   4.948   4.997  0.1631 -0.0862 -0.8005
 7651TIP3    H122917   5.709   4.900   4.914 -0.9800 -1.4086 -0.0661
 7651TIP3    H222918   5.670   5.033   4.975 -0.4901 -0.5661 -1.5535
 7652TIP3   OH222919   6.028   1.284   1.352 -0.1202  0.0642  0.4386
 7652TIP3    H122920   6.100   1.308   1.409  0.5389  0.5291 -0.5509
 7652TIP3    H222921   5.979   1.218   1.400 -1.6958  2.8924  3.1077
 7653TIP3   OH222922   6.355   1.307   0.398 -0.4066  0.6707  0.0825
 7653TIP3    H122923   6.293   1.358   0.347  0.6209 -0.0941 -2.0682
 7653TIP3    H222924   6.330   1.216   0.381  1.3065  0.3425 -0.9432
 7654TIP3   OH222925   6.753   4.057   1.860 -0.3956  0.2870  0.1753
 7654TIP3    H122926   6.790   4.075   1.946 -1.3672 -0.0111  0.6682
 7654TIP3    H222927   6.659   4.073   1.870 -0.3892  1.3175 -1.1184
 7655TIP3   OH222928   5.668   2.733   5.842  1.1535  1.0878  0.1560
 7655TIP3    H122929   5.739   2.686   5.796 -0.4603 -1.6020  0.2018
 7655TIP3    H222930   5.622   2.780   5.772 -0.7778 -2.3158 -1.1158
 7656TIP3   OH222931   0.156   5.639   5.728 -0.0268  0.3039 -0.5761
 7656TIP3    H122932   0.200   5.558   5.701 -0.1204 -0.1545  0.5952
 7656TIP3    H222933   0.146   5.631   5.823 -1.1968  1.1195 -0.6067
 7657TIP3   OH222934   5.422   1.110   5.507 -0.7794 -0.4605  0.1897
 7657TIP3    H122935   5.370   1.037   5.474 -0.8838  0.1206 -0.9594
 7657TIP3    H222936   5.369   1.188   5.488  0.1158  0.0629 -0.2141
 7658TIP3   OH222937   0.136   5.964   4.945 -0.3065 -0.6006  0.0729
 7658TIP3    H122938   0.130   5.964   5.041  1.4890 -0.5302  0.2175
 7658TIP3    H222939   0.057   5.918   4.916  0.2156 -2.6746  1.6850
 7659TIP3   OH222940   1.674   5.470   3.597  0.0082  0.1733 -0.2095
 7659TIP3    H122941   1.671   5.564   3.614 -1.2367 -0.3501  3.4233
 7659TIP3    H222942   1.592   5.452   3.551  0.1182  0.8130 -0.6714
 7660TIP3   OH222943   2.317   1.315   1.910  0.0898  0.2417 -0.5440
 7660TIP3    H122944   2.291   1.311   2.002  1.1362  1.7104 -0.1496
 7660TIP3    H222945   2.262   1.384   1.872  1.8872  1.9755 -0.1733
 7661TIP3   OH222946   4.595   5.174   5.055 -0.1716 -0.4589 -0.6319
 7661TIP3    H122947   4.539   5.151   4.981  0.1869  0.9675 -1.3760
 7661TIP3    H222948   4.669   5.113   5.049 -0.7481 -1.1644 -0.7010
 7662TIP3   OH222949   0.102   0.316   0.725  0.3064 -0.2358 -0.6612
 7662TIP3    H122950   0.090   0.231   0.683  1.2365  0.0321 -1.4929
 7662TIP3    H222951   0.186   0.347   0.693 -0.9551  1.9611 -2.0740
 7663TIP3   OH222952   3.784   2.507   3.593 -0.0559  0.2884 -0.1902
 7663TIP3    H122953   3.786   2.447   3.667 -0.5009  2.0045  1.3030
 7663TIP3    H222954   3.870   2.497   3.551 -0.0707 -1.2424  0.0872
 7664TIP3   OH222955   6.681   3.874   4.599  0.0995  0.2067  0.1030
 7664TIP3    H122956   6.767   3.840   4.574 -0.9821 -1.8324 -1.1218
 7664TIP3    H222957   6.635   3.889   4.516 -1.3781 -0.6234  0.7180
 7665TIP3   OH222958   6.140   6.313   3.240  0.1676  0.2681 -0.2346
 7665TIP3    H122959   6.125   6.343   3.150  1.8952 -0.0166 -0.6683
 7665TIP3    H222960   6.074   6.245   3.254 -0.2923  0.4959 -1.2005
 7666TIP3   OH222961   3.131   6.727   0.836 -0.4200  0.1902  0.0774
 7666TIP3    H122962   3.153   6.637   0.813  0.3946  0.5595 -0.6578
 7666TIP3    H222963   3.087   6.762   0.758 -1.9417  0.0429  0.8410
 7667TIP3   OH222964   1.725   1.716   5.417 -0.0549 -0.0088 -0.1945
 7667TIP3    H122965   1.681   1.680   5.494 -2.2307 -0.6357 -1.6626
 7667TIP3    H222966   1.689   1.804   5.407 -1.3766 -0.6842 -1.6587
 7668TIP3   OH222967   6.519   3.325   4.097  0.4708  0.1269  0.3428
 7668TIP3    H122968   6.505   3.419   4.112 -1.5596 -0.2837  1.2215
 7668TIP3    H222969   6.440   3.283   4.130  2.2213 -2.1124  1.9411
 7669TIP3   OH222970   5.056   0.618   5.753  0.1383  0.3154 -0.1195
 7669TIP3    H122971   5.068   0.525   5.731  2.4021  0.2579  1.0821
 7669TIP3    H222972   5.110   0.665   5.689  1.6796  0.5445  1.2920
 7670TIP3   OH222973   6.149   1.531   3.650  0.0266 -0.2239 -0.2736
 7670TIP3    H122974   6.083   1.569   3.707 -0.0603  0.8269 -1.0316
 7670TIP3    H222975   6.206   1.482   3.708 -0.9221 -0.4315  0.5051
 7671TIP3   OH222976   6.420   5.647   1.928  0.1172 -0.4407  0.7014
 7671TIP3    H122977   6.438   5.634   1.835 -2.2915 -0.1468  0.1266
 7671TIP3    H222978   6.466   5.727   1.950 -0.6537  0.4370 -0.7165
 7672TIP3   OH222979   6.589   0.807   2.437  0.1768  0.1057  0.3478
 7672TIP3    H122980   6.640   0.815   2.356  0.6112 -2.0618  0.3484
 7672TIP3    H222981   6.626   0.874   2.495  1.8544 -0.2185 -0.2770
 7673TIP3   OH222982   6.499   1.256   1.549 -0.3453  0.2568  0.3861
 7673TIP3    H122983   6.558   1.330   1.536  2.2159 -1.8980 -1.3966
 7673TIP3    H222984   6.470   1.263   1.640  1.3827  2.3275  0.8546
 7674TIP3   OH222985   3.932   2.621   0.682 -0.3577 -0.2873 -0.4826
 7674TIP3    H122986   4.015   2.588   0.648 -0.2155 -0.2182 -0.2037
 7674TIP3    H222987   3.888   2.543   0.717  0.9457  0.0840  2.2388
 7675TIP3   OH222988   7.233   0.289   5.706 -0.4791  0.9552 -0.4306
 7675TIP3    H122989   7.170   0.325   5.644 -0.7365  2.0390  0.4380
 7675TIP3    H222990   7.232   0.350   5.780 -0.7746 -0.7379  1.0225
 7676TIP3   OH222991   3.349   2.463   4.252  0.7735  0.1990  0.2367
 7676TIP3    H122992   3.392   2.426   4.329  2.5205  2.8984  0.7117
 7676TIP3    H222993   3.294   2.534   4.287 -0.5237 -0.2474 -0.8045
 7677TIP3   OH222994   4.707   1.397   1.959  0.3325  0.3529  0.0376
 7677TIP3    H122995   4.621   1.421   1.994  0.7007 -0.0363  1.2912
 7677TIP3    H222996   4.753   1.480   1.949 -0.8463  0.7782 -2.6138
 7678TIP3   OH222997   0.279   3.788   4.650 -0.3506  0.0094 -0.1401
 7678TIP3    H122998   0.323   3.850   4.592  1.0886 -2.0015 -1.3510
 7678TIP3    H222999   0.336   3.783   4.727 -0.3113 -0.0071 -0.1702
 7679TIP3   OH223000   0.644   4.624   3.386 -0.2917  0.0616 -0.4591
 7679TIP3    H123001   0.589   4.633   3.308  0.9979  0.6512 -1.3588
 7679TIP3    H223002   0.694   4.544   3.371  0.6449  0.6735 -0.7252
 7680TIP3   OH223003   2.746   1.869   2.665 -0.0829  1.1764 -0.1155
 7680TIP3    H123004   2.715   1.926   2.595 -2.6288  0.3889  0.2592
 7680TIP3    H223005   2.707   1.784   2.646  0.1198  0.6547  1.6053
 7681TIP3   OH223006   0.962   0.868   5.641 -0.5499  0.2384 -0.6960
 7681TIP3    H123007   0.944   0.820   5.721  0.5584  2.5707  1.0645
 7681TIP3    H223008   1.048   0.909   5.656 -0.5590  1.1854 -2.8476
 7682TIP3   OH223009   5.166   4.787   2.415  0.2539  0.1344  0.3546
 7682TIP3    H123010   5.252   4.827   2.433 -0.2775  2.1864 -1.3107
 7682TIP3    H223011   5.184   4.721   2.348  0.8704 -1.2720  1.8451
 7683TIP3   OH223012   5.667   6.014   5.504  0.5560 -0.3161 -0.3826
 7683TIP3    H123013   5.620   6.055   5.577  0.9816 -0.5542  0.0247
 7683TIP3    H223014   5.719   6.086   5.467  0.9827 -0.3888  0.0722
 7684TIP3   OH223015   3.864   4.716   0.026  0.7539 -0.2594 -0.0556
 7684TIP3    H123016   3.859   4.796   0.079  1.4255 -0.3268  0.1288
 7684TIP3    H223017   3.916   4.741  -0.050  0.3856 -0.3465 -0.3382
 7685TIP3   OH223018   6.896   2.110   0.664  0.4463 -0.2298 -0.5471
 7685TIP3    H123019   6.989   2.095   0.675  0.5691  1.1479  0.6210
 7685TIP3    H223020   6.854   2.040   0.714  0.7990 -1.4281 -1.8680
 7686TIP3   OH223021   4.219   2.691   1.525 -0.0043  0.2965 -0.6603
 7686TIP3    H123022   4.139   2.741   1.511  0.1603  0.4369 -1.1296
 7686TIP3    H223023   4.203   2.640   1.604 -0.4963  0.4465 -0.6638
 7687TIP3   OH223024   3.744   2.286   4.974 -0.6143  0.1983  0.4064
 7687TIP3    H123025   3.750   2.192   4.957  1.5593  0.7296 -2.4915
 7687TIP3    H223026   3.660   2.297   5.019 -1.8108 -2.8946 -0.8274
 7688TIP3   OH223027   6.859   2.765   4.924  0.0640 -0.4110  0.7578
 7688TIP3    H123028   6.832   2.741   5.012  0.0143 -1.2981  0.5148
 7688TIP3    H223029   6.833   2.857   4.915 -1.4487 -0.7667  1.1008
 7689TIP3   OH223030   2.125   0.404   1.843 -0.1518  0.1953  0.0206
 7689TIP3    H123031   2.051   0.389   1.901  1.1351 -1.3267  1.3679
 7689TIP3    H223032   2.172   0.477   1.883  0.0535 -0.0309  0.1953
 7690TIP3   OH223033   2.317   3.632   1.629  0.0260 -0.3128 -0.0675
 7690TIP3    H123034   2.331   3.643   1.535  0.0884 -0.0549 -0.0289
 7690TIP3    H223035   2.390   3.677   1.670 -1.1056  1.4240  0.1516
 7691TIP3   OH223036   6.654   1.709   1.019 -0.2581  0.2255  0.5226
 7691TIP3    H123037   6.566   1.724   1.054 -0.4655 -2.3135  1.2186
 7691TIP3    H223038   6.713   1.745   1.085 -0.7387  0.4192  0.8511
 7692TIP3   OH223039   0.754   2.353   4.634 -0.5665 -0.3658 -0.1166
 7692TIP3    H123040   0.671   2.365   4.679 -1.2983 -1.2575 -1.1732
 7692TIP3    H223041   0.731   2.313   4.550  0.5764  2.6399 -2.0227
 7693TIP3   OH223042   1.795   5.577   3.268 -0.0013  0.7119  0.5152
 7693TIP3    H123043   1.712   5.619   3.290 -1.2045 -1.6539  0.7092
 7693TIP3    H223044   1.838   5.562   3.352 -0.7489 -0.7176  0.6597
 7694TIP3   OH223045   5.441   4.864   1.090 -0.6856  0.6331  0.4765
 7694TIP3    H123046   5.481   4.869   1.003  1.7383  0.9478  1.5538
 7694TIP3    H223047   5.514   4.870   1.151 -2.2019 -0.6793  2.5607
 7695TIP3   OH223048   0.118   3.540   3.094 -0.3801 -0.9294 -0.6789
 7695TIP3    H123049   0.033   3.584   3.084  0.0059 -0.2274 -0.9924
 7695TIP3    H223050   0.129   3.489   3.014  0.4027  0.6207 -1.6089
 7696TIP3   OH223051   1.110   3.232   4.459  0.1637  0.2414  0.1895
 7696TIP3    H123052   1.080   3.251   4.370  0.3394 -1.6675 -0.3280
 7696TIP3    H223053   1.043   3.271   4.515 -1.0485 -0.2703 -0.8407
 7697TIP3   OH223054   0.992   6.656   3.349 -0.2294 -0.3426 -0.4660
 7697TIP3    H123055   1.046   6.714   3.296 -0.1380 -0.0352 -0.0436
 7697TIP3    H223056   0.999   6.571   3.306  1.6383 -0.6242  0.2791
 7698TIP3   OH223057   1.086   6.760   2.726 -0.3236  0.6593 -0.1583
 7698TIP3    H123058   1.108   6.842   2.770  0.3329 -1.0661  3.0306
 7698TIP3    H223059   1.161   6.743   2.669  0.5256  1.3064  0.7165
 7699TIP3   OH223060   5.260   1.267   2.116  0.9268  0.0097 -0.0286
 7699TIP3    H123061   5.282   1.178   2.086 -0.6120 -0.5718  0.4875
 7699TIP3    H223062   5.311   1.278   2.197  1.2397 -0.3462 -0.1753
 7700TIP3   OH223063   3.392   4.966   0.720 -0.5279  0.4114 -0.0926
 7700TIP3    H123064   3.305   4.986   0.686 -1.3720 -2.0298  0.4007
 7700TIP3    H223065   3.450   5.031   0.680 -2.3581  1.2196 -1.5418
 7701TIP3   OH223066   4.534   4.644   3.526 -0.6893  0.0836 -0.3046
 7701TIP3    H123067   4.481   4.602   3.594 -0.0209  2.2547  1.6989
 7701TIP3    H223068   4.478   4.712   3.490 -0.8844 -0.7692 -1.6895
 7702TIP3   OH223069   5.051   1.483   5.775  0.1863  0.2529  0.0027
 7702TIP3    H123070   4.963   1.508   5.746  0.0230 -2.2528 -2.0289
 7702TIP3    H223071   5.109   1.547   5.733 -0.5465  1.0005  0.0976
 7703TIP3   OH223072   0.007   3.005   5.829 -0.4516 -0.0959  0.0726
 7703TIP3    H123073   0.068   2.952   5.778 -1.0875 -0.6738 -0.1050
 7703TIP3    H223074   0.026   2.984   5.920 -0.3784 -0.2615  0.0193
 7704TIP3   OH223075   7.199   2.834   3.588  0.4393 -0.0538 -0.0871
 7704TIP3    H123076   7.124   2.818   3.645 -0.6262  0.0623 -1.3996
 7704TIP3    H223077   7.255   2.895   3.636  0.2884 -1.0370  1.3945
 7705TIP3   OH223078   1.167   4.827   1.389 -0.4725 -0.4183 -0.0098
 7705TIP3    H123079   1.091   4.867   1.346 -0.1306 -0.3892 -0.6072
 7705TIP3    H223080   1.135   4.742   1.419 -0.8975 -0.1691  0.2581
 7706TIP3   OH223081   4.335   1.920   3.232  0.6105 -0.2477  0.3719
 7706TIP3    H123082   4.246   1.911   3.199  0.7274 -0.1146  0.0223
 7706TIP3    H223083   4.340   2.011   3.261  0.4251 -0.4315  1.0099
 7707TIP3   OH223084   0.594   4.683   5.688 -0.2479  0.2785  0.1478
 7707TIP3    H123085   0.555   4.705   5.772 -1.5573 -4.2158  1.0141
 7707TIP3    H223086   0.524   4.694   5.625  0.1240  1.6804 -0.0423
 7708TIP3   OH223087   0.803   5.777   1.511 -0.4929 -0.1297 -0.2827
 7708TIP3    H123088   0.840   5.758   1.424  0.3836 -0.7884  0.2160
 7708TIP3    H223089   0.708   5.768   1.499 -0.2949 -1.9653 -0.7802
 7709TIP3   OH223090   5.662   1.932   1.469 -0.0857 -0.5641 -0.1114
 7709TIP3    H123091   5.676   2.015   1.423 -1.0357  0.1045  0.7399
 7709TIP3    H223092   5.709   1.943   1.552  1.0250 -1.4778 -0.5945
 7710TIP3   OH223093   2.398   3.637   1.064  0.6282 -0.0731 -0.5778
 7710TIP3    H123094   2.363   3.691   0.993  3.1538  0.3203 -1.6134
 7710TIP3    H223095   2.396   3.548   1.031 -1.3017 -0.3747  0.2142
 7711TIP3   OH223096  -0.014   6.352   1.924 -0.1416  0.5633 -0.4869
 7711TIP3    H123097   0.058   6.318   1.978 -0.7192 -0.5187 -0.3550
 7711TIP3    H223098  -0.036   6.436   1.964  1.2141  1.0463 -0.7001
 7712TIP3   OH223099   2.691   1.040   1.136  0.5029 -0.2028  0.0135
 7712TIP3    H123100   2.684   0.946   1.122  1.1360 -0.4475  1.2288
 7712TIP3    H223101   2.753   1.070   1.070 -1.3107 -0.2464 -1.8128
 7713TIP3   OH223102   5.209   3.828   4.132 -0.1607  0.3987 -0.0752
 7713TIP3    H123103   5.239   3.915   4.103 -0.4142 -0.0877 -1.9492
 7713TIP3    H223104   5.117   3.841   4.153 -0.4936  0.4001 -1.4137
 7714TIP3   OH223105   1.031   0.222   0.191 -0.0790  0.3281 -0.4875
 7714TIP3    H123106   0.981   0.224   0.273  0.0511  2.2105 -0.4122
 7714TIP3    H223107   0.991   0.290   0.137  0.1343 -0.5697 -1.8351
 7715TIP3   OH223108   5.414   0.790   5.119  0.0450  0.2542  0.0028
 7715TIP3    H123109   5.417   0.772   5.025  0.3816  0.1908  0.0242
 7715TIP3    H223110   5.481   0.856   5.133  0.2981 -0.0534  0.2630
 7716TIP3   OH223111   5.033   1.614   4.125 -0.0121 -0.1249  0.1429
 7716TIP3    H123112   5.062   1.585   4.211  0.6934  0.5294  0.1342
 7716TIP3    H223113   5.103   1.588   4.066 -1.7026 -3.1810 -0.7708
 7717TIP3   OH223114   7.020   4.365   1.960  0.6163 -0.0253  0.0970
 7717TIP3    H123115   6.996   4.413   2.039 -1.1366  0.1805 -0.5125
 7717TIP3    H223116   6.937   4.350   1.915  1.6992  1.4143 -2.6062
 7718TIP3   OH223117   5.103   4.412   3.682  0.2071  0.1971  0.0899
 7718TIP3    H123118   5.087   4.504   3.701  0.9972  0.3403  0.1177
 7718TIP3    H223119   5.097   4.405   3.587 -0.7591  0.0879  0.1528
 7719TIP3   OH223120   1.184   1.787   3.571  0.1170 -0.0896 -0.5620
 7719TIP3    H123121   1.117   1.843   3.609 -0.9489 -0.4135 -1.8725
 7719TIP3    H223122   1.136   1.711   3.537  1.2402 -0.7095 -0.8582
 7720TIP3   OH223123   4.394   4.550   0.731 -0.1417 -0.4558 -0.3766
 7720TIP3    H123124   4.406   4.633   0.776 -0.8045 -0.7899  0.4444
 7720TIP3    H223125   4.336   4.500   0.788 -0.9067 -0.9448 -1.5362
 7721TIP3   OH223126   3.979   2.817   1.418  0.1782 -0.7960  0.1424
 7721TIP3    H123127   4.034   2.785   1.347 -0.5326 -0.4243 -0.5906
 7721TIP3    H223128   3.891   2.786   1.397 -0.1245 -0.2768  0.6072
 7722TIP3   OH223129   0.111   0.609   4.326 -0.1293  0.7084 -0.4395
 7722TIP3    H123130   0.016   0.607   4.318 -0.0444 -0.2572 -1.6661
 7722TIP3    H223131   0.139   0.523   4.294  0.9969 -0.3805  3.0748
 7723TIP3   OH223132   4.887   0.794   0.629  0.7063 -0.3536  0.0466
 7723TIP3    H123133   4.982   0.800   0.629  0.6922 -0.0938  0.2635
 7723TIP3    H223134   4.868   0.711   0.672  0.7975  0.5493  1.9733
 7724TIP3   OH223135   5.586   6.053   4.473 -0.8418 -0.5025 -0.1643
 7724TIP3    H123136   5.647   6.028   4.403  0.2961  1.5465  0.0388
 7724TIP3    H223137   5.574   6.147   4.463 -2.6007 -0.5627  0.9190
 7725TIP3   OH223138   3.672   2.673   3.783  0.5530  0.1085 -0.2874
 7725TIP3    H123139   3.584   2.636   3.780  1.0589 -1.0843 -1.4321
 7725TIP3    H223140   3.715   2.638   3.705  2.9654 -1.7043  1.7293
 7726TIP3   OH223141   6.126   5.125   3.994 -0.2919  0.0083  0.9099
 7726TIP3    H123142   6.045   5.110   4.042 -0.0413 -0.6621  1.1424
 7726TIP3    H223143   6.183   5.052   4.020 -0.1134 -0.3129 -0.3291
 7727TIP3   OH223144   0.289   1.790   4.149 -0.4885  0.5337 -0.8268
 7727TIP3    H123145   0.327   1.706   4.123 -1.5888 -0.2410 -0.0289
 7727TIP3    H223146   0.363   1.850   4.152  0.5343 -0.7150 -0.1448
 7728TIP3   OH223147   6.904   1.109   4.572  0.3076 -0.4757 -0.6975
 7728TIP3    H123148   6.968   1.177   4.552  0.6729 -0.6849 -0.2672
 7728TIP3    H223149   6.819   1.148   4.552  0.4093  0.5988  0.7963
 7729TIP3   OH223150   7.039   4.810   4.939 -0.3295  0.4573  0.2820
 7729TIP3    H123151   7.039   4.718   4.964 -0.1268  0.6154  0.8703
 7729TIP3    H223152   7.131   4.833   4.929 -0.4038  0.0797 -1.8522
 7730TIP3   OH223153   0.187   1.956   5.777 -0.2122  0.6712  0.5935
 7730TIP3    H123154   0.102   1.911   5.786 -0.2224  0.3204 -0.8912
 7730TIP3    H223155   0.246   1.907   5.834 -0.0772 -1.7181 -1.4273
 7731TIP3   OH223156   5.286   1.850   5.259  0.7572 -0.0299 -0.5106
 7731TIP3    H123157   5.355   1.868   5.322  1.2994 -0.0053 -1.0947
 7731TIP3    H223158   5.324   1.784   5.200  0.2196 -0.1531 -0.7280
 7732TIP3   OH223159   6.734   3.182   2.064 -0.2350  0.2214 -0.2451
 7732TIP3    H123160   6.696   3.095   2.056 -0.6358  0.4857 -1.6072
 7732TIP3    H223161   6.684   3.235   2.001  2.0958  0.6818 -1.8382
 7733TIP3   OH223162   6.184   4.780   3.079  0.1242 -0.4558  0.2655
 7733TIP3    H123163   6.265   4.822   3.050 -0.4373  0.4010 -0.0810
 7733TIP3    H223164   6.116   4.815   3.021 -0.5775 -0.7836  0.8761
 7734TIP3   OH223165   3.917   4.253   4.415 -0.1095  0.6813 -0.0871
 7734TIP3    H123166   3.870   4.183   4.460 -0.6710  0.4080 -1.0854
 7734TIP3    H223167   3.996   4.265   4.468  0.0235 -0.7302  0.0864
 7735TIP3   OH223168   5.446   2.493   0.146  0.0585  0.1722  0.4423
 7735TIP3    H123169   5.489   2.528   0.223  1.2253  3.0730 -1.3486
 7735TIP3    H223170   5.352   2.501   0.164  0.3035  0.1134  1.8031
 7736TIP3   OH223171   2.839   4.351   5.201  0.4052  0.1173  0.0420
 7736TIP3    H123172   2.900   4.364   5.128 -0.5052  1.4622 -0.5198
 7736TIP3    H223173   2.777   4.424   5.193 -0.4033 -0.3890  1.4700
 7737TIP3   OH223174   4.113   5.694   0.379  0.0199 -0.4721 -0.1218
 7737TIP3    H123175   4.163   5.650   0.448 -0.4290 -3.1027 -1.3748
 7737TIP3    H223176   4.180   5.725   0.318  0.3821  1.3519  1.1292
 7738TIP3   OH223177   1.969   4.807   1.358 -0.0770 -1.3202  0.0802
 7738TIP3    H123178   2.019   4.725   1.356  0.5581 -0.9886 -3.2973
 7738TIP3    H223179   2.027   4.869   1.401  0.6393 -1.9964  0.1241
 7739TIP3   OH223180   2.890   5.905   3.007 -0.1494 -0.2098  0.1100
 7739TIP3    H123181   2.932   5.952   2.935  0.9174 -0.5406  0.4892
 7739TIP3    H223182   2.859   5.973   3.066 -0.0879  0.0430 -0.1476
 7740TIP3   OH223183   3.548   3.437   2.337  0.3078 -0.1468  0.4507
 7740TIP3    H123184   3.625   3.386   2.362 -0.1006 -0.8076  0.3909
 7740TIP3    H223185   3.552   3.515   2.391  1.0303 -0.1680  0.4373
 7741TIP3   OH223186   6.239   1.864   3.297 -0.5810  0.2046 -0.3454
 7741TIP3    H123187   6.146   1.841   3.310 -0.2079 -0.7273  0.9266
 7741TIP3    H223188   6.277   1.856   3.385  0.4801  1.6546 -0.6513
 7742TIP3   OH223189   1.092   4.584   1.493  0.2836 -0.0675 -0.0472
 7742TIP3    H123190   1.124   4.500   1.527  0.5807  0.6827  1.6103
 7742TIP3    H223191   1.022   4.560   1.432  0.7556 -1.5344 -0.0549
 7743TIP3   OH223192   6.762   6.554   1.466 -0.7324 -0.1602  0.1201
 7743TIP3    H123193   6.752   6.470   1.422 -0.9480  0.2049 -0.5376
 7743TIP3    H223194   6.824   6.537   1.537  0.5081 -0.5110 -1.0054
 7744TIP3   OH223195   2.077   1.447   5.818  0.1203  0.2129  0.0853
 7744TIP3    H123196   2.048   1.527   5.863 -0.4906 -0.4788  0.9595
 7744TIP3    H223197   2.036   1.452   5.732  1.3144  1.5687 -0.4432
 7745TIP3   OH223198   4.315   3.449   2.391  0.2094  0.7778  0.5629
 7745TIP3    H123199   4.264   3.519   2.350 -0.2586  0.4734  0.6115
 7745TIP3    H223200   4.323   3.382   2.323 -1.0037  0.0528  1.0982
 7746TIP3   OH223201   3.825   1.418   3.455  0.5169  0.1133  0.1487
 7746TIP3    H123202   3.782   1.349   3.505 -0.1400 -0.3037 -0.9495
 7746TIP3    H223203   3.815   1.497   3.509 -0.2049 -0.3153  0.6545
 7747TIP3   OH223204   6.610   4.272   0.707  0.1537  0.4732  0.0546
 7747TIP3    H123205   6.636   4.190   0.663 -0.5764 -0.1390  0.7372
 7747TIP3    H223206   6.680   4.288   0.770  1.1351  1.2771 -1.1768
 7748TIP3   OH223207   2.613   5.287   1.564  0.5714  0.1802  0.3540
 7748TIP3    H123208   2.578   5.281   1.475  0.7545 -1.1418  0.3499
 7748TIP3    H223209   2.587   5.374   1.594  0.2666  0.5394 -0.8878
 7749TIP3   OH223210   1.004   3.916   1.728  1.0563  0.4081  0.0755
 7749TIP3    H123211   0.976   3.865   1.804 -0.2465 -0.2874 -0.8383
 7749TIP3    H223212   1.099   3.919   1.735  1.0572 -0.9759  0.8950
 7750TIP3   OH223213   2.930   5.732   1.225 -0.1150  0.7821  0.2096
 7750TIP3    H123214   2.964   5.820   1.206  1.4750 -0.1582 -1.6546
 7750TIP3    H223215   2.982   5.703   1.300 -1.2099  1.6681  1.3763
 7751TIP3   OH223216   4.093   5.562   3.490 -0.2469  0.8619 -0.3265
 7751TIP3    H123217   4.050   5.561   3.405 -1.9024 -1.6206  0.4403
 7751TIP3    H223218   4.086   5.653   3.519 -1.2498  1.3828 -2.0587
 7752TIP3   OH223219   6.495   0.413   0.711 -0.4603 -0.1376  0.0080
 7752TIP3    H123220   6.507   0.388   0.619 -0.6524  0.6654 -0.2413
 7752TIP3    H223221   6.405   0.446   0.715  0.2435  1.8762  0.0045
 7753TIP3   OH223222   4.687   3.014   4.897  0.2474  0.4919  0.1414
 7753TIP3    H123223   4.677   2.972   4.812  0.7637 -2.5181  1.4025
 7753TIP3    H223224   4.768   2.978   4.932  1.4891  3.7045  0.9096
 7754TIP3   OH223225   6.222   0.731   4.442  0.0340  0.1668 -0.0126
 7754TIP3    H123226   6.295   0.747   4.502  0.4668 -0.2688 -0.4082
 7754TIP3    H223227   6.263   0.727   4.356 -0.2887 -1.1991 -0.1307
 7755TIP3   OH223228   3.350   3.920   5.451  0.3696 -0.1096 -0.4461
 7755TIP3    H123229   3.296   3.859   5.502  0.3167 -0.2526 -0.6703
 7755TIP3    H223230   3.287   3.983   5.415  0.3039 -0.4806 -0.9954
 7756TIP3   OH223231   2.856   6.529   5.042 -0.2115  0.7703  0.1116
 7756TIP3    H123232   2.890   6.560   5.126  0.7560  1.5628 -0.5336
 7756TIP3    H223233   2.890   6.593   4.979 -0.9209  0.1883 -0.8748
 7757TIP3   OH223234   3.923   0.238   2.625  0.4516  0.9960  0.7783
 7757TIP3    H123235   3.953   0.213   2.537  0.5827  0.8796  0.8551
 7757TIP3    H223236   3.886   0.325   2.614  0.0371  0.7898  0.5124
 7758TIP3   OH223237   2.486   1.984   3.793  0.0492  0.5343 -0.3860
 7758TIP3    H123238   2.558   1.923   3.776 -0.1700 -0.1206  0.8786
 7758TIP3    H223239   2.467   2.023   3.708  2.3795  1.2944 -0.6200
 7759TIP3   OH223240   2.145   0.234   4.767  0.4078  0.0274  0.2267
 7759TIP3    H123241   2.124   0.158   4.713  0.5946 -0.2105  0.4825
 7759TIP3    H223242   2.182   0.197   4.847  1.2785  0.4196  0.0228
 7760TIP3   OH223243   1.585   3.771   4.350  0.1394 -0.2646 -0.1425
 7760TIP3    H123244   1.511   3.710   4.348  0.0564 -0.1843  0.5607
 7760TIP3    H223245   1.588   3.804   4.439  0.2979  0.6358 -0.4688
 7761TIP3   OH223246   2.064   2.694   5.724 -0.0557  0.0688 -0.3034
 7761TIP3    H123247   2.147   2.735   5.750  0.3780 -1.4922  0.9069
 7761TIP3    H223248   2.086   2.642   5.647  0.4944 -1.5389  0.8807
 7762TIP3   OH223249   4.866   6.329   4.824 -0.0797  0.1068  0.3033
 7762TIP3    H123250   4.860   6.318   4.729 -3.3806  0.7509  0.3105
 7762TIP3    H223251   4.777   6.313   4.855  0.5515  1.4970  3.1316
 7763TIP3   OH223252   1.752   6.448   3.901  0.3544  0.3610 -0.8378
 7763TIP3    H123253   1.781   6.420   3.815  1.2666  0.4462 -0.5650
 7763TIP3    H223254   1.701   6.374   3.935  0.8389 -0.0697 -1.0393
 7764TIP3   OH223255   2.052   4.936   3.066  0.0642  0.3867  0.2091
 7764TIP3    H123256   2.072   5.020   3.107 -0.4533  0.6716 -0.1197
 7764TIP3    H223257   2.070   4.871   3.134 -3.0214  0.9631  1.7530
 7765TIP3   OH223258   6.569   2.479   4.502 -0.3045  0.1994  0.0777
 7765TIP3    H123259   6.611   2.528   4.431 -0.4300 -0.5401 -0.5235
 7765TIP3    H223260   6.491   2.531   4.524  0.5638  1.2539  0.7746
 7766TIP3   OH223261   3.430   1.211   2.375  0.2705 -0.5193 -0.3097
 7766TIP3    H123262   3.360   1.269   2.405  1.2456  0.6200 -0.1445
 7766TIP3    H223263   3.399   1.176   2.292 -0.3665  0.2111 -0.3874
 7767TIP3   OH223264   2.457   1.382   2.377 -0.8587  0.4993  0.5870
 7767TIP3    H123265   2.429   1.314   2.438 -1.3552  0.9790  0.8960
 7767TIP3    H223266   2.455   1.340   2.291 -2.8194  0.6040  0.5579
 7768TIP3   OH223267   6.468   4.582   0.353  0.6983  0.3555  0.2356
 7768TIP3    H123268   6.550   4.552   0.313 -0.1479 -1.4399 -0.2251
 7768TIP3    H223269   6.468   4.545   0.441 -0.0388 -0.4665 -0.0965
 7769TIP3   OH223270   0.785   1.709   4.716 -0.4594 -0.3159 -0.2680
 7769TIP3    H123271   0.829   1.742   4.795  2.4447  2.0697 -2.6199
 7769TIP3    H223272   0.710   1.768   4.704 -1.6699 -1.4695  1.2708
 7770TIP3   OH223273   5.172   3.986   3.208 -0.0216 -0.2967  0.5190
 7770TIP3    H123274   5.144   3.971   3.117 -0.8937  1.4335  0.4573
 7770TIP3    H223275   5.137   3.911   3.256  0.2157 -1.1016 -0.5206
 7771TIP3   OH223276   2.587   1.577   1.729  0.2607  0.4391 -0.3657
 7771TIP3    H123277   2.503   1.555   1.689 -0.1280 -1.3144  1.3082
 7771TIP3    H223278   2.567   1.590   1.822  1.5550  1.8784 -0.2436
 7772TIP3   OH223279   2.069   6.453   3.612  0.4234  0.5062 -0.3706
 7772TIP3    H123280   2.124   6.530   3.603  0.6950  0.3519 -0.0527
 7772TIP3    H223281   2.082   6.405   3.530 -0.4450  1.2381 -0.9528
 7773TIP3   OH223282   5.763   2.515   2.042  0.0545 -0.2332  0.4009
 7773TIP3    H123283   5.682   2.503   2.091  0.2991  1.5096  1.3359
 7773TIP3    H223284   5.796   2.427   2.027 -0.6449 -0.8828  2.3552
 7774TIP3   OH223285   3.651   3.409   4.845 -0.1901  0.0897  0.1533
 7774TIP3    H123286   3.679   3.403   4.936 -0.8989 -1.3632  0.2934
 7774TIP3    H223287   3.715   3.357   4.796 -0.9352 -0.8017  0.0984
 7775TIP3   OH223288   5.449   5.938   5.323 -0.4431 -0.2176  0.3812
 7775TIP3    H123289   5.485   5.964   5.407 -1.0509  0.4245  0.4497
 7775TIP3    H223290   5.460   6.015   5.267 -2.4575  0.3332  0.6508
 7776TIP3   OH223291   0.965   3.399   4.804  0.5080  0.1022 -0.0291
 7776TIP3    H123292   0.887   3.344   4.812  0.2256  0.3514 -0.9323
 7776TIP3    H223293   0.943   3.463   4.736  1.9490 -0.6322 -1.2484
 7777TIP3   OH223294   4.639   0.212   4.867 -0.0796  0.0862 -0.0728
 7777TIP3    H123295   4.566   0.243   4.921  0.9770 -0.2318  1.6256
 7777TIP3    H223296   4.625   0.117   4.861 -0.7472  0.2394 -1.2723
 7778TIP3   OH223297   5.134   4.574   3.201 -0.3356  0.8652 -0.1361
 7778TIP3    H123298   5.075   4.520   3.149  0.0632  0.6642 -0.3891
 7778TIP3    H223299   5.110   4.664   3.179  1.2478  0.8183 -2.3795
 7779TIP3   OH223300   2.159   5.117   2.573 -0.4836  0.4710  0.5558
 7779TIP3    H123301   2.132   5.208   2.584  1.6982  1.2349  0.0712
 7779TIP3    H223302   2.167   5.106   2.478 -1.6639 -0.5532  0.5507
 7780TIP3   OH223303   5.339   0.458   3.910  0.3217 -0.2008  0.0021
 7780TIP3    H123304   5.384   0.389   3.958 -1.4024 -1.7571 -0.5308
 7780TIP3    H223305   5.246   0.437   3.917 -0.2874  2.1614 -0.0584
 7781TIP3   OH223306   4.056   1.064   4.398 -0.5754 -0.1078  0.3043
 7781TIP3    H123307   4.144   1.038   4.425  0.3324  2.1788 -0.2121
 7781TIP3    H223308   4.043   1.018   4.315  0.5269  0.2007 -0.0683
 7782TIP3   OH223309   1.860   4.314   4.808 -0.6836  0.2400 -0.3140
 7782TIP3    H123310   1.798   4.322   4.736 -0.7025  2.4061 -0.1195
 7782TIP3    H223311   1.805   4.297   4.885 -0.7617 -0.8515 -0.5997
 7783TIP3   OH223312   3.653   2.300   4.678  0.0186 -1.0932 -0.0985
 7783TIP3    H123313   3.593   2.246   4.729  1.6697 -0.7439  2.4165
 7783TIP3    H223314   3.689   2.362   4.742  1.3556  0.1780 -1.9721
 7784TIP3   OH223315   6.654   0.620   5.859 -0.2023  1.1257 -0.9071
 7784TIP3    H123316   6.693   0.604   5.773 -0.3273  0.0719 -0.7793
 7784TIP3    H223317   6.729   0.620   5.919 -0.3366 -1.2021 -0.6186
 7785TIP3   OH223318   0.530   5.804   0.303  0.0291 -0.3874  0.1787
 7785TIP3    H123319   0.585   5.726   0.313 -0.2817 -0.6463 -0.1258
 7785TIP3    H223320   0.570   5.852   0.230 -0.4454 -0.8340 -0.3851
 7786TIP3   OH223321   3.867   2.390   4.526  0.1382 -1.0203  0.3850
 7786TIP3    H123322   3.800   2.346   4.580 -0.7128  0.3889  0.5373
 7786TIP3    H223323   3.904   2.457   4.584 -0.6050  0.3479 -0.6457
 7787TIP3   OH223324   2.438   1.238   5.448  0.3702 -0.3359 -0.4661
 7787TIP3    H123325   2.456   1.187   5.527  1.1919  3.2349  1.8591
 7787TIP3    H223326   2.523   1.244   5.404  0.6533  0.3722  0.1573
 7788TIP3   OH223327   3.301   3.769   3.997  0.3417  0.0188 -0.1390
 7788TIP3    H123328   3.370   3.751   4.061  0.0440  0.4844  0.3187
 7788TIP3    H223329   3.341   3.746   3.913  1.5200  1.4594 -0.0227
 7789TIP3   OH223330   3.033   4.412   4.676  0.0693  0.1988 -0.5271
 7789TIP3    H123331   3.058   4.503   4.660  0.5310  0.1184 -0.2530
 7789TIP3    H223332   2.943   4.406   4.644  0.7699  0.1876 -2.6270
 7790TIP3   OH223333   1.410   6.576   2.983  0.7011  0.6547 -0.3479
 7790TIP3    H123334   1.423   6.498   2.930  1.8901  0.0259  0.7994
 7790TIP3    H223335   1.343   6.626   2.936 -0.8882 -1.5260 -0.5632
 7791TIP3   OH223336   6.476   6.293   3.421 -0.1354  0.5334  0.1288
 7791TIP3    H123337   6.461   6.245   3.341  2.5225  2.1936 -1.5254
 7791TIP3    H223338   6.499   6.226   3.486  0.0527 -0.6836 -1.1515
 7792TIP3   OH223339   5.076   5.177   4.514  0.7435 -0.1590  0.3036
 7792TIP3    H123340   5.059   5.084   4.502  0.8289 -0.2759  1.0123
 7792TIP3    H223341   5.046   5.196   4.603  1.1570  0.3846  0.3388
 7793TIP3   OH223342   1.479   1.327   0.438  0.7630  0.2745 -0.4262
 7793TIP3    H123343   1.444   1.366   0.518  0.2975  0.8816 -0.9105
 7793TIP3    H223344   1.471   1.397   0.372  2.1205  0.1454 -0.7582
 7794TIP3   OH223345   1.938   0.576   2.413  0.2445  0.0900  0.5621
 7794TIP3    H123346   1.919   0.521   2.489 -1.4680  0.5059  0.4745
 7794TIP3    H223347   1.865   0.638   2.409  0.9080  0.8385 -0.7389
 7795TIP3   OH223348   1.999   5.747   4.174  0.2726 -0.1393  0.1302
 7795TIP3    H123349   1.919   5.695   4.175  0.7618 -0.8976  1.4458
 7795TIP3    H223350   2.069   5.684   4.156  0.8718  0.0430  1.6805
 7796TIP3   OH223351   4.197   4.553   5.189 -0.3817  0.5528 -0.7223
 7796TIP3    H123352   4.277   4.594   5.219 -1.3327  1.0109  1.4037
 7796TIP3    H223353   4.208   4.460   5.211 -0.1656  0.4828 -1.1078
 7797TIP3   OH223354   2.344   3.782   3.534 -0.4442 -0.0147 -1.1845
 7797TIP3    H123355   2.373   3.694   3.512 -0.5181 -0.0287 -1.2271
 7797TIP3    H223356   2.268   3.770   3.591  0.9635  0.0184  0.7750
 7798TIP3   OH223357   1.475   4.233   5.649 -0.2971 -0.1835 -0.4291
 7798TIP3    H123358   1.420   4.181   5.591 -0.0642  0.4974 -1.2664
 7798TIP3    H223359   1.427   4.234   5.732  0.2544 -2.7579  0.0313
 7799TIP3   OH223360   5.513   1.546   3.376 -0.7750  0.1124  0.3498
 7799TIP3    H123361   5.420   1.541   3.358 -0.6186  0.4391 -0.5779
 7799TIP3    H223362   5.553   1.572   3.293  0.1981 -0.5907  0.5745
 7800TIP3   OH223363   4.793   5.603   1.755  0.1402 -0.3553  0.4355
 7800TIP3    H123364   4.869   5.603   1.813  1.4245  0.0037 -1.1649
 7800TIP3    H223365   4.752   5.689   1.769  0.4645 -0.2517  0.7554
 7801TIP3   OH223366   5.584   3.508   3.273  0.4149  0.3380  0.1833
 7801TIP3    H123367   5.489   3.510   3.282  0.3513 -1.1882  0.1136
 7801TIP3    H223368   5.609   3.421   3.305  1.7616  0.6420 -0.0004
 7802TIP3   OH223369   0.977   4.700   0.084  0.0904  0.1798 -0.3757
 7802TIP3    H123370   0.952   4.614   0.117  0.6162 -0.1114 -0.7108
 7802TIP3    H223371   0.925   4.712   0.004 -1.2763  0.9402  0.6023
 7803TIP3   OH223372   4.611   5.277   1.061 -0.1612 -0.2892  0.2354
 7803TIP3    H123373   4.532   5.245   1.019  1.2197 -2.1054 -1.1174
 7803TIP3    H223374   4.602   5.251   1.153 -0.5399 -1.6565 -0.1783
 7804TIP3   OH223375   5.641   5.471   2.713 -0.0803  0.1860  0.1715
 7804TIP3    H123376   5.724   5.514   2.733  0.7850 -1.4004  0.2161
 7804TIP3    H223377   5.666   5.382   2.685 -1.5166  0.7057 -3.3093
 7805TIP3   OH223378   4.127   1.505   4.513 -0.3047 -0.6338  0.3102
 7805TIP3    H123379   4.193   1.568   4.482 -0.1970 -0.8759  0.0447
 7805TIP3    H223380   4.065   1.559   4.562  0.5288 -0.5178  1.2801
 7806TIP3   OH223381   2.008   1.306   1.653  0.5885 -0.2410 -0.2431
 7806TIP3    H123382   1.914   1.288   1.649  0.2208  1.2131  0.7117
 7806TIP3    H223383   2.048   1.224   1.681 -0.6189 -0.4114  1.0789
 7807TIP3   OH223384   1.656   5.222   3.015 -0.1139 -0.2440 -0.2481
 7807TIP3    H123385   1.751   5.226   3.031  0.2188  1.6051 -2.2478
 7807TIP3    H223386   1.619   5.284   3.078  0.3443  1.0842 -1.2299
 7808TIP3   OH223387   3.288   1.102   2.157  0.4592 -0.5486  0.3774
 7808TIP3    H123388   3.313   1.044   2.085  1.3131 -0.1549  0.3407
 7808TIP3    H223389   3.206   1.143   2.129  1.3433  0.4289 -0.8608
 7809TIP3   OH223390   4.754   2.870   5.505 -0.5178  0.1916 -0.3173
 7809TIP3    H123391   4.750   2.870   5.409  1.1716 -0.3219 -0.4254
 7809TIP3    H223392   4.679   2.816   5.532 -0.8261  0.0714 -1.3572
 7810TIP3   OH223393   4.986   1.785   3.736  0.5554 -0.5906  0.0021
 7810TIP3    H123394   4.920   1.807   3.670  1.3213 -2.1497 -1.3580
 7810TIP3    H223395   4.937   1.779   3.818 -0.8208 -0.7331 -0.8012
 7811TIP3   OH223396   4.804   4.449   1.489 -0.2318 -0.2439 -0.1417
 7811TIP3    H123397   4.803   4.497   1.406  0.4524 -0.5130 -0.3074
 7811TIP3    H223398   4.870   4.494   1.542  1.2324 -1.6723 -0.7080
 7812TIP3   OH223399   4.991   5.613   3.677  0.1130 -0.3142  0.3186
 7812TIP3    H123400   4.991   5.706   3.656 -0.6392 -0.0143  1.5540
 7812TIP3    H223401   5.077   5.597   3.717  0.0754 -0.0436  0.5105
 7813TIP3   OH223402   6.666   1.786   0.187 -0.4242 -0.2943 -0.7397
 7813TIP3    H123403   6.720   1.854   0.228 -0.3876 -1.1547  0.7194
 7813TIP3    H223404   6.730   1.726   0.148 -0.3889 -0.4305 -0.4729
 7814TIP3   OH223405   3.647   0.418   3.040  0.3163  0.4476  0.2844
 7814TIP3    H123406   3.644   0.362   3.117  0.3258 -0.5934 -0.4576
 7814TIP3    H223407   3.556   0.445   3.027  0.2306  0.1867  0.3390
 7815TIP3   OH223408   0.720   6.423   1.078  0.6555  0.8821  0.0437
 7815TIP3    H123409   0.799   6.451   1.031  0.3316  1.2577 -0.2770
 7815TIP3    H223410   0.752   6.357   1.140  1.0137  0.0148 -1.0246
 7816TIP3   OH223411   6.980   0.720   1.096  0.1149  0.4100  0.5141
 7816TIP3    H123412   6.903   0.732   1.041  1.5088 -0.3053 -1.7723
 7816TIP3    H223413   6.976   0.628   1.122  0.1595  0.3830  0.4277
 7817TIP3   OH223414   1.358   4.661   4.518  0.0270 -0.0875 -0.2936
 7817TIP3    H123415   1.439   4.660   4.468 -0.3201 -0.1119 -0.8679
 7817TIP3    H223416   1.379   4.708   4.598  0.6629 -0.2817 -0.3445
 7818TIP3   OH223417   3.898   0.344   4.124  0.0935  0.2167  0.8866
 7818TIP3    H123418   3.932   0.258   4.100  1.7096  1.3206 -1.0779
 7818TIP3    H223419   3.919   0.354   4.217  1.9184 -0.6283  0.5853
 7819TIP3   OH223420   4.733   3.867   4.584 -0.0109  0.6093 -0.4308
 7819TIP3    H123421   4.688   3.951   4.590  0.3329  0.8111 -0.6239
 7819TIP3    H223422   4.737   3.848   4.490 -0.1165  0.3584 -0.3871
 7820TIP3   OH223423   6.487   0.126   3.563  0.3480 -0.1229  0.0240
 7820TIP3    H123424   6.544   0.163   3.496  0.0425  1.0863  0.4103
 7820TIP3    H223425   6.398   0.144   3.532  0.2033  0.8648  0.9577
 7821TIP3   OH223426   6.128   6.781   0.457  0.5855 -0.0582  0.7211
 7821TIP3    H123427   6.086   6.775   0.543 -2.9357  0.1308 -0.8143
 7821TIP3    H223428   6.176   6.864   0.460  2.8579 -1.3013  3.2950
 7822TIP3   OH223429   0.049   3.571   1.314  0.0297  0.4537  0.4987
 7822TIP3    H123430  -0.013   3.634   1.279 -0.8751 -1.2859 -1.1649
 7822TIP3    H223431   0.002   3.530   1.387  0.5778  1.5273  1.5083
 7823TIP3   OH223432   0.531   6.420  -0.000  0.7880  0.1140 -0.2687
 7823TIP3    H123433   0.582   6.426   0.080  0.0542  2.7967  0.0953
 7823TIP3    H223434   0.459   6.482   0.012  0.0926 -0.1279 -2.5956
 7824TIP3   OH223435   6.571   4.832   1.311 -0.4707  0.2000 -0.3301
 7824TIP3    H123436   6.510   4.795   1.247 -1.2305  0.0685  0.4502
 7824TIP3    H223437   6.575   4.925   1.290  1.0178 -0.1888 -1.9553
 7825TIP3   OH223438   5.404   4.252   4.507  0.1821  0.2799  0.1801
 7825TIP3    H123439   5.437   4.173   4.463 -1.6362  0.0219 -0.8396
 7825TIP3    H223440   5.315   4.262   4.473 -0.1535  1.9303  1.4438
 7826TIP3   OH223441   3.331   4.779   1.612  0.2746  0.4863  0.7006
 7826TIP3    H123442   3.317   4.699   1.561  0.4632 -0.0627  1.5052
 7826TIP3    H223443   3.341   4.848   1.546 -2.1499  0.2570 -0.0142
 7827TIP3   OH223444   4.047   5.432   1.243  0.3921 -0.2904  0.1894
 7827TIP3    H123445   4.058   5.383   1.161  0.4338 -2.5361  1.4423
 7827TIP3    H223446   3.987   5.378   1.295 -1.6786  2.3381  0.7142
 7828TIP3   OH223447   2.920   4.932   0.137  0.6617 -0.0470 -0.2211
 7828TIP3    H123448   3.005   4.895   0.113  1.1671  2.1230 -2.1830
 7828TIP3    H223449   2.864   4.917   0.061 -0.3841 -0.3707  0.5741
 7829TIP3   OH223450   0.488   0.977   5.735  0.2320  0.9311 -0.3506
 7829TIP3    H123451   0.522   0.978   5.645  0.6177 -0.6423 -0.2500
 7829TIP3    H223452   0.469   1.069   5.754 -1.2921  1.1782 -2.5814
 7830TIP3   OH223453   3.647   1.996   1.766 -0.0245 -0.1028  0.9902
 7830TIP3    H123454   3.696   2.072   1.734  1.5413 -0.4472  2.4412
 7830TIP3    H223455   3.711   1.924   1.767 -1.2420 -1.2320  0.5075
 7831TIP3   OH223456   2.357   1.620   4.195  0.4070 -0.1126  0.2403
 7831TIP3    H123457   2.333   1.630   4.103  0.8605 -0.4417  0.0794
 7831TIP3    H223458   2.351   1.526   4.211  3.8438 -0.5883 -0.4944
 7832TIP3   OH223459   2.946   0.869   2.045 -0.3088 -0.3955 -0.0677
 7832TIP3    H123460   2.882   0.800   2.027 -0.5662 -0.3362  0.5962
 7832TIP3    H223461   3.022   0.822   2.078 -0.5481 -0.3492  0.5525
 7833TIP3   OH223462   3.172   6.182   3.384 -0.0657 -0.6235 -0.2987
 7833TIP3    H123463   3.172   6.270   3.346 -1.8739  0.0855  1.1924
 7833TIP3    H223464   3.150   6.196   3.476 -0.2113 -2.6297  0.0106
 7834TIP3   OH223465   5.570   5.726   2.347 -0.2119  0.5522  0.3666
 7834TIP3    H123466   5.588   5.634   2.365 -2.6171  0.2068  1.4590
 7834TIP3    H223467   5.584   5.735   2.253  0.9693 -0.6731  0.3942
 7835TIP3   OH223468   6.810   1.992   0.361 -0.2896  0.5932 -0.1440
 7835TIP3    H123469   6.754   2.004   0.438 -0.6357  1.4659 -0.5209
 7835TIP3    H223470   6.858   2.074   0.353 -0.4390  0.6022 -1.0027
 7836TIP3   OH223471   4.225   1.959   4.145  0.1459 -0.4707 -0.2184
 7836TIP3    H123472   4.297   1.964   4.207  1.1429  0.5807 -1.3943
 7836TIP3    H223473   4.180   1.878   4.167 -0.2687  0.4065  2.5928
 7837TIP3   OH223474   1.720   0.802   4.586 -0.1469 -0.2463 -0.3173
 7837TIP3    H123475   1.791   0.831   4.643  0.7213  0.9240 -1.9058
 7837TIP3    H223476   1.703   0.877   4.530 -1.0747 -1.2932 -1.4878
 7838TIP3   OH223477   3.006   2.394   1.049  0.3139 -0.2680 -0.2396
 7838TIP3    H123478   2.923   2.348   1.040 -0.6655  0.9831  1.6286
 7838TIP3    H223479   3.060   2.336   1.103  0.0180 -0.3422 -0.0209
 7839TIP3   OH223480   1.763   2.300   2.560  0.7928 -0.6441  0.0501
 7839TIP3    H123481   1.847   2.342   2.544  0.6852 -1.1039 -1.9990
 7839TIP3    H223482   1.710   2.367   2.601  0.9238  1.0004 -2.2885
 7840TIP3   OH223483   4.661   0.321   2.538  0.2359 -0.0710  0.3796
 7840TIP3    H123484   4.681   0.256   2.471  2.1999 -1.2809  2.0411
 7840TIP3    H223485   4.723   0.392   2.523 -0.2916  0.3348  0.0630
 7841TIP3   OH223486   4.704   1.591   5.212 -0.3001  0.3609 -0.0314
 7841TIP3    H123487   4.792   1.555   5.200 -0.2134 -0.4535  2.3803
 7841TIP3    H223488   4.716   1.686   5.207  0.3921  0.2179 -1.4248
 7842TIP3   OH223489   0.141   0.658   2.861 -0.5556  0.3509 -0.1962
 7842TIP3    H123490   0.131   0.728   2.926 -1.6805 -1.2971  1.5319
 7842TIP3    H223491   0.072   0.676   2.797 -1.3281  0.4220  0.6355
 7843TIP3   OH223492   3.711   6.091   2.174 -0.1953 -0.0298  0.1135
 7843TIP3    H123493   3.773   6.021   2.153  0.0268 -0.0197  0.7282
 7843TIP3    H223494   3.646   6.086   2.104 -0.2617 -0.9459  0.2257
 7844TIP3   OH223495   2.984   1.322   5.029  0.0150 -1.0197  0.0730
 7844TIP3    H123496   2.896   1.321   5.066 -0.1497  1.8506  0.0165
 7844TIP3    H223497   2.985   1.250   4.965 -1.8801 -1.8178  0.8794
 7845TIP3   OH223498   6.200   6.468   0.623 -0.1684 -0.0220  0.0433
 7845TIP3    H123499   6.151   6.546   0.649  0.1056  0.1623  0.0075
 7845TIP3    H223500   6.142   6.423   0.561  0.1867  0.7955 -0.8986
 7846TIP3   OH223501   3.993   0.916   4.863 -0.1402  0.2674 -0.3913
 7846TIP3    H123502   3.902   0.939   4.844 -0.5240 -0.9258 -0.1167
 7846TIP3    H223503   3.998   0.917   4.959 -0.4600 -1.6348 -0.2994
 7847TIP3   OH223504   5.844   3.417   3.151 -0.2554  0.0172 -0.1292
 7847TIP3    H123505   5.816   3.387   3.064 -1.3725 -1.3869  0.6684
 7847TIP3    H223506   5.768   3.462   3.187 -0.2097 -0.4278  0.5483
 7848TIP3   OH223507   6.458   5.372   1.291 -0.2174  0.2682 -0.0555
 7848TIP3    H123508   6.526   5.414   1.344 -0.0880  0.8834 -0.6990
 7848TIP3    H223509   6.409   5.319   1.354 -0.6576  1.7275  0.8705
 7849TIP3   OH223510   6.162   3.015   5.288  1.0237 -0.3421  0.3756
 7849TIP3    H123511   6.135   2.952   5.356 -1.5234  1.0090  0.7530
 7849TIP3    H223512   6.229   3.069   5.330  0.0821 -0.0590  1.5544
 7850TIP3   OH223513   7.012   5.860   1.169  0.6856  0.6759  0.1398
 7850TIP3    H123514   7.058   5.942   1.148  0.0760  1.0398  0.1939
 7850TIP3    H223515   7.074   5.811   1.223  0.8892  1.3002  0.4884
 7851TIP3   OH223516   2.655   2.909   0.436 -0.8496  0.3863  0.1679
 7851TIP3    H123517   2.656   2.825   0.390  0.7444  0.9929 -1.0220
 7851TIP3    H223518   2.573   2.909   0.485 -1.3721 -1.4211 -0.6198
 7852TIP3   OH223519   0.240   4.392   2.742  0.0878 -0.1706 -0.1360
 7852TIP3    H123520   0.195   4.475   2.729  1.5277  0.4512 -1.5759
 7852TIP3    H223521   0.288   4.378   2.660  1.2113 -1.5708  0.7102
 7853TIP3   OH223522   1.617   5.767   1.804 -0.2864 -0.2573 -0.5317
 7853TIP3    H123523   1.644   5.794   1.716 -1.0444  1.5225 -0.2727
 7853TIP3    H223524   1.696   5.777   1.857 -0.5891  2.0321 -0.3788
 7854TIP3   OH223525   3.788   5.898   0.297 -0.3615  0.1305 -0.5167
 7854TIP3    H123526   3.829   5.813   0.313 -0.0463  0.1306 -1.2829
 7854TIP3    H223527   3.713   5.900   0.357  0.2484 -0.2324  0.2772
 7855TIP3   OH223528   1.625   5.677   2.468  0.1104 -0.7529 -0.1104
 7855TIP3    H123529   1.565   5.670   2.542 -1.5007  1.2430 -1.1424
 7855TIP3    H223530   1.647   5.770   2.463  0.3750 -0.8747 -1.9588
 7856TIP3   OH223531   2.788   4.064   5.409 -0.1978  0.3357  0.2074
 7856TIP3    H123532   2.742   4.109   5.338  0.2265 -1.1108 -1.0354
 7856TIP3    H223533   2.767   3.971   5.396 -0.5103  0.0684  2.2929
 7857TIP3   OH223534   1.002   2.277   0.817  0.2753 -0.5408 -0.3708
 7857TIP3    H123535   1.054   2.354   0.793  0.5006  0.0249  1.7900
 7857TIP3    H223536   0.916   2.294   0.779  0.9040 -0.2737 -1.7650
 7858TIP3   OH223537   7.122   4.550   1.440 -0.4054 -0.2458 -0.0778
 7858TIP3    H123538   7.088   4.477   1.389  1.0347  0.3963 -2.0696
 7858TIP3    H223539   7.193   4.512   1.492  0.3321 -0.2878 -1.0978
 7859TIP3   OH223540   6.139   0.819   4.903  0.3925  0.7245  0.2197
 7859TIP3    H123541   6.059   0.871   4.900  0.6015  1.0158 -0.9247
 7859TIP3    H223542   6.123   0.746   4.843  0.6104  0.2282  0.7610
 7860TIP3   OH223543   4.148   1.438   2.990  0.2591  0.1914 -0.0059
 7860TIP3    H123544   4.207   1.479   3.054  0.3895  0.1888 -0.1228
 7860TIP3    H223545   4.124   1.508   2.931  0.6063  0.0705 -0.2974
 7861TIP3   OH223546   1.500   1.691   1.078  0.1163  0.7888  0.4737
 7861TIP3    H123547   1.492   1.773   1.127  2.5606  0.7109  1.1179
 7861TIP3    H223548   1.557   1.636   1.132 -0.2677 -0.7902 -0.6635
 7862TIP3   OH223549   2.930   5.799   1.501  0.2991 -0.0065  0.3714
 7862TIP3    H123550   2.846   5.839   1.479  0.7556  0.9166  0.2779
 7862TIP3    H223551   2.926   5.783   1.595  0.3313  0.8104  0.5182
 7863TIP3   OH223552   3.638   2.939   3.036 -0.3425  0.2461  0.0350
 7863TIP3    H123553   3.565   2.931   3.098 -0.0713  0.2618  0.3574
 7863TIP3    H223554   3.678   2.852   3.036  0.0603  0.4263  0.3863
 7864TIP3   OH223555   6.426   3.898   0.031 -0.2805 -0.2576 -0.0938
 7864TIP3    H123556   6.404   3.986   0.063  0.3473 -0.5604  1.2346
 7864TIP3    H223557   6.399   3.839   0.101 -1.2734 -1.2109 -1.2303
 7865TIP3   OH223558   0.828   0.836   2.685  0.2994  0.0548 -0.0396
 7865TIP3    H123559   0.758   0.889   2.724 -0.6883  1.3404 -3.2365
 7865TIP3    H223560   0.789   0.750   2.673 -1.1933  0.9822 -2.5900
 7866TIP3   OH223561   4.679   1.739   4.491  0.0378 -0.4715 -0.0700
 7866TIP3    H123562   4.617   1.739   4.564 -0.6095  0.6479 -0.6034
 7866TIP3    H223563   4.733   1.817   4.506  3.0036 -2.6092  1.7203
 7867TIP3   OH223564   4.710   0.760   5.185  0.1280 -0.7448  0.0766
 7867TIP3    H123565   4.754   0.676   5.199  1.7773  0.0626 -0.1021
 7867TIP3    H223566   4.641   0.762   5.251  0.5734 -1.8915  0.6053
 7868TIP3   OH223567   5.878   4.402   3.029 -0.1987 -0.4870  0.1613
 7868TIP3    H123568   5.792   4.362   3.038 -0.7158  0.6170  0.2266
 7868TIP3    H223569   5.862   4.496   3.030  0.8339 -0.2519 -1.5791
 7869TIP3   OH223570   2.336   0.225   2.411 -0.4781  0.4129  0.7460
 7869TIP3    H123571   2.346   0.130   2.402  0.6037  0.6539 -1.0443
 7869TIP3    H223572   2.247   0.242   2.379 -1.0188 -0.0705  1.9379
 7870TIP3   OH223573   5.434   0.249   4.344 -0.2424  0.3627 -0.1373
 7870TIP3    H123574   5.451   0.340   4.318 -1.3399  0.3913 -0.8073
 7870TIP3    H223575   5.447   0.249   4.439  0.7261  0.9894 -0.2533
 7871TIP3   OH223576   4.795   4.250   5.546  0.0676  0.4529 -0.4294
 7871TIP3    H123577   4.882   4.289   5.550 -0.1387  0.9678 -0.8821
 7871TIP3    H223578   4.739   4.310   5.595 -0.2586  0.7470 -1.1608
 7872TIP3   OH223579   0.844   3.986   5.349  0.2721 -0.6250  0.1082
 7872TIP3    H123580   0.749   3.997   5.340  0.3042 -0.0969  0.3897
 7872TIP3    H223581   0.870   4.051   5.414  0.9786 -0.0721 -0.7055
 7873TIP3   OH223582   0.808   3.829   0.193  0.4720 -0.0687  0.0769
 7873TIP3    H123583   0.814   3.774   0.115  1.7325  0.4341 -0.2070
 7873TIP3    H223584   0.832   3.916   0.162 -0.5301  0.4592  0.7224
 7874TIP3   OH223585   5.806   5.622   4.955  0.1147  0.3891 -0.6845
 7874TIP3    H123586   5.740   5.644   5.021 -0.2376  1.4002 -1.3463
 7874TIP3    H223587   5.784   5.533   4.929 -1.2145  0.8199 -1.1210
 7875TIP3   OH223588   0.827   3.372   1.643  0.6794  0.6613  1.0397
 7875TIP3    H123589   0.811   3.383   1.737  0.4161 -1.0605  1.2363
 7875TIP3    H223590   0.910   3.324   1.638  0.3065  0.0497  0.4480
 7876TIP3   OH223591   0.177   2.899   4.761 -0.4332 -0.3517  0.0877
 7876TIP3    H123592   0.107   2.964   4.751  0.9600  1.2604  0.2753
 7876TIP3    H223593   0.224   2.926   4.839 -0.8703 -2.7105  1.2518
 7877TIP3   OH223594   3.381   6.620   0.997  0.3971 -0.1715  0.1324
 7877TIP3    H123595   3.303   6.635   1.052  1.4459  0.4655  1.5001
 7877TIP3    H223596   3.391   6.525   0.995 -1.2580 -0.3798 -1.3349
 7878TIP3   OH223597   6.284   2.641   2.142  0.3090  0.3089 -0.2788
 7878TIP3    H123598   6.325   2.721   2.112  0.7908  0.4080  0.6050
 7878TIP3    H223599   6.354   2.593   2.186 -0.4338  0.3702  1.0463
 7879TIP3   OH223600   6.824   1.383   2.613  0.0256 -0.5013  0.1572
 7879TIP3    H123601   6.913   1.387   2.579  0.1965  0.2099  0.6815
 7879TIP3    H223602   6.775   1.334   2.546  0.6922 -0.4617 -0.3650
 7880TIP3   OH223603   0.119   3.388   5.573 -0.0905 -0.5284  0.3843
 7880TIP3    H123604   0.057   3.410   5.642 -0.9676 -1.7251  0.0151
 7880TIP3    H223605   0.169   3.314   5.608  0.7736  0.0710  0.4593
 7881TIP3   OH223606   2.065   3.820   5.734  0.4558  0.3880 -0.1607
 7881TIP3    H123607   2.043   3.794   5.644  0.9746  0.8030 -0.4171
 7881TIP3    H223608   2.014   3.900   5.748 -0.1963 -0.0837  0.1852
 7882TIP3   OH223609   1.157   5.019   0.808 -0.2074 -0.4365 -0.0700
 7882TIP3    H123610   1.252   5.018   0.821 -0.1846 -0.4121 -0.2374
 7882TIP3    H223611   1.132   5.110   0.828 -0.3615 -0.7220  1.1531
 7883TIP3   OH223612   2.549   0.848   1.695 -0.2170 -0.4474  0.9551
 7883TIP3    H123613   2.585   0.874   1.780  0.2332 -0.7975  0.8770
 7883TIP3    H223614   2.464   0.892   1.690  0.5404  1.0905  0.7794
 7884TIP3   OH223615   3.212   1.440   5.115  0.1287  0.1402  0.2515
 7884TIP3    H123616   3.135   1.388   5.137  1.0671 -1.8020 -0.7840
 7884TIP3    H223617   3.220   1.431   5.020  1.4092  0.6225  0.2943
 7885TIP3   OH223618   5.894   6.749   0.090  0.8002  0.2069 -0.0299
 7885TIP3    H123619   5.974   6.761   0.037  0.3896 -0.3858 -0.8010
 7885TIP3    H223620   5.830   6.808   0.050  0.5089 -0.1849 -0.1415
 7886TIP3   OH223621   3.685   4.030   3.972  0.6959 -0.0286 -0.1297
 7886TIP3    H123622   3.743   3.955   3.961 -0.2659 -1.0107  1.2195
 7886TIP3    H223623   3.608   3.995   4.017 -0.4331  1.4724 -0.7901
 7887TIP3   OH223624   4.862   4.598   5.275 -0.5752  0.3689  0.2189
 7887TIP3    H123625   4.852   4.525   5.336  1.5560 -2.3443 -2.4319
 7887TIP3    H223626   4.943   4.641   5.302  0.2267 -0.6669 -0.4958
 7888TIP3   OH223627   0.745   3.967   0.740  0.4654  0.1210 -0.0991
 7888TIP3    H123628   0.652   3.954   0.756  0.6868 -1.7851 -0.1544
 7888TIP3    H223629   0.756   3.954   0.646  0.8518 -0.1307 -0.0227
 7889TIP3   OH223630   3.562   3.469   1.003  0.0006  0.3944 -0.2174
 7889TIP3    H123631   3.576   3.542   0.943 -1.0327  0.8484  0.0732
 7889TIP3    H223632   3.477   3.433   0.979  0.8336 -1.2480 -0.8816
 7890TIP3   OH223633   1.305   0.543   5.212  0.3571  0.3244 -0.1026
 7890TIP3    H123634   1.216   0.512   5.231  0.6668 -0.1136  0.6709
 7890TIP3    H223635   1.348   0.545   5.297  1.2358  0.0865 -0.5367
 7891TIP3   OH223636   2.378   0.957   0.072  0.1729 -0.0563  0.3287
 7891TIP3    H123637   2.363   0.927   0.162 -1.8927 -1.2266 -0.3532
 7891TIP3    H223638   2.437   0.892   0.034  1.2690  0.5859  0.8768
 7892TIP3   OH223639   2.342   2.166   5.086  0.5243 -0.2378 -0.3950
 7892TIP3    H123640   2.263   2.178   5.139  0.7311 -2.8372  0.6347
 7892TIP3    H223641   2.414   2.182   5.147  0.7714 -0.2598 -0.6808
 7893TIP3   OH223642   5.236   0.260   3.425  0.3265  0.4087 -0.2839
 7893TIP3    H123643   5.247   0.187   3.486  1.3164  0.3987 -0.4491
 7893TIP3    H223644   5.216   0.335   3.480  0.0377  0.1606 -0.0491
 7894TIP3   OH223645   0.718   3.776   0.955  0.2966 -0.0909 -0.8151
 7894TIP3    H123646   0.637   3.818   0.923 -0.4600 -0.2620  0.7865
 7894TIP3    H223647   0.785   3.807   0.894 -0.5630  1.9217 -0.8541
 7895TIP3   OH223648   6.097   1.112   4.931 -0.5374  0.2746  0.2029
 7895TIP3    H123649   6.163   1.043   4.927 -1.2918 -0.5010  0.7241
 7895TIP3    H223650   6.126   1.169   5.002  1.1094  1.6204 -1.4486
 7896TIP3   OH223651   0.420   4.383   2.495  0.4772  0.0227 -0.0682
 7896TIP3    H123652   0.457   4.467   2.522  0.7468 -0.3313  0.7113
 7896TIP3    H223653   0.496   4.330   2.471  0.3406 -0.1339 -0.1591
 7897TIP3   OH223654   4.257   3.509   5.389 -0.3825  0.6752 -0.3857
 7897TIP3    H123655   4.348   3.483   5.372 -0.0299  0.9153  1.0445
 7897TIP3    H223656   4.210   3.427   5.400  0.2732  0.5340  1.8124
 7898TIP3   OH223657   4.014   3.446   1.175 -0.3768 -0.2990  0.1879
 7898TIP3    H123658   4.002   3.419   1.266  1.5783  0.7600  0.8250
 7898TIP3    H223659   4.109   3.454   1.165 -0.6315  1.9916 -1.2031
 7899TIP3   OH223660   5.024   3.896   0.838  0.5748  0.3597 -0.2591
 7899TIP3    H123661   4.967   3.879   0.763 -1.7466 -1.9527  1.8165
 7899TIP3    H223662   5.013   3.990   0.856 -0.1964  0.5835 -1.7447
 7900TIP3   OH223663   1.207   6.212   3.401  0.0523 -0.0597 -0.7107
 7900TIP3    H123664   1.219   6.151   3.473  0.1628 -0.2991 -0.9318
 7900TIP3    H223665   1.116   6.198   3.373  0.3625 -0.8086 -1.3843
 7901TIP3   OH223666   3.413   5.226   5.097  0.3809  0.2251 -0.0943
 7901TIP3    H123667   3.325   5.256   5.078  0.1714  2.7387  3.6729
 7901TIP3    H223668   3.403   5.162   5.168  1.5309 -0.7029 -0.7185
 7902TIP3   OH223669   2.054   4.537   1.325 -0.0064  0.9204  0.0936
 7902TIP3    H123670   2.138   4.505   1.357 -0.2724 -0.2720 -0.3400
 7902TIP3    H223671   2.010   4.459   1.292 -1.1597  1.5794  0.0294
 7903TIP3   OH223672   0.845   3.726   4.302  0.2831  0.9006  0.1121
 7903TIP3    H123673   0.922   3.671   4.291 -0.3753  0.0672 -0.3986
 7903TIP3    H223674   0.867   3.784   4.376  1.2887  0.5094  0.1294
 7904TIP3   OH223675   6.393   2.339   4.271  0.1451  0.1232 -0.4756
 7904TIP3    H123676   6.328   2.292   4.323  0.7678 -1.3237 -0.9435
 7904TIP3    H223677   6.392   2.428   4.305  0.0135 -0.5895  1.5104
 7905TIP3   OH223678   5.445   3.158   1.445  0.1352 -0.0918  0.7415
 7905TIP3    H123679   5.451   3.233   1.386  2.0026 -0.0127  0.9478
 7905TIP3    H223680   5.391   3.095   1.398  0.8218  0.3255 -0.6817
 7906TIP3   OH223681   6.777   3.556   3.930  0.3366  0.4904  0.2247
 7906TIP3    H123682   6.790   3.500   4.006 -0.9276 -0.8372 -0.4808
 7906TIP3    H223683   6.854   3.612   3.928  0.6974  0.1307  2.1034
 7907TIP3   OH223684   5.800   5.237   5.280  0.4325 -0.1553  0.1977
 7907TIP3    H123685   5.818   5.234   5.374  0.7819 -0.0682  0.1350
 7907TIP3    H223686   5.725   5.179   5.268  0.9446 -0.8717  0.4052
 7908TIP3   OH223687   5.166   5.027   5.351 -0.7899 -0.2019  0.9677
 7908TIP3    H123688   5.223   5.100   5.328 -1.0664 -0.6164 -1.2663
 7908TIP3    H223689   5.122   5.055   5.431 -0.1867  1.6748  0.6874
 7909TIP3   OH223690   5.950   1.222   0.930 -0.0024 -0.2352  0.1612
 7909TIP3    H123691   5.984   1.225   0.840 -0.9335 -1.4224 -0.2668
 7909TIP3    H223692   5.931   1.129   0.944 -0.5073  0.0392  1.3452
 7910TIP3   OH223693   6.026   0.525   4.202  0.0075 -0.2996 -0.0039
 7910TIP3    H123694   6.063   0.604   4.162 -1.0642 -0.2736 -1.0216
 7910TIP3    H223695   5.984   0.556   4.282 -0.1678  0.1338 -0.2562
 7911TIP3   OH223696   1.293   2.488   4.768  0.9268 -0.5733  0.1075
 7911TIP3    H123697   1.349   2.433   4.713  1.8461 -0.8571  1.2744
 7911TIP3    H223698   1.354   2.545   4.815  0.1563 -0.1744  0.6502
 7912TIP3   OH223699   3.970   5.313   0.759 -0.1838 -0.3469  0.2151
 7912TIP3    H123700   4.040   5.328   0.696 -0.4216  0.3432  0.1031
 7912TIP3    H223701   3.932   5.400   0.773  0.2142 -0.3820  1.7251
 7913TIP3   OH223702   3.278   0.407   4.580  0.0893  0.2749  0.4211
 7913TIP3    H123703   3.302   0.497   4.559  0.3889  0.0767 -0.1051
 7913TIP3    H223704   3.310   0.394   4.670 -0.1660  0.7625  0.5852
 7914TIP3   OH223705   5.386   4.444   3.313  0.4816  0.3153 -0.4226
 7914TIP3    H123706   5.306   4.493   3.325  0.2170 -0.3744  0.8515
 7914TIP3    H223707   5.363   4.374   3.251  0.5995  1.1609 -1.4523
 7915TIP3   OH223708   6.616   5.103   1.375 -0.4687  0.0453 -0.7126
 7915TIP3    H123709   6.535   5.152   1.358 -0.3787  0.7537  0.7395
 7915TIP3    H223710   6.682   5.171   1.389 -0.4872 -0.4085  2.0291
 7916TIP3   OH223711   4.429   2.720   2.774 -0.0211  0.3201  0.6008
 7916TIP3    H123712   4.475   2.658   2.830 -1.4096  0.8831  2.4549
 7916TIP3    H223713   4.377   2.666   2.715  0.8447 -0.2726  0.3649
 7917TIP3   OH223714   1.887   1.927   5.835 -0.3103  0.1305 -0.6342
 7917TIP3    H123715   1.942   1.995   5.872  0.5439 -0.0556 -1.5298
 7917TIP3    H223716   1.866   1.870   5.909  0.2664  0.4847 -0.1931
 7918TIP3   OH223717   6.038   5.695   4.376 -0.6928 -0.8787 -0.0025
 7918TIP3    H123718   6.062   5.699   4.469 -0.6399  0.6385 -0.0559
 7918TIP3    H223719   5.951   5.733   4.372  0.2623  1.3631 -0.8443
 7919TIP3   OH223720   4.790   2.913   0.845  0.6264  0.6427 -0.4660
 7919TIP3    H123721   4.762   2.952   0.762  0.3478 -1.0538 -1.2181
 7919TIP3    H223722   4.712   2.867   0.877  0.9257  0.7284  0.4130
 7920TIP3   OH223723   1.154   1.473   1.069 -0.0709  0.1704 -0.1498
 7920TIP3    H123724   1.145   1.489   0.975 -1.2234 -1.3004 -0.3158
 7920TIP3    H223725   1.117   1.386   1.083  0.0969  0.3452  1.6763
 7921TIP3   OH223726   3.348   4.547   2.622  0.2678  0.1259  0.5953
 7921TIP3    H123727   3.320   4.553   2.531  0.0853  2.0876  0.7391
 7921TIP3    H223728   3.424   4.604   2.628  0.3484 -0.0646  1.6504
 7922TIP3   OH223729   1.574   4.416   2.974  0.2832  0.3234 -0.0125
 7922TIP3    H123730   1.623   4.371   2.905  0.8071  0.3615  0.3297
 7922TIP3    H223731   1.511   4.351   3.005 -0.4344  0.5225 -0.9912
 7923TIP3   OH223732   2.519   4.681   2.989  0.2461  0.8839  0.2398
 7923TIP3    H123733   2.512   4.601   3.041 -0.2285  1.5965  1.3253
 7923TIP3    H223734   2.471   4.747   3.040 -0.8367  1.4730 -1.4391
 7924TIP3   OH223735   0.740   2.754   4.415 -0.3075  0.0757  0.3491
 7924TIP3    H123736   0.801   2.712   4.354 -1.9449 -1.4382 -0.3289
 7924TIP3    H223737   0.793   2.821   4.458  2.3860 -2.3544  1.1737
 7925TIP3   OH223738   0.826   4.791   0.760  0.5462 -0.1420  0.7311
 7925TIP3    H123739   0.860   4.830   0.679 -2.1474  0.2406 -0.3475
 7925TIP3    H223740   0.890   4.725   0.784  0.9178 -1.1050 -2.4247
 7926TIP3   OH223741   6.616   1.712   1.954  0.1046  0.4375  0.4831
 7926TIP3    H123742   6.559   1.663   1.894 -0.2408 -0.1208  1.2472
 7926TIP3    H223743   6.678   1.757   1.897 -0.0360 -0.3122 -0.2813
 7927TIP3   OH223744   2.315   4.499   5.314 -0.3303  0.0697  0.2450
 7927TIP3    H123745   2.392   4.528   5.362  0.3330  1.8517 -1.7764
 7927TIP3    H223746   2.335   4.409   5.289  1.8251  0.9520 -1.5167
 7928TIP3   OH223747   4.979   6.086   5.800 -0.5593  0.3613 -0.1132
 7928TIP3    H123748   4.964   6.031   5.723 -1.1486 -1.4354  1.2116
 7928TIP3    H223749   4.911   6.059   5.862  0.7581  0.7414  1.5611
 7929TIP3   OH223750   3.848   1.581   4.201  0.3366  0.1894 -0.3038
 7929TIP3    H123751   3.807   1.589   4.287 -0.2815  2.0775 -0.7311
 7929TIP3    H223752   3.810   1.502   4.162  0.2537 -0.4010  0.9309
 7930TIP3   OH223753   5.205   0.926   4.474  0.3651 -0.0202  0.6523
 7930TIP3    H123754   5.117   0.890   4.469  1.0665 -2.8046  4.0450
 7930TIP3    H223755   5.249   0.895   4.395 -1.0465 -0.6368  0.0776
 7931TIP3   OH223756   6.476   3.331   4.999 -0.1545 -0.1844  0.8839
 7931TIP3    H123757   6.500   3.242   4.974  1.7478  0.5095  0.0561
 7931TIP3    H223758   6.396   3.349   4.949  0.3745 -0.8696 -0.2510
 7932TIP3   OH223759   2.720   3.089   0.009 -0.3254 -1.1035  0.1713
 7932TIP3    H123760   2.715   3.184   0.011 -0.9889 -1.1517  1.5315
 7932TIP3    H223761   2.780   3.066   0.080 -1.3805 -1.7556  0.8733
 7933TIP3   OH223762   4.501   2.199   2.904 -0.6043 -0.0848 -0.3450
 7933TIP3    H123763   4.580   2.216   2.955 -1.4811 -0.4848  1.2157
 7933TIP3    H223764   4.501   2.105   2.889  0.2458  0.1638 -2.1730
 7934TIP3   OH223765   1.491   0.600   2.873 -0.3857 -0.8725 -0.2021
 7934TIP3    H123766   1.418   0.593   2.934  0.5665 -1.3492  0.9081
 7934TIP3    H223767   1.450   0.618   2.788 -1.6976  0.4022  0.6684
 7935TIP3   OH223768   4.082   1.156   1.705  0.1941  0.2896  0.3095
 7935TIP3    H123769   4.005   1.179   1.757 -0.4027  0.0796 -0.4690
 7935TIP3    H223770   4.048   1.100   1.635  1.1844 -0.5263  0.4538
 7936TIP3   OH223771   6.204   5.361   5.801  0.2303 -0.0552  0.1622
 7936TIP3    H123772   6.186   5.292   5.866  2.1864 -0.9284 -0.1673
 7936TIP3    H223773   6.144   5.342   5.729  0.1757 -0.9247  0.4264
 7937TIP3   OH223774   4.736   3.768   0.064  0.2266  0.2766  0.1219
 7937TIP3    H123775   4.708   3.715  -0.011  0.2299  1.7776 -0.9866
 7937TIP3    H223776   4.697   3.724   0.140 -1.1896 -0.3646 -0.9233
 7938TIP3   OH223777   1.462   5.364   3.865  0.3517 -0.2361 -0.2821
 7938TIP3    H123778   1.547   5.323   3.883  1.1854  1.4601 -0.1873
 7938TIP3    H223779   1.410   5.294   3.825  1.4794 -1.5622  0.4806
 7939TIP3   OH223780   2.493   2.186   3.987  0.2664 -0.6102 -0.2114
 7939TIP3    H123781   2.422   2.244   3.959 -0.3163 -1.3822 -0.3661
 7939TIP3    H223782   2.497   2.118   3.919  0.7009 -0.9469  0.1450
 7940TIP3   OH223783   7.017   3.161   5.764 -0.3426  0.1761  0.6604
 7940TIP3    H123784   7.016   3.170   5.669 -0.8464 -0.7726  0.5705
 7940TIP3    H223785   7.093   3.106   5.783  0.0310  0.7438  0.8541
 7941TIP3   OH223786   6.712   1.654   0.736 -0.2007  0.4554  0.3915
 7941TIP3    H123787   6.693   1.647   0.830  0.3251 -0.6170  0.4354
 7941TIP3    H223788   6.660   1.584   0.696  2.8653 -2.0644  0.4373
 7942TIP3   OH223789   4.146   2.213   5.774 -0.2951 -0.3199 -0.0440
 7942TIP3    H123790   4.113   2.264   5.848  2.0258 -0.6550  1.2975
 7942TIP3    H223791   4.180   2.279   5.713  1.6350 -0.1461  1.1543
 7943TIP3   OH223792   5.105   6.531   4.544 -0.7393 -0.0764  0.4936
 7943TIP3    H123793   5.096   6.564   4.633  0.3831 -3.6928  2.1245
 7943TIP3    H223794   5.021   6.488   4.526 -0.0552 -1.6821  0.9588
 7944TIP3   OH223795   5.104   2.680   1.563 -0.6579  0.4745 -0.7821
 7944TIP3    H123796   5.044   2.708   1.493 -3.3081 -2.6129  0.0255
 7944TIP3    H223797   5.078   2.732   1.639  0.5755  2.0716 -1.3931
 7945TIP3   OH223798   7.037   0.316   0.547  0.0765  0.4306 -0.2512
 7945TIP3    H123799   7.051   0.357   0.462 -2.0601  0.7781 -0.5039
 7945TIP3    H223800   7.030   0.389   0.608 -0.7183  0.3234 -0.1967
 7946TIP3   OH223801   4.890   3.867   0.601  0.2784 -0.2843  0.2671
 7946TIP3    H123802   4.898   3.855   0.506 -1.5947  0.7495 -0.0744
 7946TIP3    H223803   4.796   3.870   0.617  0.5626  0.8054  1.9840
 7947TIP3   OH223804   7.170   6.724   4.952 -0.2102  0.2480 -0.2470
 7947TIP3    H123805   7.103   6.792   4.952  1.8520  2.4133  0.2306
 7947TIP3    H223806   7.174   6.694   5.043 -1.9062 -1.4544 -0.6627
 7948TIP3   OH223807   5.452   4.426   1.882  0.4211  0.0914 -0.3393
 7948TIP3    H123808   5.427   4.336   1.859 -1.2551  0.7126 -1.0465
 7948TIP3    H223809   5.415   4.480   1.812  0.7536  1.4130  0.4753
 7949TIP3   OH223810   1.173   0.897   0.411 -0.0056  0.4934 -0.0690
 7949TIP3    H123811   1.242   0.846   0.369  0.0374 -2.0672  2.7930
 7949TIP3    H223812   1.218   0.957   0.470 -0.1719  1.1058 -0.5524
 7950TIP3   OH223813   6.024   5.883   5.797  0.3447  0.0153  0.0342
 7950TIP3    H123814   6.065   5.799   5.776  0.0320 -1.0455  3.1540
 7950TIP3    H223815   5.933   5.862   5.818  0.2437  1.1156  0.8237
 7951TIP3   OH223816   6.740   3.659   0.167 -0.0028 -0.5492  0.3479
 7951TIP3    H123817   6.818   3.636   0.117 -0.2734  1.5136 -1.1259
 7951TIP3    H223818   6.669   3.610   0.125 -0.0161  0.1856 -0.5178
 7952TIP3   OH223819   3.350   4.998   2.734  0.3651  0.2006 -0.2454
 7952TIP3    H123820   3.425   4.951   2.769  0.6338 -0.1441 -1.2323
 7952TIP3    H223821   3.304   5.032   2.810  1.3159  0.0904  0.3853
 7953TIP3   OH223822   3.646   0.806   2.379 -0.5585  0.1153  0.0131
 7953TIP3    H123823   3.654   0.711   2.373 -2.0258 -0.1343  1.5552
 7953TIP3    H223824   3.552   0.824   2.375 -0.5730  1.2004  2.8369
 7954TIP3   OH223825   2.928   0.104   4.716  0.1386  0.0900 -0.1896
 7954TIP3    H123826   2.988   0.111   4.790 -0.7457 -0.3801  0.5999
 7954TIP3    H223827   2.962   0.165   4.651  0.3453  1.3096  1.0234
 7955TIP3   OH223828   1.893   3.626   5.837  0.1541 -0.1184 -0.0981
 7955TIP3    H123829   1.916   3.567   5.766 -0.0223 -0.6565  0.2873
 7955TIP3    H223830   1.934   3.710   5.813  0.9412 -0.5613 -0.3347
 7956TIP3   OH223831   5.650   6.368   2.107 -0.6835  0.0877 -0.2406
 7956TIP3    H123832   5.650   6.440   2.044  2.0652  0.3468 -0.0908
 7956TIP3    H223833   5.631   6.409   2.191  0.6654  0.6675 -0.1898
 7957TIP3   OH223834   2.480   2.322   2.518  0.4568  0.2061  0.3070
 7957TIP3    H123835   2.512   2.385   2.582  0.5376  1.9726 -1.3749
 7957TIP3    H223836   2.388   2.345   2.505  0.4423 -0.1233 -0.2137
 7958TIP3   OH223837   5.961   5.393   3.959  0.4972  0.5467  0.1250
 7958TIP3    H123838   5.925   5.317   4.004 -1.3536  0.4081 -1.4507
 7958TIP3    H223839   6.004   5.444   4.028  1.5219 -1.7359  1.2598
 7959TIP3   OH223840   3.815   3.955   0.369  0.5411 -0.4378 -0.0247
 7959TIP3    H123841   3.898   3.911   0.351  1.4815  0.9950  0.6711
 7959TIP3    H223842   3.799   3.940   0.462  0.4749  0.0471  0.0415
 7960TIP3   OH223843   3.947   0.271   5.224 -0.1197  0.3878 -0.9235
 7960TIP3    H123844   3.899   0.262   5.306  1.7052 -0.2073  0.1459
 7960TIP3    H223845   3.895   0.333   5.172 -2.0552 -0.3323  0.0798
 7961TIP3   OH223846   6.116   0.531   4.934  0.1364  0.2256  0.1256
 7961TIP3    H123847   6.048   0.546   4.869 -0.2593  0.6574  0.6303
 7961TIP3    H223848   6.081   0.463   4.992 -0.1503  0.9050  0.7676
 7962TIP3   OH223849   1.024   0.302   5.047  0.0772 -0.4645  0.0851
 7962TIP3    H123850   1.084   0.308   4.973  0.1425 -0.2806  0.1525
 7962TIP3    H223851   1.072   0.340   5.120  0.0502 -0.7392  0.2476
 7963TIP3   OH223852   3.092   6.108   4.433  0.3096 -0.3029 -0.2539
 7963TIP3    H123853   3.089   6.176   4.501 -0.4993  1.1020 -1.6319
 7963TIP3    H223854   3.173   6.060   4.452  0.2242  0.1638  1.5557
 7964TIP3   OH223855   4.186   4.278   0.079 -0.8159  0.4184 -0.7339
 7964TIP3    H123856   4.163   4.370   0.095 -1.2964  0.0703  0.7365
 7964TIP3    H223857   4.104   4.238   0.051 -0.7886  0.2689 -0.5990
 7965TIP3   OH223858   6.854   5.504   1.667 -0.4546  0.4029  0.2742
 7965TIP3    H123859   6.836   5.598   1.679 -0.2760  0.3098  1.3508
 7965TIP3    H223860   6.942   5.492   1.704 -0.0827 -0.0224 -0.7142
 7966TIP3   OH223861   6.133   5.839   1.076  0.1924 -0.4156 -0.2530
 7966TIP3    H123862   6.109   5.787   1.153 -0.1682 -1.0544 -0.7877
 7966TIP3    H223863   6.061   5.827   1.015  0.1406  0.6666 -0.4222
 7967TIP3   OH223864   0.622   2.546   3.245  0.0025 -0.4559 -0.0615
 7967TIP3    H123865   0.652   2.634   3.268 -0.4732  0.0643 -1.3056
 7967TIP3    H223866   0.652   2.534   3.154 -1.4865 -0.8455 -0.5212
 7968TIP3   OH223867   2.185   4.854   4.505 -0.1684 -0.1181 -0.1068
 7968TIP3    H123868   2.172   4.759   4.505  1.5828 -0.3949 -1.1311
 7968TIP3    H223869   2.268   4.867   4.551  0.8855  0.6684 -2.0902
 7969TIP3   OH223870   1.932   2.507   2.639  0.4174  0.4581  0.3754
 7969TIP3    H123871   2.017   2.509   2.683 -0.0994 -0.2246  1.4558
 7969TIP3    H223872   1.868   2.509   2.710 -0.4609 -0.0357 -0.3766
 7970TIP3   OH223873   1.920   3.424   0.398 -0.7243  0.9637 -0.2084
 7970TIP3    H123874   1.850   3.441   0.462  0.3323 -0.9200  1.5638
 7970TIP3    H223875   1.889   3.348   0.348  0.0715  0.0233  0.6890
 7971TIP3   OH223876   3.249   3.442   2.578 -0.0317  0.0520  0.0156
 7971TIP3    H123877   3.290   3.400   2.653 -0.8038  0.1438  0.5047
 7971TIP3    H223878   3.217   3.526   2.612 -1.0684 -0.2406 -0.2094
 7972TIP3   OH223879   6.470   1.073   2.107 -0.4792  0.4641 -0.2432
 7972TIP3    H123880   6.407   1.006   2.080 -2.3455  2.2153 -0.5068
 7972TIP3    H223881   6.420   1.130   2.165  1.0240  1.6867 -0.0863
 7973TIP3   OH223882   3.651   0.868   5.312  0.5790 -0.5255 -0.8439
 7973TIP3    H123883   3.597   0.889   5.388  1.7449  0.4293 -0.2518
 7973TIP3    H223884   3.616   0.923   5.242 -0.2491 -1.1221 -0.9112
 7974TIP3   OH223885   1.419   1.563   2.201 -0.5180  0.1959  0.5129
 7974TIP3    H123886   1.425   1.475   2.238  0.6914 -0.2417 -0.6570
 7974TIP3    H223887   1.372   1.551   2.118  2.2624  0.0930 -1.1537
 7975TIP3   OH223888   1.060   4.220   2.353 -0.1770 -0.2036  0.2748
 7975TIP3    H123889   1.153   4.205   2.341  0.1049  1.6372 -0.1412
 7975TIP3    H223890   1.038   4.171   2.433  1.4305  0.3591  1.1127
 7976TIP3   OH223891   4.564   0.763   1.126  0.0808  0.3665 -0.2449
 7976TIP3    H123892   4.582   0.704   1.199  1.8354  4.0087  2.6403
 7976TIP3    H223893   4.650   0.800   1.103 -0.5494  0.0090 -3.7043
 7977TIP3   OH223894   1.873   2.983   1.746  0.2063 -0.0148 -0.2468
 7977TIP3    H123895   1.881   2.989   1.842 -0.2903 -0.7001 -0.1542
 7977TIP3    H223896   1.935   3.048   1.713 -0.3288  0.9304  0.5508
 7978TIP3   OH223897   2.908   6.555   4.390 -0.1309 -0.0327  0.4057
 7978TIP3    H123898   2.852   6.509   4.452  0.1630 -0.7541  0.1393
 7978TIP3    H223899   2.994   6.558   4.432  0.2879 -1.2951 -0.3243
 7979TIP3   OH223900   4.641   3.918   5.307  0.0196  0.2612  0.2926
 7979TIP3    H123901   4.625   4.001   5.351  0.1606 -0.4555  1.7564
 7979TIP3    H223902   4.641   3.853   5.377 -3.3717 -1.4878 -1.0875
 7980TIP3   OH223903   6.988   0.452   4.677 -0.0731 -0.1204 -0.7221
 7980TIP3    H123904   6.980   0.543   4.646  1.2696 -0.1782 -1.3125
 7980TIP3    H223905   6.901   0.430   4.709 -0.6696  1.0670 -1.4451
 7981TIP3   OH223906   1.576   3.524   0.433  0.0522  0.3057 -0.4445
 7981TIP3    H123907   1.506   3.565   0.485 -2.0441 -0.4939 -2.4620
 7981TIP3    H223908   1.610   3.595   0.379  0.1014  0.4774 -0.1924
 7982TIP3   OH223909   1.685   0.888   0.901 -0.0772 -0.4640 -0.0175
 7982TIP3    H123910   1.750   0.950   0.870  0.7315 -1.9833 -1.5352
 7982TIP3    H223911   1.651   0.926   0.982  1.7622  0.9806  0.1242
 7983TIP3   OH223912   5.020   3.335   3.025  0.0948 -0.1904  0.2876
 7983TIP3    H123913   5.021   3.259   2.967  0.3178 -1.9033  2.4167
 7983TIP3    H223914   4.930   3.342   3.055 -0.1584  1.0694 -0.6702
 7984TIP3   OH223915   1.293   1.536   1.961 -0.2843 -0.0613 -0.1041
 7984TIP3    H123916   1.308   1.542   1.866 -0.8006 -0.9047 -0.2432
 7984TIP3    H223917   1.199   1.545   1.971 -0.1700  0.6852  0.3999
 7985TIP3   OH223918   3.765   4.615   2.947  0.1994 -0.1338  0.4242
 7985TIP3    H123919   3.743   4.562   3.023 -2.4285 -0.9170 -0.7569
 7985TIP3    H223920   3.728   4.701   2.966 -2.0319 -0.8040 -0.5930
 7986TIP3   OH223921   5.323   5.889   5.713 -0.1895 -0.4758  0.0675
 7986TIP3    H123922   5.317   5.969   5.660 -1.1184  0.7763  1.9328
 7986TIP3    H223923   5.339   5.819   5.650 -0.8160  0.9858 -1.8021
 7987TIP3   OH223924   7.047   5.265   5.160  0.2948 -0.2412  0.7055
 7987TIP3    H123925   6.957   5.240   5.138  0.7484 -0.5525 -0.9057
 7987TIP3    H223926   7.036   5.340   5.219 -1.0442  0.6899 -0.6248
 7988TIP3   OH223927   2.281   6.188   5.414 -0.6637 -0.5397 -0.3479
 7988TIP3    H123928   2.340   6.236   5.357  2.6949  0.1282  3.2540
 7988TIP3    H223929   2.274   6.101   5.375 -0.1100  0.3867 -2.6484
 7989TIP3   OH223930   7.208   5.754   5.565 -0.4761  0.0485  0.0965
 7989TIP3    H123931   7.129   5.754   5.619 -1.1054 -0.4069 -0.8010
 7989TIP3    H223932   7.279   5.733   5.626 -1.0110  0.6741  0.9543
 7990TIP3   OH223933   3.556   3.493   3.453  0.3149  0.2806 -0.4971
 7990TIP3    H123934   3.591   3.431   3.517 -0.1879  1.1459  0.6700
 7990TIP3    H223935   3.505   3.439   3.393  0.1622 -0.4881  0.2909
 7991TIP3   OH223936   2.151   0.754   2.326  0.2329  0.4819  0.2964
 7991TIP3    H123937   2.115   0.708   2.402  0.4000  1.5773  1.0702
 7991TIP3    H223938   2.076   0.802   2.290 -0.4805 -2.0224 -1.8497
 7992TIP3   OH223939   1.986   3.475   1.531  0.4641  0.5826  0.3470
 7992TIP3    H123940   1.991   3.544   1.598  0.8047  1.0283 -0.1306
 7992TIP3    H223941   1.897   3.440   1.541  0.3507  0.9598  0.7265
 7993TIP3   OH223942   3.391   5.299   3.626 -0.2543 -0.1124  0.1314
 7993TIP3    H123943   3.362   5.387   3.652  2.5504  1.2366 -0.9235
 7993TIP3    H223944   3.335   5.276   3.552 -0.0569  1.4586 -0.5389
 7994TIP3   OH223945   2.798   2.180   2.884  0.4387 -0.2725  0.7517
 7994TIP3    H123946   2.752   2.096   2.887 -0.5558  0.1652 -0.9725
 7994TIP3    H223947   2.737   2.241   2.925 -0.4930  0.2513 -1.2700
 7995TIP3   OH223948   1.363   4.693   5.425  0.3762  0.7347 -0.0183
 7995TIP3    H123949   1.450   4.682   5.386  0.8898 -1.5413  1.5610
 7995TIP3    H223950   1.302   4.661   5.358  0.8033  1.6097 -0.8389
 7996TIP3   OH223951   1.603   4.095   3.494  0.4306 -0.4104 -0.2945
 7996TIP3    H123952   1.551   4.052   3.427 -0.7459 -2.5028  1.8395
 7996TIP3    H223953   1.579   4.188   3.487 -3.9077 -1.2724  0.7389
 7997TIP3   OH223954   6.612   6.665   4.115  0.6427 -0.1120 -0.3856
 7997TIP3    H123955   6.683   6.619   4.070  1.5013  0.7642  0.0300
 7997TIP3    H223956   6.655   6.740   4.155 -0.3188 -0.1993  0.8592
 7998TIP3   OH223957   4.907   3.745   2.921 -0.2009 -0.2816 -0.4023
 7998TIP3    H123958   4.872   3.789   2.999  0.4315  0.2865 -0.4213
 7998TIP3    H223959   4.863   3.660   2.919 -1.5667  0.4036 -0.4441
 7999TIP3   OH223960   6.958   1.298   4.351  0.1268  0.5040 -0.2932
 7999TIP3    H123961   6.944   1.225   4.291 -1.6966  1.6785 -1.3939
 7999TIP3    H223962   7.039   1.338   4.321  0.0325  0.1819 -1.0091
 8000TIP3   OH223963   4.919   0.738   0.950  0.1203  0.0716  0.2909
 8000TIP3    H123964   4.898   0.789   1.029  0.8057  0.0464  0.4946
 8000TIP3    H223965   4.916   0.803   0.880  0.0329  0.2036  0.4139
 8001TIP3   OH223966   6.833   0.117   1.133 -0.3981 -0.5150  0.6086
 8001TIP3    H123967   6.858   0.209   1.143  0.1097 -0.7334  1.5515
 8001TIP3    H223968   6.826   0.104   1.039 -0.3957  0.4643  0.4569
 8002TIP3   OH223969   6.247   1.534   2.233 -0.1183 -0.0671  0.1129
 8002TIP3    H123970   6.308   1.499   2.297 -1.4293 -1.3983  0.6950
 8002TIP3    H223971   6.168   1.554   2.284  0.0958  2.5497 -0.4292
 8003TIP3   OH223972   1.691   5.324   4.676 -0.2722 -0.1190  0.0255
 8003TIP3    H123973   1.777   5.348   4.710 -0.2516  0.4224 -0.3931
 8003TIP3    H223974   1.681   5.232   4.699  0.4147 -0.1814  0.0953
 8004TIP3   OH223975   3.969   1.400   4.918 -0.5073 -0.0941  0.0972
 8004TIP3    H123976   3.952   1.322   4.865 -0.6504  0.0451 -0.0611
 8004TIP3    H223977   3.917   1.387   4.997 -0.6089 -0.1109  0.0270
 8005TIP3   OH223978   2.729   0.339   0.115  0.1554  0.0769 -0.0338
 8005TIP3    H123979   2.681   0.291   0.048 -0.0180  0.8439 -0.4755
 8005TIP3    H223980   2.746   0.275   0.184  0.4077 -0.7478 -0.8431
 8006TIP3   OH223981   5.124   1.654   5.566 -1.3404 -0.2131 -0.4287
 8006TIP3    H123982   5.092   1.739   5.537  1.6185  1.0751 -0.3162
 8006TIP3    H223983   5.098   1.593   5.497 -0.0591  1.5660 -2.6034
 8007TIP3   OH223984   0.691   0.064   3.674 -0.0555 -0.6235 -0.3247
 8007TIP3    H123985   0.745   0.077   3.752 -1.2315 -1.7340  0.7267
 8007TIP3    H223986   0.743   0.101   3.603  0.6385  1.3512  1.0934
 8008TIP3   OH223987   3.177   0.027   1.105  0.0701 -0.2502  0.5115
 8008TIP3    H123988   3.171   0.105   1.161 -1.8117 -0.2000  0.3003
 8008TIP3    H223989   3.247   0.048   1.043 -0.0984  1.0887  0.7366
 8009TIP3   OH223990   0.077   4.980   4.479  0.2176 -0.5056 -0.3446
 8009TIP3    H123991   0.028   4.926   4.416 -0.5926 -0.2091  0.0160
 8009TIP3    H223992   0.023   4.979   4.558  0.0263  1.0962 -0.4326
 8010TIP3   OH223993   5.333   3.849   3.427  0.0694  0.5648  0.5914
 8010TIP3    H123994   5.364   3.853   3.337  0.0249  1.4000  0.6082
 8010TIP3    H223995   5.239   3.838   3.420  0.2140 -0.8839  0.5450
 8011TIP3   OH223996   5.028   4.829   2.879  0.1545 -0.4682 -0.6022
 8011TIP3    H123997   4.978   4.780   2.814  0.3460 -1.2564 -0.1711
 8011TIP3    H223998   5.112   4.847   2.836  0.0166 -0.3635 -0.8279
 8012TIP3   OH223999   2.467   6.055   2.639 -0.1770  0.4513  0.5533
 8012TIP3    H124000   2.485   5.961   2.636 -0.3132  0.3699  1.7133
 8012TIP3    H224001   2.548   6.094   2.671  0.3594  0.9079 -1.2422
 8013TIP3   OH224002   7.022   1.430   5.645 -0.2097  0.3670  0.5277
 8013TIP3    H124003   7.070   1.388   5.573 -1.0345  1.0269 -0.4444
 8013TIP3    H224004   6.974   1.359   5.686  0.6091 -0.0927  0.7084
 8014TIP3   OH224005   2.021   6.064   3.517  0.1252 -0.5821  0.1817
 8014TIP3    H124006   1.996   6.152   3.486 -1.3551 -1.3419 -0.9021
 8014TIP3    H224007   1.990   6.062   3.608 -0.2544 -0.1377  0.0708
 8015TIP3   OH224008   3.195   4.780   0.313 -0.3325 -0.2521 -0.0344
 8015TIP3    H124009   3.262   4.737   0.366  0.2721  2.0290  1.1953
 8015TIP3    H224010   3.132   4.813   0.376  0.1222  2.0602 -0.7031
 8016TIP3   OH224011   6.891   5.797   3.398 -0.2784 -0.5795  0.2166
 8016TIP3    H124012   6.919   5.720   3.448  2.8147  0.1287 -0.2399
 8016TIP3    H224013   6.886   5.766   3.308 -1.7011 -0.8356  0.3583
 8017TIP3   OH224014   2.340   1.349   4.953 -0.4380 -0.3131  0.1008
 8017TIP3    H124015   2.285   1.367   5.030 -1.0828 -2.0224  0.0897
 8017TIP3    H224016   2.367   1.435   4.922 -1.3008  0.4748  1.4338
 8018TIP3   OH224017   0.956   4.348   1.326  0.0274 -0.2960 -0.1233
 8018TIP3    H124018   0.920   4.300   1.252 -1.3247 -1.0097  0.9607
 8018TIP3    H224019   0.905   4.429   1.329 -0.2309 -0.4724  0.2973
 8019TIP3   OH224020   5.007   3.536   5.843  0.2462  0.1086 -0.4574
 8019TIP3    H124021   4.921   3.509   5.811 -0.0887 -0.6630  1.0124
 8019TIP3    H224022   5.064   3.462   5.823 -0.0112 -0.4703  0.8472
 8020TIP3   OH224023   3.617   1.297   4.770 -0.2219  0.5495 -0.2209
 8020TIP3    H124024   3.632   1.286   4.864 -0.8467  2.8373  0.2014
 8020TIP3    H224025   3.619   1.391   4.756 -1.2002  0.3178 -2.3410
 8021TIP3   OH224026   4.183   3.330   4.783  0.0956  0.1092 -0.5038
 8021TIP3    H124027   4.257   3.298   4.731 -0.1732  1.8385 -2.0581
 8021TIP3    H224028   4.207   3.420   4.806 -0.5808 -0.0341  0.9072
 8022TIP3   OH224029   5.123   3.064   2.608 -0.1090  0.1979  0.3015
 8022TIP3    H124030   5.105   3.049   2.515 -1.3765 -0.1216  0.5807
 8022TIP3    H224031   5.213   3.035   2.620  0.7124  1.9167 -1.2007
 8023TIP3   OH224032   4.653   2.611   1.778 -0.3264  0.5150 -0.0462
 8023TIP3    H124033   4.731   2.572   1.819  0.0085  0.5015 -0.6861
 8023TIP3    H224034   4.587   2.611   1.848 -0.4517 -1.5104 -0.1104
 8024TIP3   OH224035   6.341   2.937   0.769  0.0016 -0.3974  0.7505
 8024TIP3    H124036   6.354   2.879   0.694  1.0545 -2.5284  2.4433
 8024TIP3    H224037   6.300   3.015   0.733 -1.0626 -1.9890 -1.7657
 8025TIP3   OH224038   1.717   4.884   5.050  0.2005 -0.4639 -0.0534
 8025TIP3    H124039   1.700   4.974   5.078 -1.3112 -1.0288  1.0257
 8025TIP3    H224040   1.807   4.884   5.020  0.4126  1.2785  0.4897
 8026TIP3   OH224041   2.140   1.494   3.982 -0.1193 -0.4650 -0.7077
 8026TIP3    H124042   2.054   1.503   3.941 -0.3093  1.9140  0.0463
 8026TIP3    H224043   2.121   1.494   4.076  0.7203  1.4487 -0.4873
 8027TIP3   OH224044   2.274   2.519   1.453  0.9419  0.1096 -0.3542
 8027TIP3    H124045   2.250   2.545   1.542  1.8941  1.4783 -0.4715
 8027TIP3    H224046   2.279   2.424   1.456 -0.9829 -0.0096  0.5441
 8028TIP3   OH224047   2.714   2.409   1.193  0.1797  0.0092  0.2899
 8028TIP3    H124048   2.740   2.354   1.119  1.0779  0.4235  0.2851
 8028TIP3    H224049   2.732   2.498   1.164  1.6964  0.1129  1.4385
 8029TIP3   OH224050   0.502   2.959   2.976 -0.3253  0.5805  0.2765
 8029TIP3    H124051   0.420   2.995   2.942  0.3606  0.6640 -1.3587
 8029TIP3    H224052   0.479   2.871   3.005 -0.9119  0.4652 -0.5129
 8030TIP3   OH224053   4.774   0.475   5.678  0.4581 -0.4951  0.3289
 8030TIP3    H124054   4.730   0.503   5.758 -0.4688 -0.8073 -0.0524
 8030TIP3    H224055   4.863   0.507   5.687  0.4068 -0.6405  1.5447
 8031TIP3   OH224056   1.445   5.940   1.133  0.9625 -0.8332  0.1375
 8031TIP3    H124057   1.389   5.866   1.112  0.7525 -0.9596  1.1195
 8031TIP3    H224058   1.442   5.995   1.055 -0.2137 -1.0346  0.0307
 8032TIP3   OH224059   0.393   6.671   0.667 -0.0449  0.2946 -0.5762
 8032TIP3    H124060   0.349   6.619   0.735 -1.7939  1.7442 -0.5192
 8032TIP3    H224061   0.406   6.609   0.595 -0.4619 -0.6513  0.1351
 8033TIP3   OH224062   3.710   4.726   5.138 -0.4536 -0.6820  0.2351
 8033TIP3    H124063   3.792   4.713   5.089 -0.9690 -0.7620 -0.6329
 8033TIP3    H224064   3.691   4.819   5.126  0.1324 -0.3794  1.4662
 8034TIP3   OH224065   1.846   5.297   3.217 -0.2318  0.4495  0.3221
 8034TIP3    H124066   1.818   5.262   3.302 -1.7272 -1.5280 -0.8829
 8034TIP3    H224067   1.811   5.386   3.214 -2.5036 -0.3620  0.7790
 8035TIP3   OH224068   6.329   4.796   5.375  0.0466 -0.2679  0.2323
 8035TIP3    H124069   6.388   4.857   5.419 -0.7908  0.1348  0.8537
 8035TIP3    H224070   6.324   4.828   5.285 -0.1063  0.3811  0.4623
 8036TIP3   OH224071   1.592   4.666   4.393 -0.0686  0.6371  0.3182
 8036TIP3    H124072   1.662   4.712   4.438 -1.8484  1.0562  2.8932
 8036TIP3    H224073   1.631   4.582   4.368  1.4865  1.0603  1.1839
 8037TIP3   OH224074   3.117   1.997   0.663 -0.3399 -0.2546  0.3478
 8037TIP3    H124075   3.161   2.063   0.716 -0.3670  0.8300 -0.9385
 8037TIP3    H224076   3.024   2.015   0.674 -0.3459 -0.0420 -0.0450
 8038TIP3   OH224077   5.231   2.330   4.155  0.1610  0.2384  0.2926
 8038TIP3    H124078   5.283   2.392   4.206 -0.7568  1.1255  0.1782
 8038TIP3    H224079   5.151   2.317   4.206 -0.7220  1.0591 -0.8318
 8039TIP3   OH224080   5.548   1.091   4.393  0.5251  0.4266  0.0690
 8039TIP3    H124081   5.619   1.154   4.409  0.8955  0.0235  0.0263
 8039TIP3    H224082   5.513   1.116   4.308 -0.2164  1.4116  0.6475
 8040TIP3   OH224083   0.260   1.191   4.216  0.1166 -0.6869  0.0514
 8040TIP3    H124084   0.316   1.220   4.288  0.8381 -0.5494 -0.5548
 8040TIP3    H224085   0.244   1.098   4.235 -2.1861 -0.0263  1.9829
 8041TIP3   OH224086   5.019   0.980   5.790  0.5274  0.0715 -0.1894
 8041TIP3    H124087   4.935   0.980   5.744  0.1263 -0.3482  0.5284
 8041TIP3    H224088   5.002   1.024   5.873  0.4774 -1.8724  0.8757
 8042TIP3   OH224089   2.963   6.004   3.681  0.4896  0.4421  0.0054
 8042TIP3    H124090   3.022   6.069   3.644  2.0005 -1.6320 -1.4711
 8042TIP3    H224091   3.008   5.970   3.758 -0.6765  1.6585  1.2802
 8043TIP3   OH224092   0.332   1.320   0.407 -0.1653  0.1104  0.3349
 8043TIP3    H124093   0.353   1.367   0.487  0.8691 -0.2267  0.2772
 8043TIP3    H224094   0.399   1.348   0.344 -0.5608 -0.1390 -0.2084
 8044TIP3   OH224095   5.840   3.145   1.410 -0.4051 -0.3981  0.1894
 8044TIP3    H124096   5.822   3.067   1.357  0.4588 -1.4594  1.3862
 8044TIP3    H224097   5.892   3.112   1.483  0.2174  1.3691  0.5870
 8045TIP3   OH224098   3.005   2.838   1.007  0.0344 -0.4989 -0.6274
 8045TIP3    H124099   3.057   2.909   1.044 -0.4537 -0.7788  0.6451
 8045TIP3    H224100   2.931   2.881   0.966  0.0207 -0.2425 -0.3346
 8046TIP3   OH224101   4.790   2.607   1.018 -0.2964 -0.5586  0.2060
 8046TIP3    H124102   4.760   2.517   1.003  0.4292 -0.9230  0.8711
 8046TIP3    H224103   4.716   2.651   1.058 -0.2074 -1.2502  1.1632
 8047TIP3   OH224104   1.952   4.324   4.201  0.4066 -0.0483  0.6889
 8047TIP3    H124105   1.892   4.344   4.130  2.0111  0.1088 -0.6885
 8047TIP3    H224106   1.957   4.405   4.252  0.7062  0.4939 -0.1718
 8048TIP3   OH224107   4.132   3.946   2.759 -0.4294  0.1572 -0.2946
 8048TIP3    H124108   4.164   3.860   2.785 -0.1937  0.5018  0.5943
 8048TIP3    H224109   4.183   3.968   2.681 -0.0395 -0.2383 -0.1551
 8049TIP3   OH224110   4.926   5.535   0.814 -0.9356  0.0370  0.4373
 8049TIP3    H124111   4.922   5.630   0.828 -0.4427  0.0546  0.4883
 8049TIP3    H224112   4.888   5.521   0.728 -1.9979  0.1661  0.8770
 8050TIP3   OH224113   0.967   1.274   2.456  0.0997  0.0889 -0.0468
 8050TIP3    H124114   0.957   1.191   2.504 -1.2592  0.4384  0.3049
 8050TIP3    H224115   1.059   1.297   2.468  0.4099 -1.1778  0.1699
 8051TIP3   OH224116   0.743   4.931   4.155  0.0452 -0.5619 -0.1426
 8051TIP3    H124117   0.744   4.977   4.239  0.1628  0.0586 -0.4743
 8051TIP3    H224118   0.773   4.843   4.175  1.4467 -0.0213  0.2517
 8052TIP3   OH224119   2.593   2.536   0.885 -0.1453  0.6214 -0.2032
 8052TIP3    H124120   2.537   2.575   0.951  0.6608  0.1352  0.7898
 8052TIP3    H224121   2.581   2.442   0.894  0.9420  0.4991  0.1469
 8053TIP3   OH224122   3.894   0.591   0.767  0.0622 -0.0454 -0.0777
 8053TIP3    H124123   3.820   0.616   0.822  1.1204  2.2152  0.4630
 8053TIP3    H224124   3.962   0.563   0.828  0.0355 -1.1087 -0.5060
 8054TIP3   OH224125   0.639   6.197   4.747  0.0441 -0.9705  0.3957
 8054TIP3    H124126   0.606   6.272   4.797  0.8751 -0.8896  0.8446
 8054TIP3    H224127   0.587   6.197   4.667  0.3320  0.3760  0.1773
 8055TIP3   OH224128   4.761   4.009   5.081  0.0872  0.2131  0.4092
 8055TIP3    H124129   4.721   3.963   5.155 -2.5428  2.4005  0.5435
 8055TIP3    H224130   4.731   3.961   5.004 -0.2978  0.0827  0.6355
 8056TIP3   OH224131   0.126   4.786   3.393 -0.7004  0.3582  0.6843
 8056TIP3    H124132   0.161   4.811   3.478 -0.4728 -2.1208  1.3937
 8056TIP3    H224133   0.139   4.864   3.338  2.8393  0.7663  1.8045
 8057TIP3   OH224134   5.918   1.433   1.143  0.0637 -0.0769 -0.1654
 8057TIP3    H124135   5.910   1.355   1.088 -1.6472  1.0496 -1.6439
 8057TIP3    H224136   5.947   1.400   1.228 -0.4457 -2.3051 -0.7909
 8058TIP3   OH224137   2.243   6.755   2.211 -0.1962 -0.0629 -0.1382
 8058TIP3    H124138   2.317   6.705   2.176 -0.4808 -0.9868  0.5371
 8058TIP3    H224139   2.175   6.689   2.225 -1.3672  0.8622 -1.2916
 8059TIP3   OH224140   1.199   6.028   0.386  0.2102 -0.1601  0.0888
 8059TIP3    H124141   1.289   6.044   0.358 -0.3400 -1.4324 -2.7461
 8059TIP3    H224142   1.158   6.115   0.385  1.0550  0.2519  0.0819
 8060TIP3   OH224143   4.290   3.863   4.709 -0.0374  0.0177 -0.2322
 8060TIP3    H124144   4.267   3.888   4.799 -0.5549  1.9055 -0.8368
 8060TIP3    H224145   4.362   3.923   4.686  0.2431 -0.6081 -1.0002
 8061TIP3   OH224146   5.647   1.470   0.012 -0.3019 -0.5203 -0.1597
 8061TIP3    H124147   5.627   1.472   0.106 -1.8077  0.1275 -0.4631
 8061TIP3    H224148   5.601   1.393  -0.020 -2.4242  0.9457 -0.8615
 8062TIP3   OH224149   4.606   4.196   4.421 -0.1297 -0.0171  0.0413
 8062TIP3    H124150   4.700   4.191   4.407 -0.1230  2.7278 -1.7981
 8062TIP3    H224151   4.592   4.282   4.461 -1.7962 -0.6824  0.9962
 8063TIP3   OH224152   2.546   3.358   1.542  0.3642  0.5049 -0.1128
 8063TIP3    H124153   2.631   3.396   1.564  1.1027 -0.9903 -0.3278
 8063TIP3    H224154   2.539   3.367   1.447  0.6684 -0.1401 -0.1995
 8064TIP3   OH224155   3.490   1.477   5.152  0.6592  0.3046 -0.0478
 8064TIP3    H124156   3.394   1.473   5.142  0.5457  1.5636  0.3543
 8064TIP3    H224157   3.503   1.503   5.243  1.3999  0.0410 -0.0741
 8065TIP3   OH224158   6.842   0.843   0.659  0.2365  0.1729 -0.1511
 8065TIP3    H124159   6.918   0.813   0.708  0.2608  2.4324  1.3380
 8065TIP3    H224160   6.782   0.769   0.660  1.8169 -1.1614 -0.1233
 8066TIP3   OH224161   6.418   3.056   3.794 -0.1092  0.0025 -0.4968
 8066TIP3    H124162   6.336   3.062   3.843 -0.4982  1.2585 -1.2572
 8066TIP3    H224163   6.462   3.140   3.810  1.2108 -0.7689  0.1696
 8067TIP3   OH224164   4.780   4.669   1.856  0.0964 -0.4893  0.2148
 8067TIP3    H124165   4.857   4.660   1.912 -0.0109 -3.2228  0.0234
 8067TIP3    H224166   4.813   4.661   1.767 -0.2283 -0.0416  0.0449
 8068TIP3   OH224167   0.571   2.369   0.485 -0.3896  0.4233  0.6812
 8068TIP3    H124168   0.629   2.441   0.459  0.8252 -0.3038  1.2784
 8068TIP3    H224169   0.571   2.371   0.580  0.5373 -0.9933  0.7503
 8069TIP3   OH224170   1.315   2.377   4.335 -0.1582  0.2561 -0.0622
 8069TIP3    H124171   1.293   2.284   4.340  2.0672 -0.3317 -0.2756
 8069TIP3    H224172   1.384   2.389   4.399 -0.0559  1.6536 -0.4116
 8070TIP3   OH224173   0.104   1.354   5.799 -0.0741  0.3857  0.7318
 8070TIP3    H124174   0.051   1.282   5.766 -0.3506  1.1023 -0.4721
 8070TIP3    H224175   0.051   1.393   5.869 -1.2498  1.1956 -0.5684
 8071TIP3   OH224176   6.125   2.748   0.804  0.2273 -0.0010 -1.1526
 8071TIP3    H124177   6.111   2.732   0.711 -0.5348  0.9293 -1.2184
 8071TIP3    H224178   6.143   2.662   0.842  0.9025 -0.3386 -2.2115
 8072TIP3   OH224179   1.565   1.252   3.639  0.3765  0.3461 -0.0014
 8072TIP3    H124180   1.583   1.158   3.646 -0.8352  0.0217 -0.9079
 8072TIP3    H224181   1.648   1.294   3.662  1.4442 -0.9946 -1.1997
 8073TIP3   OH224182   7.139   1.593   2.712  0.2449 -0.0604 -0.0315
 8073TIP3    H124183   7.220   1.577   2.664 -0.4153 -0.1352 -1.1390
 8073TIP3    H224184   7.075   1.618   2.645 -0.1509  2.0336  1.0274
 8074TIP3   OH224185   6.730   3.601   1.099 -0.1190 -0.4001 -0.1279
 8074TIP3    H124186   6.713   3.673   1.038  0.3744 -0.9656 -0.9593
 8074TIP3    H224187   6.672   3.617   1.173  0.2120  1.0311 -0.1533
 8075TIP3   OH224188   4.804   1.083   3.166 -0.3254 -0.2083  0.1330
 8075TIP3    H124189   4.787   1.021   3.095  2.2395  1.1800 -1.8785
 8075TIP3    H224190   4.845   1.031   3.235  0.0171 -1.0688 -0.7037
 8076TIP3   OH224191   2.405   6.749   3.492 -0.0297  0.4803  0.4302
 8076TIP3    H124192   2.467   6.738   3.420  2.2131  2.2782  1.9409
 8076TIP3    H224193   2.325   6.781   3.450  0.5790 -0.3171 -1.4264
 8077TIP3   OH224194   2.411   5.980   2.245 -0.1944  0.1374 -0.4137
 8077TIP3    H124195   2.393   5.959   2.154 -0.5992 -0.0756 -0.2842
 8077TIP3    H224196   2.433   5.896   2.285 -0.4858  0.1603 -0.2061
 8078TIP3   OH224197   3.711   3.730   1.405 -0.3285  0.2869  0.4033
 8078TIP3    H124198   3.734   3.649   1.451  1.2870  1.0776  1.0697
 8078TIP3    H224199   3.663   3.781   1.470 -2.5260 -0.6210 -0.4255
 8079TIP3   OH224200   2.441   2.408   1.775  0.3383  0.1345  0.1971
 8079TIP3    H124201   2.385   2.472   1.818  0.1167  0.0380  0.0485
 8079TIP3    H224202   2.412   2.323   1.809 -1.6380 -0.2210 -2.0900
 8080TIP3   OH224203   6.633  -0.012   5.073  0.3077  0.0156  0.8879
 8080TIP3    H124204   6.708   0.020   5.124  2.8265 -2.4641 -0.9252
 8080TIP3    H224205   6.622   0.053   5.003  1.8618 -0.2944  0.2997
 8081TIP3   OH224206   3.681   1.138   2.559  0.1490 -0.2641 -0.0794
 8081TIP3    H124207   3.752   1.103   2.613  0.9177 -0.2048 -1.0356
 8081TIP3    H224208   3.601   1.116   2.608  0.8503  0.7478  1.6369
 8082TIP3   OH224209   2.543   4.269   4.694 -0.3654  0.1483 -0.2280
 8082TIP3    H124210   2.632   4.238   4.711  0.1028  0.8543 -1.2844
 8082TIP3    H224211   2.496   4.254   4.776  0.4272 -1.2555 -0.0099
 8083TIP3   OH224212   5.396   0.739   1.573 -0.1927  0.1117 -0.0326
 8083TIP3    H124213   5.446   0.678   1.627  1.4120  0.1657 -1.3824
 8083TIP3    H224214   5.312   0.695   1.558 -0.2469 -0.3831  1.5241
 8084TIP3   OH224215   5.315   2.264   3.009 -0.7946  0.3304  0.2990
 8084TIP3    H124216   5.394   2.214   3.028  0.6156  1.4658 -2.1685
 8084TIP3    H224217   5.263   2.206   2.954 -1.4741 -0.1863  1.4346
 8085TIP3   OH224218   4.805   1.159   2.031 -0.1242 -0.4461  0.0623
 8085TIP3    H124219   4.763   1.239   1.999  0.5836  0.1242  0.5215
 8085TIP3    H224220   4.862   1.188   2.102  0.0907 -1.3720  0.2883
 8086TIP3   OH224221   3.595   0.942   4.398 -0.4277 -0.5137  0.4213
 8086TIP3    H124222   3.600   1.013   4.462  1.7091  0.6798 -0.9276
 8086TIP3    H224223   3.681   0.899   4.404  0.3089  0.3894 -2.3752
 8087TIP3   OH224224   3.560   6.081   5.211  0.6424 -0.0815 -0.0611
 8087TIP3    H124225   3.531   6.070   5.301  0.1497  2.3332  0.1218
 8087TIP3    H224226   3.653   6.103   5.218  1.0693 -1.6935 -0.2888
 8088TIP3   OH224227   0.328   0.984   0.847 -0.1590 -0.4904 -0.0457
 8088TIP3    H124228   0.406   0.942   0.810 -1.2623 -2.6086 -0.1206
 8088TIP3    H224229   0.258   0.920   0.834 -1.5706  0.6586  1.4855
 8089TIP3   OH224230   1.481   6.374   2.794 -0.4546  0.0787 -0.3449
 8089TIP3    H124231   1.555   6.407   2.743  0.1807  1.0740  1.1255
 8089TIP3    H224232   1.492   6.279   2.795  0.4503  0.1732 -0.6924
 8090TIP3   OH224233   3.215   3.817   5.005  0.5561 -0.1700 -0.0317
 8090TIP3    H124234   3.291   3.842   4.952 -0.0342 -0.3862 -0.9970
 8090TIP3    H224235   3.250   3.753   5.067  1.1991 -0.1322 -0.3475
 8091TIP3   OH224236   4.852   2.215   5.599  0.2405  0.1466 -0.5459
 8091TIP3    H124237   4.854   2.250   5.688 -1.2562 -0.6645 -0.1657
 8091TIP3    H224238   4.862   2.121   5.610 -1.0781 -0.0836 -1.1202
 8092TIP3   OH224239   5.564   2.964   3.780 -0.1243 -0.2431  0.4104
 8092TIP3    H124240   5.536   3.032   3.842 -0.0535 -0.7523  1.0141
 8092TIP3    H224241   5.550   2.882   3.828  1.3749 -0.5685  0.3279
 8093TIP3   OH224242   0.801   6.501   2.423 -0.6257  0.4129  0.8730
 8093TIP3    H124243   0.849   6.581   2.403  0.8013 -0.5174  0.3847
 8093TIP3    H224244   0.754   6.481   2.342 -0.0651  0.1572  0.6042
 8094TIP3   OH224245   1.100   0.466   5.717  0.0435  0.0753  0.0687
 8094TIP3    H124246   1.108   0.387   5.664  1.4388 -0.5797  1.1813
 8094TIP3    H224247   1.006   0.478   5.728 -0.2722  0.0610 -2.2250
 8095TIP3   OH224248   3.475   5.667   2.823  0.3623  0.2030  1.0630
 8095TIP3    H124249   3.518   5.751   2.812 -0.1582  0.3712  0.1890
 8095TIP3    H224250   3.504   5.615   2.748  1.0688 -0.5798  1.8596
 8096TIP3   OH224251   3.810   3.083   0.975  1.0277 -0.1227 -0.3289
 8096TIP3    H124252   3.877   3.044   1.031  0.5677  0.6995  0.8322
 8096TIP3    H224253   3.806   3.175   1.002  0.2366  0.1071 -1.1719
 8097TIP3   OH224254   4.821   0.828   2.534 -0.4272  0.3278  0.0096
 8097TIP3    H124255   4.891   0.885   2.566  0.0410 -0.1846 -0.0813
 8097TIP3    H224256   4.743   0.856   2.581 -0.0476  0.5515  0.5080
 8098TIP3   OH224257   6.683   2.508   3.966  0.0901 -0.2888 -0.2879
 8098TIP3    H124258   6.765   2.553   3.985  0.4574 -1.3173  0.6437
 8098TIP3    H224259   6.689   2.486   3.873  1.2323 -1.0409 -0.0591
 8099TIP3   OH224260   4.851   6.271   1.936  0.3006 -0.4128 -0.0032
 8099TIP3    H124261   4.930   6.292   1.987  1.0224  1.5584 -1.7668
 8099TIP3    H224262   4.883   6.217   1.863  0.0173  0.1900 -0.5894
 8100TIP3   OH224263   0.337   2.205   1.973 -0.5053 -0.2065 -0.5612
 8100TIP3    H124264   0.423   2.219   2.013  0.3802  0.4001 -2.5583
 8100TIP3    H224265   0.305   2.293   1.952  0.1061 -0.5108 -3.1515
 8101TIP3   OH224266   7.073   5.551   4.383  0.2200 -0.1258 -0.5518
 8101TIP3    H124267   7.046   5.592   4.465 -0.3805  1.4750 -1.5015
 8101TIP3    H224268   6.992   5.517   4.345  0.3609 -0.1197 -0.8647
 8102TIP3   OH224269   6.123   0.928   3.560 -0.0963 -0.2708 -0.2011
 8102TIP3    H124270   6.183   1.003   3.556  0.0475 -0.3808 -0.1086
 8102TIP3    H224271   6.167   0.859   3.510 -0.2849 -0.2557 -0.3926
 8103TIP3   OH224272   4.044   0.333   1.010  0.6569 -0.1355  0.0015
 8103TIP3    H124273   4.086   0.385   1.079  1.3071 -0.0508 -0.4484
 8103TIP3    H224274   4.000   0.262   1.057 -0.0508  0.6768  0.6077
 8104TIP3   OH224275   3.554   4.428   2.805  0.2613  0.5121  0.0419
 8104TIP3    H124276   3.459   4.431   2.794 -0.0757  0.7048  2.4468
 8104TIP3    H224277   3.571   4.480   2.883  2.5484  1.8031 -1.1991
 8105TIP3   OH224278   2.349   5.744   3.447  0.2514  0.5987  0.3642
 8105TIP3    H124279   2.258   5.759   3.421  0.1293 -0.1135  0.3609
 8105TIP3    H224280   2.355   5.780   3.536 -0.2746 -0.1472  0.7083
 8106TIP3   OH224281   0.410   6.239   3.434 -0.6163 -0.1102 -0.8371
 8106TIP3    H124282   0.465   6.161   3.425  2.0367  1.5691 -0.4784
 8106TIP3    H224283   0.376   6.234   3.524  1.8162  0.4015  0.1998
 8107TIP3   OH224284   3.057   4.997   3.720  0.0276  0.1279 -0.0238
 8107TIP3    H124285   3.098   4.967   3.802  0.1136  1.1763  0.3288
 8107TIP3    H224286   3.056   5.092   3.727  0.8866  0.2872 -1.6670
 8108TIP3   OH224287   0.705   2.676   4.990  0.5371 -0.3873 -0.4413
 8108TIP3    H124288   0.723   2.592   4.947  1.9280  0.0809 -0.8309
 8108TIP3    H224289   0.714   2.658   5.083 -2.0701 -1.3146 -0.3043
 8109TIP3   OH224290   6.576   6.539   5.077 -0.0719  0.0452  0.3687
 8109TIP3    H124291   6.590   6.485   5.155  0.3022 -0.5888 -0.1199
 8109TIP3    H224292   6.483   6.529   5.057  0.0737 -0.7769  0.0434
 8110TIP3   OH224293   4.922   0.918   3.895  0.5026 -0.0398 -0.0493
 8110TIP3    H124294   4.968   0.982   3.949 -0.4808  0.7587 -0.1122
 8110TIP3    H224295   4.984   0.896   3.826  0.8408  0.9123 -0.0674
 8111TIP3   OH224296   3.088   1.307   1.774 -0.0861 -0.5006  0.2348
 8111TIP3    H124297   3.026   1.372   1.807 -0.5109 -0.4064 -0.7199
 8111TIP3    H224298   3.050   1.278   1.691  1.4049 -0.0454 -0.6505
 8112TIP3   OH224299   3.052   0.916   5.278  0.1717  0.2275  0.2291
 8112TIP3    H124300   3.083   1.005   5.296  2.0328 -0.0662 -1.1912
 8112TIP3    H224301   3.133   0.864   5.269 -0.7991 -1.1160 -1.2326
 8113TIP3   OH224302   4.051   2.868   3.977 -0.1608  0.3260 -0.0236
 8113TIP3    H124303   3.988   2.938   3.991 -1.7540 -0.7731 -1.2860
 8113TIP3    H224304   4.100   2.895   3.899 -0.1442  0.4528  0.0306
 8114TIP3   OH224305   1.542   5.654   4.154 -1.1478 -0.0502  0.5084
 8114TIP3    H124306   1.476   5.640   4.086 -1.4178 -2.1500  1.1533
 8114TIP3    H224307   1.492   5.660   4.235 -0.7393  1.4049  0.6863
 8115TIP3   OH224308   7.080   6.161   4.739 -0.0624  0.0555  0.2269
 8115TIP3    H124309   7.153   6.193   4.687  0.2393  0.6195  0.9806
 8115TIP3    H224310   7.104   6.181   4.829 -1.2340  0.4325  0.4708
 8116TIP3   OH224311   0.409   4.921   3.255 -0.0945  0.8604  0.0349
 8116TIP3    H124312   0.375   4.861   3.189  0.2396  1.4712 -0.7090
 8116TIP3    H224313   0.333   4.970   3.285 -0.1530  1.0277 -0.3735
 8117TIP3   OH224314   5.890   3.447   3.798  0.1066 -0.4984  0.0636
 8117TIP3    H124315   5.978   3.472   3.823  0.0957  0.2375 -0.5769
 8117TIP3    H224316   5.834   3.515   3.835 -0.2595 -1.2613  0.9435
 8118TIP3   OH224317   6.281   4.900   3.922  0.2848  0.1925 -0.0227
 8118TIP3    H124318   6.352   4.959   3.948  0.4148  1.1031 -2.2856
 8118TIP3    H224319   6.317   4.812   3.936  1.1663  0.6283  0.5704
 8119TIP3   OH224320   2.629   4.166   5.191  0.1676 -0.3501  1.0215
 8119TIP3    H124321   2.712   4.212   5.187 -0.1578  0.1602 -0.9878
 8119TIP3    H224322   2.637   4.095   5.128 -2.0684  1.8665 -2.0702
 8120TIP3   OH224323   4.035   0.891   0.164  0.2961  0.1017  0.0897
 8120TIP3    H124324   4.061   0.824   0.228 -0.3499 -0.7582 -0.5265
 8120TIP3    H224325   4.023   0.970   0.216  2.9469  0.2664  0.5852
 8121TIP3   OH224326   1.744   1.730   3.960  0.4586 -0.4096 -1.0282
 8121TIP3    H124327   1.740   1.784   3.881 -0.9150 -0.1843 -0.8337
 8121TIP3    H224328   1.670   1.670   3.951 -0.9960  0.9362  0.9778
 8122TIP3   OH224329   1.711   4.508   4.222 -0.4015  0.1072  0.5890
 8122TIP3    H124330   1.689   4.421   4.254 -0.8158 -0.2974 -0.6999
 8122TIP3    H224331   1.710   4.499   4.126 -1.4516  1.7561  0.3903
 8123TIP3   OH224332   4.179   5.015   2.868  0.5771 -0.4958 -0.0998
 8123TIP3    H124333   4.214   5.092   2.912 -0.3217 -0.7764  1.1795
 8123TIP3    H224334   4.161   5.044   2.779  2.1400  0.1844 -0.2319
 8124TIP3   OH224335   1.846   5.131   2.188 -0.7877 -0.1219  0.2410
 8124TIP3    H124336   1.775   5.100   2.132  0.7037 -2.0189 -0.7044
 8124TIP3    H224337   1.828   5.225   2.199 -4.4142 -0.8160  1.6072
 8125TIP3   OH224338   1.118   0.340   5.321 -0.7415 -0.1309 -0.4467
 8125TIP3    H124339   1.208   0.326   5.351 -0.1979  3.0273 -0.2778
 8125TIP3    H224340   1.064   0.291   5.382  0.8027 -1.1333  0.1618
 8126TIP3   OH224341   6.491   3.334   1.609  0.1060 -0.5556 -0.0227
 8126TIP3    H124342   6.454   3.261   1.559 -0.4448 -0.5051  0.3012
 8126TIP3    H224343   6.565   3.364   1.557 -1.0323  0.1223 -1.3139
 8127TIP3   OH224344   0.522   0.629   2.367 -1.0034  0.0598 -0.0134
 8127TIP3    H124345   0.463   0.686   2.415  0.9311  1.3955  0.9181
 8127TIP3    H224346   0.528   0.667   2.279 -0.5833  0.6728  0.2730
 8128TIP3   OH224347   4.881   5.137   1.352 -0.1302 -0.1413 -0.7849
 8128TIP3    H124348   4.962   5.113   1.397 -0.4796  0.7204  0.3456
 8128TIP3    H224349   4.813   5.089   1.399 -0.9330  3.3264  1.9633
 8129TIP3   OH224350   4.533   1.798   0.561 -0.1795 -0.1614 -0.0886
 8129TIP3    H124351   4.592   1.723   0.549  1.1215  0.8948 -0.4596
 8129TIP3    H224352   4.452   1.771   0.518  1.0471 -0.4639 -2.3497
 8130TIP3   OH224353   2.358   6.289   4.627 -0.6010 -0.3802 -0.0944
 8130TIP3    H124354   2.332   6.380   4.611 -2.1307 -1.0061 -1.4180
 8130TIP3    H224355   2.279   6.238   4.612  0.1079 -1.9205  1.0742
 8131TIP3   OH224356   4.582   4.806   4.874 -0.1504 -0.2829  0.4046
 8131TIP3    H124357   4.549   4.811   4.964  0.4304  2.4904  0.5399
 8131TIP3    H224358   4.655   4.745   4.879 -2.1055 -2.7395  1.0758
 8132TIP3   OH224359   0.477   1.614   0.024 -0.1600 -0.1942 -0.2092
 8132TIP3    H124360   0.382   1.611   0.028 -0.2445  0.1671 -1.5685
 8132TIP3    H224361   0.505   1.539   0.078 -1.2337 -0.9370 -0.6458
 8133TIP3   OH224362   5.589   2.133   4.031  0.0705 -0.2769  0.2145
 8133TIP3    H124363   5.533   2.202   4.067  1.6231  1.2790 -0.2280
 8133TIP3    H224364   5.577   2.059   4.091  0.6004  1.3642  2.4912
 8134TIP3   OH224365   2.580   3.634   2.226  0.1848 -0.3049  0.3580
 8134TIP3    H124366   2.626   3.683   2.294  1.1040 -1.2504  0.4352
 8134TIP3    H224367   2.522   3.699   2.185 -0.1033  0.3697  1.7683
 8135TIP3   OH224368   2.210   4.888   5.854 -0.1431  0.6670  0.4340
 8135TIP3    H124369   2.190   4.794   5.852  2.0838  0.1513 -0.9947
 8135TIP3    H224370   2.281   4.897   5.917 -0.4202  1.4345  0.6546
 8136TIP3   OH224371   0.304   2.712   1.854  0.1248 -0.3283 -0.4140
 8136TIP3    H124372   0.397   2.730   1.867 -0.1366 -0.2264  1.8380
 8136TIP3    H224373   0.261   2.796   1.869 -0.4120 -0.7031  0.2476
 8137TIP3   OH224374   1.393   0.648   1.321 -0.7225 -0.4040  0.7721
 8137TIP3    H124375   1.439   0.642   1.237 -0.0190  0.3229  1.0950
 8137TIP3    H224376   1.302   0.666   1.298 -0.1030  2.4813  0.1666
 8138TIP3   OH224377   3.141   6.288   5.345  0.0585  0.2130 -0.4863
 8138TIP3    H124378   3.079   6.356   5.373  0.8858  0.6844  0.2542
 8138TIP3    H224379   3.208   6.336   5.297 -0.7751 -0.4514 -2.3933
 8139TIP3   OH224380   5.669   2.642   4.952 -0.0479  0.6155 -0.1664
 8139TIP3    H124381   5.694   2.732   4.974 -1.9085  0.7335  1.8215
 8139TIP3    H224382   5.690   2.591   5.030 -1.6825 -0.0774 -0.1271
 8140TIP3   OH224383   6.997   1.699   2.492 -0.0199 -0.0487 -0.1356
 8140TIP3    H124384   7.073   1.681   2.437 -2.1283  0.3024 -3.4215
 8140TIP3    H224385   6.992   1.794   2.497 -1.2330 -0.0024 -1.5679
 8141TIP3   OH224386   1.091   2.019   0.777  0.0685  0.1384  0.3702
 8141TIP3    H124387   1.060   2.107   0.799  2.0672  0.3333  2.9224
 8141TIP3    H224388   1.054   1.964   0.846 -1.2144 -1.1209 -1.2432
 8142TIP3   OH224389   1.737   1.967   1.968  0.2594 -0.1017 -0.2828
 8142TIP3    H124390   1.758   1.956   2.061 -0.7616 -0.3790 -0.0825
 8142TIP3    H224391   1.707   2.057   1.961 -0.4758 -0.3354 -0.1836
 8143TIP3   OH224392   6.772   5.268   1.489  0.1743 -0.0784 -0.8808
 8143TIP3    H124393   6.825   5.293   1.564  1.8726 -0.6633 -1.8250
 8143TIP3    H224394   6.744   5.351   1.451  1.0274  0.2820 -0.7556
 8144TIP3   OH224395   5.896   0.913   1.245 -0.3738 -0.1562 -0.8601
 8144TIP3    H124396   5.972   0.964   1.219  0.6216 -0.8125  0.6465
 8144TIP3    H224397   5.932   0.829   1.275 -1.3501  0.4726  2.4612
 8145TIP3   OH224398   0.346   6.756   4.516 -0.0318  0.0742  0.2271
 8145TIP3    H124399   0.359   6.850   4.527  1.0189 -0.0338 -0.0342
 8145TIP3    H224400   0.328   6.745   4.422 -1.9322  0.1922  0.5325
 8146TIP3   OH224401   5.481   1.512   5.376  0.4372  0.3510 -0.1985
 8146TIP3    H124402   5.501   1.582   5.438  0.3186  0.3921 -0.2068
 8146TIP3    H224403   5.566   1.488   5.340  0.5482  0.0978  0.2228
 8147TIP3   OH224404   2.108   4.639   5.884 -0.3456  0.0743 -0.6186
 8147TIP3    H124405   2.077   4.606   5.968 -0.8653  0.1087 -0.7918
 8147TIP3    H224406   2.069   4.581   5.819 -1.8593  1.3985 -0.9760
 8148TIP3   OH224407   4.228   1.862   0.975  0.3017  0.9441  0.2107
 8148TIP3    H124408   4.303   1.913   0.943  1.8552 -0.2363  1.7682
 8148TIP3    H224409   4.231   1.781   0.923  0.0558  0.9286  0.2214
 8149TIP3   OH224410   7.067   6.613   2.307  0.2968 -0.6832  0.1407
 8149TIP3    H124411   7.083   6.537   2.362  0.7518 -1.7497 -1.3835
 8149TIP3    H224412   6.978   6.599   2.273  1.5681 -2.4801 -2.8935
 8150TIP3   OH224413   3.164   3.998   4.227  0.3191 -0.0963 -0.3672
 8150TIP3    H124414   3.123   3.941   4.162 -0.0309  0.1015 -0.3238
 8150TIP3    H224415   3.091   4.041   4.271  0.5540  2.4925 -2.2698
 8151TIP3   OH224416   7.114   6.088   1.089 -0.1210 -0.1065 -0.6008
 8151TIP3    H124417   7.086   6.172   1.126 -0.2808 -0.2320 -0.4367
 8151TIP3    H224418   7.208   6.099   1.074 -0.4008  0.6230 -1.9765
 8152TIP3   OH224419   6.607   2.079   1.004 -0.4260 -0.3961 -0.4432
 8152TIP3    H124420   6.513   2.069   1.019 -0.5737  1.3989  0.0530
 8152TIP3    H224421   6.647   2.059   1.089 -0.4950  0.3023 -0.2387
 8153TIP3   OH224422   7.181   0.035   1.378 -0.0645  0.2881  0.4494
 8153TIP3    H124423   7.103   0.024   1.324 -0.1192 -0.3091  0.6329
 8153TIP3    H224424   7.147   0.062   1.463 -0.0686  0.1327  0.4985
 8154TIP3   OH224425   5.893   5.524   0.764 -0.5060 -0.1218 -1.0499
 8154TIP3    H124426   5.918   5.488   0.679 -0.4540 -0.1952 -1.0039
 8154TIP3    H224427   5.976   5.546   0.806 -0.3327 -2.7508  0.1475
 8155TIP3   OH224428   1.523   1.663   5.677  0.0174  0.4740 -0.5266
 8155TIP3    H124429   1.443   1.712   5.692 -1.1076 -1.5072  0.2118
 8155TIP3    H224430   1.494   1.576   5.651  1.8788 -0.7405  1.1610
 8156TIP3   OH224431   3.550   6.785   3.187 -0.3551  0.0196 -0.2401
 8156TIP3    H124432   3.603   6.769   3.265 -1.9628 -1.7416  0.5498
 8156TIP3    H224433   3.597   6.855   3.141  0.6681  1.0905  2.2459
 8157TIP3   OH224434   1.295   5.802   1.998 -0.0878  0.3463 -0.0665
 8157TIP3    H124435   1.358   5.875   1.996 -0.1748  0.4169 -2.1930
 8157TIP3    H224436   1.331   5.742   2.063  0.7380  1.6271  0.7201
 8158TIP3   OH224437   7.061   0.973   5.443  0.0703 -0.9460  0.2986
 8158TIP3    H124438   6.970   0.990   5.469  0.2545  1.1975 -0.2324
 8158TIP3    H224439   7.056   0.957   5.349  0.0394 -3.0138  0.6120
 8159TIP3   OH224440   7.062   4.556   4.986 -0.6277  0.5303  0.2600
 8159TIP3    H124441   7.140   4.576   5.037  0.6306  0.9566 -1.7180
 8159TIP3    H224442   7.032   4.471   5.019  0.9229  0.1552  0.7549
 8160TIP3   OH224443   2.804   2.297   4.687 -0.5155  0.3830 -0.2656
 8160TIP3    H124444   2.763   2.301   4.600 -0.6128 -2.6446 -0.4712
 8160TIP3    H224445   2.740   2.250   4.741 -0.3916  2.0782  1.4604
 8161TIP3   OH224446   1.106   1.531   3.424  0.2193 -0.0498  0.0667
 8161TIP3    H124447   1.184   1.482   3.448 -0.0397 -0.5585 -0.1212
 8161TIP3    H224448   1.035   1.466   3.423 -0.0339  0.2163 -0.6939
 8162TIP3   OH224449   6.311   6.320   0.242  0.0470  0.1687 -0.0709
 8162TIP3    H124450   6.337   6.379   0.313 -0.7271  0.9200 -0.3905
 8162TIP3    H224451   6.354   6.356   0.164  0.9343 -0.6806  0.0057
 8163TIP3   OH224452   3.547   1.982   2.489  0.0345 -0.0619  0.2142
 8163TIP3    H124453   3.592   1.938   2.417  0.7687  0.9302  0.0410
 8163TIP3    H224454   3.473   2.028   2.447 -0.5284 -0.8347  0.3456
 8164TIP3   OH224455   0.597   6.300   1.865 -0.0899  0.2681 -0.4368
 8164TIP3    H124456   0.634   6.381   1.902 -0.8155  0.4869 -0.1629
 8164TIP3    H224457   0.659   6.274   1.798  1.1291  0.0206  0.7346
 8165TIP3   OH224458   1.830   0.111   5.714  0.1484  0.6865  0.0923
 8165TIP3    H124459   1.791   0.198   5.701  1.6317  1.5905  1.2525
 8165TIP3    H224460   1.901   0.106   5.651  0.2385  0.4281  0.2107
 8166TIP3   OH224461   4.364   4.348   1.603 -0.1635  0.0821 -0.0286
 8166TIP3    H124462   4.331   4.350   1.693  0.8883 -0.2594  0.3857
 8166TIP3    H224463   4.316   4.417   1.558 -1.9423 -0.8625  0.3347
 8167TIP3   OH224464   5.450   6.269   0.214 -0.3166  0.9704  0.4983
 8167TIP3    H124465   5.457   6.258   0.309 -0.1593  0.4159  0.4285
 8167TIP3    H224466   5.522   6.328   0.191  0.1958  0.4011  0.6146
 8168TIP3   OH224467   0.670   0.357   1.573 -0.5203 -0.2370 -0.1206
 8168TIP3    H124468   0.758   0.363   1.534 -0.3766  1.0405  0.3564
 8168TIP3    H224469   0.614   0.332   1.500  0.2571 -1.2698 -0.3921
 8169TIP3   OH224470   3.528   0.386   5.215  0.3198  0.0468 -0.4496
 8169TIP3    H124471   3.543   0.318   5.149  0.0769 -1.2473  0.7873
 8169TIP3    H224472   3.582   0.360   5.289  1.1210  1.8531 -0.3641
 8170TIP3   OH224473   5.895   3.889   3.330  0.3272 -0.0518 -0.0252
 8170TIP3    H124474   5.894   3.851   3.418  1.4406 -0.0563  0.0065
 8170TIP3    H224475   5.827   3.843   3.282 -1.8113  1.3855  1.4043
 8171TIP3   OH224476   3.636   2.050   0.763 -0.1103 -0.2095 -0.0523
 8171TIP3    H124477   3.584   2.000   0.826  0.5803 -0.1474  0.5750
 8171TIP3    H224478   3.710   2.082   0.813 -0.5033  1.4173 -0.4547
 8172TIP3   OH224479   0.646   2.898   3.658 -0.2593  0.5215 -0.8688
 8172TIP3    H124480   0.575   2.959   3.640 -1.0501 -0.6541 -1.9793
 8172TIP3    H224481   0.718   2.928   3.602 -0.6886  0.3751 -1.5097
 8173TIP3   OH224482   5.638   1.822   2.730  0.1555 -0.1506  0.1193
 8173TIP3    H124483   5.547   1.793   2.732  0.4771 -1.4649 -1.4816
 8173TIP3    H224484   5.671   1.790   2.646  2.2109 -0.0356  0.8324
 8174TIP3   OH224485   4.413   4.898   3.481 -0.7127  0.4001  0.6225
 8174TIP3    H124486   4.347   4.961   3.453  0.5325  1.1819 -0.6951
 8174TIP3    H224487   4.496   4.945   3.475  0.1859 -1.1274  0.3310
 8175TIP3   OH224488   0.320   1.640   4.466  0.0460 -0.3693  0.5018
 8175TIP3    H124489   0.382   1.568   4.458  1.1017  0.4616  1.0804
 8175TIP3    H224490   0.318   1.679   4.379 -1.7786 -2.0455 -0.2981
 8176TIP3   OH224491   1.634   2.031   5.283  0.6542 -0.3106  0.0109
 8176TIP3    H124492   1.554   2.072   5.250  2.3514  1.1290 -2.6937
 8176TIP3    H224493   1.618   2.018   5.376 -3.5813 -2.2311 -0.7296
 8177TIP3   OH224494   2.463   5.388   1.179 -1.1240  0.2020 -0.1665
 8177TIP3    H124495   2.385   5.443   1.173 -0.5474  1.2127  1.1749
 8177TIP3    H224496   2.536   5.449   1.169 -0.4785 -0.2778  1.3085
 8178TIP3   OH224497   2.066   0.763   3.082  0.3500  0.0839  0.1985
 8178TIP3    H124498   2.045   0.855   3.099 -1.7127 -0.1172 -0.9182
 8178TIP3    H224499   1.982   0.724   3.056  1.1512 -2.1525  0.7433
 8179TIP3   OH224500   1.888   1.013   3.567 -0.7532 -0.1892  0.3918
 8179TIP3    H124501   1.899   0.919   3.553 -1.1035 -0.2769  0.6835
 8179TIP3    H224502   1.793   1.026   3.566 -0.7000  0.2140  0.0300
 8180TIP3   OH224503   3.431   1.793   2.084 -0.1094  0.0461  0.0533
 8180TIP3    H124504   3.390   1.876   2.058 -2.1102 -1.5890 -2.4921
 8180TIP3    H224505   3.406   1.783   2.176 -0.5941  1.8256  0.1622
 8181TIP3   OH224506   6.159   1.177   1.126  0.2017 -0.5559  0.3639
 8181TIP3    H124507   6.126   1.227   1.201  0.3106 -0.2835  0.2340
 8181TIP3    H224508   6.088   1.180   1.062  0.6869  0.5497 -0.1560
 8182TIP3   OH224509   4.242   1.892   0.537  0.2792  0.2395  0.2858
 8182TIP3    H124510   4.253   1.987   0.547  0.0277  0.3311 -0.2760
 8182TIP3    H224511   4.165   1.872   0.592  0.3695  0.3489  0.4546
 8183TIP3   OH224512   1.674   0.593   3.180 -0.4016  0.0632  0.5135
 8183TIP3    H124513   1.592   0.555   3.212  0.3426 -1.8228  0.2850
 8183TIP3    H224514   1.663   0.597   3.085 -0.4768  0.4314  0.5368
 8184TIP3   OH224515   7.033   2.609   1.225 -0.0605 -0.5686 -0.0067
 8184TIP3    H124516   6.987   2.643   1.302 -0.9181 -1.9456  0.1132
 8184TIP3    H224517   7.052   2.687   1.174  0.4002  0.3706  1.5160
 8185TIP3   OH224518   4.085   1.170   3.951 -0.3874 -0.3385 -0.1336
 8185TIP3    H124519   4.036   1.221   3.887  0.3553  0.5061 -0.0511
 8185TIP3    H224520   4.123   1.235   4.010 -1.2513 -1.1015  1.3238
 8186TIP3   OH224521   0.823   0.719   4.076 -0.5558  0.5595  0.2278
 8186TIP3    H124522   0.848   0.682   3.991  0.2988 -1.9375  1.4626
 8186TIP3    H224523   0.738   0.679   4.096 -0.6707  0.9904  0.6242
 8187TIP3   OH224524   4.261   5.836   0.200  0.7975 -0.2545 -0.0328
 8187TIP3    H124525   4.239   5.875   0.115 -2.3841 -1.4067  0.1334
 8187TIP3    H224526   4.260   5.910   0.261 -0.7540  0.0788 -0.4241
 8188TIP3   OH224527   6.473   1.038   1.363 -0.0097  0.5428 -0.4893
 8188TIP3    H124528   6.520   1.118   1.383 -0.2422  0.9299 -1.4324
 8188TIP3    H224529   6.393   1.067   1.319  0.6124 -0.2324 -2.2430
 8189TIP3   OH224530   0.189   5.624   1.517 -0.3699 -0.6199 -0.1554
 8189TIP3    H124531   0.267   5.613   1.463 -0.3503 -0.5683 -0.1378
 8189TIP3    H224532   0.216   5.593   1.604  0.3515  1.5364  0.4461
 8190TIP3   OH224533   5.849   4.971   0.568  0.2871  0.4333  0.4396
 8190TIP3    H124534   5.875   4.910   0.499  1.4340  2.1128 -0.6605
 8190TIP3    H224535   5.800   4.916   0.630 -1.9028 -0.9266 -2.2708
 8191TIP3   OH224536   0.819   5.434   3.881 -0.1329  0.4855 -0.1515
 8191TIP3    H124537   0.808   5.339   3.873 -0.1924  0.4759  0.0395
 8191TIP3    H224538   0.891   5.444   3.944 -0.0183  0.5642 -0.2966
 8192TIP3   OH224539   5.347   6.504   4.961 -0.0666  0.0153 -0.1316
 8192TIP3    H124540   5.422   6.543   5.006  0.3451  1.8412 -2.2389
 8192TIP3    H224541   5.282   6.575   4.958 -1.4213 -1.1346  0.5199
 8193TIP3   OH224542   6.176   4.054   4.538 -0.2355  0.3908 -0.4475
 8193TIP3    H124543   6.203   4.146   4.539 -2.7767  1.2252  1.1967
 8193TIP3    H224544   6.214   4.017   4.618 -0.5579  0.4524 -0.2659
 8194TIP3   OH224545   1.399   1.842   0.466 -0.4958 -0.1478  0.7666
 8194TIP3    H124546   1.469   1.778   0.482 -0.4074 -0.2168  0.1299
 8194TIP3    H224547   1.412   1.869   0.375 -1.2528 -0.1072  0.6695
 8195TIP3   OH224548   2.068   1.073   0.368  0.3756 -0.3013 -0.2485
 8195TIP3    H124549   2.042   1.087   0.277  0.8742  0.8970 -0.2284
 8195TIP3    H224550   2.083   1.161   0.402 -2.4994 -0.5093  1.8443
 8196TIP3   OH224551   1.618   4.161   0.347 -0.1372 -0.3709 -0.3385
 8196TIP3    H124552   1.612   4.120   0.433 -0.9885  0.2115 -0.1048
 8196TIP3    H224553   1.580   4.096   0.288  1.8316 -1.4238 -0.5459
 8197TIP3   OH224554   2.821   1.764   2.416  0.0237  0.1864  0.7194
 8197TIP3    H124555   2.795   1.673   2.403  0.4221  0.0481  0.8696
 8197TIP3    H224556   2.872   1.763   2.497  3.5026 -0.1880 -1.2735
 8198TIP3   OH224557   5.219   1.114   3.532  0.3923  0.0909  0.1468
 8198TIP3    H124558   5.139   1.113   3.585 -1.6978  1.2949 -2.7488
 8198TIP3    H224559   5.258   1.199   3.549 -0.0610  0.3251  0.0179
 8199TIP3   OH224560   3.255   4.441   4.021 -0.1665 -0.1259  0.0653
 8199TIP3    H124561   3.215   4.362   3.984  0.8128  0.1466 -1.7256
 8199TIP3    H224562   3.197   4.512   3.994 -0.5021 -0.1144  0.7964
 8200TIP3   OH224563   2.803   5.221   0.787 -0.5656 -0.5102  0.2124
 8200TIP3    H124564   2.720   5.222   0.739 -0.6419  0.5136  0.3339
 8200TIP3    H224565   2.856   5.288   0.743  0.5279 -1.7347 -0.4122
 8201TIP3   OH224566   2.753   3.906   4.351 -0.0705 -0.1508 -0.2413
 8201TIP3    H124567   2.695   3.982   4.345 -0.0940 -0.1031  0.5184
 8201TIP3    H224568   2.779   3.888   4.260 -1.6273 -0.4439 -0.6729
 8202TIP3   OH224569   6.453   3.489   0.280 -0.3670 -0.5254 -0.5294
 8202TIP3    H124570   6.469   3.476   0.186 -0.3141  0.5862 -0.6871
 8202TIP3    H224571   6.412   3.575   0.285 -1.0469 -0.8939  0.4089
 8203TIP3   OH224572   5.342   5.486   4.220  0.7907 -0.2058  0.6297
 8203TIP3    H124573   5.281   5.415   4.236  1.0300 -0.4004  0.6780
 8203TIP3    H224574   5.414   5.446   4.171  1.1087 -0.0835  0.9881
 8204TIP3   OH224575   6.224   0.526   3.709 -0.3812 -0.2309  0.1995
 8204TIP3    H124576   6.245   0.516   3.802 -0.2101 -1.1121  0.0785
 8204TIP3    H224577   6.184   0.442   3.685  1.1317 -0.6860 -0.9088
 8205TIP3   OH224578   4.929   2.433   0.753  0.3944  0.0059  0.1321
 8205TIP3    H124579   4.909   2.385   0.673  1.4117 -0.9083  0.3871
 8205TIP3    H224580   4.952   2.364   0.816 -1.2381  0.6449  1.4823
 8206TIP3   OH224581   4.124   6.549   4.362  0.1123  0.0440  0.3877
 8206TIP3    H124582   4.047   6.514   4.407  0.3201  1.1799  1.7231
 8206TIP3    H224583   4.090   6.621   4.309  0.1656  0.2146  0.5797
 8207TIP3   OH224584   0.964   2.950   5.278  0.2816 -0.0115  0.4897
 8207TIP3    H124585   0.971   2.875   5.219  1.3652  0.4951 -0.0384
 8207TIP3    H224586   0.982   3.026   5.224 -0.9712  0.6773  0.9893
 8208TIP3   OH224587   5.343   4.665   0.757 -0.2816  0.0070  0.5366
 8208TIP3    H124588   5.299   4.589   0.720  1.3417 -0.7564  0.0916
 8208TIP3    H224589   5.393   4.701   0.684 -1.6564  2.0454  0.5124
 8209TIP3   OH224590   6.598   5.708   1.241  0.0818  0.2682  0.1253
 8209TIP3    H124591   6.654   5.784   1.252  0.3331  0.0663  0.2514
 8209TIP3    H224592   6.509   5.743   1.238  0.1909  0.5552  0.2824
 8210TIP3   OH224593   0.558   6.788   2.521 -0.3449 -0.1057  0.0228
 8210TIP3    H124594   0.573   6.872   2.564  1.0281 -1.7112  2.9835
 8210TIP3    H224595   0.475   6.757   2.558 -1.2032  0.1912 -1.5777
 8211TIP3   OH224596   7.077   1.965   5.067  0.1414  0.2692  0.6062
 8211TIP3    H124597   7.070   1.884   5.016 -2.4082  1.4340 -1.1386
 8211TIP3    H224598   6.986   1.988   5.086  0.6821  3.4003 -0.1712
 8212TIP3   OH224599   2.390   3.906   5.117  0.1751 -0.4512 -0.0676
 8212TIP3    H124600   2.315   3.966   5.122 -1.0899 -1.9641 -0.2933
 8212TIP3    H224601   2.368   3.846   5.046  2.2327 -0.1389 -1.0255
 8213TIP3   OH224602   0.874   4.382   3.765 -0.1184 -0.5610 -0.3141
 8213TIP3    H124603   0.785   4.395   3.733 -0.2239 -3.1092 -1.3433
 8213TIP3    H224604   0.863   4.328   3.844  0.4865  0.2143  0.3216
 8214TIP3   OH224605   0.132   6.543   4.462 -0.0575 -0.5701 -0.0647
 8214TIP3    H124606   0.177   6.512   4.540  0.4700 -0.1984 -0.2141
 8214TIP3    H224607   0.199   6.542   4.394 -0.1942  0.2625 -0.2263
 8215TIP3   OH224608   0.116   2.089   0.034 -0.1965 -0.1974 -0.5109
 8215TIP3    H124609   0.136   2.081  -0.059 -0.4851 -0.3626 -0.5612
 8215TIP3    H224610   0.109   2.183   0.049 -0.6860 -0.1852 -0.7787
 8216TIP3   OH224611   4.333   2.915   1.278 -0.0960  0.4278 -0.5694
 8216TIP3    H124612   4.299   2.838   1.324 -1.2976  0.7920 -0.8295
 8216TIP3    H224613   4.328   2.892   1.186 -1.6656  1.2776 -0.7204
 8217TIP3   OH224614   0.180   1.961   0.427  0.3182  0.2654 -0.2517
 8217TIP3    H124615   0.227   1.902   0.368 -1.7098 -0.5031 -1.1949
 8217TIP3    H224616   0.176   1.913   0.510  0.7371  0.1220 -0.3118
 8218TIP3   OH224617   1.376   5.757   0.297 -0.1109  0.0358  0.1098
 8218TIP3    H124618   1.293   5.761   0.250 -1.5735  1.4333  2.5539
 8218TIP3    H224619   1.365   5.686   0.360  1.3068 -1.0017 -0.7699
 8219TIP3   OH224620   6.476   5.078   0.941 -0.4283 -0.4160  0.2836
 8219TIP3    H124621   6.417   5.142   0.903 -0.8779 -0.3244  1.1128
 8219TIP3    H224622   6.530   5.128   1.003  0.2035 -0.5811 -0.1234
 8220TIP3   OH224623   2.099   0.535   2.118 -0.3980  0.6224 -0.3709
 8220TIP3    H124624   2.028   0.584   2.077 -0.0056  0.6319 -1.0544
 8220TIP3    H224625   2.122   0.586   2.196 -2.0586 -0.0983  0.6417
 8221TIP3   OH224626   6.341   4.815   0.312 -0.6725  0.3392 -1.1399
 8221TIP3    H124627   6.358   4.726   0.344 -0.3187  1.2032  1.3188
 8221TIP3    H224628   6.365   4.813   0.220  0.2950 -1.8558 -0.8953
 8222TIP3   OH224629   3.562   5.960   0.442  0.0436 -0.3271  0.2226
 8222TIP3    H124630   3.518   6.040   0.469 -0.8548 -1.3291  1.8243
 8222TIP3    H224631   3.520   5.890   0.492  1.9740 -1.6010  0.1927
 8223TIP3   OH224632   6.308   6.281   2.404  0.5998 -0.3422 -0.0278
 8223TIP3    H124633   6.391   6.281   2.356  0.7809 -0.8597  0.2683
 8223TIP3    H224634   6.303   6.193   2.442  0.6962  0.2027  1.2927
 8224TIP3   OH224635   5.219   3.520   2.994 -0.0854  0.5987 -0.2908
 8224TIP3    H124636   5.151   3.454   3.011  0.8139 -1.1420 -2.8582
 8224TIP3    H224637   5.185   3.570   2.920  1.8064 -1.1342 -2.4989
 8225TIP3   OH224638   3.723   4.281   0.606  0.0795  0.2732 -0.2747
 8225TIP3    H124639   3.796   4.287   0.668  0.5805  0.4487 -0.8633
 8225TIP3    H224640   3.721   4.367   0.563 -0.4372  0.2467 -0.3077
 8226TIP3   OH224641   2.360   4.757   0.164 -0.1650 -0.3673 -0.4648
 8226TIP3    H124642   2.383   4.667   0.142  1.2007 -0.3231  0.6532
 8226TIP3    H224643   2.435   4.789   0.214 -1.4757  0.7423  0.8626
 8227TIP3   OH224644   0.745   3.730   2.533 -0.2803  0.8023 -0.2404
 8227TIP3    H124645   0.672   3.738   2.472  0.3349  1.1309 -0.9442
 8227TIP3    H224646   0.823   3.743   2.480  0.3338 -0.1567  0.3893
 8228TIP3   OH224647   3.709   4.458   3.143  0.6060 -0.3252 -0.6906
 8228TIP3    H124648   3.678   4.488   3.229 -2.4977 -1.0626 -1.4561
 8228TIP3    H224649   3.722   4.364   3.153 -0.0646 -0.4670 -1.0830
 8229TIP3   OH224650   3.727   2.106   5.662  0.3614 -0.4663  0.3078
 8229TIP3    H124651   3.810   2.131   5.622  0.2164 -1.6174 -0.7875
 8229TIP3    H224652   3.688   2.045   5.600  0.0600 -2.2594  2.1412
 8230TIP3   OH224653   0.483   3.188   5.484  0.1787  0.2864  0.4972
 8230TIP3    H124654   0.500   3.138   5.563  0.4804  1.0373  0.9222
 8230TIP3    H224655   0.411   3.143   5.441  1.4131 -1.3819  0.0783
 8231TIP3   OH224656   5.170   0.894   2.818 -0.1761  0.6791 -0.5692
 8231TIP3    H124657   5.249   0.903   2.764 -0.2703  2.8612 -0.4368
 8231TIP3    H224658   5.132   0.811   2.790  1.6560  0.0278 -1.3137
 8232TIP3   OH224659   1.858   0.103   2.820 -0.8092  0.0398  0.2386
 8232TIP3    H124660   1.936   0.143   2.858  0.1428  0.0083 -1.5650
 8232TIP3    H224661   1.846   0.021   2.869  0.8743 -0.4162 -0.0437
 8233TIP3   OH224662   0.932   1.425   0.105  0.4169  0.0085 -0.0544
 8233TIP3    H124663   0.970   1.429   0.018  0.7461  0.3068  0.0990
 8233TIP3    H224664   0.883   1.506   0.114 -0.2440 -0.3571 -0.2375
 8234TIP3   OH224665   2.131   4.640  -0.021  0.5926 -0.0032  0.6328
 8234TIP3    H124666   2.207   4.584  -0.003  1.3051  0.4459 -0.8134
 8234TIP3    H224667   2.088   4.649   0.064  2.1003 -0.3486  1.4856
 8235TIP3   OH224668   4.452   1.817   4.646  0.1043 -0.3754 -0.9497
 8235TIP3    H124669   4.433   1.911   4.648  1.1044 -0.1456 -1.6186
 8235TIP3    H224670   4.421   1.784   4.731  2.4430  1.0941  0.5749
 8236TIP3   OH224671   3.149   2.990   1.160 -0.4242 -0.1527 -0.2869
 8236TIP3    H124672   3.208   2.944   1.221 -1.7918 -0.4847  0.8476
 8236TIP3    H224673   3.170   3.082   1.173 -1.3084 -0.1490  1.4196
 8237TIP3   OH224674   5.765   4.976   3.486 -0.2779  0.2145  0.6366
 8237TIP3    H124675   5.769   4.973   3.390  2.3094  1.2451  0.6235
 8237TIP3    H224676   5.764   4.884   3.513  0.8391 -0.1378 -0.4031
 8238TIP3   OH224677   4.873   4.088   4.283  0.4485  0.5157  0.2251
 8238TIP3    H124678   4.925   4.097   4.363  0.2826  0.1165  0.3787
 8238TIP3    H224679   4.831   4.002   4.291  0.2929  0.5508 -0.2095
 8239TIP3   OH224680   3.996   6.227   4.275  0.2170 -0.4357 -0.0844
 8239TIP3    H124681   4.035   6.139   4.268  0.6901 -0.2817  0.4865
 8239TIP3    H224682   4.008   6.265   4.189  0.8746 -0.5903 -0.0684
 8240TIP3   OH224683   2.306   2.243   1.466  0.1439  0.2528 -0.1613
 8240TIP3    H124684   2.365   2.172   1.442  0.2848 -0.0143  0.9257
 8240TIP3    H224685   2.251   2.206   1.535 -0.7941  0.7361 -0.6283
 8241TIP3   OH224686   4.963   3.391   5.595  0.2918  0.3097 -0.2907
 8241TIP3    H124687   4.927   3.346   5.519 -1.4937  0.1815  0.5754
 8241TIP3    H224688   4.954   3.484   5.574 -0.4634  0.2776 -0.1557
 8242TIP3   OH224689   7.150   1.708   5.577 -0.3997  0.0193  0.1980
 8242TIP3    H124690   7.154   1.750   5.663 -2.7870 -0.5088  0.6484
 8242TIP3    H224691   7.135   1.616   5.596 -0.0136 -0.2681 -0.8035
 8243TIP3   OH224692   0.742   3.250   4.835 -0.5810 -0.4931 -0.2866
 8243TIP3    H124693   0.667   3.282   4.785  0.5306 -1.6331 -2.9078
 8243TIP3    H224694   0.726   3.155   4.843  0.6445 -0.7757 -1.0449
 8244TIP3   OH224695   0.462   2.231   2.430  0.3823  0.0149 -0.1004
 8244TIP3    H124696   0.534   2.294   2.440  0.8406 -0.2373 -1.5392
 8244TIP3    H224697   0.489   2.155   2.480  0.9486  0.0742 -0.3081
 8245TIP3   OH224698   3.823   2.167   0.960 -0.3416 -0.1958  0.2002
 8245TIP3    H124699   3.837   2.103   1.029  0.0412  0.2309  0.5287
 8245TIP3    H224700   3.750   2.221   0.992 -0.7465 -0.5418 -0.1319
 8246TIP3   OH224701   5.633   3.908   1.523  0.3120  0.4645  0.0241
 8246TIP3    H124702   5.625   3.916   1.428 -1.5978 -0.8073  0.0289
 8246TIP3    H224703   5.694   3.835   1.535 -0.5257 -0.3180 -0.2862
 8247TIP3   OH224704   5.322   6.131   5.557 -1.0130  0.2538  0.1338
 8247TIP3    H124705   5.324   6.205   5.617 -0.2606  0.6365 -0.3561
 8247TIP3    H224706   5.325   6.171   5.470  1.2269 -0.3719 -0.1371
 8248TIP3   OH224707   0.675   5.333   5.805  0.4120 -0.3547  0.4269
 8248TIP3    H124708   0.702   5.257   5.754  2.5977 -0.1966  1.2574
 8248TIP3    H224709   0.702   5.408   5.753  2.3157 -0.1912  1.5740
 8249TIP3   OH224710   5.224   0.134   5.403  0.0395 -0.2814  0.2807
 8249TIP3    H124711   5.134   0.142   5.372 -0.8039 -2.0563  2.0810
 8249TIP3    H224712   5.262   0.221   5.389 -1.5065  0.1567 -1.7218
 8250TIP3   OH224713   0.517   1.654   3.536 -0.3449 -0.0426 -0.1530
 8250TIP3    H124714   0.548   1.677   3.624 -1.6142  0.6402  0.1482
 8250TIP3    H224715   0.508   1.559   3.537  1.3871 -0.2357 -0.1635
 8251TIP3   OH224716   4.820   0.681   2.903  0.0427  0.0784 -0.2291
 8251TIP3    H124717   4.731   0.707   2.882 -0.7121 -1.6097  0.6828
 8251TIP3    H224718   4.811   0.598   2.951  1.9130  1.1193  2.2018
 8252TIP3   OH224719   1.726   2.873   5.312 -0.1301 -0.1890 -0.1007
 8252TIP3    H124720   1.755   2.810   5.246 -0.8350 -2.3695  1.5487
 8252TIP3    H224721   1.800   2.933   5.322  1.3464 -1.8527 -0.4646
 8253TIP3   OH224722   6.189   2.452   4.870 -0.1968  0.2462  0.3543
 8253TIP3    H124723   6.107   2.402   4.876  0.2631 -0.9117 -1.7260
 8253TIP3    H224724   6.253   2.399   4.917 -0.3465  0.4136  0.7449
 8254TIP3   OH224725   2.902   1.993   4.736 -0.0805  0.0205 -0.1587
 8254TIP3    H124726   2.923   2.044   4.658 -1.4616 -0.1115 -0.6453
 8254TIP3    H224727   2.868   1.910   4.702  2.4586 -1.4393  0.6099
 8255TIP3   OH224728   6.354   3.433   3.294 -0.2306 -0.0272 -0.2069
 8255TIP3    H124729   6.305   3.433   3.377 -0.6202  0.7733 -0.4200
 8255TIP3    H224730   6.411   3.357   3.299 -0.1769  0.0708  0.8479
 8256TIP3   OH224731   5.675   1.754   3.881 -0.0521  0.0323  0.0732
 8256TIP3    H124732   5.649   1.682   3.824  0.6603  0.3985 -0.7327
 8256TIP3    H224733   5.628   1.829   3.848 -1.0879 -0.1150  1.1493
 8257TIP3   OH224734   4.719   5.464   4.407 -0.2687  0.2746 -0.1824
 8257TIP3    H124735   4.681   5.397   4.464 -0.5123  0.0757 -0.5757
 8257TIP3    H224736   4.728   5.421   4.322  2.7135 -0.3620  0.3536
 8258TIP3   OH224737   3.457   0.486   2.370 -0.0150  0.1303  0.2875
 8258TIP3    H124738   3.434   0.567   2.416 -0.9303 -0.1996  0.4342
 8258TIP3    H224739   3.551   0.492   2.356  0.3467  0.1640  2.3985
 8259TIP3   OH224740   1.968   0.946   3.934  0.5110 -0.3319 -0.5083
 8259TIP3    H124741   1.991   0.877   3.871 -1.4333 -2.9180  1.3707
 8259TIP3    H224742   1.873   0.956   3.925  0.7918  2.7621 -1.2037
 8260TIP3   OH224743   6.090   5.383   1.202  0.9345 -0.9927  0.2594
 8260TIP3    H124744   6.081   5.343   1.289 -0.7800 -0.1623  0.5121
 8260TIP3    H224745   6.000   5.385   1.168  1.4078 -0.1104 -0.9873
 8261TIP3   OH224746   5.048   1.505   3.513 -0.0647  0.2172  0.1908
 8261TIP3    H124747   5.070   1.509   3.606  1.2083  2.7559 -0.1327
 8261TIP3    H224748   4.968   1.556   3.505  0.6544  1.3316 -0.2490
 8262TIP3   OH224749   6.386   2.775   5.443  0.4607  0.4567  0.0334
 8262TIP3    H124750   6.408   2.824   5.363 -0.4504  1.2562  0.2502
 8262TIP3    H224751   6.370   2.843   5.509  0.9990 -0.1920  0.8424
 8263TIP3   OH224752   4.379   5.999   2.446  0.0057  0.2364 -0.8848
 8263TIP3    H124753   4.322   5.997   2.524  0.5736  0.9758 -0.4289
 8263TIP3    H224754   4.420   5.913   2.444  0.9462  0.6083  0.3979
 8264TIP3   OH224755   4.563   0.299   3.116 -0.5035  0.1659 -0.7502
 8264TIP3    H124756   4.611   0.363   3.168 -0.6019 -0.7657  0.5319
 8264TIP3    H224757   4.484   0.281   3.167 -0.6506 -0.7022 -1.2586
 8265TIP3   OH224758   0.112   3.523   5.020 -0.1317  0.1538 -0.2051
 8265TIP3    H124759   0.127   3.598   5.078 -0.7780  0.3723 -0.3081
 8265TIP3    H224760   0.102   3.562   4.933 -1.2482  0.0426 -0.1463
 8266TIP3   OH224761   0.633   1.464   2.573  0.4536 -0.2242  0.2470
 8266TIP3    H124762   0.595   1.380   2.598  0.5876  0.4053  2.7652
 8266TIP3    H224763   0.574   1.530   2.610  1.2114  0.8019 -0.3080
 8267TIP3   OH224764   4.862   5.830   1.129 -0.0462 -0.2029  0.2842
 8267TIP3    H124765   4.766   5.838   1.125  0.0447  0.5143 -0.8753
 8267TIP3    H224766   4.889   5.902   1.186 -0.2965 -1.4578  2.0593
 8268TIP3   OH224767   2.295   0.251   1.697  0.0256  0.0253  0.1435
 8268TIP3    H124768   2.358   0.201   1.749  2.5803  1.1025 -1.6591
 8268TIP3    H224769   2.238   0.294   1.761 -0.2486 -2.5987  1.8047
 8269TIP3   OH224770   4.944   4.695   3.578  0.1947 -0.2818  0.4424
 8269TIP3    H124771   4.936   4.749   3.499  0.9474  0.3243  0.7546
 8269TIP3    H224772   4.973   4.757   3.646  1.4181 -1.1316  0.7306
 8270TIP3   OH224773   6.029   3.300   5.059  0.0691 -0.3363 -0.6938
 8270TIP3    H124774   5.967   3.372   5.049  0.1415  0.0785  1.3979
 8270TIP3    H224775   6.114   3.343   5.071  0.4048 -0.8290 -1.2543
 8271TIP3   OH224776   5.751   1.642   4.479 -0.4485 -0.1525 -0.0459
 8271TIP3    H124777   5.673   1.678   4.438 -1.0285 -1.0162  0.2470
 8271TIP3    H224778   5.737   1.655   4.573  0.1507  0.4289 -0.0294
 8272TIP3   OH224779   5.637   3.495   1.684 -0.5709 -0.3942 -0.4767
 8272TIP3    H124780   5.714   3.536   1.645  1.2775 -2.4908  0.6756
 8272TIP3    H224781   5.656   3.401   1.681 -0.5357 -0.8487  4.5229
 8273TIP3   OH224782   6.265   0.076   1.326  0.1345  0.0955 -0.3252
 8273TIP3    H124783   6.227  -0.011   1.338  0.4482 -0.1162 -0.8504
 8273TIP3    H224784   6.331   0.065   1.258 -0.1755  0.8497 -0.7718
 8274TIP3   OH224785   4.570   3.498   3.210  0.0950  0.3846  0.2860
 8274TIP3    H124786   4.583   3.589   3.183  0.4666  0.4351  0.6254
 8274TIP3    H224787   4.566   3.502   3.306  0.8975 -0.0462  0.3432
 8275TIP3   OH224788   1.838   6.724   3.662  0.1916 -0.5319  0.1589
 8275TIP3    H124789   1.763   6.753   3.714  1.0939  0.2842  1.0517
 8275TIP3    H224790   1.804   6.718   3.573 -0.6597  1.0374  0.3306
 8276TIP3   OH224791   3.208   0.474   2.222  0.2650 -0.2209 -0.5939
 8276TIP3    H124792   3.281   0.458   2.281  0.8873 -1.1236 -1.5753
 8276TIP3    H224793   3.143   0.408   2.245 -0.1521  0.4123  0.0988
 8277TIP3   OH224794   1.531   0.717   4.286 -0.0031  0.0241  0.2419
 8277TIP3    H124795   1.550   0.810   4.283  0.1868  0.0193  1.0255
 8277TIP3    H224796   1.516   0.692   4.195  0.7379  0.6564 -0.0612
 8278TIP3   OH224797   5.990   1.672   3.047  0.2392  0.4425 -0.0639
 8278TIP3    H124798   6.055   1.609   3.015  0.7632  0.8569  0.1794
 8278TIP3    H224799   5.922   1.671   2.980  1.1277  0.9915 -1.0131
 8279TIP3   OH224800   3.031   2.303   3.244 -0.3220  0.8338 -0.1303
 8279TIP3    H124801   3.124   2.298   3.222 -0.0279  0.2145  1.1497
 8279TIP3    H224802   2.998   2.216   3.224 -0.5970  1.0066 -0.4299
 8280TIP3   OH224803   2.225   0.993   0.694  0.1280 -0.1634 -0.4872
 8280TIP3    H124804   2.302   0.968   0.644 -0.4721  0.9366 -2.0340
 8280TIP3    H224805   2.190   1.070   0.649 -1.3468 -0.0692  0.7105
 8281TIP3   OH224806   5.419   1.626   2.456  0.0390  0.1852 -0.3525
 8281TIP3    H124807   5.324   1.624   2.446  0.1286 -0.2495 -1.3037
 8281TIP3    H224808   5.451   1.566   2.388  0.9516 -0.4005  0.5637
 8282TIP3   OH224809   5.140   1.917   4.043  0.3347  0.2442 -0.5276
 8282TIP3    H124810   5.128   1.823   4.028 -0.5096  0.4242 -1.1043
 8282TIP3    H224811   5.223   1.924   4.090  0.0278 -0.8466  0.2212
 8283TIP3   OH224812   4.886   3.291   2.630  0.1313  0.0562 -0.8335
 8283TIP3    H124813   4.890   3.198   2.653  1.3840  0.1722 -0.5061
 8283TIP3    H224814   4.969   3.326   2.660  0.2627  0.9948 -2.2242
 8284TIP3   OH224815   6.238   6.728   5.806  0.1705  0.5011  0.2689
 8284TIP3    H124816   6.312   6.757   5.753 -0.7483  0.9045 -0.8537
 8284TIP3    H224817   6.276   6.673   5.873  1.2260 -2.4100 -2.4653
 8285TIP3   OH224818   6.514   0.301   5.685 -0.1269  0.2407  0.1448
 8285TIP3    H124819   6.489   0.214   5.714  0.0465  0.2855  0.4303
 8285TIP3    H224820   6.609   0.305   5.698 -0.2361  0.7266  0.8235
 8286TIP3   OH224821   2.051   3.754   5.009  0.4728  0.5527 -0.3372
 8286TIP3    H124822   2.144   3.744   4.990  0.2780  0.5511 -1.3147
 8286TIP3    H224823   2.019   3.817   4.945 -0.6896 -1.2310 -1.6262
 8287TIP3   OH224824   6.047   3.859   2.614 -0.2863  0.2712  0.3877
 8287TIP3    H124825   6.140   3.880   2.622 -0.4286  0.7454  0.8604
 8287TIP3    H224826   6.016   3.917   2.544 -0.1896 -0.0099  0.1123
 8288TIP3   OH224827   6.289   0.201   0.244 -0.2923  0.2278  0.0675
 8288TIP3    H124828   6.344   0.150   0.184 -0.9530 -0.2111 -0.1803
 8288TIP3    H224829   6.248   0.134   0.299 -0.2516  0.5818  0.5260
 8289TIP3   OH224830   6.886   1.092   0.545 -0.1126  0.3303  0.1789
 8289TIP3    H124831   6.882   1.007   0.589  0.4145  0.3329  0.2350
 8289TIP3    H224832   6.957   1.139   0.589 -0.8687  1.0806  0.6390
 8290TIP3   OH224833   0.372   3.297   2.734 -0.1308  0.2469  0.3589
 8290TIP3    H124834   0.404   3.384   2.712 -1.0487  1.4417  3.3304
 8290TIP3    H224835   0.451   3.243   2.739  0.4200  0.7517 -1.7913
 8291TIP3   OH224836   1.236   2.972   2.250 -0.3935  0.0645 -0.0529
 8291TIP3    H124837   1.289   2.959   2.329 -1.3645 -0.9347  0.4668
 8291TIP3    H224838   1.251   2.892   2.199 -0.1201  0.5109 -0.6784
 8292TIP3   OH224839   2.316   4.305   3.585  0.4152 -0.0399  0.2793
 8292TIP3    H124840   2.228   4.314   3.548  0.2131 -0.1289  0.7327
 8292TIP3    H224841   2.328   4.210   3.595  1.2357 -0.1495 -1.3736
 8293TIP3   OH224842   3.453   1.535   1.624 -0.1963  0.2900  0.8880
 8293TIP3    H124843   3.487   1.558   1.710  1.0079 -0.7644  0.7161
 8293TIP3    H224844   3.458   1.440   1.620 -0.7325  0.2859 -0.1561
 8294TIP3   OH224845   3.368   0.424   5.774  0.0930 -0.0396  0.1725
 8294TIP3    H124846   3.433   0.371   5.821  1.6805  0.1024 -1.7459
 8294TIP3    H224847   3.370   0.509   5.818  0.4689 -0.3488  0.7608
 8295TIP3   OH224848   6.052   0.044   5.430  0.0352 -0.1536 -0.3118
 8295TIP3    H124849   6.125   0.002   5.476 -0.8260 -0.6969  0.5893
 8295TIP3    H224850   5.977   0.031   5.488 -1.0010 -0.5016 -1.7112
 8296TIP3   OH224851   3.881   1.047   5.116 -0.0992 -0.2472 -0.1128
 8296TIP3    H124852   3.862   1.132   5.155  0.8433 -0.2384  0.3455
 8296TIP3    H224853   3.809   1.032   5.055  0.0396  1.1484 -0.6483
 8297TIP3   OH224854   2.178   3.975   1.765 -0.4210  0.5176 -0.7638
 8297TIP3    H124855   2.240   4.026   1.818 -0.6936  1.6098 -1.4461
 8297TIP3    H224856   2.165   4.029   1.687 -2.7463  0.6651 -0.3472
 8298TIP3   OH224857   6.192   5.623   0.238  0.2057 -0.2762 -0.2344
 8298TIP3    H124858   6.271   5.576   0.210  0.7800  1.1249 -1.0859
 8298TIP3    H224859   6.169   5.677   0.163 -0.9747  0.1130  0.3834
 8299TIP3   OH224860   2.429   5.345   0.385 -0.4569  0.5368 -0.2170
 8299TIP3    H124861   2.428   5.249   0.387  0.3905  0.5335  1.1126
 8299TIP3    H224862   2.407   5.367   0.295  0.3061 -0.9387 -0.8034
 8300TIP3   OH224863   4.514   2.706   5.285 -0.3863 -0.3346 -0.2901
 8300TIP3    H124864   4.446   2.721   5.351  1.5979  0.5086  1.6790
 8300TIP3    H224865   4.504   2.780   5.224 -0.7921  0.1873  0.3907
 8301TIP3   OH224866   6.823   1.448   1.781 -0.0466 -0.3418 -0.2456
 8301TIP3    H124867   6.781   1.393   1.847  1.2957 -0.9255  0.1699
 8301TIP3    H224868   6.917   1.438   1.798  0.2637  1.7470 -0.4453
 8302TIP3   OH224869   0.182   1.684   5.067 -0.4437  0.3297 -0.3079
 8302TIP3    H124870   0.158   1.607   5.017 -1.7911 -0.5157  1.5296
 8302TIP3    H224871   0.235   1.650   5.139 -0.7131  1.1630  0.2971
 8303TIP3   OH224872   4.912   2.818   4.095 -0.3416  0.2524 -0.0619
 8303TIP3    H124873   4.817   2.824   4.105 -0.4888  1.0162 -1.5484
 8303TIP3    H224874   4.931   2.871   4.018  1.3446  0.3958  0.4131
 8304TIP3   OH224875   0.822   0.586   5.781  0.5110 -0.2959 -0.0732
 8304TIP3    H124876   0.875   0.613   5.856 -0.3821 -0.2917  0.5623
 8304TIP3    H224877   0.758   0.656   5.770 -0.6278 -1.2292  0.4160
 8305TIP3   OH224878   3.840   1.134   2.804  0.4157 -0.3316  0.1661
 8305TIP3    H124879   3.832   1.227   2.785 -0.4782 -0.6804 -1.3972
 8305TIP3    H224880   3.772   1.117   2.870 -0.2046 -0.0739 -0.3933
 8306TIP3   OH224881   5.209   5.749   1.408  0.0540 -0.4107 -0.4651
 8306TIP3    H124882   5.114   5.747   1.409  0.0561 -0.5124 -0.1192
 8306TIP3    H224883   5.233   5.820   1.467  0.2103 -2.3977  2.0414
 8307TIP3   OH224884   5.553   3.215   3.946 -0.4434 -0.1115 -0.3825
 8307TIP3    H124885   5.534   3.290   4.002 -1.0202  0.9560 -1.9419
 8307TIP3    H224886   5.649   3.209   3.945 -0.4377 -0.4683  1.0859
 8308TIP3   OH224887   6.204   3.512   5.623 -0.6058 -0.2541  0.5277
 8308TIP3    H124888   6.245   3.460   5.692 -2.1947  1.1527  2.6858
 8308TIP3    H224889   6.133   3.457   5.590 -0.0894 -0.7760  0.2724
 8309TIP3   OH224890   1.508   3.067   2.113 -0.0475 -0.0211 -0.2667
 8309TIP3    H124891   1.565   3.098   2.043  0.5920 -0.3259  0.1118
 8309TIP3    H224892   1.501   2.973   2.098  0.1829 -0.1044  0.1434
 8310TIP3   OH224893   2.607   5.688   5.638 -0.0563  0.5146  0.1467
 8310TIP3    H124894   2.616   5.593   5.640 -0.0531  0.5214  1.9877
 8310TIP3    H224895   2.516   5.704   5.614 -0.2728  0.0269  0.6435
 8311TIP3   OH224896   3.837   4.560   2.688  0.0475 -0.1806 -0.5573
 8311TIP3    H124897   3.873   4.473   2.676  2.3606  0.7665 -0.8663
 8311TIP3    H224898   3.791   4.555   2.773 -0.9736 -1.9825 -1.1568
 8312TIP3   OH224899   7.070   1.308   2.539  0.0561 -0.3264 -0.3926
 8312TIP3    H124900   7.044   1.248   2.469  0.0638 -0.2779 -0.4372
 8312TIP3    H224901   7.160   1.332   2.518 -0.6714  1.5173 -1.6613
 8313TIP3   OH224902   5.138   4.571   2.219  0.2822 -0.3174  0.1397
 8313TIP3    H124903   5.147   4.610   2.132  0.4779  3.1213  1.5531
 8313TIP3    H224904   5.215   4.515   2.228  1.4170  0.9474 -1.1341
 8314TIP3   OH224905   4.813   4.159   2.768  0.0230  0.4956 -0.0986
 8314TIP3    H124906   4.792   4.127   2.680 -0.5330  2.5173 -0.7496
 8314TIP3    H224907   4.905   4.135   2.780 -0.8125 -3.1286  0.3635
 8315TIP3   OH224908   4.919   0.941   1.830  0.7591 -0.5083  0.4206
 8315TIP3    H124909   4.899   0.934   1.923  3.2214 -3.1477  0.8715
 8315TIP3    H224910   4.840   0.908   1.786 -0.1857  0.1907  1.5335
 8316TIP3   OH224911   5.829   1.620   2.068 -0.3344 -0.2514 -0.2890
 8316TIP3    H124912   5.816   1.613   1.974  0.3640  1.1745 -0.5240
 8316TIP3    H224913   5.888   1.548   2.090  1.4720  0.8006 -1.3946
 8317TIP3   OH224914   6.171   5.410   2.704 -0.3601 -0.0138 -0.3851
 8317TIP3    H124915   6.127   5.341   2.654 -1.5881 -1.1478  2.0744
 8317TIP3    H224916   6.103   5.477   2.717  0.8309  1.7885 -2.7940
 8318TIP3   OH224917   2.736   2.261   0.543 -0.5196  0.9965 -0.5978
 8318TIP3    H124918   2.760   2.291   0.456  0.2967  1.3342 -0.2604
 8318TIP3    H224919   2.794   2.308   0.602  1.3107 -1.7068 -0.0602
 8319TIP3   OH224920   4.581   5.762   0.227 -0.1737  0.1881  0.1794
 8319TIP3    H124921   4.656   5.771   0.169  1.9138 -2.5567  2.2081
 8319TIP3    H224922   4.571   5.668   0.240 -3.9063  0.4281  0.1982
 8320TIP3   OH224923   5.665   0.589   0.883 -0.5618 -0.4889  0.2278
 8320TIP3    H124924   5.610   0.511   0.875 -2.7973  1.0530 -0.2732
 8320TIP3    H224925   5.685   0.614   0.793  1.2995 -1.1826  0.4007
 8321TIP3   OH224926   2.335   4.788   5.051  0.3397  0.8683 -0.2560
 8321TIP3    H124927   2.399   4.782   5.122 -1.5155 -1.0751  1.3829
 8321TIP3    H224928   2.332   4.700   5.014 -0.9425  1.0613 -0.6544
 8322TIP3   OH224929   2.027   5.993   0.409 -0.5844 -0.6875  0.1682
 8322TIP3    H124930   1.976   6.074   0.410 -1.0953 -1.0096  0.8313
 8322TIP3    H224931   2.030   5.968   0.316 -2.1145 -0.9477  0.1612
 8323TIP3   OH224932   4.191   0.823   1.867  0.5113 -0.1842 -0.0401
 8323TIP3    H124933   4.242   0.891   1.822  2.0335 -0.6425  0.9441
 8323TIP3    H224934   4.157   0.867   1.945  1.2093 -0.4485  0.4184
 8324TIP3   OH224935   3.287   0.924   2.754  0.5849  0.5590  0.2244
 8324TIP3    H124936   3.204   0.934   2.707  0.7955 -0.3261 -0.3755
 8324TIP3    H224937   3.345   0.990   2.715  1.0049 -0.6812 -1.4029
 8325TIP3   OH224938   3.417   4.223   4.732  0.1149  0.3198 -0.0278
 8325TIP3    H124939   3.502   4.255   4.701 -0.3098  1.6609  0.1242
 8325TIP3    H224940   3.356   4.243   4.661 -0.0780 -0.7241 -0.1770
 8326TIP3   OH224941   6.944   6.324   2.870 -0.1945 -0.1192  0.8789
 8326TIP3    H124942   7.003   6.393   2.900 -0.2513 -0.0050  0.7299
 8326TIP3    H224943   6.995   6.243   2.877  0.3495  0.1082 -0.2687
 8327TIP3   OH224944   0.154   1.784   5.376 -0.3934  0.3739 -0.2167
 8327TIP3    H124945   0.100   1.736   5.439 -0.6330 -0.8487 -1.3065
 8327TIP3    H224946   0.216   1.834   5.430  0.4364 -1.8285  0.9849
 8328TIP3   OH224947   5.331   6.060   4.710 -0.0646 -0.8223 -0.5157
 8328TIP3    H124948   5.371   6.125   4.652 -0.8207 -1.0207 -1.2694
 8328TIP3    H224949   5.302   6.111   4.786 -0.5373 -0.2914 -1.0431
 8329TIP3   OH224950   0.048   2.555   1.630  0.2158  0.0519 -0.1319
 8329TIP3    H124951   0.034   2.642   1.667  0.7230 -0.5367  1.5118
 8329TIP3    H224952  -0.039   2.517   1.625  0.0280  0.5239 -0.5456
 8330TIP3   OH224953   6.210   6.105   1.046  0.0626 -0.0803 -0.4004
 8330TIP3    H124954   6.237   6.121   0.955  2.3844 -0.7901  0.0759
 8330TIP3    H224955   6.186   6.012   1.047  0.1164 -0.0925 -0.2827
 8331TIP3   OH224956   3.637   0.594   0.882  0.3985 -0.3390 -0.3919
 8331TIP3    H124957   3.546   0.604   0.852  0.2496 -1.3867 -0.3166
 8331TIP3    H224958   3.634   0.519   0.941  0.8730  1.0733  1.5114
 8332TIP3   OH224959   7.154   5.481   3.221  0.3169 -0.1867  0.1622
 8332TIP3    H124960   7.101   5.558   3.244  0.9874  0.1814  0.5179
 8332TIP3    H224961   7.091   5.410   3.211 -0.0926 -0.1899  2.3659
 8333TIP3   OH224962   2.287   0.975   1.363 -0.1172 -0.0650  0.0371
 8333TIP3    H124963   2.242   1.046   1.319 -0.7522  0.8098  1.9663
 8333TIP3    H224964   2.374   0.973   1.324 -0.0453  1.8695 -0.0007
 8334TIP3   OH224965   5.187   4.946   4.940 -0.2965 -0.0628  0.2567
 8334TIP3    H124966   5.102   4.918   4.974 -0.1894 -0.5842  0.0978
 8334TIP3    H224967   5.209   5.023   4.992 -0.4590 -0.4418  0.8982
 8335TIP3   OH224968   4.186   0.898   3.854 -0.0864 -0.3952 -0.5826
 8335TIP3    H124969   4.132   0.965   3.895  0.9151 -0.4776  0.9632
 8335TIP3    H224970   4.225   0.942   3.778 -0.0632  0.5462 -0.0408
 8336TIP3   OH224971   1.966   0.061   1.917 -0.0418 -0.5550  0.1587
 8336TIP3    H124972   1.885   0.027   1.879 -0.5400  0.9506 -0.2192
 8336TIP3    H224973   2.035   0.018   1.867 -0.6352 -0.8202 -0.4608
 8337TIP3   OH224974   4.420   0.375   4.471 -0.2546  0.0350 -0.0380
 8337TIP3    H124975   4.392   0.436   4.403  0.6378 -0.4978 -0.9158
 8337TIP3    H224976   4.512   0.397   4.487 -0.6945  0.7592  1.6891
 8338TIP3   OH224977   6.794   1.523   2.368  0.1650 -0.5509 -0.3367
 8338TIP3    H124978   6.875   1.556   2.409 -1.2459  0.6939  1.6750
 8338TIP3    H224979   6.726   1.582   2.400 -1.7350 -2.2602 -1.0141
 8339TIP3   OH224980   5.738   5.913   0.774  0.2837 -0.3944  0.7206
 8339TIP3    H124981   5.654   5.934   0.732  0.6929 -0.3932 -0.1129
 8339TIP3    H224982   5.803   5.956   0.719  0.8462 -0.5949  1.2305
 8340TIP3   OH224983   0.458   3.100   1.878 -0.4336  0.8034  0.1449
 8340TIP3    H124984   0.484   3.192   1.869  0.4961  0.4309 -1.5633
 8340TIP3    H224985   0.485   3.076   1.967  0.0678  1.9581  0.3263
 8341TIP3   OH224986   4.564   4.968   5.337 -0.1591 -0.8438  0.0859
 8341TIP3    H124987   4.650   4.928   5.328  0.4781  0.0568  1.8137
 8341TIP3    H224988   4.573   5.055   5.298 -1.0676 -1.6379 -2.0859
 8342TIP3   OH224989   2.872   5.215   1.570 -0.2709 -0.0553 -0.3477
 8342TIP3    H124990   2.796   5.250   1.615  1.2869  1.8967  0.9595
 8342TIP3    H224991   2.852   5.224   1.477 -1.9434 -0.3983 -0.0456
 8343TIP3   OH224992   2.678   4.780   0.687 -0.0396 -0.0029 -0.3416
 8343TIP3    H124993   2.584   4.766   0.698  0.1701 -1.1915  0.0517
 8343TIP3    H224994   2.717   4.750   0.769  0.7079  0.2959 -0.5738
 8344TIP3   OH224995   2.017   6.325   3.350 -0.1567 -0.1850 -0.1158
 8344TIP3    H124996   2.027   6.416   3.322  1.5663  0.2720  1.7196
 8344TIP3    H224997   2.092   6.279   3.312 -0.4710 -0.6180 -0.2208
 8345TIP3   OH224998   4.607   6.126   0.159  0.2711 -0.4515 -0.2616
 8345TIP3    H124999   4.604   6.071   0.237  0.6993  2.5613  2.0764
 8345TIP3    H225000   4.700   6.140   0.142  0.2226  1.3123  0.6423
 8346TIP3   OH225001   4.646   4.112   1.236  0.3739  0.2967 -0.2421
 8346TIP3    H125002   4.629   4.136   1.144 -3.2034  0.3283  0.3055
 8346TIP3    H225003   4.631   4.193   1.284  2.4091  0.3231  0.4584
 8347TIP3   OH225004   6.559   2.309   4.888  0.1386 -0.2327 -0.1257
 8347TIP3    H125005   6.571   2.402   4.874 -0.9923  0.0715  0.7212
 8347TIP3    H225006   6.510   2.303   4.970  0.2869 -1.5739 -0.1053
 8348TIP3   OH225007   0.152   2.135   1.550 -0.6069  0.4146 -0.0035
 8348TIP3    H125008   0.157   2.116   1.644 -2.6906 -1.0795 -0.1324
 8348TIP3    H225009   0.234   2.101   1.514 -0.6152 -0.7330  1.0103
 8349TIP3   OH225010   1.596   3.772   5.861  0.0068  0.8170 -0.3749
 8349TIP3    H125011   1.578   3.719   5.784 -0.7145  0.7471 -0.1661
 8349TIP3    H225012   1.511   3.808   5.886  0.3951  1.6235 -0.1829
 8350TIP3   OH225013   5.830   0.149   2.788 -0.7142  0.2405 -0.0505
 8350TIP3    H125014   5.746   0.190   2.809 -0.8473  0.4690 -0.9862
 8350TIP3    H225015   5.813   0.055   2.792 -1.3965  0.2694 -1.6156
 8351TIP3   OH225016   3.975   6.393   3.672 -0.6250 -0.0426  0.5118
 8351TIP3    H125017   3.928   6.476   3.667 -0.2513  0.1833  0.7103
 8351TIP3    H225018   3.931   6.345   3.742 -1.3295 -0.3286 -0.1130
 8352TIP3   OH225019   0.721   2.525   1.651  0.2685 -0.0563 -0.7523
 8352TIP3    H125020   0.647   2.465   1.650  2.7783 -3.4962  0.1231
 8352TIP3    H225021   0.758   2.519   1.562  1.1863 -0.7806 -0.3419
 8353TIP3   OH225022   3.920   4.084   4.664  0.2206 -0.2423 -0.0214
 8353TIP3    H125023   3.898   4.166   4.709  1.1534 -1.0014  1.9441
 8353TIP3    H225024   3.849   4.024   4.687 -0.3862 -0.0591 -1.3399
 8354TIP3   OH225025   1.755   3.416   4.113  0.3641 -0.2909 -0.6915
 8354TIP3    H125026   1.777   3.448   4.025  1.1744 -0.8936 -0.7235
 8354TIP3    H225027   1.747   3.321   4.102  2.8169 -0.6855  0.3150
 8355TIP3   OH225028   0.584   2.806   1.931 -0.2692  0.3992  0.4719
 8355TIP3    H125029   0.569   2.893   1.895 -1.2191 -0.1966 -0.6113
 8355TIP3    H225030   0.667   2.778   1.894 -0.4339  0.4600  0.0557
 8356TIP3   OH225031   0.819   3.963   2.844  0.2987 -0.2970 -0.1435
 8356TIP3    H125032   0.870   3.899   2.893  0.6803  0.0979 -0.0227
 8356TIP3    H225033   0.849   4.048   2.877 -0.8377 -0.0651  0.3425
 8357TIP3   OH225034   2.300   2.917   5.374  0.2765 -0.6298  0.1389
 8357TIP3    H125035   2.328   2.933   5.464 -0.2793  1.1713  0.0315
 8357TIP3    H225036   2.327   2.995   5.326 -1.8711 -0.3005 -0.6436
 8358TIP3   OH225037   1.413   4.315   1.445 -0.5714  0.4856 -0.2317
 8358TIP3    H125038   1.327   4.318   1.403 -0.7224  1.5065  0.1247
 8358TIP3    H225039   1.475   4.322   1.372 -0.8315  2.2718 -0.3283
 8359TIP3   OH225040   6.333   1.939   5.869  0.5224 -0.1488  0.0250
 8359TIP3    H125041   6.344   2.034   5.860 -0.2796 -0.1060 -0.6437
 8359TIP3    H225042   6.412   1.902   5.829 -0.4082  0.1897 -2.2983
 8360TIP3   OH225043   1.154   5.506   4.574 -0.5438  0.2725 -0.0729
 8360TIP3    H125044   1.147   5.599   4.556 -1.0859 -0.2404 -3.0511
 8360TIP3    H225045   1.248   5.487   4.563 -0.6298  0.2658 -0.8909
 8361TIP3   OH225046   5.618   4.289   3.059  0.0607 -0.1684 -0.8731
 8361TIP3    H125047   5.666   4.206   3.063 -0.2052 -0.3558 -1.5129
 8361TIP3    H225048   5.618   4.321   3.149  1.1254 -0.3206 -0.8066
 8362TIP3   OH225049   0.740   2.648   2.500  0.0185  0.8937  0.5914
 8362TIP3    H125050   0.717   2.691   2.582 -0.9120  1.7680 -0.0972
 8362TIP3    H225051   0.809   2.703   2.462 -1.6097  2.2338 -0.5931
 8363TIP3   OH225052   1.240   1.374   2.609  1.0075  0.5216  0.5655
 8363TIP3    H125053   1.248   1.279   2.610  1.9603  0.4762 -2.4186
 8363TIP3    H225054   1.324   1.405   2.645  2.0622  0.1533 -1.4383
 8364TIP3   OH225055   1.530   2.851   3.644  0.6455 -0.5599  0.3752
 8364TIP3    H125056   1.566   2.773   3.687 -0.4478 -0.1600  2.1280
 8364TIP3    H225057   1.435   2.839   3.650  0.4680  0.0278 -1.0472
 8365TIP3   OH225058   5.980   4.954   5.376 -0.0225  0.4727  0.2608
 8365TIP3    H125059   5.945   4.962   5.465  0.5954 -0.3416  0.5961
 8365TIP3    H225060   5.936   4.878   5.340 -0.2945  0.8231 -0.1451
 8366TIP3   OH225061   1.008   4.063   0.793  0.0619  0.2712  0.4947
 8366TIP3    H125062   0.920   4.026   0.804  0.1782  0.1129  0.8933
 8366TIP3    H225063   1.000   4.120   0.717 -0.0390 -0.8678 -0.3863
 8367TIP3   OH225064   0.351   5.960   1.269 -0.2770 -0.1169 -0.2175
 8367TIP3    H125065   0.422   5.954   1.333 -0.3380  0.0082 -0.1382
 8367TIP3    H225066   0.282   6.009   1.314 -0.3321 -0.0562 -0.3680
 8368TIP3   OH225067   2.116   3.011   2.391  0.4650  0.2449  0.8280
 8368TIP3    H125068   2.030   3.051   2.398 -0.0948 -0.8226  0.2168
 8368TIP3    H225069   2.148   3.036   2.304  0.0927 -0.6450  0.4245
 8369TIP3   OH225070   0.042   6.799   5.504 -0.0761 -0.1928  0.2313
 8369TIP3    H125071  -0.018   6.810   5.577  1.3352  0.6014  1.3152
 8369TIP3    H225072  -0.012   6.760   5.435 -1.3673 -1.2816  1.7764
 8370TIP3   OH225073   6.452   1.558   1.782  0.4549  0.0139  0.2719
 8370TIP3    H125074   6.511   1.510   1.725  1.4809  0.4493  0.9354
 8370TIP3    H225075   6.402   1.490   1.828  0.0910 -0.3449 -0.6401
 8371TIP3   OH225076   3.873   1.324   3.023  0.1303  0.9348  0.1947
 8371TIP3    H125077   3.962   1.358   3.030 -0.1438  1.4745  1.3786
 8371TIP3    H225078   3.833   1.375   2.953  0.5413  1.1711  0.1269
 8372TIP3   OH225079   0.977   6.378   4.979 -0.4136  0.1811  0.2860
 8372TIP3    H125080   0.930   6.460   4.966  0.0259  0.2336 -1.1809
 8372TIP3    H225081   1.008   6.382   5.069 -0.2789  1.6999  0.2020
 8373TIP3   OH225082   2.801   2.229   0.978  0.0073  0.5514  0.7102
 8373TIP3    H125083   2.734   2.238   0.910 -0.2941  1.0956  1.0738
 8373TIP3    H225084   2.820   2.135   0.981 -0.1530  0.4942  0.0446
 8374TIP3   OH225085   1.499   4.482   2.253 -0.0059 -0.0886 -0.0579
 8374TIP3    H125086   1.431   4.548   2.246 -1.5200 -1.6967 -1.3887
 8374TIP3    H225087   1.527   4.486   2.344 -0.1813  2.2028 -0.0537
 8375TIP3   OH225088   5.567   5.423   1.021 -0.2532  0.2673 -0.0493
 8375TIP3    H125089   5.511   5.501   1.016 -1.3576 -0.3878  1.4425
 8375TIP3    H225090   5.528   5.370   1.090  1.6288 -0.7198  0.3152
 8376TIP3   OH225091   2.601   5.006   2.924 -0.3242 -0.1903  0.3648
 8376TIP3    H125092   2.539   4.979   2.992 -0.2512 -0.8839  0.1646
 8376TIP3    H225093   2.652   4.927   2.906 -0.2614  0.0203 -0.4042
 8377TIP3   OH225094   2.651   1.389   2.035 -0.1276  0.4500 -0.4904
 8377TIP3    H125095   2.625   1.297   2.042  1.5068 -0.2053 -2.0318
 8377TIP3    H225096   2.602   1.421   1.959 -0.7431  0.8774  0.0854
 8378TIP3   OH225097   0.501   6.328   5.738  0.2366  0.0962 -0.0738
 8378TIP3    H125098   0.532   6.413   5.767  3.3035 -1.0561  0.3443
 8378TIP3    H225099   0.559   6.265   5.780 -0.7334 -2.1145 -1.8295
 8379TIP3   OH225100   6.302   0.140   1.896  0.4039 -0.2227 -0.4505
 8379TIP3    H125101   6.210   0.166   1.894  0.2733 -0.6491 -0.0750
 8379TIP3    H225102   6.318   0.104   1.809  1.4364  3.8731 -2.1855
 8380TIP3   OH225103   4.326   2.287   1.629  0.5459 -0.8794  0.6398
 8380TIP3    H125104   4.274   2.316   1.554  0.8199 -0.3420  0.6504
 8380TIP3    H225105   4.413   2.324   1.613  0.3870 -0.0046  1.6423
 8381TIP3   OH225106   6.862   6.721   3.423  0.1889  0.0255 -0.6824
 8381TIP3    H125107   6.948   6.679   3.415 -0.7264 -2.0885 -0.1801
 8381TIP3    H225108   6.802   6.648   3.439 -1.6507  1.4941 -0.6437
 8382TIP3   OH225109   1.728   0.617   1.282 -0.6513 -0.3700 -0.0729
 8382TIP3    H125110   1.719   0.523   1.292 -0.6093 -0.4429 -0.7157
 8382TIP3    H225111   1.757   0.630   1.192 -0.1717  0.2244  0.1557
 8383TIP3   OH225112   5.008   0.549   4.386 -0.2887 -0.4574  0.3128
 8383TIP3    H125113   5.036   0.507   4.467 -0.4517 -0.3242  0.4393
 8383TIP3    H225114   5.000   0.641   4.408 -2.0444 -0.6601  0.6233
 8384TIP3   OH225115   6.747   5.991   3.500  0.4459  0.5392 -0.6931
 8384TIP3    H125116   6.797   5.921   3.459 -0.5382 -0.3366 -0.4413
 8384TIP3    H225117   6.785   6.001   3.587 -2.2350 -2.9650  1.1516
 8385TIP3   OH225118   6.511   4.276   2.658 -0.3455 -0.0102 -0.4102
 8385TIP3    H125119   6.435   4.333   2.667 -0.0840  0.4042 -0.7725
 8385TIP3    H225120   6.528   4.243   2.746 -2.2186 -1.7878 -0.6472
 8386TIP3   OH225121   6.059   5.355   4.896  0.1669  0.2747  0.0724
 8386TIP3    H125122   6.101   5.428   4.942 -0.6246  0.5176  0.4309
 8386TIP3    H225123   5.973   5.348   4.937 -0.1105 -0.2605 -0.5939
 8387TIP3   OH225124   5.714   1.448   1.402  0.5317  0.0617  0.1422
 8387TIP3    H125125   5.712   1.543   1.397 -0.2636  0.0432  0.0756
 8387TIP3    H225126   5.804   1.425   1.379  1.1130  0.8610  1.4939
 8388TIP3   OH225127   2.851   5.711   4.883 -0.3092  0.4070  0.2319
 8388TIP3    H125128   2.791   5.651   4.927 -0.6122  0.8218  0.3876
 8388TIP3    H225129   2.917   5.654   4.844  0.0557  0.0356  1.3544
 8389TIP3   OH225130   2.206   1.567   0.478 -0.0788 -0.4734 -0.1599
 8389TIP3    H125131   2.136   1.612   0.524  1.2789 -1.0629  2.7246
 8389TIP3    H225132   2.278   1.630   0.477  0.1332 -0.7199 -0.9131
 8390TIP3   OH225133   7.178   1.340   2.135 -0.1574 -0.2421  0.0277
 8390TIP3    H125134   7.179   1.282   2.059  0.3507 -1.4470  0.9149
 8390TIP3    H225135   7.104   1.309   2.187  0.0803 -0.0497  0.4810
 8391TIP3   OH225136   1.507   6.141   0.005  0.5456  0.0510 -0.0119
 8391TIP3    H125137   1.589   6.117   0.048  0.9187  1.0263 -0.1587
 8391TIP3    H225138   1.460   6.193   0.070 -0.5579 -1.5685  0.5469
 8392TIP3   OH225139   0.083   1.318   2.411  0.1182 -0.8525 -0.3273
 8392TIP3    H125140   0.151   1.251   2.397  1.6291  1.0141 -2.8448
 8392TIP3    H225141   0.050   1.336   2.323 -0.8389  1.1361  0.3910
 8393TIP3   OH225142   6.829   1.952   3.767  0.0273 -0.2205  0.1170
 8393TIP3    H125143   6.923   1.935   3.774  0.0940  0.7926  3.3036
 8393TIP3    H225144   6.788   1.879   3.813 -0.9139 -1.1756 -2.0716
 8394TIP3   OH225145   5.920   3.191   5.312  0.2789  0.1636  0.4417
 8394TIP3    H125146   5.985   3.127   5.342 -0.9792 -1.3625  0.0560
 8394TIP3    H225147   5.958   3.228   5.233  0.5073 -1.0402 -0.0371
 8395TIP3   OH225148   5.212   5.960   1.590 -0.8423 -0.1645  0.1057
 8395TIP3    H125149   5.164   6.032   1.548  0.7829  0.6389 -0.4701
 8395TIP3    H225150   5.264   6.003   1.658 -1.5012 -1.1182  1.2480
 8396TIP3   OH225151   5.145   2.907   0.688  0.3843 -0.2380  0.5664
 8396TIP3    H125152   5.086   2.962   0.636  1.4178  0.1340 -0.2540
 8396TIP3    H225153   5.096   2.827   0.704 -0.0125 -0.3072 -0.8904
 8397TIP3   OH225154   1.107   4.623   1.922 -0.1526 -0.6175 -0.0997
 8397TIP3    H125155   1.050   4.547   1.933 -1.6687  0.3672 -0.7824
 8397TIP3    H225156   1.115   4.634   1.827  0.5461 -0.2799 -0.0085
 8398TIP3   OH225157   0.036   2.543   4.032 -0.1720 -0.0747 -0.5241
 8398TIP3    H125158   0.013   2.636   4.024 -1.1630 -0.3509 -1.0881
 8398TIP3    H225159  -0.039   2.504   4.076  0.0083 -0.7019 -0.7682
 8399TIP3   OH225160   0.419   5.262   1.313  0.1669 -0.3656 -0.3657
 8399TIP3    H125161   0.382   5.349   1.301 -0.0539 -0.2788  0.7677
 8399TIP3    H225162   0.503   5.265   1.268  0.1081  0.4049 -0.4339
 8400TIP3   OH225163   5.522   1.952   3.797  0.1725  0.2921 -0.4105
 8400TIP3    H125164   5.527   2.023   3.860 -1.7992  1.8645 -1.8743
 8400TIP3    H225165   5.429   1.938   3.784  0.5107 -0.3542 -2.5323
 8401TIP3   OH225166   6.308   1.886   2.806 -0.1196  0.2367 -0.1782
 8401TIP3    H125167   6.395   1.901   2.770  0.0036 -1.4747 -0.6694
 8401TIP3    H225168   6.324   1.865   2.898 -0.1063  0.8511 -0.0362
 8402TIP3   OH225169   5.396   0.844   2.097  0.2799  0.2679 -0.2669
 8402TIP3    H125170   5.301   0.853   2.084  0.2098 -0.5403 -0.3484
 8402TIP3    H225171   5.434   0.908   2.037 -0.2417  1.7786  0.9368
 8403TIP3   OH225172   4.803   4.424   3.331  0.1236 -0.0291  0.3446
 8403TIP3    H125173   4.843   4.488   3.273 -0.6334  0.4383  0.3211
 8403TIP3    H225174   4.825   4.456   3.419 -0.0705  0.1524  0.3297
 8404TIP3   OH225175   2.466   2.021   1.082  0.6857  0.3238  0.1885
 8404TIP3    H125176   2.465   1.933   1.044 -1.5849  1.2301 -2.1581
 8404TIP3    H225177   2.559   2.043   1.088  1.2472 -1.2677 -1.6095
 8405TIP3   OH225178   3.966   5.949   1.360 -0.4297 -0.4044  0.1742
 8405TIP3    H125179   4.041   5.970   1.416  1.1633  1.6266 -2.4985
 8405TIP3    H225180   3.993   5.869   1.315 -0.0003  0.1217 -0.5162
 8406TIP3   OH225181   0.309   5.525   1.757 -0.0755 -0.5900 -0.0863
 8406TIP3    H125182   0.401   5.550   1.763 -0.5394  0.8584  1.7688
 8406TIP3    H225183   0.307   5.435   1.791  0.7457 -0.9285 -0.8926
 8407TIP3   OH225184   2.424   6.618   0.577 -0.1315  0.4254  0.4866
 8407TIP3    H125185   2.489   6.580   0.637 -0.2741  1.9064  1.6364
 8407TIP3    H225186   2.470   6.690   0.535 -0.2915 -0.0905 -0.6077
 8408TIP3   OH225187   1.187   1.124   0.214 -0.2275  0.1404 -0.2654
 8408TIP3    H125188   1.267   1.106   0.264  0.2004  0.5573 -0.7849
 8408TIP3    H225189   1.191   1.064   0.140 -0.5307 -0.0177 -0.1551
 8409TIP3   OH225190   5.166   4.187   2.034  0.2336 -0.0700 -0.2463
 8409TIP3    H125191   5.243   4.151   1.990  0.7325 -0.8398  1.1917
 8409TIP3    H225192   5.143   4.264   1.982  2.5706  0.7564 -0.1561
 8410TIP3   OH225193   0.649   4.106   3.953 -0.5115 -0.0715 -0.0390
 8410TIP3    H125194   0.712   4.038   3.975 -1.2135 -0.8624 -0.4543
 8410TIP3    H225195   0.651   4.112   3.858  1.9145  2.7752  0.0431
 8411TIP3   OH225196   0.248   5.385   2.725  0.2756 -0.2201  0.0317
 8411TIP3    H125197   0.260   5.349   2.813 -0.5406 -1.1971 -0.2323
 8411TIP3    H225198   0.172   5.338   2.691 -0.4524  1.3405 -0.5874
 8412TIP3   OH225199   0.912   1.816   2.608 -0.4384  0.5533  0.5556
 8412TIP3    H125200   0.876   1.834   2.521  1.1578  0.5888 -0.1300
 8412TIP3    H225201   0.986   1.876   2.617  0.3914 -0.5351  1.2814
 8413TIP3   OH225202   1.508   0.964   4.682  0.6373 -0.4049 -0.2239
 8413TIP3    H125203   1.538   0.887   4.632  1.4677 -1.3388  1.6276
 8413TIP3    H225204   1.525   0.941   4.773 -3.1049  0.2072  0.7784
 8414TIP3   OH225205   2.690   0.789   4.040 -0.4958  0.2889  0.1520
 8414TIP3    H125206   2.679   0.781   3.945  1.3842 -2.2869  0.0172
 8414TIP3    H225207   2.615   0.742   4.077 -1.1477  1.1577 -0.0555
 8415TIP3   OH225208   0.574   0.315   0.528 -0.3901  0.2750  0.3575
 8415TIP3    H125209   0.637   0.282   0.592  1.2501  0.7419 -0.9393
 8415TIP3    H225210   0.620   0.386   0.483 -1.5043  0.0386 -1.2729
 8416TIP3   OH225211   2.113   5.588   4.960  0.7303  0.6350 -0.6230
 8416TIP3    H125212   2.051   5.569   5.031 -0.1603 -0.6750 -1.7036
 8416TIP3    H225213   2.129   5.503   4.919  1.2167  1.3644 -1.9927
 8417TIP3   OH225214   0.960   3.514   0.386 -0.3403  1.0878  0.1831
 8417TIP3    H125215   0.879   3.505   0.436  1.1717 -0.7144  2.5963
 8417TIP3    H225216   0.942   3.474   0.302 -1.4650 -1.1321  1.3978
 8418TIP3   OH225217   4.223   5.978   4.243  0.4398 -0.3579  0.7076
 8418TIP3    H125218   4.262   5.891   4.252 -0.1220 -0.7673 -0.5838
 8418TIP3    H225219   4.210   5.988   4.148  0.5273  1.1475  0.8428
 8419TIP3   OH225220   2.064   1.973   2.531 -0.3621  0.4198  0.0045
 8419TIP3    H125221   1.988   2.031   2.528 -0.6996 -0.0499 -1.0335
 8419TIP3    H225222   2.120   2.005   2.460 -1.3419 -1.5408 -1.7655
 8420TIP3   OH225223   4.539   1.760   2.380  0.1116  0.8242 -0.5380
 8420TIP3    H125224   4.587   1.751   2.463 -0.9911  0.3994  0.0775
 8420TIP3    H225225   4.451   1.785   2.406 -0.4629 -0.0742 -1.5461
 8421TIP3   OH225226   4.457   2.370   5.177 -0.1094 -0.2369  0.9467
 8421TIP3    H125227   4.481   2.462   5.169 -0.4366 -0.1876  0.4433
 8421TIP3    H225228   4.507   2.338   5.252 -0.5459  0.5315  1.5846
 8422TIP3   OH225229   5.693   0.140   0.893 -0.2721 -0.1462 -0.2663
 8422TIP3    H125230   5.754   0.149   0.820  1.3470 -0.2802  1.0142
 8422TIP3    H225231   5.645   0.058   0.875  1.3568 -1.1279 -0.3090
 8423TIP3   OH225232   2.294   6.359   2.224 -0.0246 -0.6278  0.4063
 8423TIP3    H125233   2.286   6.326   2.134 -2.9995  0.7788  0.0391
 8423TIP3    H225234   2.287   6.281   2.279 -1.4838 -1.2200 -0.5585
 8424TIP3   OH225235   5.685   1.076   0.720 -0.2602  0.2526 -0.1320
 8424TIP3    H125236   5.676   1.110   0.809 -0.2047  1.9171 -0.7453
 8424TIP3    H225237   5.655   0.985   0.727 -0.7535  0.5047  1.4745
 8425TIP3   OH225238   0.219   2.660   1.440  0.0873  0.3044  0.4567
 8425TIP3    H125239   0.201   2.751   1.417 -0.5536  0.1775  0.4409
 8425TIP3    H225240   0.160   2.642   1.514  0.4611  0.0081  0.6844
 8426TIP3   OH225241   7.214   4.687   4.209 -0.2670  0.0981  0.8016
 8426TIP3    H125242   7.151   4.653   4.146 -0.7892  0.1518  1.2780
 8426TIP3    H225243   7.160   4.716   4.283  0.3231  0.1048  1.2401
 8427TIP3   OH225244   3.759   4.895   2.156 -0.1552  0.3599 -0.3126
 8427TIP3    H125245   3.740   4.968   2.096 -1.6430  1.0480  0.9259
 8427TIP3    H225246   3.712   4.821   2.119 -3.3409  1.4156  1.3028
 8428TIP3   OH225247   6.885   2.910   2.236  0.1863 -0.4936  0.3825
 8428TIP3    H125248   6.960   2.946   2.188 -0.1365 -1.9718 -1.3480
 8428TIP3    H225249   6.916   2.826   2.270 -0.2927 -0.5016  0.8106
 8429TIP3   OH225250   4.546   4.093   0.670  0.2173 -0.2901  0.2623
 8429TIP3    H125251   4.578   4.173   0.630  2.0336 -1.0394  0.1220
 8429TIP3    H225252   4.454   4.111   0.691 -0.4539  0.6140 -2.9396
 8430TIP3   OH225253   6.564   4.985   5.185  0.3677 -0.4083 -0.2825
 8430TIP3    H125254   6.536   4.966   5.275  1.6281 -0.1175  0.1842
 8430TIP3    H225255   6.491   5.036   5.148  0.4097  0.6482  1.0242
 8431TIP3   OH225256   0.769   2.467   1.392 -0.2170 -0.2054 -0.0890
 8431TIP3    H125257   0.851   2.426   1.417 -0.6030 -0.1030  1.4579
 8431TIP3    H225258   0.714   2.395   1.362 -0.0956 -0.5013  0.3894
 8432TIP3   OH225259   5.284   2.797   3.606 -0.1838  0.2136 -0.0703
 8432TIP3    H125260   5.309   2.852   3.532 -1.7114  1.4356  0.2745
 8432TIP3    H225261   5.288   2.855   3.682 -0.3599 -0.5545  0.5395
 8433TIP3   OH225262   4.076   2.090   0.792  0.3235 -0.0934  0.3073
 8433TIP3    H125263   4.109   2.133   0.871  2.0513 -1.7328  0.5334
 8433TIP3    H225264   4.146   2.103   0.727  0.2985 -1.3952 -0.0068
 8434TIP3   OH225265   2.055   2.289   2.859  0.0693  0.1068 -0.3677
 8434TIP3    H125266   2.144   2.265   2.832 -0.0394 -0.3080 -0.3683
 8434TIP3    H225267   2.066   2.366   2.914  0.2939  1.0650 -1.7037
 8435TIP3   OH225268   4.563   2.788   3.310 -0.4627 -0.0017 -0.1088
 8435TIP3    H125269   4.579   2.826   3.396  0.1052  0.1710 -0.2864
 8435TIP3    H225270   4.540   2.697   3.328  0.7340 -0.2745  0.1734
 8436TIP3   OH225271   3.606   4.007   5.755  0.2636 -0.1061 -0.3142
 8436TIP3    H125272   3.592   4.057   5.836 -1.2473 -0.1754 -0.4993
 8436TIP3    H225273   3.600   4.072   5.685 -1.0013 -0.4135 -0.5116
 8437TIP3   OH225274   2.319   5.633   1.171  0.1753  0.0568 -0.3510
 8437TIP3    H125275   2.239   5.634   1.118 -1.1013 -3.0508  1.2508
 8437TIP3    H225276   2.292   5.668   1.256  0.9530  0.4390 -0.2516
 8438TIP3   OH225277   1.978   0.306   5.286 -0.0587  0.0338  0.4576
 8438TIP3    H125278   2.063   0.304   5.329  0.2189  0.1474 -0.0743
 8438TIP3    H225279   1.949   0.397   5.295  1.1099  0.6974 -1.6743
 8439TIP3   OH225280   4.332   6.431   4.083  0.4495  0.4881 -0.2498
 8439TIP3    H125281   4.264   6.388   4.030  1.2977  0.4029 -1.3077
 8439TIP3    H225282   4.310   6.408   4.173  0.4055 -1.4834 -0.7152
 8440TIP3   OH225283   0.868   5.667   5.514 -0.1284  0.5889 -0.4172
 8440TIP3    H125284   0.952   5.622   5.521  0.7271  2.3250  1.9457
 8440TIP3    H225285   0.881   5.732   5.445  1.0974  1.9087  0.9751
 8441TIP3   OH225286   2.669   6.771   2.326  0.3556  0.2817  0.1115
 8441TIP3    H125287   2.595   6.711   2.314  1.6331 -1.2983 -0.1965
 8441TIP3    H225288   2.650   6.843   2.265 -0.8610 -0.1367 -0.0481
 8442TIP3   OH225289   5.069   4.832   3.986 -0.2629 -0.2640  0.3286
 8442TIP3    H125290   5.043   4.748   4.024  1.5382 -2.1206 -2.2324
 8442TIP3    H225291   5.162   4.841   4.007  0.1272 -0.0816 -1.3028
 8443TIP3   OH225292   6.753   4.892   4.351 -0.2939 -0.2048  0.3811
 8443TIP3    H125293   6.804   4.901   4.431 -1.4005  0.8646  1.0052
 8443TIP3    H225294   6.762   4.799   4.327 -1.8153 -1.1539  3.0743
 8444TIP3   OH225295   3.230   2.237   2.584  0.7610 -0.2853 -0.5291
 8444TIP3    H125296   3.180   2.311   2.619  2.7630  0.2518  1.3958
 8444TIP3    H225297   3.173   2.161   2.599  0.9104  0.1014  2.8587
 8445TIP3   OH225298   4.689   2.378   5.441 -0.4477 -0.3341  0.6944
 8445TIP3    H125299   4.668   2.447   5.503  1.4670  0.8023  0.1342
 8445TIP3    H225300   4.740   2.315   5.492  0.0474 -0.0315  0.5706
 8446TIP3   OH225301   4.696   3.657   5.127 -0.2197 -0.3942  0.3236
 8446TIP3    H125302   4.683   3.602   5.050 -1.2638 -0.8980  0.8334
 8446TIP3    H225303   4.617   3.711   5.131 -1.0462 -1.6191  2.0022
 8447TIP3   OH225304   4.325   1.258   2.809  0.3008 -0.0329 -0.0082
 8447TIP3    H125305   4.278   1.301   2.881  0.2104 -1.5487  0.8832
 8447TIP3    H225306   4.258   1.209   2.763  0.3471  0.9904 -1.2214
 8448TIP3   OH225307   3.620   5.301   3.244 -0.0555  0.5079  0.2057
 8448TIP3    H125308   3.596   5.269   3.331 -1.3545  0.9734  0.0433
 8448TIP3    H225309   3.672   5.380   3.261 -0.1632  0.5052  0.5631
 8449TIP3   OH225310   5.580   1.009   5.082  0.7042 -0.4429  0.4401
 8449TIP3    H125311   5.672   0.992   5.061  0.7189 -0.2654  0.3554
 8449TIP3    H225312   5.583   1.057   5.165  0.6712 -0.7298  0.6064
 8450TIP3   OH225313   4.402   0.123   1.175  0.2788  0.0987  0.4298
 8450TIP3    H125314   4.321   0.072   1.173  0.4204 -0.1932 -2.5083
 8450TIP3    H225315   4.450   0.095   1.097  1.3169  3.2200 -0.2061
 8451TIP3   OH225316   2.570   6.543   4.715 -0.3670  0.5014  0.4165
 8451TIP3    H125317   2.531   6.461   4.746 -1.1985  0.3763 -0.8932
 8451TIP3    H225318   2.658   6.518   4.686 -0.3029  0.2448  0.8248
 8452TIP3   OH225319   6.496   4.721   3.948 -0.0443 -0.6899  0.2319
 8452TIP3    H125320   6.520   4.656   3.883 -0.2856 -1.6736  1.0987
 8452TIP3    H225321   6.551   4.797   3.928  0.0667 -1.0610 -0.9386
 8453TIP3   OH225322   5.565   0.856   1.843 -0.1060  0.3753  0.0686
 8453TIP3    H125323   5.545   0.917   1.914 -1.5922 -0.0703  0.0565
 8453TIP3    H225324   5.524   0.896   1.766  0.1478  0.0693 -0.2258
 8454TIP3   OH225325   4.171   2.556   1.827  0.3405  0.0549 -0.7958
 8454TIP3    H125326   4.227   2.479   1.829  0.5130  0.1669 -1.1777
 8454TIP3    H225327   4.221   2.624   1.874 -0.4553 -0.4711  0.9122
 8455TIP3   OH225328   4.407   5.382   1.871 -0.5378  0.6384  0.6384
 8455TIP3    H125329   4.348   5.411   1.941 -0.0403  0.8824  0.9625
 8455TIP3    H225330   4.400   5.287   1.871 -1.5783  0.6968  0.1016
 8456TIP3   OH225331   3.774   0.161   4.822 -0.5113 -0.7430  0.5421
 8456TIP3    H125332   3.764   0.076   4.779 -0.9452 -1.3842  1.8563
 8456TIP3    H225333   3.840   0.207   4.770  0.2648 -2.1633  0.2468
 8457TIP3   OH225334   1.209   3.963   1.477 -0.1627 -0.0095 -0.6331
 8457TIP3    H125335   1.170   3.901   1.415 -0.2241 -0.3193 -0.2905
 8457TIP3    H225336   1.186   4.049   1.443  1.2216 -0.1351 -1.9557
 8458TIP3   OH225337   3.681   5.865   2.807  0.5351  0.4212 -0.0772
 8458TIP3    H125338   3.742   5.935   2.827  3.6080 -0.4905 -4.5891
 8458TIP3    H225339   3.734   5.785   2.812 -1.9411 -1.2536  1.5007
 8459TIP3   OH225340   6.982   0.423   0.846  0.7674 -0.9237  0.1361
 8459TIP3    H125341   6.899   0.379   0.826 -1.3274  1.9299  1.7380
 8459TIP3    H225342   6.990   0.416   0.941  1.9746 -0.5224  0.0720
 8460TIP3   OH225343   0.961   6.618   3.813 -0.4564 -0.0918  0.0431
 8460TIP3    H125344   1.003   6.704   3.808 -0.9683  0.2084  0.7321
 8460TIP3    H225345   0.950   6.603   3.907 -0.6505 -0.7709 -0.0881
 8461TIP3   OH225346   1.032   5.220   4.606 -0.0972  0.2823  0.0700
 8461TIP3    H125347   1.061   5.303   4.568 -1.0101  0.7598  0.3823
 8461TIP3    H225348   1.035   5.158   4.533 -1.6859  1.1529 -0.7985
 8462TIP3   OH225349   7.203   5.846   4.652 -0.4334 -0.1681  0.4653
 8462TIP3    H125350   7.148   5.768   4.658 -0.3255 -0.1728  1.6051
 8462TIP3    H225351   7.168   5.904   4.720 -0.5441  0.8049 -0.3955
 8463TIP3   OH225352   6.940   6.365   0.284 -0.7987  0.1765 -0.3102
 8463TIP3    H125353   6.983   6.360   0.370 -0.0386  0.7206 -0.6435
 8463TIP3    H225354   6.914   6.457   0.276  0.2219  0.4087 -1.1610
 8464TIP3   OH225355   3.481   4.234   1.583 -0.1208  0.0262  0.9804
 8464TIP3    H125356   3.565   4.266   1.617  0.0127 -0.0158  0.6891
 8464TIP3    H225357   3.443   4.185   1.656 -0.8597  1.7849  1.8383
 8465TIP3   OH225358   3.709   4.153   1.731 -0.0060  0.2076  0.0215
 8465TIP3    H125359   3.682   4.106   1.810 -0.6262  0.6278  0.0698
 8465TIP3    H225360   3.800   4.129   1.719  0.1752  0.3453  1.0199
 8466TIP3   OH225361   6.083  -0.017   4.237 -0.2487  0.0572 -0.1942
 8466TIP3    H125362   6.148  -0.008   4.167  0.2621 -0.7249  0.1784
 8466TIP3    H225363   6.070   0.073   4.268  0.3968  0.2637 -0.4994
 8467TIP3   OH225364   1.461   4.737   1.693  0.9894  0.4368  0.1860
 8467TIP3    H125365   1.430   4.738   1.602 -0.2746 -0.1139  0.5857
 8467TIP3    H225366   1.432   4.821   1.729  0.5754  0.2201  0.3632
 8468TIP3   OH225367   5.437   1.494   0.965 -0.3478 -0.3601 -0.1267
 8468TIP3    H125368   5.403   1.470   1.051  1.4272 -1.8829  0.2241
 8468TIP3    H225369   5.521   1.536   0.984 -0.5865  0.5957 -1.0784
 8469TIP3   OH225370   3.551   5.980   2.612 -0.9783 -0.9993  0.0718
 8469TIP3    H125371   3.497   6.005   2.687  0.7610  1.3946  0.6419
 8469TIP3    H225372   3.617   5.921   2.648  0.1521  0.5260  0.6183
 8470TIP3   OH225373   3.995   3.734   5.323 -0.4103  0.2401 -0.1719
 8470TIP3    H125374   3.941   3.676   5.269  1.2386 -0.7097 -0.8704
 8470TIP3    H225375   4.059   3.675   5.364  1.1213  1.5009 -0.6487
 8471TIP3   OH225376   3.606   5.889   4.261 -0.2057 -0.5618  0.0314
 8471TIP3    H125377   3.689   5.875   4.306  0.2857 -1.4266 -1.1009
 8471TIP3    H225378   3.567   5.801   4.257 -0.0594 -0.5782 -1.5386
 8472TIP3   OH225379   6.534   5.679   0.363 -0.2797  0.1322 -0.5854
 8472TIP3    H125380   6.612   5.693   0.416  0.6026 -0.7469 -1.5910
 8472TIP3    H225381   6.474   5.632   0.420  0.0929  0.4304  0.0646
 8473TIP3   OH225382   7.186   1.852   0.144  0.1983 -0.2132  0.3307
 8473TIP3    H125383   7.275   1.829   0.118 -0.5139 -1.3298 -1.3459
 8473TIP3    H225384   7.170   1.937   0.103  0.4500 -0.0474  0.5699
 8474TIP3   OH225385   0.184   6.710   3.703 -0.6251 -0.1547 -0.5921
 8474TIP3    H125386   0.263   6.743   3.747 -1.9138  0.2533  1.5540
 8474TIP3    H225387   0.215   6.637   3.650  1.3518  0.6811 -0.6700
 8475TIP3   OH225388   3.777   3.327   1.101 -0.5823  0.5011 -0.3315
 8475TIP3    H125389   3.860   3.372   1.121 -0.4992 -0.0387  0.5586
 8475TIP3    H225390   3.725   3.393   1.055  0.0286  1.1027 -0.1803
 8476TIP3   OH225391   7.091   2.081   3.535 -0.5453  0.5416 -0.1403
 8476TIP3    H125392   7.109   2.044   3.621  0.4899  0.2917 -0.4539
 8476TIP3    H225393   7.036   2.157   3.553 -1.1707 -0.0826  0.6532
 8477TIP3   OH225394   2.041   5.199   1.973  0.0634 -0.4682  0.6709
 8477TIP3    H125395   2.000   5.154   2.047  0.7997  0.2853  1.5619
 8477TIP3    H225396   1.974   5.261   1.943  0.4788  0.7678  2.1323
 8478TIP3   OH225397   4.406   4.918   1.108  0.3470 -0.0370  0.2375
 8478TIP3    H125398   4.348   4.992   1.125  0.7401  0.2759  0.2502
 8478TIP3    H225399   4.489   4.944   1.147  0.6145 -0.2938 -0.1485
 8479TIP3   OH225400   2.073   0.574   0.768 -0.0118  0.2105  0.0399
 8479TIP3    H125401   2.098   0.485   0.790  0.3398 -0.0440 -1.3049
 8479TIP3    H225402   2.085   0.623   0.849 -0.2235 -0.9547  0.8006
 8480TIP3   OH225403   5.115   6.593   1.214  0.1578 -0.7077 -0.2617
 8480TIP3    H125404   5.098   6.606   1.308  1.4323 -1.6960  0.1378
 8480TIP3    H225405   5.178   6.662   1.192  1.2140 -1.5285  0.0685
 8481TIP3   OH225406   6.322   5.377   4.783  0.3858  0.4075 -0.4212
 8481TIP3    H125407   6.338   5.471   4.782 -0.9680  0.6720 -2.9365
 8481TIP3    H225408   6.242   5.367   4.835  0.0576  0.7563 -0.8511
 8482TIP3   OH225409   1.828   5.348   1.886  0.2774  0.1715 -0.6322
 8482TIP3    H125410   1.797   5.306   1.805 -0.9675  0.5008 -0.3429
 8482TIP3    H225411   1.750   5.354   1.941  1.3340 -1.2385  1.1442
 8483TIP3   OH225412   0.570   1.925   3.037 -0.0473 -0.1529  0.8304
 8483TIP3    H125413   0.520   2.002   3.010  0.4222 -0.0233  0.3151
 8483TIP3    H225414   0.570   1.930   3.132 -0.3375  0.2826  0.8154
 8484TIP3   OH225415   7.068   4.347   3.110  0.6772 -0.4253  0.0989
 8484TIP3    H125416   7.052   4.368   3.202 -2.0936 -0.3357 -0.3152
 8484TIP3    H225417   7.118   4.421   3.077  1.4286 -0.2992  1.4314
 8485TIP3   OH225418   5.844   0.466   2.089  0.6153 -0.3452  0.1645
 8485TIP3    H125419   5.828   0.494   2.179  0.0287 -1.4420  0.4252
 8485TIP3    H225420   5.833   0.545   2.036 -0.3552  0.0413  0.9259
 8486TIP3   OH225421   6.606   2.207   2.524  0.2859  0.7161 -0.0513
 8486TIP3    H125422   6.577   2.132   2.472 -3.8020  1.3561  0.9746
 8486TIP3    H225423   6.581   2.184   2.614  0.2936  2.7101  0.5029
 8487TIP3   OH225424   4.351   6.042   5.462  0.2533  0.0420  0.1351
 8487TIP3    H125425   4.259   6.016   5.452 -0.2860  1.7640  0.3428
 8487TIP3    H225426   4.379   5.999   5.543 -0.3444 -0.5295  0.0528
 8488TIP3   OH225427   4.434   4.057   2.570 -0.1764  0.5626 -0.2582
 8488TIP3    H125428   4.452   4.128   2.509 -1.7829  1.8922  0.7542
 8488TIP3    H225429   4.396   4.099   2.647  1.0458 -1.1410  1.3927
 8489TIP3   OH225430   4.595   6.527   4.716 -0.0693 -0.6715  0.0767
 8489TIP3    H125431   4.606   6.575   4.798 -1.6773  0.9581 -0.5900
 8489TIP3    H225432   4.591   6.435   4.742  1.1187 -0.3170  1.6258
 8490TIP3   OH225433   2.315   4.371   1.316  0.0520 -0.4340 -0.0329
 8490TIP3    H125434   2.392   4.426   1.300 -1.0674  1.1235 -0.2239
 8490TIP3    H225435   2.294   4.332   1.232 -1.4174  1.9218 -0.8424
 8491TIP3   OH225436   1.693   0.712   5.622  0.1225  0.4263 -0.3022
 8491TIP3    H125437   1.613   0.700   5.570 -0.2699 -0.8675  0.5340
 8491TIP3    H225438   1.664   0.702   5.712  1.3651 -1.0606 -0.0162
 8492TIP3   OH225439   0.746   3.124   4.151 -0.4206  0.4256  0.0865
 8492TIP3    H125440   0.822   3.068   4.160 -1.0200 -0.3199  0.6947
 8492TIP3    H225441   0.672   3.069   4.179 -1.1838  1.1142 -0.5087
 8493TIP3   OH225442   4.118   0.689   0.395 -0.3289  0.4483  0.6749
 8493TIP3    H125443   4.134   0.610   0.446 -1.7840 -0.3327 -0.0226
 8493TIP3    H225444   4.048   0.734   0.443  0.4501  1.3010  1.0359
 8494TIP3   OH225445   0.752   5.325   4.832  0.0775 -0.2920  0.5812
 8494TIP3    H125446   0.829   5.374   4.801  0.1127 -1.0331 -0.5331
 8494TIP3    H225447   0.752   5.245   4.780 -0.3508 -1.1980  1.9331
 8495TIP3   OH225448   0.768   5.418   2.356  0.1138 -0.4845  0.0703
 8495TIP3    H125449   0.828   5.468   2.301 -2.4183  3.0650  0.1310
 8495TIP3    H225450   0.695   5.396   2.298 -1.1134  0.4619  1.1767
 8496TIP3   OH225451   4.767   2.716   5.810  0.4700  0.2834 -0.4171
 8496TIP3    H125452   4.698   2.673   5.760  0.1096 -1.2040  1.2428
 8496TIP3    H225453   4.848   2.682   5.773  0.2028 -1.0474  0.1539
 8497TIP3   OH225454   3.109   4.517   3.751  0.3404  0.5894 -0.6213
 8497TIP3    H125455   3.156   4.600   3.760  1.8832 -0.2484 -0.6256
 8497TIP3    H225456   3.086   4.513   3.658  1.0302  0.6289 -0.7988
 8498TIP3   OH225457   6.609   4.624   1.886  0.1371  0.6129  0.1196
 8498TIP3    H125458   6.602   4.667   1.801  0.2499 -0.0850 -0.2528
 8498TIP3    H225459   6.679   4.559   1.875 -1.9990 -1.7784 -0.2968
 8499TIP3   OH225460   2.665   0.816   1.007  0.1178 -0.2630  0.2276
 8499TIP3    H125461   2.639   0.750   0.942 -0.4177  2.3976 -2.4335
 8499TIP3    H225462   2.759   0.825   0.995  0.1173 -0.2065  0.2705
 8500TIP3   OH225463   1.445   5.469   2.978  0.7264 -0.1676  0.0080
 8500TIP3    H125464   1.451   5.396   3.041  0.4286  0.6952  1.0630
 8500TIP3    H225465   1.370   5.520   3.008  1.7598  1.3306  0.0969
 8501TIP3   OH225466   6.566   5.890   3.187 -0.1736  0.6228  0.6478
 8501TIP3    H125467   6.571   5.985   3.198 -0.1514  0.6339  0.5462
 8501TIP3    H225468   6.555   5.856   3.276 -2.3658  0.8449  0.5032
 8502TIP3   OH225469   2.276   4.031   5.719 -0.5856  0.4783 -0.0820
 8502TIP3    H125470   2.202   3.971   5.713  0.5272 -0.7755 -2.5105
 8502TIP3    H225471   2.266   4.071   5.805 -4.3056  0.7191 -0.4228
 8503TIP3   OH225472   1.948   1.243   5.433 -0.0566 -0.0199 -0.2335
 8503TIP3    H125473   1.885   1.223   5.364  0.8800 -0.8806 -0.8827
 8503TIP3    H225474   2.028   1.266   5.386  0.0706  1.3087  0.5692
 8504TIP3   OH225475   6.247   5.045   5.802 -0.3973  0.3728  0.3394
 8504TIP3    H125476   6.263   5.069   5.710  0.6447 -0.5174  0.2605
 8504TIP3    H225477   6.319   5.086   5.850  0.4162 -1.0790  0.4260
 8505TIP3   OH225478   3.801   3.414   3.241 -0.0375  0.4664 -0.3156
 8505TIP3    H125479   3.832   3.384   3.156 -0.5555 -1.1294  0.0096
 8505TIP3    H225480   3.744   3.343   3.272 -0.2441  1.2199  1.1345
 8506TIP3   OH225481   4.555   2.976   2.764 -0.3175 -0.4652 -0.6060
 8506TIP3    H125482   4.591   2.981   2.676 -0.8171 -2.1472 -0.9259
 8506TIP3    H225483   4.536   2.884   2.778  0.6311 -0.3948  1.6308
 8507TIP3   OH225484   1.643   0.354   1.279  0.5545 -0.1752 -0.4515
 8507TIP3    H125485   1.550   0.353   1.303 -0.1632  0.0197 -2.8541
 8507TIP3    H225486   1.673   0.265   1.295  0.1207 -0.0959  0.8834
 8508TIP3   OH225487   3.200   5.744   2.230 -0.2516 -0.5399  0.1690
 8508TIP3    H125488   3.225   5.800   2.304 -0.3854 -1.7546  1.1889
 8508TIP3    H225489   3.257   5.771   2.159 -0.4156  0.9652  0.5873
 8509TIP3   OH225490   0.672   2.421   4.060 -0.0353  0.0696  0.4656
 8509TIP3    H125491   0.642   2.448   4.147  1.0741 -1.7544  1.4808
 8509TIP3    H225492   0.614   2.467   3.999 -0.0913  2.3420  2.0988
 8510TIP3   OH225493   5.771   5.882   1.675  0.0110 -0.0398 -0.3085
 8510TIP3    H125494   5.836   5.863   1.607 -0.5346 -0.9305 -0.6077
 8510TIP3    H225495   5.731   5.797   1.693 -0.0274  0.2331  0.9535
 8511TIP3   OH225496   6.899   1.414   3.305 -0.1652  0.5444  0.2177
 8511TIP3    H125497   6.975   1.366   3.337  0.0607  1.8868  1.8695
 8511TIP3    H225498   6.826   1.352   3.312  0.5010 -0.2553  0.1542
 8512TIP3   OH225499   3.983   1.699   4.647 -0.0409  0.3340  0.5202
 8512TIP3    H125500   3.893   1.717   4.619  0.1365  0.4776  0.0340
 8512TIP3    H225501   3.977   1.691   4.742 -0.5927  0.1940  0.4763
 8513TIP3   OH225502   1.383   0.291   2.214 -0.2501  0.2103 -0.2438
 8513TIP3    H125503   1.345   0.369   2.172 -0.0233  1.4901  1.7982
 8513TIP3    H225504   1.307   0.237   2.236 -0.4781  0.2804 -0.8154
 8514TIP3   OH225505   4.787   6.600   3.344 -0.6222 -0.3382  0.1246
 8514TIP3    H125506   4.763   6.576   3.254 -1.4467  0.6059  0.0759
 8514TIP3    H225507   4.706   6.591   3.393 -0.7671  1.4961  0.2695
 8515TIP3   OH225508   2.676   5.091   3.331 -0.2416 -0.1010  0.0070
 8515TIP3    H125509   2.661   5.030   3.258 -0.1730 -0.2562  0.1231
 8515TIP3    H225510   2.599   5.081   3.387 -0.8933  0.9044 -0.6571
 8516TIP3   OH225511   1.037   1.782   1.505  0.1987 -0.2563  0.4810
 8516TIP3    H125512   1.028   1.852   1.570  0.6440  0.3717 -0.1171
 8516TIP3    H225513   0.947   1.764   1.478  0.1017  0.3563  0.3635
 8517TIP3   OH225514   1.370   0.762   5.018 -0.1167 -0.0141  0.0043
 8517TIP3    H125515   1.331   0.691   5.069 -3.6458  2.0165  0.4396
 8517TIP3    H225516   1.400   0.719   4.937 -2.3061 -2.0222  0.1467
 8518TIP3   OH225517   1.473   6.003   0.400 -0.5893 -0.0549  0.0272
 8518TIP3    H125518   1.445   5.914   0.379 -0.8475 -0.0793  0.4587
 8518TIP3    H225519   1.550   5.992   0.455 -1.0346 -0.0356  0.6760
 8519TIP3   OH225520   0.836   6.557   4.095  0.8130 -0.5073 -0.1066
 8519TIP3    H125521   0.829   6.546   4.190  3.1254  0.6415  0.2636
 8519TIP3    H225522   0.866   6.647   4.083 -0.8639 -0.1187 -2.0535
 8520TIP3   OH225523   2.105   1.413   3.692  0.9270  0.5990 -0.0616
 8520TIP3    H125524   2.076   1.478   3.755  0.3132  1.8668 -1.5844
 8520TIP3    H225525   2.189   1.447   3.659 -0.2471  1.6467 -2.1743
 8521TIP3   OH225526   6.482   4.371   5.540  0.4048  0.0178 -0.6334
 8521TIP3    H125527   6.516   4.455   5.571 -0.3106  0.4895 -1.1000
 8521TIP3    H225528   6.509   4.308   5.607  0.6418  0.6805 -0.0948
 8522TIP3   OH225529   5.366   1.685   0.771  0.2502  0.3946  0.9784
 8522TIP3    H125530   5.405   1.623   0.833 -1.1430 -0.6826  0.8460
 8522TIP3    H225531   5.322   1.750   0.827  0.8032  0.6469  1.1211
 8523TIP3   OH225532   3.420   5.733   5.458  0.0027 -0.7306 -0.1227
 8523TIP3    H125533   3.473   5.653   5.452  1.9085  0.4074  0.7150
 8523TIP3    H225534   3.402   5.743   5.551  1.0160  0.5464 -0.0355
 8524TIP3   OH225535   6.891   5.360   0.330 -0.1200 -0.0297  0.5765
 8524TIP3    H125536   6.830   5.315   0.272  1.2564 -0.7018 -0.4339
 8524TIP3    H225537   6.876   5.322   0.416 -0.9549 -0.3348  0.3070
 8525TIP3   OH225538   7.090   4.168   1.741  0.0574 -0.0203 -0.4440
 8525TIP3    H125539   7.017   4.144   1.684 -1.1806  0.9192  0.6764
 8525TIP3    H225540   7.051   4.174   1.829  0.9401  2.7379 -0.1576
 8526TIP3   OH225541   6.574   3.774   1.952  0.3306 -0.0603  0.0221
 8526TIP3    H125542   6.502   3.832   1.925  1.0609  0.4812 -0.8015
 8526TIP3    H225543   6.535   3.719   2.021 -0.8862  0.1780 -0.4424
 8527TIP3   OH225544   1.592   4.812   3.964  0.3492 -0.3276 -0.2878
 8527TIP3    H125545   1.663   4.781   4.020 -0.0231  1.6011  1.3412
 8527TIP3    H225546   1.515   4.811   4.021 -0.0025  1.8788 -0.6514
 8528TIP3   OH225547   5.192   4.616   4.370 -0.3748 -0.2429  0.2065
 8528TIP3    H125548   5.143   4.605   4.289 -0.1485 -0.8519  0.1468
 8528TIP3    H225549   5.284   4.607   4.345 -0.1143  1.9928  0.1308
 8529TIP3   OH225550   5.741   3.323   4.605  0.4055  0.8513 -0.3329
 8529TIP3    H125551   5.705   3.411   4.618 -1.2700 -0.1623  3.0750
 8529TIP3    H225552   5.791   3.305   4.685  1.4802 -0.9642 -1.3467
 8530TIP3   OH225553   5.191   0.603   1.425 -0.3663  0.2867  0.1265
 8530TIP3    H125554   5.143   0.666   1.478  0.6133  0.8603  0.3530
 8530TIP3    H225555   5.124   0.560   1.372 -1.1017  1.2096  0.2902
 8531TIP3   OH225556   5.979   1.623   3.862  0.3264 -0.2444  0.1373
 8531TIP3    H125557   6.034   1.567   3.916 -0.8983 -0.4376  1.2289
 8531TIP3    H225558   5.909   1.565   3.832  0.5037  0.0738 -0.9694
 8532TIP3   OH225559   4.675   0.542   1.961  0.2923  0.0971 -0.0923
 8532TIP3    H125560   4.714   0.551   1.874  0.9083 -0.9268  0.0639
 8532TIP3    H225561   4.701   0.455   1.990  0.0057  0.3890  1.0791
 8533TIP3   OH225562   3.180   2.334   5.176 -0.4642  0.0242  0.0313
 8533TIP3    H125563   3.272   2.313   5.159 -0.0388 -1.3500  3.3242
 8533TIP3    H225564   3.161   2.407   5.117  2.8119  0.6149 -0.5018
 8534TIP3   OH225565   3.696   6.517   3.979 -0.3725 -0.2365 -0.9190
 8534TIP3    H125566   3.748   6.594   4.001  3.8258 -2.8642 -0.4995
 8534TIP3    H225567   3.626   6.516   4.045  1.7250  1.2160  1.5435
 8535TIP3   OH225568   4.680   1.542   2.986 -0.3554 -0.0529 -0.0769
 8535TIP3    H125569   4.591   1.541   3.023  0.1492 -1.8602  1.2126
 8535TIP3    H225570   4.669   1.509   2.897 -0.7205 -2.6681  0.8716
 8536TIP3   OH225571   0.534   3.075   4.520 -0.2439 -0.1381  0.3529
 8536TIP3    H125572   0.532   3.008   4.451  0.3463 -0.7471  0.9018
 8536TIP3    H225573   0.594   3.142   4.486 -0.9315  0.1835 -0.2538
 8537TIP3   OH225574   1.593   2.763   3.984 -0.5141  0.9727  0.2562
 8537TIP3    H125575   1.631   2.783   4.070 -1.7349  3.0795  0.3733
 8537TIP3    H225576   1.507   2.725   4.004 -1.0694  2.0584 -0.0070
 8538TIP3   OH225577   3.321   6.784   4.250 -0.7071 -0.5774 -0.2275
 8538TIP3    H125578   3.339   6.822   4.165 -2.4787  1.9920  0.4232
 8538TIP3    H225579   3.226   6.792   4.261 -0.9011 -3.2239  0.9675
 8539TIP3   OH225580   5.439   3.384   0.277 -0.0560 -0.4594  0.2780
 8539TIP3    H125581   5.409   3.458   0.225 -0.2484 -0.6639  0.0947
 8539TIP3    H225582   5.502   3.421   0.338 -1.9169  0.2955  1.8506
 8540TIP3   OH225583   6.814   2.732   3.551  0.6581  0.8112  0.2067
 8540TIP3    H125584   6.863   2.755   3.630  1.0149  1.2204 -0.1327
 8540TIP3    H225585   6.738   2.790   3.552 -0.0412 -0.0723  0.9270
 8541TIP3   OH225586   6.018   2.598   2.497  0.1241 -0.6769 -0.5217
 8541TIP3    H125587   6.040   2.574   2.407  1.5932  0.4592 -0.4978
 8541TIP3    H225588   6.058   2.529   2.551  0.4855 -0.5747 -0.6615
 8542TIP3   OH225589   6.709   6.479   0.090 -0.0231  0.0276 -0.1531
 8542TIP3    H125590   6.618   6.451   0.077  0.9175 -3.2942 -0.4774
 8542TIP3    H225591   6.753   6.402   0.127  2.4192  1.9617  1.2849
 8543TIP3   OH225592   2.511   3.512   4.318 -0.6631 -0.2106 -0.0303
 8543TIP3    H125593   2.456   3.561   4.257 -0.9892 -2.0906 -1.3090
 8543TIP3    H225594   2.474   3.424   4.319  2.7062 -1.8253 -1.5812
 8544TIP3   OH225595   1.829   2.922   2.034  0.3666 -0.3509 -0.3137
 8544TIP3    H125596   1.814   2.908   2.128 -0.4784 -1.4132 -0.5896
 8544TIP3    H225597   1.848   3.015   2.026  0.8346 -0.3176  0.9618
 8545TIP3   OH225598   6.745   6.437   3.016  0.1952  0.4919  0.2933
 8545TIP3    H125599   6.829   6.396   2.996 -0.3874 -1.3361  1.3642
 8545TIP3    H225600   6.716   6.395   3.097 -1.5275  1.4341  0.2240
 8546TIP3   OH225601   4.931   5.940   5.591 -0.9522  0.7319  0.0184
 8546TIP3    H125602   4.975   5.855   5.590 -0.1566  1.0784  1.8484
 8546TIP3    H225603   4.847   5.924   5.549 -1.0663 -1.1055  0.8523
 8547TIP3   OH225604   5.563   3.174   3.584  0.2452  0.1483 -0.3696
 8547TIP3    H125605   5.572   3.117   3.660  0.4404 -0.9580 -1.2087
 8547TIP3    H225606   5.506   3.245   3.614  1.6864  0.6399  1.3124
 8548TIP3   OH225607   4.565   6.590   1.802 -0.3959  0.0251 -0.1824
 8548TIP3    H125608   4.573   6.504   1.844  0.6920  0.8192  1.3559
 8548TIP3    H225609   4.498   6.635   1.853  1.1018  1.0881  0.9380
 8549TIP3   OH225610   4.925   2.696   0.698  0.6344  0.2033  0.6371
 8549TIP3    H125611   4.928   2.600   0.706  0.0528  0.0335 -0.8866
 8549TIP3    H225612   4.882   2.725   0.778 -2.5122 -1.1271 -0.4086
 8550TIP3   OH225613   3.153   0.555   0.157  0.2083  0.2352 -0.3769
 8550TIP3    H125614   3.077   0.498   0.147 -1.5067  2.3219  0.0803
 8550TIP3    H225615   3.155   0.608   0.077  2.2728 -0.9258 -1.1848
 8551TIP3   OH225616   2.450   5.132   4.383  0.8136  0.2071  0.7945
 8551TIP3    H125617   2.421   5.112   4.294  2.5137 -0.1056  0.2732
 8551TIP3    H225618   2.402   5.070   4.439 -0.0990  0.2578  0.0967
 8552TIP3   OH225619   1.641   6.523   0.327  0.4465  0.1979 -0.1135
 8552TIP3    H125620   1.734   6.508   0.347  0.0950 -1.2985  0.5449
 8552TIP3    H225621   1.599   6.438   0.343 -0.8327  0.4764 -1.6913
 8553TIP3   OH225622   6.973   0.684   2.643 -0.3544  0.0343  0.0097
 8553TIP3    H125623   6.992   0.619   2.575 -0.3424  0.3609 -0.2995
 8553TIP3    H225624   7.003   0.767   2.607  1.9973 -0.1240  1.3969
 8554TIP3   OH225625   3.444   5.505   0.665 -0.5515  0.1175  0.2386
 8554TIP3    H125626   3.378   5.455   0.618 -1.2279  2.4684 -1.5226
 8554TIP3    H225627   3.527   5.465   0.640 -0.9876  0.4884 -2.0469
 8555TIP3   OH225628   5.617   1.924   0.752  0.9713 -0.1827 -0.2628
 8555TIP3    H125629   5.527   1.942   0.780  1.3584  0.6703  0.4562
 8555TIP3    H225630   5.666   2.003   0.776  2.3858 -1.4981  1.4518
 8556TIP3   OH225631   7.187   0.272   2.321 -0.0659  0.2282 -0.0313
 8556TIP3    H125632   7.234   0.215   2.382 -2.1396 -0.5992  0.8918
 8556TIP3    H225633   7.154   0.344   2.375 -2.4331 -0.8252  0.0497
 8557TIP3   OH225634   5.936   1.380   0.110  0.2505  0.5680  0.2703
 8557TIP3    H125635   5.939   1.305   0.051  0.8376  0.6678  0.1712
 8557TIP3    H225636   5.864   1.360   0.170  1.5786 -0.9631  1.4339
 8558TIP3   OH225637   6.406   3.298   5.555 -0.3263 -0.2512 -0.0887
 8558TIP3    H125638   6.330   3.353   5.537 -0.1180 -0.2449 -1.0141
 8558TIP3    H225639   6.448   3.286   5.469  0.9647  0.1295  0.4618
 8559TIP3   OH225640   6.684   0.167   0.226 -0.1686  0.5444  0.5790
 8559TIP3    H125641   6.700   0.164   0.132 -0.7893 -0.6098  0.4966
 8559TIP3    H225642   6.675   0.076   0.252 -0.7724  0.8816  1.6231
 8560TIP3   OH225643   1.971   6.568   1.088 -0.6231  0.4795 -0.6099
 8560TIP3    H125644   2.007   6.484   1.059 -1.0186  0.4790 -1.1097
 8560TIP3    H225645   1.900   6.545   1.148  0.1915  0.4813  0.3828
 8561TIP3   OH225646   6.323   2.327   1.280 -0.4345  0.3238 -0.0471
 8561TIP3    H125647   6.263   2.400   1.265 -0.4582  0.4816  0.7692
 8561TIP3    H225648   6.273   2.266   1.335 -0.1039  0.1121  0.0193
 8562TIP3   OH225649   0.860   3.215   0.032 -0.0087  0.2735 -0.0148
 8562TIP3    H125650   0.942   3.215  -0.018  0.8323  0.4598  1.2990
 8562TIP3    H225651   0.826   3.127   0.021  0.0987  0.3350 -0.9780
 8563TIP3   OH225652   4.083   1.448   4.047  0.3632  0.1555 -0.7933
 8563TIP3    H125653   4.042   1.426   4.131  2.4789 -0.4452  0.1354
 8563TIP3    H225654   4.014   1.432   3.983 -0.6305 -1.5617  0.6060
 8564TIP3   OH225655   4.982   6.517   2.158  0.1661  0.2066  0.3280
 8564TIP3    H125656   4.913   6.497   2.221  1.4335  0.6313  1.9162
 8564TIP3    H225657   5.022   6.598   2.190  1.4427 -0.0630 -0.4915
 8565TIP3   OH225658   1.134   2.381   5.334  0.0595  0.4862  0.0423
 8565TIP3    H125659   1.132   2.319   5.260  0.1835 -0.2034  0.6047
 8565TIP3    H225660   1.122   2.326   5.411  3.2097  0.6912  0.8320
 8566TIP3   OH225661   5.469   6.509   5.395 -0.0196 -0.3768 -0.0608
 8566TIP3    H125662   5.541   6.502   5.458  0.4971  1.6704 -0.3508
 8566TIP3    H225663   5.397   6.547   5.446 -0.0635 -0.0729 -0.3465
 8567TIP3   OH225664   2.479   5.902   0.781 -0.1636 -0.0348  0.9153
 8567TIP3    H125665   2.516   5.986   0.810 -0.2937  0.3057  0.1273
 8567TIP3    H225666   2.532   5.879   0.705 -2.1267  0.9393 -0.8459
 8568TIP3   OH225667   5.111   2.451   4.902  0.2385 -0.0914 -0.1587
 8568TIP3    H125668   5.069   2.490   4.978  0.3946 -1.2826  0.5668
 8568TIP3    H225669   5.203   2.471   4.912  0.0209  1.5810 -1.1778
 8569TIP3   OH225670   7.078   5.248   3.873 -0.2885  0.0415  0.0296
 8569TIP3    H125671   7.148   5.245   3.937 -0.2650  0.2019  0.0131
 8569TIP3    H225672   7.109   5.310   3.806 -1.3715  1.8927  1.1378
 8570TIP3   OH225673   6.043   0.702   2.376  0.0067 -0.3498  0.2632
 8570TIP3    H125674   6.008   0.790   2.380 -0.7142 -0.6250  0.0663
 8570TIP3    H225675   6.115   0.707   2.313 -1.2460 -0.2983 -1.2353
 8571TIP3   OH225676   6.077   5.628   2.968  0.8252  0.5923 -1.0753
 8571TIP3    H125677   6.041   5.605   2.883  0.4059 -1.7792 -0.3343
 8571TIP3    H225678   6.023   5.701   2.998 -1.7945 -1.2220 -1.1012
 8572TIP3   OH225679   4.405   3.116   1.445 -0.0194 -0.2093  0.1284
 8572TIP3    H125680   4.437   3.065   1.520  0.4584  0.2090  0.2182
 8572TIP3    H225681   4.378   3.050   1.381  1.8443 -0.6374 -0.3070
 8573TIP3   OH225682   2.856   5.134   3.962 -0.1473  0.5265  0.1348
 8573TIP3    H125683   2.929   5.091   3.917 -0.3770  1.2277 -0.9526
 8573TIP3    H225684   2.895   5.213   4.000  0.4353 -0.9093  2.7497
 8574TIP3   OH225685   1.341   3.661   3.036  0.0914 -0.2607  0.1613
 8574TIP3    H125686   1.425   3.649   3.081  0.0364  1.1937  0.7358
 8574TIP3    H225687   1.365   3.697   2.951  0.0435  1.3533  0.7920
 8575TIP3   OH225688   2.408   4.714   0.543 -0.1153 -0.2398  0.2071
 8575TIP3    H125689   2.428   4.797   0.500  0.8123 -1.1248 -1.1392
 8575TIP3    H225690   2.395   4.738   0.635  3.1737  1.0472  0.4974
 8576TIP3   OH225691   5.205   0.325   2.890 -0.1495  0.5456 -0.2267
 8576TIP3    H125692   5.230   0.322   2.983  0.1386 -0.7510 -0.3200
 8576TIP3    H225693   5.244   0.406   2.858  2.7815 -0.6393  0.0069
 8577TIP3   OH225694   4.336   0.789   1.513  0.1824 -0.2778 -0.8779
 8577TIP3    H125695   4.351   0.866   1.568  1.3085 -1.5760  0.7691
 8577TIP3    H225696   4.364   0.715   1.568  0.4465 -1.7525 -2.8756
 8578TIP3   OH225697   0.031   4.089   5.160  0.9214 -0.0769  0.6124
 8578TIP3    H125698   0.061   4.178   5.178 -1.2528  0.8677 -0.0427
 8578TIP3    H225699   0.010   4.089   5.066 -0.0808 -0.9446  0.8117
 8579TIP3   OH225700   1.093   6.547   0.217 -0.0406  0.1547  0.0882
 8579TIP3    H125701   1.169   6.604   0.228 -1.9654  3.1490 -0.9969
 8579TIP3    H225702   1.062   6.565   0.128 -2.5452 -0.2124  0.8063
 8580TIP3   OH225703   4.007   5.724   5.378 -0.0256 -0.1188  0.5339
 8580TIP3    H125704   4.042   5.723   5.467  1.6385 -0.0579 -0.0957
 8580TIP3    H225705   4.070   5.674   5.327 -2.4318 -2.7246 -0.1218
 8581TIP3   OH225706   4.104   1.527   0.599  0.0942  0.2060  0.1611
 8581TIP3    H125707   4.048   1.560   0.529 -1.1340  0.3252  1.1453
 8581TIP3    H225708   4.056   1.451   0.633  1.3807 -0.7257 -0.0652
 8582TIP3   OH225709   0.963   6.628   1.289 -0.3256  0.6838 -0.0064
 8582TIP3    H125710   1.015   6.568   1.344  0.1681  1.6793  0.6384
 8582TIP3    H225711   0.872   6.607   1.310 -0.1457  0.8464  0.9757
 8583TIP3   OH225712   7.056   3.408   0.892  0.6293 -0.7879 -0.5058
 8583TIP3    H125713   7.096   3.437   0.809 -1.3481  2.4283 -0.5044
 8583TIP3    H225714   7.118   3.436   0.959  1.0583 -1.1298 -0.7491
 8584TIP3   OH225715   3.461   3.926   0.457 -0.3450 -0.0112  0.1296
 8584TIP3    H125716   3.508   3.899   0.379  0.0215  0.7192  0.0876
 8584TIP3    H225717   3.500   3.875   0.528 -1.6133 -1.7130 -0.3299
 8585TIP3   OH225718   4.226   4.112   1.350 -0.1857  0.1583 -0.5905
 8585TIP3    H125719   4.144   4.113   1.300  0.5865 -1.0028 -1.9285
 8585TIP3    H225720   4.257   4.021   1.344  1.9260  0.8733 -1.3389
 8586TIP3   OH225721   4.430   5.519   3.234  0.2098  0.0793  0.0878
 8586TIP3    H125722   4.486   5.468   3.292  0.5754  0.8705  0.4449
 8586TIP3    H225723   4.455   5.490   3.146 -0.4828 -1.2612  0.3060
 8587TIP3   OH225724   0.442   0.839   4.043  0.4567 -0.6740  0.0151
 8587TIP3    H125725   0.506   0.905   4.014 -0.5806  0.0928 -0.5964
 8587TIP3    H225726   0.478   0.756   4.012 -0.0471 -0.0167 -2.6049
 8588TIP3   OH225727   5.611   1.119   0.976 -0.4004  0.2336 -0.2093
 8588TIP3    H125728   5.611   1.175   1.054 -0.6240  1.1903 -0.8863
 8588TIP3    H225729   5.652   1.038   1.006 -1.7500  0.0323  1.3038
 8589TIP3   OH225730   4.271   1.851   2.943  0.0425 -0.0432  0.6264
 8589TIP3    H125731   4.242   1.900   2.867  0.9405 -0.3636  0.0578
 8589TIP3    H225732   4.252   1.759   2.921 -1.2950 -0.0072  1.5280
 8590TIP3   OH225733   2.768   3.527   5.527  0.6910 -0.2782 -0.4033
 8590TIP3    H125734   2.851   3.561   5.560  0.4386 -0.0527  0.0070
 8590TIP3    H225735   2.762   3.439   5.564 -0.5836  0.7164  1.9576
 8591TIP3   OH225736   2.351   1.453   1.111 -0.1715  0.9174  0.1446
 8591TIP3    H125737   2.366   1.400   1.033  1.5017 -1.2179  1.7874
 8591TIP3    H225738   2.421   1.518   1.110  1.7573 -1.0354  1.3273
 8592TIP3   OH225739   5.730   6.313   5.676 -0.6520  0.0554 -0.1286
 8592TIP3    H125740   5.735   6.387   5.616  1.8395  1.0202  1.1471
 8592TIP3    H225741   5.815   6.269   5.667 -1.6760 -2.0898 -0.0904
 8593TIP3   OH225742   0.435   0.387   3.868 -0.0854  1.0022 -0.0605
 8593TIP3    H125743   0.502   0.455   3.863 -2.4372  3.7446  2.1157
 8593TIP3    H225744   0.414   0.381   3.961 -0.6572 -2.1414 -0.2739
 8594TIP3   OH225745   2.693   6.611   3.597  0.4012  0.2484  0.4017
 8594TIP3    H125746   2.625   6.544   3.599  0.3257  0.2905 -0.4281
 8594TIP3    H225747   2.679   6.662   3.677 -2.6055  2.2633 -1.2296
 8595TIP3   OH225748   6.618   2.852   3.772 -0.0758  0.1070  0.5538
 8595TIP3    H125749   6.690   2.877   3.831  0.7733 -0.2954 -0.2690
 8595TIP3    H225750   6.555   2.923   3.778  0.5486  0.6296  1.0529
 8596TIP3   OH225751   5.326   4.928   0.201  0.0296  0.5042  0.3744
 8596TIP3    H125752   5.383   4.961   0.131 -0.4595 -1.8732 -1.2441
 8596TIP3    H225753   5.247   4.981   0.194 -0.3327 -0.2059 -1.4553
 8597TIP3   OH225754   5.713   1.722   4.728  0.5061 -0.0440  0.6363
 8597TIP3    H125755   5.804   1.752   4.734  0.7386 -0.7921  1.0068
 8597TIP3    H225756   5.685   1.711   4.819 -0.1347  0.6851  0.5332
 8598TIP3   OH225757   0.128   4.672   2.732 -0.2603  0.0616 -0.0115
 8598TIP3    H125758   0.050   4.724   2.752  0.5399  1.3308 -0.0726
 8598TIP3    H225759   0.196   4.706   2.791  1.0033  0.9887 -1.8726
 8599TIP3   OH225760   3.999   6.091   0.349  0.4581  0.1631 -0.2277
 8599TIP3    H125761   3.929   6.156   0.349  1.5587  1.4518  1.6766
 8599TIP3    H225762   3.953   6.007   0.347 -1.1830  0.9601  1.1529
 8600TIP3   OH225763   5.706   2.880   2.175 -0.1061  0.0622  0.0671
 8600TIP3    H125764   5.749   2.859   2.092 -0.9248  0.0739 -0.3628
 8600TIP3    H225765   5.721   2.803   2.230 -0.2404 -0.2723 -0.3625
 8601TIP3   OH225766   2.446   0.392   1.522  0.0014  0.1561  0.3332
 8601TIP3    H125767   2.525   0.340   1.508  0.5452  1.0130  0.1462
 8601TIP3    H225768   2.394   0.340   1.583  0.4756 -0.6556  0.0653
 8602TIP3   OH225769   7.187   3.450   0.612  0.1438 -0.0249 -0.5614
 8602TIP3    H125770   7.246   3.394   0.561 -1.1651 -0.4869 -1.6505
 8602TIP3    H225771   7.099   3.428   0.579 -0.7257  0.0217  1.5928
 8603TIP3   OH225772   2.681   3.226   5.843 -0.0511  0.0662 -0.3262
 8603TIP3    H125773   2.649   3.290   5.907  0.8341 -1.0358  1.2950
 8603TIP3    H225774   2.735   3.166   5.894  0.8980 -0.7357 -2.1742
 8604TIP3   OH225775   5.784   0.387   0.115 -0.6737  0.3163 -0.3221
 8604TIP3    H125776   5.806   0.455   0.051  1.5939 -1.0588 -1.1570
 8604TIP3    H225777   5.690   0.373   0.104 -1.2312  3.1956 -0.1413
 8605TIP3   OH225778   5.376   5.032   1.724 -0.2353 -0.7762 -0.2182
 8605TIP3    H125779   5.391   5.127   1.714  0.3069 -0.8147  0.2112
 8605TIP3    H225780   5.324   5.024   1.804 -0.9457 -0.7886 -0.6738
 8606TIP3   OH225781   1.643   6.778   1.684 -0.2306  0.0788 -0.2412
 8606TIP3    H125782   1.714   6.714   1.687 -0.0461  0.2502 -0.7894
 8606TIP3    H225783   1.666   6.843   1.751  0.7500  0.7584 -1.1909
 8607TIP3   OH225784   4.145   3.250   5.395 -0.2729 -0.1604 -0.3647
 8607TIP3    H125785   4.090   3.187   5.442  0.6237 -0.2615  0.5858
 8607TIP3    H225786   4.181   3.199   5.322 -0.3676 -0.4690 -0.2003
 8608TIP3   OH225787   0.718   2.859   0.576  0.5959 -0.0589  0.2398
 8608TIP3    H125788   0.727   2.847   0.670  1.2702 -1.1864  0.0375
 8608TIP3    H225789   0.801   2.899   0.549  2.0662 -3.2857 -0.4271
 8609TIP3   OH225790   4.729   0.216   2.926  0.0079  0.4135 -0.3568
 8609TIP3    H125791   4.670   0.248   2.995 -1.2385  0.5938 -1.4676
 8609TIP3    H225792   4.723   0.121   2.932  0.6973  0.4129  0.4350
 8610TIP3   OH225793   1.600   3.277   5.489 -0.7589  0.2289  0.3596
 8610TIP3    H125794   1.540   3.204   5.478 -0.2732 -0.1389  0.0964
 8610TIP3    H225795   1.580   3.337   5.417  1.7003 -1.6753 -2.1194
 8611TIP3   OH225796   0.715   1.306   2.242  0.4084 -0.2333 -0.1061
 8611TIP3    H125797   0.724   1.210   2.247  1.7744 -0.0903  0.6808
 8611TIP3    H225798   0.640   1.320   2.183 -0.2197 -1.7870  0.2623
 8612TIP3   OH225799   4.292   3.521   1.172  0.3258  0.5610 -0.3659
 8612TIP3    H125800   4.327   3.481   1.253 -0.1434  0.3834 -0.2515
 8612TIP3    H225801   4.297   3.615   1.189 -0.0126  0.5215 -0.0241
 8613TIP3   OH225802   1.416   3.382   1.910 -0.1346 -0.1419 -0.0735
 8613TIP3    H125803   1.410   3.477   1.895 -1.5525  0.0212  1.3360
 8613TIP3    H225804   1.509   3.363   1.903  0.1061  1.2229 -1.0846
 8614TIP3   OH225805   0.529   1.373   5.580 -0.4353 -0.1187 -0.2897
 8614TIP3    H125806   0.437   1.358   5.562 -0.5857  0.5859 -0.1388
 8614TIP3    H225807   0.575   1.335   5.506 -0.9313  0.8680 -1.1216
 8615TIP3   OH225808   3.433   0.101   3.524 -0.0843 -0.2842  0.2423
 8615TIP3    H125809   3.511   0.059   3.488 -0.7685 -0.6770 -0.8169
 8615TIP3    H225810   3.361   0.041   3.503 -0.7757  0.4090  0.5652
 8616TIP3   OH225811   5.023   2.602   5.746 -0.1122 -0.2339 -0.2469
 8616TIP3    H125812   5.084   2.676   5.751  1.3848 -1.3243 -1.5132
 8616TIP3    H225813   5.046   2.557   5.665 -1.4242 -1.7491  0.1692
 8617TIP3   OH225814   6.653   0.261   0.530 -0.2160  0.1531  0.3654
 8617TIP3    H125815   6.735   0.309   0.527 -1.1071  1.7065 -0.3930
 8617TIP3    H225816   6.607   0.288   0.450 -1.7331 -0.1667  1.0907
 8618TIP3   OH225817   7.068   0.028   1.687  0.4369  0.0853 -0.6377
 8618TIP3    H125818   7.050  -0.049   1.742  3.3794 -1.1907 -1.2930
 8618TIP3    H225819   7.136   0.075   1.735 -1.6131  2.6589 -0.0281
 8619TIP3   OH225820   0.974   2.939   0.982  0.3872  0.0850  0.0400
 8619TIP3    H125821   0.946   2.940   1.074 -3.0131 -1.3039 -0.8106
 8619TIP3    H225822   0.919   3.005   0.940 -0.5889 -1.6204 -1.4996
 8620TIP3   OH225823   3.790   0.234   0.125  0.3154  0.3771 -0.0711
 8620TIP3    H125824   3.885   0.242   0.130  0.4542  0.4090 -2.2047
 8620TIP3    H225825   3.760   0.321   0.099 -0.2395  0.2013 -0.0281
 8621TIP3   OH225826   0.234   0.627   3.999 -0.3573 -0.2882  0.0319
 8621TIP3    H125827   0.275   0.699   4.047  0.1861  0.3842 -1.4098
 8621TIP3    H225828   0.145   0.624   4.034 -0.6151  1.5558 -0.3440
 8622TIP3   OH225829   2.765   4.390   0.586  0.3008  0.2481 -0.9043
 8622TIP3    H125830   2.772   4.329   0.512  0.9291  0.9164 -1.4182
 8622TIP3    H225831   2.684   4.439   0.570 -0.1783 -0.4056 -0.5167
 8623TIP3   OH225832   4.981   6.610   1.880 -0.3079  0.4792 -0.5202
 8623TIP3    H125833   4.965   6.594   1.973  1.3336 -0.3776 -0.3548
 8623TIP3    H225834   5.037   6.687   1.878 -0.0290  0.2696 -0.7776
 8624TIP3   OH225835   5.970   6.673   3.690  0.0454 -0.0628 -0.0988
 8624TIP3    H125836   6.055   6.695   3.653 -0.2842  1.2720 -0.0923
 8624TIP3    H225837   5.986   6.593   3.740  1.1979 -0.0611 -0.4361
 8625TIP3   OH225838   3.690   6.212   4.297 -0.4146 -0.2859 -0.1268
 8625TIP3    H125839   3.663   6.300   4.323 -0.5622 -0.9704  2.2717
 8625TIP3    H225840   3.778   6.223   4.262 -0.8571  0.9280 -0.9582
 8626TIP3   OH225841   4.836   2.306   4.582 -0.4616  0.0647  0.4010
 8626TIP3    H125842   4.868   2.278   4.667 -0.9165  0.1779  0.6108
 8626TIP3    H225843   4.759   2.361   4.601 -1.4299 -1.0644 -0.1342
 8627TIP3   OH225844   0.834   3.620   1.510 -0.5979  0.0496 -0.0814
 8627TIP3    H125845   0.798   3.684   1.571  0.5174  1.1214 -0.5011
 8627TIP3    H225846   0.849   3.542   1.563  0.8746  1.1437  1.1909
 8628TIP3   OH225847   0.950   0.890   4.555  0.4267 -1.0696 -0.0839
 8628TIP3    H125848   0.924   0.884   4.463 -0.3876 -2.3542  0.1957
 8628TIP3    H225849   0.911   0.972   4.586  2.0237  0.1908 -1.2431
 8629TIP3   OH225850   6.680   6.187   5.559  0.1813  0.1049 -0.0154
 8629TIP3    H125851   6.710   6.229   5.639  0.9099  1.7810 -1.1074
 8629TIP3    H225852   6.760   6.160   5.514 -0.1258  0.6930 -0.9457
 8630TIP3   OH225853   2.323   6.608   0.872 -0.5780 -0.4111  0.0871
 8630TIP3    H125854   2.338   6.514   0.885  1.5493  0.0265  1.1961
 8630TIP3    H225855   2.354   6.625   0.783  1.2642 -0.3959  0.6919
 8631TIP3   OH225856   0.227   3.693   2.453 -0.0275 -0.1915  0.1153
 8631TIP3    H125857   0.255   3.627   2.390  0.2031  0.0371 -0.0233
 8631TIP3    H225858   0.158   3.650   2.504  0.2313 -0.5926  0.1303
 8632TIP3   OH225859   1.212   2.721   2.088 -0.1510 -0.4207 -0.9655
 8632TIP3    H125860   1.168   2.636   2.097 -0.2505 -0.2875 -0.1102
 8632TIP3    H225861   1.247   2.720   1.999 -0.3485 -1.2644 -1.0470
 8633TIP3   OH225862   7.091   1.934   0.993  0.2184  0.3044 -0.3416
 8633TIP3    H125863   7.164   1.996   0.992  0.4910 -0.0153 -0.2366
 8633TIP3    H225864   7.096   1.893   1.079 -0.0417  0.2284 -0.3616
 8634TIP3   OH225865   2.715   0.433   5.453  0.0743  0.1968  0.2314
 8634TIP3    H125866   2.672   0.429   5.368  1.1703  1.4639 -0.4176
 8634TIP3    H225867   2.657   0.384   5.512 -0.6779 -0.7478 -1.2370
 8635TIP3   OH225868   1.606   1.754   0.019 -0.1903 -0.1444  0.1045
 8635TIP3    H125869   1.694   1.784   0.041  0.0633 -0.5552 -0.3436
 8635TIP3    H225870   1.549   1.798   0.083  0.4759 -0.9658  1.2988
 8636TIP3   OH225871   5.725   0.723   3.999 -0.0481 -0.3841  0.1529
 8636TIP3    H125872   5.786   0.772   3.943 -1.0364  0.9096  0.1733
 8636TIP3    H225873   5.758   0.633   3.997  0.3544 -0.2379 -1.9406
 8637TIP3   OH225874   5.529   3.346   1.263  0.3134  0.2508 -0.3718
 8637TIP3    H125875   5.464   3.343   1.193 -0.3278 -1.7141  0.2623
 8637TIP3    H225876   5.613   3.354   1.217 -0.2444  1.2272 -1.2520
 8638TIP3   OH225877   4.982   6.352   1.199  0.0782  0.2031 -0.4970
 8638TIP3    H125878   5.032   6.433   1.187  1.6162 -0.7279 -0.5692
 8638TIP3    H225879   4.892   6.377   1.177  0.7384  1.5515 -1.8842
 8639TIP3   OH225880   6.044   1.948   4.041  0.0333 -0.5726 -0.5244
 8639TIP3    H125881   6.097   1.962   4.120 -0.6024  1.3064 -0.3887
 8639TIP3    H225882   5.970   2.007   4.050 -0.6656 -1.1540 -2.0133
 8640TIP3   OH225883   5.274   3.293   1.721 -0.1994 -0.2609 -0.6267
 8640TIP3    H125884   5.187   3.320   1.691 -0.4477 -0.2288  0.0954
 8640TIP3    H225885   5.333   3.361   1.687 -0.6308  0.4288 -0.0280
 8641TIP3   OH225886   6.039   2.733   1.316  0.1426 -0.2132  0.5908
 8641TIP3    H125887   6.029   2.772   1.403  1.9973  1.5438  0.1006
 8641TIP3    H225888   6.010   2.802   1.256  1.2991 -0.4190 -0.2394
 8642TIP3   OH225889   6.104   6.353   3.579 -0.2504  0.2054  0.3272
 8642TIP3    H125890   6.029   6.360   3.639  0.6474 -1.0648  1.6647
 8642TIP3    H225891   6.064   6.343   3.492 -1.5951  1.1384  0.8034
 8643TIP3   OH225892   5.167   5.240   3.558 -0.5446  0.4504  0.0236
 8643TIP3    H125893   5.216   5.168   3.598 -2.3873 -1.2425 -0.5936
 8643TIP3    H225894   5.224   5.316   3.567  1.0117 -0.8284  1.7419
 8644TIP3   OH225895   0.484   1.056   3.214 -0.0330 -0.5710 -0.3671
 8644TIP3    H125896   0.565   1.037   3.262 -0.9718  0.8355  1.9155
 8644TIP3    H225897   0.501   1.023   3.126  2.2579 -2.1457  0.5573
 8645TIP3   OH225898   1.135   4.992   1.704  0.3729  0.4047  0.4306
 8645TIP3    H125899   1.215   4.965   1.748  0.4868 -0.2155 -0.1323
 8645TIP3    H225900   1.165   5.034   1.623  0.1305 -1.0750 -0.4687
 8646TIP3   OH225901   5.094   1.145   1.720 -0.8086  0.1174  0.1994
 8646TIP3    H125902   5.064   1.162   1.631 -0.0607  2.8267  0.3799
 8646TIP3    H225903   5.026   1.088   1.757 -1.1854 -1.0049 -2.0167
 8647TIP3   OH225904   2.267   6.147   2.034  0.2457 -0.3333  0.2442
 8647TIP3    H125905   2.178   6.110   2.034  0.3058 -0.4928 -0.4160
 8647TIP3    H225906   2.322   6.077   2.001  0.4237  0.1872 -0.6113
 8648TIP3   OH225907   5.568   1.806   4.403 -0.0117  0.4022  0.4840
 8648TIP3    H125908   5.587   1.888   4.450  0.2474 -0.0407  1.1642
 8648TIP3    H225909   5.475   1.789   4.421 -1.1027  2.3515 -2.5070
 8649TIP3   OH225910   2.097   0.176   0.606  0.1022  0.3775 -0.4199
 8649TIP3    H125911   2.158   0.225   0.550 -0.1933 -0.5151 -1.5749
 8649TIP3    H225912   2.010   0.198   0.572 -0.0835 -0.1866 -0.3251
 8650TIP3   OH225913   4.817   4.496   2.675  0.1927  0.3074 -0.8023
 8650TIP3    H125914   4.909   4.510   2.653  0.6895 -0.9279  0.3894
 8650TIP3    H225915   4.814   4.409   2.715 -1.2903  0.8199  0.2960
 8651TIP3   OH225916   2.534   3.645   3.156  0.2096 -0.0554  0.3026
 8651TIP3    H125917   2.469   3.596   3.207  0.0947 -1.2231 -0.9228
 8651TIP3    H225918   2.486   3.721   3.123 -0.7265 -1.1668 -1.0159
 8652TIP3   OH225919   4.054   0.251   3.376  0.4456  0.5169 -0.4240
 8652TIP3    H125920   4.032   0.339   3.407 -1.4636  0.3311 -1.0943
 8652TIP3    H225921   4.047   0.196   3.454  2.9561  1.0866  0.2920
 8653TIP3   OH225922   6.336   3.455   2.487  0.2364  0.8228  0.1344
 8653TIP3    H125923   6.246   3.448   2.516  0.3018  0.7878  0.3324
 8653TIP3    H225924   6.341   3.537   2.438  0.2521  1.1490  0.6782
 8654TIP3   OH225925   4.350   0.727   0.235  0.9821  0.3293  0.1208
 8654TIP3    H125926   4.361   0.822   0.241 -0.0399  0.4548  0.1936
 8654TIP3    H225927   4.291   0.705   0.306 -0.5363 -0.0490 -1.1905
 8655TIP3   OH225928   5.112   0.670   3.011  0.6384 -0.0777  0.1171
 8655TIP3    H125929   5.070   0.755   2.995 -0.7936 -0.9218 -0.8015
 8655TIP3    H225930   5.045   0.618   3.053  2.0059 -0.3101  2.1291
 8656TIP3   OH225931   2.872   5.913   3.446 -0.1886 -0.2255  0.0448
 8656TIP3    H125932   2.936   5.845   3.425 -1.0840 -0.9882 -0.2681
 8656TIP3    H225933   2.895   5.942   3.534 -0.3236 -1.5534  0.5324
 8657TIP3   OH225934   6.236   4.775   2.636  1.1176 -0.1680 -0.2782
 8657TIP3    H125935   6.171   4.710   2.610  1.1694  0.0151 -0.8723
 8657TIP3    H225936   6.220   4.789   2.729  0.1048  0.1137 -0.4903
 8658TIP3   OH225937   7.193   0.261   1.056 -0.6726  0.0375 -0.2283
 8658TIP3    H125938   7.209   0.295   0.968  0.7573 -0.1107 -0.0581
 8658TIP3    H225939   7.104   0.287   1.077 -1.2494 -0.4274 -1.9492
 8659TIP3   OH225940   2.744   1.482   3.670 -0.2650 -0.0726  0.4781
 8659TIP3    H125941   2.827   1.440   3.646  0.8282  1.6763  0.9466
 8659TIP3    H225942   2.698   1.416   3.721  0.1983 -1.5792 -0.9562
 8660TIP3   OH225943   3.932   3.580   2.499  0.3559 -0.1866 -0.0312
 8660TIP3    H125944   3.966   3.502   2.544  1.0352  0.1469  0.0446
 8660TIP3    H225945   4.004   3.642   2.502  0.1923  0.0616 -1.0570
 8661TIP3   OH225946   4.321   1.037   5.678  0.2733  0.1331  0.5245
 8661TIP3    H125947   4.348   1.104   5.616 -0.8342  1.1697  1.1139
 8661TIP3    H225948   4.246   0.994   5.636  0.8719 -0.6351  0.2230
 8662TIP3   OH225949   5.527   2.153   5.519  0.2813  0.0127 -0.6322
 8662TIP3    H125950   5.556   2.233   5.475 -0.3829  0.0710 -0.9852
 8662TIP3    H225951   5.606   2.115   5.555  0.9394 -0.3420 -2.3814
 8663TIP3   OH225952   0.251   1.112   2.089 -0.5051  0.0336  0.1254
 8663TIP3    H125953   0.230   1.029   2.045 -0.5571 -0.6696  1.4353
 8663TIP3    H225954   0.174   1.131   2.143  0.2854 -0.0820  1.3231
 8664TIP3   OH225955   5.315   0.330   3.154 -0.4758  0.4679 -0.2561
 8664TIP3    H125956   5.378   0.257   3.156 -2.4919 -1.3714 -0.4751
 8664TIP3    H225957   5.299   0.351   3.246 -0.6301 -0.0512 -0.1612
 8665TIP3   OH225958   2.544   0.207   0.920 -0.6033 -0.1263  0.4642
 8665TIP3    H125959   2.622   0.193   0.866 -1.1740 -1.3707 -0.0768
 8665TIP3    H225960   2.567   0.281   0.976  0.4846  0.3779 -0.5921
 8666TIP3   OH225961   3.384   4.055   1.789 -0.3114 -0.2479 -0.4607
 8666TIP3    H125962   3.312   4.012   1.836 -0.2919 -0.6071 -0.7494
 8666TIP3    H225963   3.459   4.046   1.847 -1.0324  2.4510  1.0648
 8667TIP3   OH225964   5.748   5.009   3.884  0.1167 -0.0916 -0.0227
 8667TIP3    H125965   5.806   4.987   3.811 -0.7362  1.4601 -1.2352
 8667TIP3    H225966   5.796   5.077   3.933 -0.1819  0.3618 -0.3551
 8668TIP3   OH225967   1.023   2.231   4.453  0.0954 -0.7769 -0.2231
 8668TIP3    H125968   1.109   2.208   4.418  0.7147 -0.1280  0.8415
 8668TIP3    H225969   1.030   2.215   4.547 -0.0239  1.8624  0.3232
 8669TIP3   OH225970   3.558   2.474   2.080 -0.6611  0.1618 -0.0919
 8669TIP3    H125971   3.501   2.397   2.081 -0.5103  0.0461 -0.3776
 8669TIP3    H225972   3.541   2.517   2.164 -0.1939 -0.5866  0.4014
 8670TIP3   OH225973   4.993   0.784   1.579  0.0564  0.1765 -0.1591
 8670TIP3    H125974   5.004   0.834   1.660  1.2046  0.6319 -0.5647
 8670TIP3    H225975   5.039   0.837   1.512 -0.3456 -0.4861 -0.9772
 8671TIP3   OH225976   5.074   0.749   3.421 -0.1234  0.7918  0.2324
 8671TIP3    H125977   5.147   0.795   3.379  0.7420  1.2116  2.0958
 8671TIP3    H225978   5.034   0.698   3.351  1.5139  1.1245 -0.9950
 8672TIP3   OH225979   3.382  -0.019   4.052 -0.1772  0.6729  0.0001
 8672TIP3    H125980   3.461   0.033   4.043  1.5455 -1.9742 -1.4891
 8672TIP3    H225981   3.313   0.035   4.011  1.5107  1.7482 -1.5800
 8673TIP3   OH225982   2.884   3.643   2.633 -0.1243  0.0944 -0.3533
 8673TIP3    H125983   2.977   3.652   2.609  0.0576  0.3018  0.3868
 8673TIP3    H225984   2.885   3.589   2.712 -0.6692 -0.2664 -0.5950
 8674TIP3   OH225985   6.561   4.421   4.008  0.1029  0.0984  0.0912
 8674TIP3    H125986   6.608   4.339   4.023  0.3933 -0.0529 -1.4677
 8674TIP3    H225987   6.601   4.458   3.930 -2.1902  0.0543 -1.2082
 8675TIP3   OH225988   6.355   6.028   2.496 -0.9391 -0.3483 -0.3938
 8675TIP3    H125989   6.408   5.984   2.430  1.5413  1.1726  0.4370
 8675TIP3    H225990   6.418   6.059   2.561 -3.1412 -1.0640  2.3390
 8676TIP3   OH225991   2.506   4.416   4.280  0.1265 -0.3525  0.9355
 8676TIP3    H125992   2.588   4.386   4.241  1.9905  2.3544  2.4047
 8676TIP3    H225993   2.465   4.337   4.315  1.4411 -1.9580 -0.9137
 8677TIP3   OH225994   3.387   3.360   2.818  0.3322  0.2129  0.6389
 8677TIP3    H125995   3.417   3.342   2.907  2.9471  0.3945 -0.1284
 8677TIP3    H225996   3.382   3.274   2.776 -2.1758 -0.0159  1.2466
 8678TIP3   OH225997   0.100   0.987   2.805 -0.8312 -0.1596 -0.2371
 8678TIP3    H125998   0.029   1.051   2.795 -1.8013 -1.2330 -0.4696
 8678TIP3    H225999   0.099   0.965   2.898 -1.2619 -0.6676 -0.3564
 8679TIP3   OH226000   2.089   6.039   5.225 -0.0549  0.1262 -0.0180
 8679TIP3    H126001   2.087   6.135   5.225  0.1768  0.1334 -0.6418
 8679TIP3    H226002   1.997   6.013   5.223 -0.1298  0.3278  0.4932
 8680TIP3   OH226003   4.112   2.231   2.298  0.0791  0.2144 -0.4858
 8680TIP3    H126004   4.088   2.323   2.291  0.1189  0.1704 -1.2535
 8680TIP3    H226005   4.053   2.186   2.239  0.6275 -0.1510 -0.7611
 8681TIP3   OH226006   1.180   0.244   1.238  0.4193  0.0848  0.5024
 8681TIP3    H126007   1.253   0.276   1.291 -0.4659  1.3264  1.0094
 8681TIP3    H226008   1.107   0.238   1.299 -0.2626  0.2120 -0.2880
 8682TIP3   OH226009   1.094   0.826   2.668 -0.1962  0.4377  0.2004
 8682TIP3    H126010   1.001   0.813   2.685  0.0270 -1.7933 -0.0107
 8682TIP3    H226011   1.135   0.824   2.755 -0.2782  0.7881  0.2474
 8683TIP3   OH226012   2.106   1.268   2.553 -0.5288 -0.5214  0.0852
 8683TIP3    H126013   2.057   1.203   2.502 -1.7116 -0.0216  0.5565
 8683TIP3    H226014   2.050   1.346   2.553  0.6234  0.3282 -0.0048
 8684TIP3   OH226015   0.449   0.183   2.193  0.6383 -0.3931  0.2148
 8684TIP3    H126016   0.539   0.151   2.187  0.7930  0.1893 -0.9795
 8684TIP3    H226017   0.450   0.266   2.145 -0.8587 -1.1733 -1.2758
 8685TIP3   OH226018   3.267   5.422   2.498  0.0593 -0.6624  0.5389
 8685TIP3    H126019   3.332   5.354   2.517  0.4431 -0.8115 -1.1999
 8685TIP3    H226020   3.209   5.383   2.433  0.8650  0.9546 -1.2610
 8686TIP3   OH226021   5.081   5.303   4.271  0.2476  0.7243 -0.1861
 8686TIP3    H126022   5.138   5.250   4.216 -1.3178 -0.5754 -0.6173
 8686TIP3    H226023   5.079   5.257   4.355 -1.1307  0.0556 -0.5663
 8687TIP3   OH226024   6.986   3.495   2.726 -0.2004  0.2261 -0.2170
 8687TIP3    H126025   6.941   3.421   2.685 -0.1555  0.3548 -0.5016
 8687TIP3    H226026   6.951   3.572   2.680  0.3010  0.3278 -0.4348
 8688TIP3   OH226027   4.887   5.848   4.411 -0.3782  0.0210 -0.1187
 8688TIP3    H126028   4.905   5.860   4.318  1.3079  0.1459  0.1877
 8688TIP3    H226029   4.792   5.856   4.419 -0.7407 -1.6718 -2.0657
 8689TIP3   OH226030   0.753   0.611   1.830  0.2409  0.6881  0.1409
 8689TIP3    H126031   0.842   0.606   1.864  0.8012 -0.2024 -1.3357
 8689TIP3    H226032   0.751   0.546   1.760 -1.4561  0.9803 -0.1169
 8690TIP3   OH226033   1.264   5.910   0.643  0.1910 -0.4590  0.2869
 8690TIP3    H126034   1.175   5.902   0.678  0.4080 -1.7575  0.6161
 8690TIP3    H226035   1.251   5.932   0.551 -0.4490  0.2626  0.5431
 8691TIP3   OH226036   5.308   1.612   4.702 -0.2056 -0.0176  0.1904
 8691TIP3    H126037   5.241   1.645   4.642 -0.6015 -0.8700  0.1482
 8691TIP3    H226038   5.377   1.578   4.645  0.0940  0.5094  0.2330
 8692TIP3   OH226039   3.158   2.485   2.157 -0.1183  0.0551  0.1108
 8692TIP3    H126040   3.182   2.563   2.208 -0.8850  0.1843  0.2793
 8692TIP3    H226041   3.117   2.426   2.221  1.0071 -0.7583  0.1187
 8693TIP3   OH226042   6.157   3.059   0.538  0.2206  0.3316  0.1968
 8693TIP3    H126043   6.238   3.105   0.519 -0.1401  1.1992  0.6646
 8693TIP3    H226044   6.118   3.041   0.453  0.4555  0.7558 -0.0037
 8694TIP3   OH226045   4.496   3.736   3.056  0.0329  0.0420  0.1028
 8694TIP3    H126046   4.443   3.730   3.135 -2.9531  0.3863 -1.7195
 8694TIP3    H226047   4.531   3.825   3.057  1.3442 -0.4329  1.7072
 8695TIP3   OH226048   0.109   4.740   2.441  0.0699  0.8974  0.2693
 8695TIP3    H126049   0.111   4.703   2.529 -0.1679  1.1179  0.3695
 8695TIP3    H226050   0.052   4.680   2.391  0.6770  0.4433  0.1091
 8696TIP3   OH226051   5.776   5.864   1.258  0.2473 -0.1406  0.7025
 8696TIP3    H126052   5.689   5.825   1.268 -0.8951  2.2943  0.9384
 8696TIP3    H226053   5.815   5.816   1.185 -1.6318 -0.7061  0.0062
 8697TIP3   OH226054   4.288   1.351   2.346  0.2885  0.6002  0.4199
 8697TIP3    H126055   4.327   1.331   2.260  0.9256  0.6173  0.6960
 8697TIP3    H226056   4.195   1.335   2.334  0.4160  0.2483 -0.1751
 8698TIP3   OH226057   3.144   0.975   0.112 -1.1611 -0.4350  0.1378
 8698TIP3    H126058   3.186   1.030   0.178  0.6621  0.3596 -1.5940
 8698TIP3    H226059   3.051   0.974   0.137 -1.3486  3.5295  0.2472
 8699TIP3   OH226060   1.331   0.436   0.036 -0.1900  0.1988  0.0216
 8699TIP3    H126061   1.304   0.501  -0.030  0.2179 -1.0343 -1.4185
 8699TIP3    H226062   1.401   0.480   0.084 -1.6069  1.7414  0.7872
 8700TIP3   OH226063   1.098   2.192   1.667 -0.4979 -0.0940 -0.1197
 8700TIP3    H126064   1.070   2.135   1.596  1.7426  0.4596 -1.5455
 8700TIP3    H226065   1.080   2.142   1.747 -2.3170 -1.0666 -1.0834
 8701TIP3   OH226066   3.038   5.306   2.710  0.3460  0.2938 -0.0409
 8701TIP3    H126067   2.993   5.222   2.720  0.2275  0.1588 -1.5644
 8701TIP3    H226068   3.074   5.304   2.621  2.1968  0.9754  0.6373
 8702TIP3   OH226069   6.778   0.482   0.430  0.4898 -0.5982  0.3495
 8702TIP3    H126070   6.800   0.442   0.346 -0.5165  0.9794 -0.7437
 8702TIP3    H226071   6.846   0.547   0.445  0.9496 -1.2225  1.0375
 8703TIP3   OH226072   3.047   1.162   0.324 -0.2490 -0.4318  0.0753
 8703TIP3    H126073   3.030   1.070   0.343 -0.2396 -0.4893 -0.1987
 8703TIP3    H226074   2.966   1.194   0.285  0.1046 -0.5950 -0.8233
 8704TIP3   OH226075   5.718   5.810   3.760  0.0244  0.0710 -0.2982
 8704TIP3    H126076   5.785   5.764   3.811  0.5489  1.3128  0.1766
 8704TIP3    H226077   5.639   5.759   3.772  0.7337 -1.0752 -0.3439
 8705TIP3   OH226078   3.179   5.503   5.509  0.0842 -0.1632 -0.0394
 8705TIP3    H126079   3.202   5.569   5.574 -2.5540 -0.1635  1.0087
 8705TIP3    H226080   3.084   5.506   5.504  0.0640 -1.8684 -2.1457
 8706TIP3   OH226081   4.790   5.369   0.505 -0.4071  0.0529  0.3481
 8706TIP3    H126082   4.809   5.462   0.492  0.7763 -0.4334 -1.8283
 8706TIP3    H226083   4.723   5.349   0.440 -0.5990 -0.6550  0.7474
 8707TIP3   OH226084   3.982   0.660   1.377  0.3285  0.5335  0.0862
 8707TIP3    H126085   4.028   0.620   1.451  0.7988  1.5461  0.3570
 8707TIP3    H226086   3.895   0.620   1.379  0.1879  0.8464  1.4488
 8708TIP3   OH226087   2.992   0.898   0.380 -0.2218 -0.9023 -0.3202
 8708TIP3    H126088   2.926   0.828   0.374  0.9894 -2.2824  1.4554
 8708TIP3    H226089   2.979   0.935   0.467 -0.2259  0.5176 -0.8959
 8709TIP3   OH226090   6.356   5.465   5.607 -0.0717 -0.3320  0.0648
 8709TIP3    H126091   6.314   5.424   5.683  0.2007  0.8393  0.8724
 8709TIP3    H226092   6.425   5.520   5.645  1.1381 -0.9720 -1.1321
 8710TIP3   OH226093   2.812   1.695   3.240 -0.1197 -0.1929  0.3851
 8710TIP3    H126094   2.760   1.615   3.250 -1.0556  0.2797 -0.4811
 8710TIP3    H226095   2.827   1.725   3.329 -1.2532 -0.4085  0.6631
 8711TIP3   OH226096   5.462   4.531   2.406  0.3571 -0.5234 -0.5101
 8711TIP3    H126097   5.386   4.536   2.463  0.5095 -2.1616 -0.1203
 8711TIP3    H226098   5.434   4.477   2.332  0.9567 -0.6217 -0.6741
 8712TIP3   OH226099   3.098   2.459   5.417  0.0216  0.4667  0.0138
 8712TIP3    H126100   3.042   2.398   5.466  0.5037  0.8523  1.0701
 8712TIP3    H226101   3.124   2.410   5.339  1.3015 -1.1365  1.3725
 8713TIP3   OH226102   6.068   2.886   3.759  0.0936  0.2090 -0.2543
 8713TIP3    H126103   6.138   2.909   3.697  2.8210 -0.9665  2.1815
 8713TIP3    H226104   6.047   2.796   3.738  0.7388 -0.0622  0.2212
 8714TIP3   OH226105   3.479   4.625   2.275  0.5930  0.1845  0.2927
 8714TIP3    H126106   3.477   4.718   2.298  0.3804  0.0646  0.7422
 8714TIP3    H226107   3.394   4.591   2.301  0.8618 -0.2539  0.5959
 8715TIP3   OH226108   5.039   4.375   1.886  0.3804 -0.0669 -0.4680
 8715TIP3    H126109   4.995   4.318   1.823  2.3344 -0.8056 -1.2398
 8715TIP3    H226110   5.058   4.455   1.836 -1.1394  0.7604  0.2229
 8716TIP3   OH226111   5.504   3.915   1.767  0.5990  0.1410  0.0513
 8716TIP3    H126112   5.545   3.920   1.681  0.5142  0.0785  0.0068
 8716TIP3    H226113   5.510   3.822   1.792 -2.0051 -0.4580 -1.1932
 8717TIP3   OH226114   2.142   2.270   4.413 -0.0177  0.3199 -0.3471
 8717TIP3    H126115   2.210   2.309   4.359 -0.0521 -0.9199 -1.3242
 8717TIP3    H226116   2.173   2.283   4.503  2.8182 -2.3535 -0.7717
 8718TIP3   OH226117   6.640   4.548   3.774 -0.3402  0.3319  0.2216
 8718TIP3    H126118   6.586   4.512   3.704 -2.8099  2.6340  0.7754
 8718TIP3    H226119   6.707   4.599   3.730  0.3290 -1.0789 -0.4584
 8719TIP3   OH226120   1.077   6.064   2.396 -0.1217  0.1622  0.0868
 8719TIP3    H126121   1.068   6.158   2.384 -0.1649  0.0218 -1.0901
 8719TIP3    H226122   1.164   6.043   2.360 -0.7081 -0.4467 -1.0167
 8720TIP3   OH226123   3.311   5.085   5.313  0.4391  0.1583 -0.1559
 8720TIP3    H126124   3.294   5.150   5.381  2.5302  0.1288  0.4667
 8720TIP3    H226125   3.321   5.002   5.360  1.7277  0.1063 -0.4933
 8721TIP3   OH226126   4.733   6.215   3.085  0.6400  0.1366 -0.4153
 8721TIP3    H126127   4.720   6.177   2.998 -1.4908 -2.5035  0.9123
 8721TIP3    H226128   4.656   6.270   3.099 -0.0227 -0.9598  0.4603
 8722TIP3   OH226129   4.292   5.220   3.028 -0.1276 -0.3400 -0.3614
 8722TIP3    H126130   4.368   5.276   3.012 -0.0775  0.3738  1.9976
 8722TIP3    H226131   4.257   5.251   3.112 -3.2301 -0.4342 -1.5114
 8723TIP3   OH226132   5.097   2.174   3.676 -0.1972  0.0983  0.0626
 8723TIP3    H126133   5.045   2.155   3.754 -0.5787 -0.8722 -0.4145
 8723TIP3    H226134   5.140   2.091   3.655 -0.8237  0.0926 -1.2886
 8724TIP3   OH226135   5.676   3.245   0.351  0.3242 -0.2690 -0.0204
 8724TIP3    H126136   5.592   3.204   0.329  0.5204 -0.6268 -0.1153
 8724TIP3    H226137   5.701   3.293   0.272 -0.2360  0.6016  0.3222
 8725TIP3   OH226138   4.793   4.350   2.336 -0.3931  0.3547  0.3164
 8725TIP3    H126139   4.825   4.260   2.340  0.6793  0.7078  0.1314
 8725TIP3    H226140   4.787   4.369   2.242 -0.0686  0.6441  0.3493
 8726TIP3   OH226141   1.606   4.730   5.283  0.2021  0.6325 -0.8437
 8726TIP3    H126142   1.665   4.806   5.292  1.6856 -0.6276  0.7224
 8726TIP3    H226143   1.662   4.660   5.250 -0.3042 -0.6729  0.9021
 8727TIP3   OH226144   2.274   1.694   4.453 -0.2691 -0.4628 -0.6277
 8727TIP3    H126145   2.195   1.642   4.443  0.0855 -1.3338  0.8190
 8727TIP3    H226146   2.311   1.699   4.365 -0.9900 -1.5723 -1.0052
 8728TIP3   OH226147   6.631   5.277   3.909  0.8448  0.0771  0.3031
 8728TIP3    H126148   6.687   5.333   3.855  0.8277 -1.4320 -1.3474
 8728TIP3    H226149   6.681   5.197   3.922 -0.8019 -1.2533 -1.0963
 8729TIP3   OH226150   6.398   6.309   1.710  0.0616  0.1888 -0.2032
 8729TIP3    H126151   6.315   6.293   1.755  0.0426 -0.6803 -0.5238
 8729TIP3    H226152   6.382   6.281   1.620  0.8253 -0.3865 -0.1644
 8730TIP3   OH226153   2.176   5.454   3.280  0.8481 -0.4801  0.5672
 8730TIP3    H126154   2.241   5.393   3.315 -0.1868 -1.3277  1.0528
 8730TIP3    H226155   2.213   5.483   3.196  2.0363 -0.6190  1.0180
 8731TIP3   OH226156   5.605   5.471   5.358 -0.0077 -0.1060 -0.1694
 8731TIP3    H126157   5.680   5.415   5.378 -0.7561 -0.9853  0.3109
 8731TIP3    H226158   5.641   5.546   5.311  1.5610  0.9092  2.4587
 8732TIP3   OH226159   6.672   0.020   2.372  0.5395  0.2133  0.4655
 8732TIP3    H126160   6.728   0.098   2.369  0.2820  0.3786 -0.2393
 8732TIP3    H226161   6.669  -0.004   2.464  1.9304  0.0861  0.4956
 8733TIP3   OH226162   3.335   6.299   4.244  0.6865  0.4341 -0.0571
 8733TIP3    H126163   3.404   6.366   4.238  0.3674  0.7303 -0.4439
 8733TIP3    H226164   3.281   6.313   4.167 -0.6479  1.1367  0.9707
 8734TIP3   OH226165   6.521   4.404   3.569  0.7286 -0.3115 -0.1457
 8734TIP3    H126166   6.458   4.346   3.613 -0.7290  1.0024 -0.3895
 8734TIP3    H226167   6.524   4.371   3.479  0.3269 -0.3506 -0.1486
 8735TIP3   OH226168   3.940   6.530   0.544 -0.0870  0.0840  0.0313
 8735TIP3    H126169   3.897   6.610   0.513 -0.3592 -0.2540 -0.4685
 8735TIP3    H226170   3.905   6.518   0.633  1.3934  1.5635  0.8643
 8736TIP3   OH226171   6.250   1.076   0.895  0.0021  0.1410  0.2144
 8736TIP3    H126172   6.223   1.107   0.981 -0.9258 -0.7999  0.2796
 8736TIP3    H226173   6.256   1.155   0.842 -2.6967  0.4683  0.2578
 8737TIP3   OH226174   0.368   1.419   2.829  0.1604  0.2804 -0.1169
 8737TIP3    H126175   0.387   1.501   2.783 -1.3577  1.0512  0.5610
 8737TIP3    H226176   0.454   1.384   2.851  0.9135  0.3037 -2.7564
 8738TIP3   OH226177   6.198   5.569   5.005 -0.1107  0.4697  0.7189
 8738TIP3    H126178   6.219   5.640   4.944  0.0524  0.0734  0.3110
 8738TIP3    H226179   6.152   5.613   5.078  0.3931  1.0539  0.6910
 8739TIP3   OH226180   4.211   4.807   4.164 -0.2517 -0.0973 -0.6651
 8739TIP3    H126181   4.262   4.827   4.085  1.1180 -0.7779  0.0135
 8739TIP3    H226182   4.197   4.713   4.160  0.5601 -0.2728  0.3078
 8740TIP3   OH226183   2.044   5.678   5.656  0.1667 -0.3990 -0.3656
 8740TIP3    H126184   2.050   5.593   5.613 -0.7824 -0.2247 -0.8641
 8740TIP3    H226185   1.962   5.674   5.706  0.5732 -0.1032  0.3451
 8741TIP3   OH226186   4.105   3.809   4.454  0.3824  0.3119 -0.0854
 8741TIP3    H126187   4.158   3.856   4.519  0.6906 -0.1652  0.0150
 8741TIP3    H226188   4.165   3.794   4.380  0.5381 -0.6351  0.2157
 8742TIP3   OH226189   0.301   0.505   5.653 -0.0525 -0.1726 -0.2420
 8742TIP3    H126190   0.352   0.488   5.732 -0.0971  0.0333 -0.1701
 8742TIP3    H226191   0.223   0.550   5.683 -1.5419 -2.7403 -0.0240
 8743TIP3   OH226192   1.190   3.391   1.056 -0.1657  0.2140  0.2695
 8743TIP3    H126193   1.173   3.331   1.129 -0.5842 -0.5656 -0.4510
 8743TIP3    H226194   1.169   3.340   0.978  0.7170  0.8866 -0.4244
 8744TIP3   OH226195   3.532   0.876   0.766 -0.5821 -0.8102  0.3637
 8744TIP3    H126196   3.529   0.799   0.710 -2.3464 -1.3315  1.1024
 8744TIP3    H226197   3.601   0.858   0.829 -0.1608 -1.2425 -0.2220
 8745TIP3   OH226198   0.279   3.392   4.060  0.4608 -0.0380  0.2725
 8745TIP3    H126199   0.320   3.429   4.139  1.1871 -0.9774  0.3586
 8745TIP3    H226200   0.291   3.459   3.993  1.0469  0.2237  0.6258
 8746TIP3   OH226201   0.910   0.576   4.561 -0.2544 -0.0842  0.7372
 8746TIP3    H126202   0.835   0.571   4.620  0.0852 -0.1080  1.1738
 8746TIP3    H226203   0.899   0.659   4.515 -0.5598 -0.0965  0.7909
 8747TIP3   OH226204   1.228   1.810   4.372 -0.5160  0.3283 -0.0701
 8747TIP3    H126205   1.265   1.722   4.373 -1.5210 -0.1185 -0.5986
 8747TIP3    H226206   1.236   1.838   4.280 -1.3257  0.2720 -0.1722
 8748TIP3   OH226207   5.943   2.869   4.745 -0.2560 -0.2798 -0.2356
 8748TIP3    H126208   5.895   2.917   4.813 -3.4813 -0.8772 -1.8796
 8748TIP3    H226209   6.022   2.838   4.789 -0.9530  1.4896  2.5074
 8749TIP3   OH226210   4.595   6.321   1.941  0.2618  0.3915  0.2060
 8749TIP3    H126211   4.690   6.314   1.954  0.3698  0.8315 -0.2986
 8749TIP3    H226212   4.579   6.274   1.859  0.1788  1.1006 -0.1923
 8750TIP3   OH226213   1.187   2.472   3.657 -0.2903  0.2397 -0.2908
 8750TIP3    H126214   1.158   2.408   3.592  2.4385  0.4423 -1.8498
 8750TIP3    H226215   1.203   2.420   3.736 -1.4220 -0.3988 -0.4647
 8751TIP3   OH226216   1.217   3.329   0.735  0.5214  0.1704 -0.3291
 8751TIP3    H126217   1.152   3.274   0.692  1.4384 -0.3459 -1.0820
 8751TIP3    H226218   1.301   3.302   0.698  1.1547  0.9963  0.4359
 8752TIP3   OH226219   1.375   3.617   4.439 -0.2423  0.1635 -0.3224
 8752TIP3    H126220   1.403   3.527   4.458  0.5914  0.4980  0.0480
 8752TIP3    H226221   1.280   3.610   4.427 -0.0283 -0.9779 -1.5592
 8753TIP3   OH226222   6.837   4.809   4.604 -0.4669  0.4384  0.1362
 8753TIP3    H126223   6.863   4.723   4.637 -0.7415  0.7839  1.3080
 8753TIP3    H226224   6.906   4.868   4.633 -0.3202  0.6296 -0.5899
 8754TIP3   OH226225   0.239   0.381   5.068  0.1399  0.2764 -0.2143
 8754TIP3    H126226   0.305   0.361   5.000 -0.6387  0.2476 -0.9792
 8754TIP3    H226227   0.289   0.422   5.138  1.2386 -1.1752 -0.0971
 8755TIP3   OH226228   2.479   1.359   3.563 -0.3286  0.2844  0.9492
 8755TIP3    H126229   2.451   1.443   3.598  0.2237  0.3262  1.2970
 8755TIP3    H226230   2.526   1.317   3.635  1.3594  0.6242  0.1002
 8756TIP3   OH226231   3.946   5.954   2.144 -0.1941 -0.0624  0.5295
 8756TIP3    H126232   4.007   5.998   2.204  0.1884  0.3728 -0.1631
 8756TIP3    H226233   3.990   5.871   2.123 -0.5181 -0.4049  1.1575
 8757TIP3   OH226234   0.141   1.057   5.304  0.0796  0.4297  0.3589
 8757TIP3    H126235   0.058   1.015   5.279  1.4950 -1.0862 -2.1885
 8757TIP3    H226236   0.208   1.008   5.256  2.3404  2.4865  1.2243
 8758TIP3   OH226237   7.013   4.426   4.369  0.5224 -0.1946 -0.1516
 8758TIP3    H126238   7.097   4.404   4.328  0.2578  1.1314 -1.4946
 8758TIP3    H226239   6.949   4.373   4.322  0.3651  0.3999 -0.6192
 8759TIP3   OH226240   6.863   3.105   4.399 -0.2441  0.6135 -0.0207
 8759TIP3    H126241   6.903   3.124   4.484 -1.3696  0.8672  0.4784
 8759TIP3    H226242   6.811   3.183   4.380 -0.6355  0.2254 -0.5597
 8760TIP3   OH226243   1.021   4.486   0.389 -0.2014  0.0602 -0.5723
 8760TIP3    H126244   0.966   4.476   0.312  1.0013 -1.0982 -1.3235
 8760TIP3    H226245   1.106   4.516   0.355  0.2635 -0.1945  0.3265
 8761TIP3   OH226246   2.971   3.793   3.083  0.3056  0.0137  0.6447
 8761TIP3    H126247   2.903   3.733   3.116 -0.6002  0.1973 -0.8018
 8761TIP3    H226248   3.022   3.740   3.022  0.6320  0.2543  0.7037
 8762TIP3   OH226249   0.231   1.064   0.540 -0.0601  0.3546  0.5480
 8762TIP3    H126250   0.277   0.994   0.586 -0.4089 -1.7326 -2.0689
 8762TIP3    H226251   0.300   1.128   0.520  1.0309 -1.0241 -0.2417
 8763TIP3   OH226252   1.209   2.987   4.360 -0.1267 -0.3360  0.0722
 8763TIP3    H126253   1.188   3.058   4.421 -0.2109 -2.7738  3.1325
 8763TIP3    H226254   1.285   3.018   4.312 -1.4900  2.6673 -0.3507
 8764TIP3   OH226255   3.242   6.367   3.133 -0.0156 -0.6406 -0.3318
 8764TIP3    H126256   3.214   6.335   3.047 -0.5601 -1.4648  0.1412
 8764TIP3    H226257   3.192   6.447   3.146  0.8999  0.1104 -1.2589
 8765TIP3   OH226258   5.721   2.313   1.041  0.4302  0.5652 -0.3998
 8765TIP3    H126259   5.642   2.357   1.071  0.1910 -0.5606  0.7234
 8765TIP3    H226260   5.776   2.383   1.006 -1.3560  1.2811 -1.9641
 8766TIP3   OH226261   5.352   4.727   1.806  0.3805  0.0679  0.0940
 8766TIP3    H126262   5.422   4.720   1.871  0.5120  1.8003  0.1862
 8766TIP3    H226263   5.379   4.799   1.749 -1.0098  0.3353 -0.2676
 8767TIP3   OH226264   3.486   3.915   5.204  0.6188  0.2662 -0.1744
 8767TIP3    H126265   3.461   3.918   5.296 -0.6187 -1.3266 -0.4165
 8767TIP3    H226266   3.412   3.952   5.156 -0.0646 -1.6075 -0.6808
 8768TIP3   OH226267   5.822   4.028   5.822 -0.0774  0.1020 -0.1749
 8768TIP3    H126268   5.818   4.113   5.777  0.3229  1.0340  1.4886
 8768TIP3    H226269   5.915   4.014   5.839 -0.3598  1.2588  2.9751
 8769TIP3   OH226270   3.309   6.682   2.763 -0.5275 -0.7604  0.1264
 8769TIP3    H126271   3.319   6.595   2.800  0.4300 -0.7128  0.0270
 8769TIP3    H226272   3.221   6.684   2.727 -0.4928 -1.7582 -0.0446
 8770TIP3   OH226273   3.685   3.192   3.835  0.0828  0.8512 -0.1621
 8770TIP3    H126274   3.628   3.240   3.895  0.4192  0.0744  0.8048
 8770TIP3    H226275   3.651   3.103   3.835  0.8306  0.5597 -0.1667
 8771TIP3   OH226276   6.726   0.215   5.260 -0.0087 -0.0641 -0.7189
 8771TIP3    H126277   6.756   0.302   5.234 -0.6163  0.0512 -1.0620
 8771TIP3    H226278   6.806   0.167   5.281  0.4479  0.1483 -1.8753
 8772TIP3   OH226279   3.727   2.790   4.170 -0.1744  0.1386 -0.1671
 8772TIP3    H126280   3.731   2.881   4.201  1.7320 -0.5325  1.8181
 8772TIP3    H226281   3.712   2.739   4.250  0.5482 -1.4184 -0.9967
 8773TIP3   OH226282   3.016   1.736   4.657 -0.1045 -0.0195 -0.5263
 8773TIP3    H126283   3.061   1.813   4.691  1.7734 -0.7331 -1.2896
 8773TIP3    H226284   3.009   1.677   4.731 -0.0886  0.2186 -0.3331
 8774TIP3   OH226285   2.933   1.489   3.058 -0.1211 -0.4211  0.1510
 8774TIP3    H126286   2.890   1.550   3.118 -0.5258 -1.9734  1.5187
 8774TIP3    H226287   2.950   1.411   3.111  2.8993 -0.5254 -0.7674
 8775TIP3   OH226288   3.079   3.814   3.338 -0.3347 -0.4560 -0.1181
 8775TIP3    H126289   3.053   3.814   3.246  1.2762 -0.4303 -0.6173
 8775TIP3    H226290   2.997   3.820   3.387 -1.1327  1.7328 -1.5813
 8776TIP3   OH226291   0.564   1.607   0.897  0.2840 -0.1698 -0.1954
 8776TIP3    H126292   0.612   1.551   0.958  0.2423 -0.2944 -0.2783
 8776TIP3    H226293   0.514   1.667   0.953  1.7019  0.9681 -0.0813
 8777TIP3   OH226294   2.548   0.066   1.332  0.4257  0.2284  0.4290
 8777TIP3    H126295   2.536   0.026   1.246 -0.6593  1.3502  0.0222
 8777TIP3    H226296   2.469   0.042   1.381 -0.1716  1.7068  0.2268
 8778TIP3   OH226297   6.104   3.123   4.700 -0.0251 -0.0765 -0.1374
 8778TIP3    H126298   6.108   3.040   4.652  0.4892  0.0289 -0.2867
 8778TIP3    H226299   6.073   3.099   4.787 -2.0987 -0.1280 -0.8281
 8779TIP3   OH226300   2.914   4.992   2.454 -0.2446 -0.2764 -0.0087
 8779TIP3    H126301   2.969   4.921   2.488 -0.7938 -0.1362  1.2542
 8779TIP3    H226302   2.878   4.957   2.372  1.3857 -0.5099 -0.6501
 8780TIP3   OH226303   4.381   4.460   2.843  0.3735  0.4643 -0.5464
 8780TIP3    H126304   4.476   4.465   2.836  0.2060  1.7655 -3.7663
 8780TIP3    H226305   4.355   4.546   2.876  0.2608  1.1096 -2.2033
 8781TIP3   OH226306   6.848   2.299   1.477 -0.0160  0.6779 -0.5922
 8781TIP3    H126307   6.891   2.369   1.527  0.7084  1.4062 -2.1887
 8781TIP3    H226308   6.770   2.278   1.529  0.2135  2.0484  0.3671
 8782TIP3   OH226309   3.972   0.822   3.567  0.2543  0.0004  0.6967
 8782TIP3    H126310   4.029   0.763   3.616  0.8211  1.4245  1.8407
 8782TIP3    H226311   3.957   0.896   3.627 -0.6511  0.8961 -0.5691
 8783TIP3   OH226312   5.687   6.064   4.758  0.0996  0.2722  0.3391
 8783TIP3    H126313   5.702   5.977   4.796  2.0827  0.2279 -0.3948
 8783TIP3    H226314   5.618   6.050   4.693 -0.1992 -0.5821  0.8222
 8784TIP3   OH226315   3.448   6.353   2.118 -0.2762 -0.3414  0.4095
 8784TIP3    H126316   3.472   6.411   2.045  0.8728 -0.5301  0.6132
 8784TIP3    H226317   3.415   6.412   2.185  1.2860  0.1685  0.7798
 8785TIP3   OH226318   4.271   4.440   5.531 -0.3677  0.7244 -0.3652
 8785TIP3    H126319   4.292   4.351   5.503 -0.1761  0.8573 -0.6572
 8785TIP3    H226320   4.353   4.474   5.566 -0.8439  0.2211  1.3239
 8786TIP3   OH226321   5.914   4.267   2.211 -0.0290  0.5858  0.2142
 8786TIP3    H126322   5.978   4.336   2.225 -1.5811  2.0284  0.5143
 8786TIP3    H226323   5.840   4.291   2.267 -0.3545 -1.7028  0.8543
 8787TIP3   OH226324   3.415   3.861   1.354 -0.3848 -0.1428  0.1804
 8787TIP3    H126325   3.361   3.784   1.372 -1.0076  0.3038  0.2700
 8787TIP3    H226326   3.447   3.889   1.440 -0.0346 -0.3832  0.1317
 8788TIP3   OH226327   3.523   0.331   0.667 -0.1865 -0.3426  0.4643
 8788TIP3    H126328   3.612   0.363   0.652  0.8334 -2.1172  2.2040
 8788TIP3    H226329   3.485   0.392   0.730  0.2753 -0.2999  0.7063
 8789TIP3   OH226330   2.742   5.823   5.241  0.2532  0.0408  0.0287
 8789TIP3    H126331   2.759   5.851   5.151  0.9438 -1.2856 -0.2706
 8789TIP3    H226332   2.828   5.822   5.283 -0.1506  1.5425  1.0186
 8790TIP3   OH226333   3.872   1.672   3.291  0.0142  0.5001 -0.4166
 8790TIP3    H126334   3.788   1.631   3.312  0.2008  0.9017  1.2197
 8790TIP3    H226335   3.868   1.687   3.196 -0.9385 -1.2831 -0.7045
 8791TIP3   OH226336   7.087   5.536   2.105 -0.3374 -0.2932  0.3379
 8791TIP3    H126337   6.994   5.546   2.123  0.2923  2.4632  2.6265
 8791TIP3    H226338   7.128   5.528   2.191  1.7521  1.0499 -0.4423
 8792TIP3   OH226339   6.454   4.653   4.203  0.1727  0.3235 -0.0126
 8792TIP3    H126340   6.370   4.696   4.218  0.3862  1.0114 -0.7176
 8792TIP3    H226341   6.478   4.678   4.114  2.1258  1.9140  0.8919
 8793TIP3   OH226342   3.214   2.578   0.242  0.2404 -0.1722 -0.7071
 8793TIP3    H126343   3.207   2.579   0.146 -0.9051 -1.1347 -0.6568
 8793TIP3    H226344   3.284   2.640   0.262 -0.7707  1.4883 -2.0711
 8794TIP3   OH226345   2.510   1.008   3.351 -0.2806 -0.0923 -0.0038
 8794TIP3    H126346   2.420   0.990   3.324  0.4473 -1.4113 -1.7158
 8794TIP3    H226347   2.554   1.034   3.271  0.9674  0.1020  0.7320
 8795TIP3   OH226348   3.114   3.368   4.867 -0.2825 -0.0119  0.4217
 8795TIP3    H126349   3.047   3.431   4.894 -0.0408 -0.3219  1.8520
 8795TIP3    H226350   3.066   3.295   4.830 -0.6202  0.5835 -0.3335
 8796TIP3   OH226351   2.432   3.874   3.059 -0.1117  0.7506  0.1677
 8796TIP3    H126352   2.443   3.964   3.089  1.3951  0.1731  1.5109
 8796TIP3    H226353   2.497   3.864   2.990  1.8132 -0.0954  2.0103
 8797TIP3   OH226354   2.151   2.546   5.506 -0.1896  0.1462 -0.1480
 8797TIP3    H126355   2.166   2.452   5.518 -0.8307  0.3085  2.6898
 8797TIP3    H226356   2.213   2.572   5.438  0.2956 -2.2314 -0.7080
 8798TIP3   OH226357   2.006   6.084   2.131  0.2772  0.5514 -0.0295
 8798TIP3    H126358   2.030   5.999   2.169 -1.3816 -0.1185 -0.4043
 8798TIP3    H226359   1.997   6.142   2.207 -1.0399 -0.2709  0.4708
 8799TIP3   OH226360   6.676   1.771   3.902 -0.1885 -0.0646  0.4260
 8799TIP3    H126361   6.748   1.709   3.890  1.7512  2.0648  0.4481
 8799TIP3    H226362   6.598   1.722   3.876  1.3457 -2.1983 -0.4467
 8800TIP3   OH226363   2.804   6.564   1.294  0.3080  0.2094 -0.5366
 8800TIP3    H126364   2.745   6.625   1.250  1.2881  0.3486 -1.6921
 8800TIP3    H226365   2.769   6.557   1.383 -0.1042  2.0817 -0.5200
 8801TIP3   OH226366   2.124   4.962   3.512 -0.4958  0.1980 -0.5584
 8801TIP3    H126367   2.086   5.047   3.490 -0.8321  0.3996  0.7275
 8801TIP3    H226368   2.208   4.960   3.466 -1.3627  0.3821 -2.2069
 8802TIP3   OH226369   4.148   2.754   5.270 -0.1883 -0.5572  0.6767
 8802TIP3    H126370   4.146   2.666   5.234  1.7255 -0.3733 -0.0006
 8802TIP3    H226371   4.210   2.802   5.214 -1.7261  1.4393  0.5506
 8803TIP3   OH226372   2.331   3.181   2.648 -0.2860  0.0040 -0.4587
 8803TIP3    H126373   2.357   3.168   2.739 -1.0434  1.7190  0.0489
 8803TIP3    H226374   2.237   3.198   2.651 -0.3191  0.1366 -1.5514
 8804TIP3   OH226375   1.492   4.954   2.353 -0.3252  0.5875 -0.1308
 8804TIP3    H126376   1.516   4.980   2.442 -1.2662 -0.9668  0.6153
 8804TIP3    H226377   1.397   4.963   2.350 -0.4744 -0.8472 -0.4588
 8805TIP3   OH226378   5.130   3.040   3.291 -0.1406  0.8989  0.8216
 8805TIP3    H126379   5.123   3.126   3.331 -0.7406  0.6761  1.2137
 8805TIP3    H226380   5.216   3.008   3.319 -0.7474  0.5403  2.3927
 8806TIP3   OH226381   6.807   1.504   3.060  0.2517 -0.1906 -0.2471
 8806TIP3    H126382   6.826   1.499   3.154  0.8257  0.7849 -0.2987
 8806TIP3    H226383   6.889   1.480   3.018  0.4651  0.9283 -0.4857
 8807TIP3   OH226384   4.443   4.673   5.229 -0.1431  0.1272 -0.0789
 8807TIP3    H126385   4.449   4.629   5.144  1.1666  1.7459 -0.9020
 8807TIP3    H226386   4.515   4.736   5.227 -1.3540  1.6196  1.4178
 8808TIP3   OH226387   4.217   0.915   2.301 -0.2149 -0.1147  0.2370
 8808TIP3    H126388   4.163   0.903   2.379 -0.9106  0.0221 -0.2182
 8808TIP3    H226389   4.304   0.885   2.328 -0.9119 -2.1758  0.4184
 8809TIP3   OH226390   5.370   0.713   3.100 -0.3472 -0.2912  0.1643
 8809TIP3    H126391   5.294   0.719   3.042 -0.2816  3.7448  0.2409
 8809TIP3    H226392   5.443   0.691   3.041 -0.8700  0.1644 -0.6759
 8810TIP3   OH226393   0.351   2.177   4.248 -0.3857  0.1622 -0.3997
 8810TIP3    H126394   0.374   2.269   4.260  0.8365 -0.1996  0.1824
 8810TIP3    H226395   0.280   2.178   4.184 -1.0913  1.5753  0.3720
 8811TIP3   OH226396   5.688   0.560   2.666  0.5865 -0.1953  0.0099
 8811TIP3    H126397   5.691   0.653   2.688  1.9860 -0.4338  0.9282
 8811TIP3    H226398   5.780   0.534   2.658  0.2125 -1.4724 -0.3637
 8812TIP3   OH226399   4.225   1.450   0.026  0.2776  0.3996  0.0761
 8812TIP3    H126400   4.243   1.538  -0.010  0.5599  0.4323  0.2983
 8812TIP3    H226401   4.136   1.457   0.060 -0.1601  0.2526 -0.9780
 8813TIP3   OH226402   2.921   1.782   0.921 -0.0363 -0.1490 -0.4139
 8813TIP3    H126403   3.013   1.773   0.947 -0.3172 -3.6492 -0.1793
 8813TIP3    H226404   2.924   1.806   0.828  1.1584 -1.1061 -0.6445
 8814TIP3   OH226405   4.596   2.615   5.606  0.0766  0.5794  0.2558
 8814TIP3    H126406   4.513   2.660   5.591  0.2253  0.2082 -2.0824
 8814TIP3    H226407   4.571   2.532   5.646 -0.7084  0.4241 -0.5220
 8815TIP3   OH226408   1.527   1.118   0.047  0.3455  0.4396  0.2851
 8815TIP3    H126409   1.549   1.084  -0.039 -0.0028 -1.5560  0.9280
 8815TIP3    H226410   1.609   1.113   0.096 -0.0923 -1.3362  0.9207
 8816TIP3   OH226411   7.173   4.887   3.942  0.3970  0.5122  0.3988
 8816TIP3    H126412   7.178   4.919   4.032 -0.1773  1.2260  0.1901
 8816TIP3    H226413   7.080   4.868   3.929  0.2857  1.4915 -0.3891
 8817TIP3   OH226414   1.196   5.520   2.255  0.0389  0.1879 -0.1695
 8817TIP3    H126415   1.125   5.461   2.231  1.9202 -2.0211 -0.7540
 8817TIP3    H226416   1.153   5.594   2.298 -2.4842 -1.6795  0.7769
 8818TIP3   OH226417   6.914   1.680   0.482  0.3292 -0.3696 -0.0030
 8818TIP3    H126418   6.976   1.750   0.463  0.5269  0.3104  2.7378
 8818TIP3    H226419   6.828   1.723   0.480  0.2352 -0.5629 -0.4115
 8819TIP3   OH226420   2.775   5.110   1.260 -0.4598  0.3100  1.0077
 8819TIP3    H126421   2.776   5.192   1.212 -0.3094 -0.7547 -0.8775
 8819TIP3    H226422   2.857   5.067   1.237 -0.9689 -0.7958  1.2064
 8820TIP3   OH226423   3.456   2.597   2.302 -0.1120 -0.8651  0.3822
 8820TIP3    H126424   3.376   2.647   2.283  0.2149 -1.0818 -1.7455
 8820TIP3    H226425   3.434   2.548   2.382 -0.9437  1.4878  1.7101
 8821TIP3   OH226426   0.300   6.209   0.843  0.3353  0.7170 -0.0458
 8821TIP3    H126427   0.358   6.135   0.824  0.9015  1.0873  0.2231
 8821TIP3    H226428   0.305   6.264   0.765 -0.1920  0.4189 -0.3027
 8822TIP3   OH226429   5.677   5.790   2.611  0.6584 -0.4970  0.5196
 8822TIP3    H126430   5.728   5.771   2.532  1.6787 -1.4864  1.3824
 8822TIP3    H226431   5.716   5.735   2.679 -1.3247 -1.0326  1.3236
 8823TIP3   OH226432   2.901   1.622   4.407  0.7618 -1.0706  0.3361
 8823TIP3    H126433   2.812   1.657   4.398  2.1704  2.5605 -1.4698
 8823TIP3    H226434   2.927   1.648   4.495  0.1924 -1.9095  0.7712
 8824TIP3   OH226435   3.982   0.053   1.977 -0.9970 -0.3175 -0.3418
 8824TIP3    H126436   3.894   0.027   1.948 -1.9446  0.6529  1.4715
 8824TIP3    H226437   4.015  -0.024   2.024 -2.1570  0.2609  1.5518
 8825TIP3   OH226438   2.528   4.098   0.190  0.1874 -0.4431 -0.0356
 8825TIP3    H126439   2.579   4.177   0.207 -0.1126 -0.5315  1.4671
 8825TIP3    H226440   2.499   4.106   0.099  0.2695  1.1061  0.0524
 8826TIP3   OH226441   0.349   6.710   5.814  0.4971 -0.3102 -1.1042
 8826TIP3    H126442   0.363   6.802   5.792  0.4483  0.1697  0.6699
 8826TIP3    H226443   0.271   6.684   5.766 -1.3529  1.5274  0.6975
 8827TIP3   OH226444   3.297   5.314   3.940 -0.1490  0.0199  0.6591
 8827TIP3    H126445   3.300   5.407   3.963 -2.8289  1.1054 -2.5665
 8827TIP3    H226446   3.375   5.300   3.887  0.6086  0.2075  1.6928
 8828TIP3   OH226447   2.079   1.778   2.978  0.2017 -0.5866  0.0062
 8828TIP3    H126448   2.052   1.816   2.895  0.1083 -1.4758 -0.3797
 8828TIP3    H226449   2.123   1.697   2.954  0.3943 -0.7255  0.8088
 8829TIP3   OH226450   6.189   1.596   1.975  0.2018  0.0240  0.1265
 8829TIP3    H126451   6.210   1.563   2.062 -0.9328  0.7118  0.6840
 8829TIP3    H226452   6.097   1.621   1.980  0.1361  0.1550 -1.2510
 8830TIP3   OH226453   0.638   1.187   4.865  0.2026 -0.6466 -0.2437
 8830TIP3    H126454   0.567   1.128   4.841 -0.5748  0.0777  0.2016
 8830TIP3    H226455   0.594   1.269   4.890  1.2303  0.0283 -0.5701
 8831TIP3   OH226456   3.069   0.860   5.593 -0.1199 -0.8670  0.1592
 8831TIP3    H126457   2.995   0.902   5.637  1.1636  0.5776  1.0581
 8831TIP3    H226458   3.062   0.888   5.501 -1.0918 -1.3648  0.0758
 8832TIP3   OH226459   6.759   5.438   2.147 -0.6242 -0.3000 -0.0313
 8832TIP3    H126460   6.801   5.407   2.228  1.2989  1.2733 -0.3548
 8832TIP3    H226461   6.686   5.492   2.178  0.1371  0.3494  0.6842
 8833TIP3   OH226462   5.645   6.052   2.842  0.1513 -0.7657  0.0729
 8833TIP3    H126463   5.682   6.089   2.762  1.3344 -0.4374  0.7552
 8833TIP3    H226464   5.708   5.986   2.870 -1.2627 -2.3942 -0.3702
 8834TIP3   OH226465   0.830   5.327   0.633  0.3631  0.4688 -0.1299
 8834TIP3    H126466   0.750   5.361   0.595  0.1435  1.4380  1.1410
 8834TIP3    H226467   0.896   5.394   0.617 -0.1517  1.7740  2.6834
 8835TIP3   OH226468   5.852   4.994   5.609 -0.2054 -0.1445  0.4441
 8835TIP3    H126469   5.868   4.958   5.697  0.5532 -0.9889 -0.0194
 8835TIP3    H226470   5.757   5.005   5.605 -0.2572 -0.1766  1.3373
 8836TIP3   OH226471   3.390   0.032   0.889 -0.3935 -0.2512 -0.1355
 8836TIP3    H126472   3.380  -0.006   0.801  1.6652 -0.1488 -0.4536
 8836TIP3    H226473   3.470   0.084   0.883  0.0148 -0.5843  1.9239
 8837TIP3   OH226474   5.018   2.565   4.659  0.3273 -0.0722 -0.3188
 8837TIP3    H126475   5.112   2.563   4.641  0.4971 -2.1424  0.5018
 8837TIP3    H226476   5.007   2.507   4.735 -1.5418  0.6329  0.0057
 8838TIP3   OH226477   3.453   5.977   3.814  0.2658  0.0364  0.1760
 8838TIP3    H126478   3.491   5.988   3.901  0.3320  1.2787  0.0160
 8838TIP3    H226479   3.513   5.918   3.768  0.4621 -0.2715  0.8277
 8839TIP3   OH226480   3.446   1.676   3.924 -0.3329 -0.3750 -0.1604
 8839TIP3    H126481   3.518   1.712   3.976 -0.6186 -1.8429  1.3396
 8839TIP3    H226482   3.395   1.753   3.898  0.9581  0.5675 -0.0056
 8840TIP3   OH226483   4.336   1.028   0.860  0.4303  0.0193 -0.3562
 8840TIP3    H126484   4.387   1.106   0.881  0.2274  0.4824 -1.5185
 8840TIP3    H226485   4.258   1.061   0.814  0.1269 -0.8305 -0.4788
 8841TIP3   OH226486   3.656   6.627   2.829  0.3884 -0.4985 -0.0044
 8841TIP3    H126487   3.653   6.532   2.818  1.5025 -0.5232 -0.2250
 8841TIP3    H226488   3.649   6.661   2.739 -2.8000 -0.2295  0.2279
 8842TIP3   OH226489   5.501   1.080   1.979  0.4433  0.0481 -0.6697
 8842TIP3    H126490   5.554   1.138   2.034 -0.4214 -1.5821  2.0642
 8842TIP3    H226491   5.470   1.137   1.907  0.5765  2.6702  1.1997
 8843TIP3   OH226492   3.156   3.845   1.976  0.3063 -0.1634 -0.0387
 8843TIP3    H126493   3.127   3.766   2.022  0.4959 -0.1824  0.0471
 8843TIP3    H226494   3.092   3.856   1.906 -0.3422  0.2053  0.5918
 8844TIP3   OH226495   1.261   1.104   2.562  0.4101 -0.0343 -0.4884
 8844TIP3    H126496   1.176   1.068   2.588  0.8291 -1.5036 -1.0445
 8844TIP3    H226497   1.324   1.056   2.617  0.9828 -0.0586 -1.1610
 8845TIP3   OH226498   5.053   1.797   0.759  0.7964  0.1342 -0.7349
 8845TIP3    H126499   4.974   1.822   0.809  1.2768 -1.4398  0.9137
 8845TIP3    H226500   5.058   1.702   0.767  3.1114  0.2244 -0.3757
 8846TIP3   OH226501   1.895   2.231   4.301 -0.1961  0.1143  0.5918
 8846TIP3    H126502   1.984   2.227   4.335  0.2065  1.8640 -0.1310
 8846TIP3    H226503   1.905   2.244   4.207 -1.2845 -3.0135 -0.0669
 8847TIP3   OH226504   6.687   6.355   3.685  0.0936 -0.5451 -0.1477
 8847TIP3    H126505   6.665   6.416   3.614 -3.2011 -2.3681 -0.9533
 8847TIP3    H226506   6.759   6.303   3.651  0.5302  0.5350 -0.9212
 8848TIP3   OH226507   6.104   5.568   0.929 -0.2733 -0.3684 -0.7319
 8848TIP3    H126508   6.133   5.647   0.882 -1.6262 -0.5220 -1.8713
 8848TIP3    H226509   6.165   5.562   1.003 -0.8523  2.4462  0.1214
 8849TIP3   OH226510   2.645   6.180   4.466  0.5208  0.1633  0.4202
 8849TIP3    H126511   2.669   6.169   4.558  1.8174 -0.0449  0.0807
 8849TIP3    H226512   2.614   6.093   4.439  3.0883 -0.6586 -0.1248
 8850TIP3   OH226513   0.789   1.001   1.396 -0.2510  0.5540 -0.3075
 8850TIP3    H126514   0.816   0.917   1.358 -0.7655  0.3361 -0.2068
 8850TIP3    H226515   0.741   0.976   1.475  1.6556  1.0322  1.0554
 8851TIP3   OH226516   1.475   3.386   1.001  0.4700  0.5370  0.0827
 8851TIP3    H126517   1.385   3.396   1.031 -0.8886 -2.4617 -2.4937
 8851TIP3    H226518   1.502   3.301   1.035  1.3442  0.1947 -1.4104
 8852TIP3   OH226519   3.434   1.938   0.929  0.2368 -0.4920 -0.1070
 8852TIP3    H126520   3.459   1.847   0.939 -0.0694 -0.6489 -0.6961
 8852TIP3    H226521   3.338   1.938   0.936  0.3525  0.0704  1.9014
 8853TIP3   OH226522   5.306   2.560   4.241 -0.3797  0.2080 -0.2133
 8853TIP3    H126523   5.362   2.638   4.247 -1.6226  1.0447  1.2150
 8853TIP3    H226524   5.217   2.594   4.243 -0.9696 -1.2798  1.1947
 8854TIP3   OH226525   4.275   0.195   0.309 -0.6730 -0.5800  0.5109
 8854TIP3    H126526   4.275   0.218   0.216 -0.3669  1.1592  0.9019
 8854TIP3    H226527   4.360   0.152   0.323  0.6614  1.8451  0.5310
 8855TIP3   OH226528   2.145   2.745   3.848 -0.4818 -0.6497  0.1464
 8855TIP3    H126529   2.149   2.672   3.786 -0.0228 -0.2187 -0.3342
 8855TIP3    H226530   2.236   2.770   3.862 -0.5189 -1.2074  1.5583
 8856TIP3   OH226531   6.013   2.009   0.920 -0.4466 -0.1263 -0.1328
 8856TIP3    H126532   6.068   2.088   0.916  0.3825 -0.6583  0.3439
 8856TIP3    H226533   5.945   2.023   0.854  0.9686  0.0429 -1.6157
 8857TIP3   OH226534   4.975   5.820   4.139 -0.6395 -0.0959 -0.0281
 8857TIP3    H126535   4.945   5.782   4.057  0.3026 -1.3827  0.1892
 8857TIP3    H226536   5.033   5.892   4.113 -0.9165 -0.0368 -0.4792
 8858TIP3   OH226537   0.752   2.035   4.619  0.0710  0.4400 -0.2513
 8858TIP3    H126538   0.790   2.073   4.699 -0.5379  0.2138  0.1573
 8858TIP3    H226539   0.732   2.111   4.564  1.2575  0.5495 -0.5456
 8859TIP3   OH226540   6.668   0.378   4.678 -0.4228  0.3262 -0.7662
 8859TIP3    H126541   6.613   0.322   4.732  0.6717 -1.3851 -1.3508
 8859TIP3    H226542   6.659   0.343   4.590 -0.9514  2.0999 -1.4629
 8860TIP3   OH226543   6.378   4.137   5.261  0.2051 -0.3422 -0.1114
 8860TIP3    H126544   6.406   4.081   5.189 -0.1285 -0.5465 -0.0828
 8860TIP3    H226545   6.455   4.191   5.280  0.8304 -1.4113  0.4754
 8861TIP3   OH226546   6.056   5.847   0.338 -0.1269  0.4259  0.3564
 8861TIP3    H126547   6.115   5.922   0.342  0.5068  0.0777 -1.3541
 8861TIP3    H226548   6.113   5.770   0.335 -0.6612  0.0348 -0.5383
 8862TIP3   OH226549   6.078   5.007   0.732  0.1417 -0.1318  0.5543
 8862TIP3    H126550   6.111   4.922   0.700  0.5898 -0.4190  1.7521
 8862TIP3    H226551   6.004   5.026   0.674 -0.0783 -1.4218  0.3725
 8863TIP3   OH226552   4.188   5.933   1.745  0.2362  0.4058  0.0846
 8863TIP3    H126553   4.227   5.874   1.810 -0.4047  0.4248  0.4882
 8863TIP3    H226554   4.130   5.990   1.795 -0.1262  0.5434 -0.4806
 8864TIP3   OH226555   6.992   1.497   0.936  0.2457  0.8335 -0.2910
 8864TIP3    H126556   6.965   1.570   0.880 -0.4814  0.1227 -0.9043
 8864TIP3    H226557   7.011   1.425   0.875 -0.5028  0.0622  0.3481
 8865TIP3   OH226558   1.126   2.880   5.486 -0.6705  0.2647  0.1833
 8865TIP3    H126559   1.062   2.897   5.417  0.8368  0.0038 -1.3296
 8865TIP3    H226560   1.110   2.789   5.511 -1.0612  0.2825  0.0119
 8866TIP3   OH226561   2.053   0.663   4.247 -0.2609 -0.2130 -0.2959
 8866TIP3    H126562   2.053   0.583   4.300  0.6351  0.5972  0.9956
 8866TIP3    H226563   2.019   0.635   4.162  1.2741 -2.2487 -0.3190
 8867TIP3   OH226564   3.699   1.033   3.021  0.1905 -0.1003 -0.3094
 8867TIP3    H126565   3.684   1.105   3.083 -0.1018 -1.2879  1.0550
 8867TIP3    H226566   3.614   0.987   3.018 -0.4060  0.9915 -3.0727
 8868TIP3   OH226567   6.209   2.552   4.081 -0.3065  0.3143 -0.6557
 8868TIP3    H126568   6.201   2.520   4.170  2.7296 -0.1594 -0.4313
 8868TIP3    H226569   6.240   2.642   4.090  2.0183 -0.3599 -1.0971
 8869TIP3   OH226570   5.230   2.817   3.992 -0.4060 -0.2305 -0.1825
 8869TIP3    H126571   5.252   2.876   3.920  1.9133  0.0887  0.6753
 8869TIP3    H226572   5.271   2.734   3.969 -1.3628 -0.7288 -0.1367
 8870TIP3   OH226573   1.796   6.735   4.250 -0.1041 -0.0001 -0.0451
 8870TIP3    H126574   1.714   6.784   4.254 -0.4563 -0.6424  1.9946
 8870TIP3    H226575   1.774   6.649   4.285  1.4535 -0.1613  0.6292
 8871TIP3   OH226576   1.363   0.966   1.975  0.9282 -0.0742 -0.5148
 8871TIP3    H126577   1.314   0.991   2.053  1.4827 -0.0965 -0.1538
 8871TIP3    H226578   1.320   1.012   1.903 -1.4062 -2.2444 -0.6483
 8872TIP3   OH226579   1.452   0.699   2.371 -0.5644  0.3669 -0.7478
 8872TIP3    H126580   1.379   0.760   2.387  0.5707  1.7719 -0.6756
 8872TIP3    H226581   1.447   0.679   2.278 -1.0431  0.4507 -0.7427
 8873TIP3   OH226582   4.106   3.177   2.915  0.0359  0.3836  0.5071
 8873TIP3    H126583   4.193   3.215   2.920 -0.5758  2.4171 -1.9375
 8873TIP3    H226584   4.051   3.249   2.882 -1.9669 -1.6177 -0.7787
 8874TIP3   OH226585   0.694   2.226   5.148 -0.7229  0.0282 -0.1213
 8874TIP3    H126586   0.602   2.238   5.122 -0.9536 -0.6790  0.3509
 8874TIP3    H226587   0.696   2.140   5.191 -0.0340  0.4800  0.7743
 8875TIP3   OH226588   4.437   1.174   4.011 -0.1508 -0.1224 -0.2556
 8875TIP3    H126589   4.413   1.144   3.923 -0.0742 -0.9507 -0.0051
 8875TIP3    H226590   4.525   1.139   4.025 -0.1813 -0.0328  0.1655
 8876TIP3   OH226591   0.578   5.424   5.459  0.2673 -0.6279  0.1326
 8876TIP3    H126592   0.573   5.471   5.543 -0.5994  0.3018 -0.4155
 8876TIP3    H226593   0.670   5.400   5.451  0.6783  0.6826  0.6094
 8877TIP3   OH226594   6.300   3.942   5.458  0.5415  0.7830 -0.0740
 8877TIP3    H126595   6.395   3.933   5.464  0.5830  1.5785  0.6788
 8877TIP3    H226596   6.285   3.990   5.377  0.9291  2.4599  0.8065
 8878TIP3   OH226597   3.246   2.767   2.255 -0.2270  0.4712 -0.7371
 8878TIP3    H126598   3.248   2.832   2.325 -0.8367 -1.8901  1.6282
 8878TIP3    H226599   3.179   2.799   2.194 -1.7029  1.2657  1.2072
 8879TIP3   OH226600   2.108   6.097   3.956 -0.3320 -0.3863  0.0773
 8879TIP3    H126601   2.148   6.153   3.890  0.1836 -0.3805  0.3896
 8879TIP3    H226602   2.180   6.044   3.990 -0.6388 -0.5749  0.4459
 8880TIP3   OH226603   2.849   1.220   2.335 -0.1179 -0.2758  0.0102
 8880TIP3    H126604   2.896   1.290   2.380  0.9044 -0.8467 -0.1325
 8880TIP3    H226605   2.917   1.157   2.311 -0.8258 -0.6425 -1.1190
 8881TIP3   OH226606   5.709   2.288   3.014 -0.3788 -0.4453 -0.1936
 8881TIP3    H126607   5.637   2.230   2.990  0.3328 -0.9652 -1.1391
 8881TIP3    H226608   5.732   2.332   2.932 -1.6881  2.1335  0.6851
 8882TIP3   OH226609   0.155   4.047   3.061 -0.0986 -0.2341  0.3192
 8882TIP3    H126610   0.203   4.005   2.989 -0.4682 -0.7425  0.3608
 8882TIP3    H226611   0.220   4.058   3.130  0.5994  1.5060 -0.5630
 8883TIP3   OH226612   5.087   0.032   5.081  0.2211 -0.3042  0.0898
 8883TIP3    H126613   5.056   0.006   4.994  0.9152 -0.2582 -0.1786
 8883TIP3    H226614   5.096   0.127   5.076  1.9975 -0.4558 -0.3954
 8884TIP3   OH226615   2.001   4.963   1.007 -0.4658  0.7995  0.3678
 8884TIP3    H126616   2.073   5.001   1.058  0.8260  0.0746 -0.8468
 8884TIP3    H226617   2.042   4.938   0.924 -2.2994  1.0608 -0.6531
 8885TIP3   OH226618   4.152   0.654   2.175  0.0499  0.2144  0.0502
 8885TIP3    H126619   4.161   0.602   2.255 -1.1439  1.1893  0.8546
 8885TIP3    H226620   4.172   0.744   2.203  0.8581  0.3866 -1.0402
 8886TIP3   OH226621   1.853   0.920   0.117 -0.1579 -0.1751 -0.3443
 8886TIP3    H126622   1.908   0.998   0.114  0.0851 -0.3610 -0.7909
 8886TIP3    H226623   1.800   0.931   0.196 -0.5560  0.7256 -0.7207
 8887TIP3   OH226624   1.570   5.791   5.878  0.3106 -0.5344 -0.3691
 8887TIP3    H126625   1.491   5.757   5.920  0.8659 -1.5459 -0.1194
 8887TIP3    H226626   1.556   5.775   5.785  0.0372 -0.3081 -0.3706
 8888TIP3   OH226627   6.766   6.257   2.098 -0.3514 -0.4147 -0.3626
 8888TIP3    H126628   6.823   6.329   2.072 -1.2027  0.1333 -0.7525
 8888TIP3    H226629   6.816   6.178   2.076  0.9057  0.0254  0.7739
 8889TIP3   OH226630   0.022   4.919   1.529  0.2695 -0.6096  0.0894
 8889TIP3    H126631  -0.012   5.008   1.541 -1.1205 -0.7909 -2.0005
 8889TIP3    H226632   0.084   4.907   1.602 -0.2135  1.6964  0.9700
 8890TIP3   OH226633   0.325   0.618   0.402 -0.4188 -0.3424  0.1448
 8890TIP3    H126634   0.372   0.599   0.321 -1.3890  0.1816 -0.5496
 8890TIP3    H226635   0.341   0.711   0.419 -1.0666 -0.2019 -0.0060
 8891TIP3   OH226636   5.608   0.268   1.676 -0.7996  0.8792  0.1215
 8891TIP3    H126637   5.688   0.312   1.705 -1.6469  2.3749  0.3110
 8891TIP3    H226638   5.623   0.175   1.695  1.0843  1.0500 -0.3453
 8892TIP3   OH226639   6.997   3.191   4.637 -0.4326 -0.0387  0.5494
 8892TIP3    H126640   7.061   3.216   4.571 -1.3153  0.0362 -0.2970
 8892TIP3    H226641   6.939   3.266   4.644 -0.7959 -0.3453  0.8548
 8893TIP3   OH226642   3.943   3.619   4.597  0.0612  0.1492  0.1739
 8893TIP3    H126643   3.873   3.617   4.531 -1.6397  0.5649  1.9055
 8893TIP3    H226644   4.015   3.664   4.553 -1.1585  0.7790 -1.2811
 8894TIP3   OH226645   4.968   2.223   5.310 -0.1609 -0.0887  0.1690
 8894TIP3    H126646   4.966   2.245   5.403  0.6526 -1.3170  0.4913
 8894TIP3    H226647   4.909   2.147   5.302 -0.6096  0.3087 -0.4107
 8895TIP3   OH226648   2.623   5.988   1.531  0.0366 -0.8721  0.2202
 8895TIP3    H126649   2.619   5.997   1.626  2.3933 -0.0473  0.2988
 8895TIP3    H226650   2.632   6.077   1.498  0.8622 -1.2603 -0.6599
 8896TIP3   OH226651   5.046   1.874   3.255  0.6382 -0.0326  0.2997
 8896TIP3    H126652   5.004   1.898   3.172  0.6414  2.6541  0.9934
 8896TIP3    H226653   4.974   1.863   3.316  0.7355  0.0274  0.4253
 8897TIP3   OH226654   0.810   3.086   1.892 -0.3222 -0.0911  0.3993
 8897TIP3    H126655   0.841   3.157   1.949 -0.1513  1.0185 -1.0117
 8897TIP3    H226656   0.869   3.013   1.909  0.5208  0.6465  0.7050
 8898TIP3   OH226657   5.402   4.012   1.403 -0.7248  0.0306 -0.1420
 8898TIP3    H126658   5.471   3.986   1.464 -0.2401  0.3750 -0.5355
 8898TIP3    H226659   5.357   4.084   1.446 -1.2211 -0.5801  0.3741
 8899TIP3   OH226660   2.052   1.659   4.262  0.1224  0.1982  0.3012
 8899TIP3    H126661   2.066   1.590   4.327  0.6476  0.8293  0.8776
 8899TIP3    H226662   1.970   1.636   4.219 -0.6519  0.1873  1.7352
 8900TIP3   OH226663   5.448   1.196   5.905 -0.1944 -0.3695  0.2675
 8900TIP3    H126664   5.517   1.152   5.856  2.3093  2.2785  1.1195
 8900TIP3    H226665   5.386   1.225   5.838  1.8376  0.9741 -1.1532
 8901TIP3   OH226666   1.969   4.938   2.342  0.0366 -0.4853  0.1910
 8901TIP3    H126667   1.952   5.024   2.304 -0.5886 -0.9175 -0.5305
 8901TIP3    H226668   1.915   4.878   2.291  0.5355 -1.3223  0.6252
 8902TIP3   OH226669   3.336   3.294   1.669  0.2391  0.2901  0.2789
 8902TIP3    H126670   3.363   3.206   1.694 -0.9354  0.0677  0.7960
 8902TIP3    H226671   3.385   3.312   1.588 -0.3855 -1.2886 -0.4797
 8903TIP3   OH226672   1.453   1.695   4.633 -0.4317  0.5300  0.4617
 8903TIP3    H126673   1.524   1.739   4.585  1.4822  0.7951  3.2865
 8903TIP3    H226674   1.417   1.764   4.689 -2.2090  0.0879 -0.0607
 8904TIP3   OH226675   3.674   0.381   1.064  0.0409  0.0110 -0.2112
 8904TIP3    H126676   3.728   0.304   1.083  1.3312  0.6869 -1.0381
 8904TIP3    H226677   3.594   0.345   1.025  0.3583 -0.9338 -0.0248
 8905TIP3   OH226678   3.140   6.680   1.583 -0.1059 -0.3382 -0.2346
 8905TIP3    H126679   3.177   6.693   1.671 -0.6938 -1.8784  0.2725
 8905TIP3    H226680   3.045   6.684   1.596 -0.2477 -2.1139 -0.4939
 8906TIP3   OH226681   6.873   5.516   5.270  0.2375 -0.0773  0.4655
 8906TIP3    H126682   6.900   5.497   5.360 -1.2855 -1.3812  0.6875
 8906TIP3    H226683   6.777   5.514   5.272  0.1711 -0.4093 -1.2398
 8907TIP3   OH226684   1.118   1.026   2.238 -0.1485 -0.0522  0.1272
 8907TIP3    H126685   1.182   1.096   2.252 -2.2738  1.9072  0.6788
 8907TIP3    H226686   1.126   0.971   2.316  0.1773  0.7613  0.6885
 8908TIP3   OH226687   0.738   2.788   3.296  0.2497  0.1522  0.1358
 8908TIP3    H126688   0.771   2.811   3.209  0.8349 -3.6493 -0.8245
 8908TIP3    H226689   0.807   2.818   3.356  0.6645  1.2839 -0.8772
 8909TIP3   OH226690   6.038   6.437   1.422  0.8826  0.1595  0.3065
 8909TIP3    H126691   6.000   6.417   1.507 -0.2169  1.0261  0.0588
 8909TIP3    H226692   6.132   6.428   1.434  0.7653  0.5526  1.7031
 8910TIP3   OH226693   5.425   2.006   4.779  0.3864 -0.4104 -0.0337
 8910TIP3    H126694   5.469   1.945   4.839  0.7755 -0.8852 -0.7932
 8910TIP3    H226695   5.334   2.007   4.810  0.4312 -1.1796  0.1621
 8911TIP3   OH226696   5.227   2.412   2.706  0.0345  0.2427  0.3684
 8911TIP3    H126697   5.159   2.405   2.639 -2.9057  0.8079  3.1025
 8911TIP3    H226698   5.224   2.328   2.752  3.1304 -0.7719 -1.0045
 8912TIP3   OH226699   2.566   3.229   3.248  0.0295 -0.1946  0.5160
 8912TIP3    H126700   2.501   3.272   3.193 -0.0306 -0.8620  0.0524
 8912TIP3    H226701   2.650   3.249   3.206  0.2223  1.3610  1.5748
 8913TIP3   OH226702   5.151   5.132   0.129 -0.3340  0.0062  0.0240
 8913TIP3    H126703   5.187   5.208   0.082 -0.8351  0.2785  0.0673
 8913TIP3    H226704   5.057   5.148   0.130 -0.5545 -1.1294 -0.8657
 8914TIP3   OH226705   7.061   2.592   4.832 -0.0915  0.2928  0.4587
 8914TIP3    H126706   7.015   2.525   4.782  2.1359  0.4650 -2.1182
 8914TIP3    H226707   6.993   2.653   4.859 -1.7320 -1.0970 -0.3431
 8915TIP3   OH226708   1.104   0.285   3.072  0.4908 -0.1630 -0.6495
 8915TIP3    H126709   1.130   0.203   3.113 -0.6312 -0.1666  0.0901
 8915TIP3    H226710   1.033   0.319   3.127  1.6534  1.8783 -0.2875
 8916TIP3   OH226711   3.692   4.004   1.952  0.2701 -0.4213  0.0550
 8916TIP3    H126712   3.651   3.984   2.036  0.5499 -1.4462 -0.0444
 8916TIP3    H226713   3.785   3.986   1.965  0.5415  0.7669 -0.0711
 8917TIP3   OH226714   6.002   1.419   4.634  0.4109  0.2769 -0.5128
 8917TIP3    H126715   5.923   1.419   4.688 -1.1358  0.1419 -2.6354
 8917TIP3    H226716   6.027   1.327   4.630  0.7384  0.3266  0.2215
 8918TIP3   OH226717   5.392   3.535   4.784 -0.7475 -0.2373  0.2666
 8918TIP3    H126718   5.323   3.513   4.846 -0.6195  0.9254  0.8382
 8918TIP3    H226719   5.473   3.509   4.827 -0.7118 -0.1188  0.2720
 8919TIP3   OH226720   4.670   4.464   5.678 -0.6898  0.7393 -0.4414
 8919TIP3    H126721   4.705   4.509   5.755  1.7106  0.7513 -1.4450
 8919TIP3    H226722   4.624   4.532   5.629 -1.6608  0.8712  0.6004
 8920TIP3   OH226723   5.774   5.123   4.732  0.5979  0.0763  0.3530
 8920TIP3    H126724   5.832   5.059   4.774  1.5305  0.7456  0.1141
 8920TIP3    H226725   5.743   5.079   4.652  0.3129 -0.4986  0.7765
 8921TIP3   OH226726   4.853   3.629   4.754 -0.3259 -0.1709  0.1238
 8921TIP3    H126727   4.874   3.698   4.691  0.6540  0.3548  1.0112
 8921TIP3    H226728   4.865   3.547   4.704 -0.6004  0.2494 -0.6600
 8922TIP3   OH226729   5.958   5.964   1.456 -0.0934  0.1470 -0.0348
 8922TIP3    H126730   5.895   5.919   1.400 -0.5145  1.1084 -0.3591
 8922TIP3    H226731   5.995   6.032   1.400  1.5280 -0.6217  0.0359
 8923TIP3   OH226732   6.719   4.113   5.239  0.2716 -0.6024  0.1067
 8923TIP3    H126733   6.758   4.087   5.156 -1.7184 -0.5931 -0.8896
 8923TIP3    H226734   6.676   4.196   5.221  0.1424 -0.3940  1.2662
 8924TIP3   OH226735   2.554   2.399   2.281  0.4463 -0.1229 -0.1044
 8924TIP3    H126736   2.525   2.343   2.354  0.0616  2.5409  1.9183
 8924TIP3    H226737   2.647   2.411   2.295  0.5573 -0.3389 -0.6258
 8925TIP3   OH226738   1.213   4.856   4.818 -0.1857 -0.4562 -0.5936
 8925TIP3    H126739   1.237   4.924   4.755 -1.5440  0.6227 -0.0196
 8925TIP3    H226740   1.267   4.875   4.895 -0.3343 -0.2105 -0.5488
 8926TIP3   OH226741   3.041   4.961   1.194  0.0911 -0.2457  0.0576
 8926TIP3    H126742   3.077   5.050   1.189  2.9118 -1.2752  0.2613
 8926TIP3    H226743   3.074   4.926   1.277 -2.6343 -0.8809  0.9524
 8927TIP3   OH226744   1.833  -0.008   0.674  0.1741  0.2240  0.0765
 8927TIP3    H126745   1.843   0.086   0.691  0.5418  0.1661  0.1737
 8927TIP3    H226746   1.906  -0.049   0.719  1.3383  0.0914 -1.8224
 8928TIP3   OH226747   4.411   2.825   4.856  0.2035 -0.0076 -0.4090
 8928TIP3    H126748   4.449   2.891   4.914 -0.2342  0.0153 -0.1455
 8928TIP3    H226749   4.374   2.876   4.784 -1.7381  0.2190  0.6695
 8929TIP3   OH226750   1.973   5.663   3.071  0.2762  0.5240  0.4285
 8929TIP3    H126751   1.894   5.635   3.117 -1.4456  1.0470 -1.9942
 8929TIP3    H226752   1.960   5.757   3.056  2.4337  1.1345  1.8514
 8930TIP3   OH226753   2.359   5.170   2.318 -0.0878 -0.1457 -0.6868
 8930TIP3    H126754   2.416   5.214   2.253 -0.4523  0.1315 -0.8218
 8930TIP3    H226755   2.271   5.179   2.282 -0.5184  1.5792  0.6954
 8931TIP3   OH226756   1.242   6.391   0.780 -0.3605  0.3608 -0.1084
 8931TIP3    H126757   1.306   6.387   0.709  0.8679 -2.0243  1.0122
 8931TIP3    H226758   1.217   6.483   0.785 -0.1035  0.6999 -3.2516
 8932TIP3   OH226759   5.247   5.394   4.854 -0.1014 -0.4647  0.1320
 8932TIP3    H126760   5.323   5.338   4.870  0.1777 -0.0936  0.1011
 8932TIP3    H226761   5.265   5.435   4.769 -0.0995  0.0112  0.3588
 8933TIP3   OH226762   6.054   4.341   0.198  0.4515 -0.5901 -0.2738
 8933TIP3    H126763   5.986   4.275   0.213 -2.8199  2.7439  0.8573
 8933TIP3    H226764   6.086   4.364   0.285  1.9711 -0.9692 -0.6930
 8934TIP3   OH226765  -0.002   1.587   3.719 -0.4349 -0.3661 -0.7870
 8934TIP3    H126766   0.089   1.602   3.694 -0.3019 -0.5956 -0.4562
 8934TIP3    H226767  -0.054   1.618   3.645 -0.0811 -0.3452 -1.0239
 8935TIP3   OH226768   2.740   2.021   3.547  0.4625  0.8860 -0.5539
 8935TIP3    H126769   2.806   2.081   3.512  2.3557  1.0584  2.8041
 8935TIP3    H226770   2.663   2.075   3.561  0.7965  1.5643 -1.2752
 8936TIP3   OH226771   5.321   0.851   4.231 -0.2721  0.1532  0.2582
 8936TIP3    H126772   5.305   0.912   4.159  0.0144  0.1470  0.1889
 8936TIP3    H226773   5.416   0.837   4.230  0.3458  3.0959  3.0198
 8937TIP3   OH226774   3.243   0.510   0.488  0.0762 -0.9540  0.2238
 8937TIP3    H126775   3.179   0.502   0.559  1.0709 -0.5837  1.1781
 8937TIP3    H226776   3.236   0.601   0.459  0.8925 -0.6270  1.0328
 8938TIP3   OH226777   5.053   6.782   2.208 -0.6686  0.5382  0.4924
 8938TIP3    H126778   5.098   6.803   2.126 -0.4628  1.1457  0.7554
 8938TIP3    H226779   5.099   6.835   2.274 -1.2797  0.5779  0.8864
 8939TIP3   OH226780   6.564   2.725   2.242  0.2699  0.2900 -0.3511
 8939TIP3    H126781   6.525   2.775   2.313  0.1153  0.0882 -0.2947
 8939TIP3    H226782   6.655   2.711   2.269  0.2575  0.3616 -0.2723
 8940TIP3   OH226783   3.541   1.696   1.047  0.4756 -0.0854  0.3404
 8940TIP3    H126784   3.608   1.752   1.086  0.7741 -0.3494  0.2164
 8940TIP3    H226785   3.516   1.636   1.118 -0.8620  1.0941  0.8981
 8941TIP3   OH226786   2.904   5.435   5.439  0.2270 -0.5378  0.5051
 8941TIP3    H126787   2.840   5.451   5.369 -0.3994 -1.3686  0.8809
 8941TIP3    H226788   2.907   5.340   5.447  0.8398 -0.4693  1.1176
 8942TIP3   OH226789   5.667   4.131   5.425  0.3886 -0.3215  0.9341
 8942TIP3    H126790   5.733   4.161   5.488  0.8535 -1.0081  0.7853
 8942TIP3    H226791   5.640   4.210   5.379  1.2898 -0.0659  0.8273
 8943TIP3   OH226792   1.585   6.515   0.044 -0.2478 -0.4897 -0.1031
 8943TIP3    H126793   1.645   6.442   0.032  0.9228  0.3577  0.4622
 8943TIP3    H226794   1.594   6.539   0.136 -0.0776  0.8154 -0.4459
 8944TIP3   OH226795   2.319   2.268   2.951  0.2372 -1.2478 -0.0818
 8944TIP3    H126796   2.359   2.233   3.031  0.6750 -1.0781 -0.2218
 8944TIP3    H226797   2.304   2.360   2.971  3.2108 -0.3745 -1.2123
 8945TIP3   OH226798   3.156   1.983   5.873  0.1348  0.0271  0.1411
 8945TIP3    H126799   3.176   2.060   5.926  0.5039  0.5780 -0.7697
 8945TIP3    H226800   3.198   2.001   5.789  0.4600 -1.2956  0.0011
 8946TIP3   OH226801   6.478   6.751   1.071  0.2858  0.6525 -0.3692
 8946TIP3    H126802   6.457   6.813   1.001  2.4440  1.1200 -0.6571
 8946TIP3    H226803   6.573   6.755   1.079  0.5275 -2.5918 -0.3351
 8947TIP3   OH226804   5.386   6.633   5.683  0.0195 -0.3038  0.0623
 8947TIP3    H126805   5.434   6.645   5.764  1.9171 -1.0355 -0.8832
 8947TIP3    H226806   5.338   6.714   5.670  1.1014  0.5053  1.0183
 8948TIP3   OH226807   5.954   2.698   3.217  0.8423 -0.0333 -0.5445
 8948TIP3    H126808   5.881   2.717   3.276 -0.0029 -2.3408 -0.7378
 8948TIP3    H226809   6.027   2.749   3.252 -0.2332  0.4243  1.1370
 8949TIP3   OH226810   1.431   1.051   0.376  0.0931  0.4028  0.3136
 8949TIP3    H126811   1.446   1.145   0.384  0.0457  0.2816  2.4742
 8949TIP3    H226812   1.403   1.024   0.463  0.9230 -1.7717 -0.0267
 8950TIP3   OH226813   2.271   3.010   3.289  0.1856  0.3323 -0.5388
 8950TIP3    H126814   2.201   2.986   3.351  1.6677 -3.0501  0.0430
 8950TIP3    H226815   2.345   3.033   3.344  0.6730  0.0737 -1.0733
 8951TIP3   OH226816   1.618   4.044   1.386  0.1696 -0.0994 -0.3577
 8951TIP3    H126817   1.681   3.994   1.334  0.0757 -1.4599  0.7629
 8951TIP3    H226818   1.546   4.061   1.326  0.6466 -0.4510 -1.0504
 8952TIP3   OH226819   6.294   2.378   0.291 -0.2580 -0.2300 -1.1039
 8952TIP3    H126820   6.273   2.471   0.279 -0.6364 -0.2559 -0.6519
 8952TIP3    H226821   6.213   2.332   0.270  0.1333 -0.5103 -2.0266
 8953TIP3   OH226822   2.013   4.605   3.748  0.2556 -0.2661  0.0112
 8953TIP3    H126823   1.999   4.603   3.843 -0.4524 -1.3831 -0.1086
 8953TIP3    H226824   1.949   4.669   3.716  1.7198  1.5284  0.4405
 8954TIP3   OH226825   6.798   1.039   3.878  0.5447 -0.3531  0.1120
 8954TIP3    H126826   6.758   0.991   3.806 -0.0790 -1.2102  1.0033
 8954TIP3    H226827   6.739   1.025   3.953  0.2870  1.8559  0.4162
 8955TIP3   OH226828   6.777   5.979   2.884 -0.7686 -0.2225 -0.1694
 8955TIP3    H126829   6.765   5.919   2.810  0.1496 -0.5034 -0.0990
 8955TIP3    H226830   6.691   5.981   2.926 -0.6927 -1.9484  0.1549
 8956TIP3   OH226831   6.784   4.018   1.329 -0.4951 -0.2170  0.3263
 8956TIP3    H126832   6.869   4.051   1.300 -0.8980  1.0459  0.5218
 8956TIP3    H226833   6.725   4.035   1.256 -1.2040  1.6761  1.2870
 8957TIP3   OH226834   3.681   5.831   1.953 -0.4552 -0.9853 -0.9519
 8957TIP3    H126835   3.733   5.812   1.875  3.9526  0.4092  1.3329
 8957TIP3    H226836   3.637   5.913   1.933  0.4323 -0.7567 -2.0738
 8958TIP3   OH226837   0.362   2.319   5.897 -0.2873 -0.3447  0.7875
 8958TIP3    H126838   0.366   2.412   5.872  0.1505 -0.0140  2.0422
 8958TIP3    H226839   0.354   2.273   5.813 -1.0719  0.8469  0.1728
 8959TIP3   OH226840   6.163   6.210   1.577 -0.2049 -0.0131 -0.0370
 8959TIP3    H126841   6.081   6.164   1.595  0.9420 -2.3543 -0.3676
 8959TIP3    H226842   6.187   6.182   1.489  2.0386 -1.2641  0.8857
 8960TIP3   OH226843   3.418   2.048   1.912 -0.2371 -0.0332 -0.3148
 8960TIP3    H126844   3.411   2.135   1.872 -0.6582 -0.6018 -1.5348
 8960TIP3    H226845   3.444   1.991   1.840 -0.9685 -1.0990  0.2426
 8961TIP3   OH226846   5.590   1.636   3.615 -0.3044 -0.2326 -0.5268
 8961TIP3    H126847   5.559   1.616   3.527 -0.5330 -4.4911  0.2865
 8961TIP3    H226848   5.683   1.615   3.613 -0.2700 -0.1800  0.1706
 8962TIP3   OH226849   6.227   1.895   3.815  0.4561  0.6982  0.0999
 8962TIP3    H126850   6.283   1.822   3.840  2.1005  2.3069  1.4707
 8962TIP3    H226851   6.170   1.908   3.891  0.2774  0.9170 -0.0718
 8963TIP3   OH226852   1.067   5.351   1.446  0.2184 -0.7387  0.3126
 8963TIP3    H126853   1.134   5.286   1.426 -0.4011 -1.5172  0.6905
 8963TIP3    H226854   1.053   5.343   1.541  0.2278  0.0467  0.3918
 8964TIP3   OH226855   5.823   1.535   5.315 -0.3788  0.2082  0.2931
 8964TIP3    H126856   5.840   1.567   5.227 -1.0584  0.1973  0.1486
 8964TIP3    H226857   5.854   1.445   5.315  2.2859  1.0189  0.9340
 8965TIP3   OH226858   0.791   1.443   4.712  0.0657  0.2205  0.0516
 8965TIP3    H126859   0.818   1.441   4.803 -1.4928 -0.5760  0.5359
 8965TIP3    H226860   0.774   1.536   4.694  1.0789  0.4656  0.3405
 8966TIP3   OH226861   0.206   3.882   0.538 -0.0911  0.6027 -0.0663
 8966TIP3    H126862   0.137   3.816   0.549 -1.6079  1.7137 -2.1684
 8966TIP3    H226863   0.251   3.857   0.458  0.4546  1.1615  0.0613
 8967TIP3   OH226864   1.823   5.986   4.074 -0.0729  0.0798  0.1410
 8967TIP3    H126865   1.769   6.000   3.996  1.5101  2.7895 -0.6013
 8967TIP3    H226866   1.906   5.951   4.040 -0.1117 -0.8178  0.9026
 8968TIP3   OH226867   5.635   3.607   4.623 -0.0237  0.0919  0.0049
 8968TIP3    H126868   5.633   3.702   4.636  0.8103  0.2912 -1.1444
 8968TIP3    H226869   5.544   3.580   4.634 -0.8449  1.4814 -2.4244
 8969TIP3   OH226870   0.408   0.399   4.170  0.1597 -0.1581 -0.2079
 8969TIP3    H126871   0.413   0.446   4.253 -2.5846  3.1181 -1.6295
 8969TIP3    H226872   0.317   0.368   4.166  0.6494 -1.5696 -1.4080
 8970TIP3   OH226873   4.512   3.626   3.941 -0.3594  0.6047 -0.3534
 8970TIP3    H126874   4.518   3.694   3.874 -1.3250  1.0690  0.0146
 8970TIP3    H226875   4.431   3.580   3.921 -1.2656  1.4965  1.1800
 8971TIP3   OH226876   3.883   1.241   4.702 -0.1241 -0.5227  0.7276
 8971TIP3    H126877   3.790   1.262   4.701 -0.2029 -0.8516  0.9342
 8971TIP3    H226878   3.888   1.154   4.663  0.2505  0.0580 -0.5704
 8972TIP3   OH226879   0.237   3.242   4.535  0.8510 -0.2014  0.3204
 8972TIP3    H126880   0.331   3.224   4.537  0.7504 -0.6587  1.8097
 8972TIP3    H226881   0.230   3.337   4.528  1.3941 -0.2281 -0.9773
 8973TIP3   OH226882   3.657   4.351   5.391  0.0065 -0.2463 -0.1593
 8973TIP3    H126883   3.746   4.318   5.398 -0.6517 -2.0425  0.1662
 8973TIP3    H226884   3.616   4.296   5.325 -0.9559  0.3682 -0.0964
 8974TIP3   OH226885   3.825   0.635   5.386  0.0760 -0.1270  0.1483
 8974TIP3    H126886   3.825   0.597   5.474 -2.2553  0.0401  0.2715
 8974TIP3    H226887   3.767   0.711   5.393 -1.9474 -1.3674 -2.0029
 8975TIP3   OH226888   3.949   4.213   2.425  0.0551 -0.2929 -0.2435
 8975TIP3    H126889   3.885   4.160   2.378 -0.8896 -0.1074  0.7828
 8975TIP3    H226890   4.032   4.166   2.414 -0.6943 -1.8177  0.3420
 8976TIP3   OH226891   6.113   3.051   4.976  0.0655 -0.3357  0.1067
 8976TIP3    H126892   6.090   3.143   4.962 -1.2195 -0.6686 -0.0966
 8976TIP3    H226893   6.120   3.042   5.071  1.6648  0.2869  0.0809
 8977TIP3   OH226894   2.093   3.293   5.548  0.2439  0.6629  0.1409
 8977TIP3    H126895   2.039   3.331   5.618  0.2657  0.5832  0.2009
 8977TIP3    H226896   2.031   3.245   5.494  0.3880 -0.2208  0.7435
 8978TIP3   OH226897   1.007   2.469   1.830  0.1341 -0.2915  0.3308
 8978TIP3    H126898   1.097   2.465   1.863  0.9470  0.0853 -1.6699
 8978TIP3    H226899   1.017   2.477   1.735 -2.0429 -1.5620 -0.0753
 8979TIP3   OH226900   4.728   0.035   5.342 -0.0306  0.5508  0.1592
 8979TIP3    H126901   4.747  -0.034   5.279 -1.6650  0.3396 -0.1456
 8979TIP3    H226902   4.639   0.063   5.321 -0.7617  0.2329  2.5932
 8980TIP3   OH226903   0.767   6.796   3.427 -0.7379  0.4742  0.6791
 8980TIP3    H126904   0.704   6.725   3.413 -1.3234  1.3673 -1.5433
 8980TIP3    H226905   0.849   6.763   3.390 -1.2940  1.2987 -1.4670
 8981TIP3   OH226906   6.704   3.626   3.265 -0.0275  0.5077  0.3353
 8981TIP3    H126907   6.774   3.665   3.212  1.0466  1.5864  2.4182
 8981TIP3    H226908   6.742   3.546   3.300 -0.8666 -0.4029 -0.7580
 8982TIP3   OH226909   3.525   6.792   1.996  0.9947 -0.5185  0.3249
 8982TIP3    H126910   3.524   6.862   2.061  1.1799 -0.9628  0.8160
 8982TIP3    H226911   3.605   6.742   2.015  0.4099 -1.3927  0.5676
 8983TIP3   OH226912   2.031   6.769   1.919  0.0169 -0.6953 -0.2033
 8983TIP3    H126913   2.000   6.854   1.888  1.8659  0.6621  1.3758
 8983TIP3    H226914   1.955   6.729   1.961 -0.3844  1.1367  0.8957
 8984TIP3   OH226915   2.900   6.700   2.053  0.7061  0.1082  0.0633
 8984TIP3    H126916   2.902   6.783   2.006 -1.2780 -0.1792 -0.6244
 8984TIP3    H226917   2.978   6.701   2.108  0.4137  2.7253  0.5501
 8985TIP3   OH226918   2.732   0.931   1.876 -0.0674 -0.0118  0.1857
 8985TIP3    H126919   2.798   0.962   1.937  1.1161  1.5511 -1.7580
 8985TIP3    H226920   2.780   0.875   1.815 -1.3356 -2.0411  0.9757
 8986TIP3   OH226921   6.884   2.066   4.725 -0.0450  0.9498  0.3455
 8986TIP3    H126922   6.916   1.986   4.684 -0.9066 -0.3187  2.0100
 8986TIP3    H226923   6.853   2.120   4.652  1.1319  0.0482 -0.8650
 8987TIP3   OH226924   5.118   6.283   2.053 -0.1278  0.1687  0.4367
 8987TIP3    H126925   5.093   6.351   2.116 -1.1591  0.5653 -0.3827
 8987TIP3    H226926   5.173   6.329   1.990 -2.1307  0.6815 -1.0355
 8988TIP3   OH226927   3.805   6.608   3.680 -0.5551  0.0065 -0.0160
 8988TIP3    H126928   3.756   6.578   3.757  2.1191 -2.7869  0.8197
 8988TIP3    H226929   3.885   6.647   3.716  0.2944 -0.4483 -1.3362
 8989TIP3   OH226930   1.065   3.924   5.802  0.0675  0.2284 -0.2572
 8989TIP3    H126931   1.003   3.891   5.737  0.9659 -0.6100 -0.7208
 8989TIP3    H226932   1.112   3.994   5.756 -0.8795  1.2333  0.2692
 8990TIP3   OH226933   3.958   4.717   1.063  0.1063  0.4770 -0.5061
 8990TIP3    H126934   3.909   4.645   1.023  2.1239 -0.8886 -0.6469
 8990TIP3    H226935   3.928   4.718   1.154 -1.4944  0.8907 -1.0172
 8991TIP3   OH226936   5.995   4.109   1.394 -0.3708 -0.5695  0.4034
 8991TIP3    H126937   5.917   4.158   1.369  0.0837 -0.8440 -1.7740
 8991TIP3    H226938   6.067   4.155   1.351  0.4895 -1.1654  1.1653
 8992TIP3   OH226939   5.755   5.774   4.366  0.1788  0.3683  1.1492
 8992TIP3    H126940   5.762   5.689   4.408 -0.7773 -0.3980 -0.1826
 8992TIP3    H226941   5.669   5.773   4.323  0.5750  1.6034  0.2651
 8993TIP3   OH226942   5.925   3.269   2.735 -0.0069 -0.0971  0.0504
 8993TIP3    H126943   6.004   3.300   2.692  0.0035 -1.1491 -0.7266
 8993TIP3    H226944   5.943   3.280   2.829  1.2619 -0.7679 -0.0941
 8994TIP3   OH226945   0.334   3.815   0.288  0.0882 -0.5626  0.5635
 8994TIP3    H126946   0.393   3.887   0.266 -0.9969  0.6351  1.4479
 8994TIP3    H226947   0.375   3.738   0.248  1.7072  0.3883  0.2934
 8995TIP3   OH226948   6.554   5.987   1.054 -0.5152  0.6449 -0.5079
 8995TIP3    H126949   6.509   6.061   1.095 -0.4553 -1.2812  3.5651
 8995TIP3    H226950   6.486   5.919   1.046  0.6456 -0.9490  1.9842
 8996TIP3   OH226951   3.628   5.600   4.663  0.7049 -0.0459 -0.2478
 8996TIP3    H126952   3.700   5.611   4.602  0.3347  0.6060 -0.5738
 8996TIP3    H226953   3.550   5.594   4.608  0.4911 -0.6477  0.1066
 8997TIP3   OH226954   6.758   0.233   4.066  0.3522  0.3264 -0.4969
 8997TIP3    H126955   6.785   0.141   4.072 -0.4613  0.1615  1.3620
 8997TIP3    H226956   6.735   0.246   3.975  0.3573 -1.3576 -0.7625
 8998TIP3   OH226957   4.899   2.281   4.856  0.0512 -0.0637  0.2501
 8998TIP3    H126958   4.829   2.323   4.906  0.6859  1.7587 -0.3073
 8998TIP3    H226959   4.973   2.342   4.862  0.7191 -0.6438 -1.3927
 8999TIP3   OH226960   2.817   6.017   2.568 -0.4703 -0.4392  0.1772
 8999TIP3    H126961   2.897   5.987   2.612  0.9937  3.2805  0.4504
 8999TIP3    H226962   2.766   6.059   2.638 -1.9931 -1.3682 -0.3080
 9000TIP3   OH226963   1.904   5.738   5.384 -0.2661 -0.0653  0.1538
 9000TIP3    H126964   1.963   5.693   5.446 -2.8176  0.1112  2.9104
 9000TIP3    H226965   1.853   5.797   5.438 -1.5498  1.3566 -2.4468
 9001TIP3   OH226966   4.244   4.644   5.810  0.1308 -0.1262  0.0722
 9001TIP3    H126967   4.172   4.705   5.793  0.7612  0.2401 -1.5316
 9001TIP3    H226968   4.211   4.559   5.781  0.3628  0.0657 -0.7923
 9002TIP3   OH226969   5.818   0.094   1.129 -0.0764  0.3587 -0.5665
 9002TIP3    H126970   5.745   0.134   1.083 -0.6580 -1.8152 -1.6814
 9002TIP3    H226971   5.834   0.012   1.082  1.2189 -0.5974  1.3800
 9003TIP3   OH226972   3.764   5.111   1.394 -0.5166  0.0374  0.1293
 9003TIP3    H126973   3.681   5.099   1.348 -0.6971  1.9796 -0.1398
 9003TIP3    H226974   3.772   5.206   1.404  1.9247 -0.0708 -0.3191
 9004TIP3   OH226975   2.717   1.700   5.603 -0.3535  0.4387 -0.0558
 9004TIP3    H126976   2.681   1.788   5.594 -0.5885  0.5670  1.7447
 9004TIP3    H226977   2.655   1.644   5.557 -1.0131  1.0386  0.0855
 9005TIP3   OH226978   5.944   0.667   1.330 -0.3055  0.4801 -0.2152
 9005TIP3    H126979   5.927   0.638   1.420 -0.9866  0.7658 -0.2527
 9005TIP3    H226980   6.039   0.658   1.321 -0.3757 -0.8780  0.0682
 9006TIP3   OH226981   6.116   1.945   4.513 -0.5581  0.2296  0.1368
 9006TIP3    H126982   6.189   1.903   4.467  1.1884  2.8014  0.3224
 9006TIP3    H226983   6.038   1.919   4.463  0.6171 -1.4927 -0.9246
 9007TIP3   OH226984   4.422   2.440   0.629  0.2843  0.1271  0.4917
 9007TIP3    H126985   4.509   2.417   0.595 -0.5457 -2.3980 -0.1325
 9007TIP3    H226986   4.431   2.432   0.724  0.4936 -1.3269  0.3841
 9008TIP3   OH226987   2.054   2.077   2.090 -0.3558  0.5741  0.2588
 9008TIP3    H126988   2.040   2.027   2.011  1.8580  0.9366 -0.4350
 9008TIP3    H226989   1.978   2.135   2.096 -0.4570  0.7077 -1.7377
 9009TIP3   OH226990   7.137   4.059   3.423  0.7209 -0.6147  0.5901
 9009TIP3    H126991   7.047   4.058   3.455  0.7574 -0.9412  0.6862
 9009TIP3    H226992   7.155   4.151   3.405 -0.3046 -0.7650 -1.3837
 9010TIP3   OH226993   5.546   4.122   2.329 -0.2725  0.3937  0.3208
 9010TIP3    H126994   5.503   4.065   2.266 -0.2012  0.8784 -0.1647
 9010TIP3    H226995   5.532   4.078   2.414 -4.3049  1.9399  0.6701
 9011TIP3   OH226996   5.535   3.021   4.246 -0.0401 -0.0742  0.2420
 9011TIP3    H126997   5.526   3.086   4.315 -0.7703 -0.0421  0.1244
 9011TIP3    H226998   5.595   3.061   4.183  0.4021  0.0148  0.7133
 9012TIP3   OH226999   7.072   4.613   2.945 -0.1557 -0.3205 -0.2257
 9012TIP3    H127000   6.997   4.648   2.994  0.6818 -0.0856  0.9359
 9012TIP3    H227001   7.142   4.676   2.961  1.0151 -1.8206  0.8525
 9013TIP3   OH227002   1.049   4.791   2.120 -0.5323  0.2191 -0.1283
 9013TIP3    H127003   1.062   4.761   2.030 -0.0555  2.2372 -0.7770
 9013TIP3    H227004   0.963   4.755   2.145  0.6321 -2.9823 -0.1904
 9014TIP3   OH227005   4.771   6.054   4.037 -0.9742 -0.4919  0.7642
 9014TIP3    H127006   4.700   6.101   3.994 -1.4871 -0.5989  1.4784
 9014TIP3    H227007   4.803   5.993   3.970 -0.6867  0.4408  0.0266
 9015TIP3   OH227008   1.748   3.461   0.968  0.1518 -0.3348  0.3547
 9015TIP3    H127009   1.775   3.392   0.907  1.6943 -0.5085  1.1822
 9015TIP3    H227010   1.652   3.454   0.971 -0.0261 -0.1390 -2.2156
 9016TIP3   OH227011   2.941   1.512   0.331 -0.4490  0.0513  0.3714
 9016TIP3    H127012   2.980   1.566   0.400 -1.2908 -0.5449  1.3521
 9016TIP3    H227013   2.891   1.574   0.278 -1.9225  0.2040  1.8517
 9017TIP3   OH227014   6.462   6.234   1.422 -0.1792 -0.3190  0.2856
 9017TIP3    H127015   6.424   6.150   1.450 -2.0719  0.0447 -1.0149
 9017TIP3    H227016   6.442   6.239   1.329  1.6155  0.7359 -0.0771
 9018TIP3   OH227017   6.718   5.607   0.961  0.2929 -0.0218  0.3565
 9018TIP3    H127018   6.714   5.654   0.877 -2.3885 -0.3391  0.2045
 9018TIP3    H227019   6.693   5.673   1.026 -0.8203 -0.5327  0.4704
 9019TIP3   OH227020   3.401   3.847   5.814  0.5319 -0.1297  1.0106
 9019TIP3    H127021   3.496   3.858   5.818  0.6273  0.6712 -1.8221
 9019TIP3    H227022   3.366   3.930   5.847  0.8603  0.2955  0.2972
 9020TIP3   OH227023   2.869   4.972   0.754  0.4345  0.0311 -0.2053
 9020TIP3    H127024   2.783   4.933   0.735  0.5008 -0.2617  0.0799
 9020TIP3    H227025   2.850   5.064   0.773 -0.0311 -0.3848  1.4805
 9021TIP3   OH227026   7.227   1.219   4.476  0.4482  0.1777 -0.4227
 9021TIP3    H127027   7.183   1.270   4.543 -0.9597 -0.6338 -0.6731
 9021TIP3    H227028   7.241   1.280   4.403 -1.4061  0.1897 -0.8079
 9022TIP3   OH227029   6.126   3.595   3.863  0.4099  0.5203 -0.1643
 9022TIP3    H127030   6.074   3.649   3.804  0.1287 -0.0327 -0.4237
 9022TIP3    H227031   6.213   3.591   3.822  0.1661 -0.0143 -0.6419
 9023TIP3   OH227032   0.887   1.755   2.874  0.4298 -0.0505  0.1657
 9023TIP3    H127033   0.872   1.784   2.784  0.8854  0.1350  0.1437
 9023TIP3    H227034   0.978   1.724   2.873 -0.1479 -1.8157  0.1054
 9024TIP3   OH227035   6.968   2.143   5.878  0.6520 -0.8767 -0.0107
 9024TIP3    H127036   6.905   2.072   5.886 -1.9422  1.2479  0.0140
 9024TIP3    H227037   6.956   2.176   5.789  1.3191 -0.0550  0.1874
 9025TIP3   OH227038   5.706   5.558   4.065  0.1967  0.5784  0.8248
 9025TIP3    H127039   5.789   5.597   4.093 -0.1039  1.3523  0.6876
 9025TIP3    H227040   5.700   5.476   4.113  1.8456 -0.3251 -0.4428
 9026TIP3   OH227041   3.522   4.188   3.296 -0.4435 -0.0847  0.5829
 9026TIP3    H127042   3.514   4.094   3.286  0.2886 -0.2014  0.9504
 9026TIP3    H227043   3.571   4.199   3.378  0.7543  0.5570 -0.1820
 9027TIP3   OH227044   3.460   6.709   1.594  0.5971 -0.1942 -0.0796
 9027TIP3    H127045   3.366   6.696   1.606  0.5784  1.3286  2.3129
 9027TIP3    H227046   3.470   6.732   1.502 -1.4352 -0.0626 -0.3112
 9028TIP3   OH227047   0.548   3.837   1.328  0.0386 -0.6237 -0.0820
 9028TIP3    H127048   0.513   3.812   1.414  0.5706 -3.8907 -0.6686
 9028TIP3    H227049   0.475   3.881   1.284 -1.2223 -1.4935  1.0444
 9029TIP3   OH227050   4.010   0.934   2.534 -0.2085  0.3496  0.3718
 9029TIP3    H127051   3.943   0.875   2.568  0.2278 -0.0711  0.5133
 9029TIP3    H227052   3.965   0.985   2.467 -0.3946 -0.7188 -0.3478
 9030TIP3   OH227053   6.535   6.207   4.582  0.1034 -0.1269 -0.1312
 9030TIP3    H127054   6.543   6.150   4.506  3.1832  0.7762 -0.6198
 9030TIP3    H227055   6.559   6.151   4.656 -0.3829 -0.3616 -0.1499
 9031TIP3   OH227056   7.159   3.833   1.951 -0.0927  0.3886  0.3332
 9031TIP3    H127057   7.085   3.894   1.944 -1.2951 -0.9623  0.7033
 9031TIP3    H227058   7.195   3.850   2.038  1.0463  2.1005 -0.4136
 9032TIP3   OH227059   1.724   2.490   3.156 -0.6599 -0.1569  0.5620
 9032TIP3    H127060   1.756   2.536   3.234 -0.7514  0.1489  0.4184
 9032TIP3    H227061   1.729   2.397   3.180  1.6560 -0.2168  0.0810
 9033TIP3   OH227062   1.093   2.699   4.488 -0.1921  0.0089  0.7426
 9033TIP3    H127063   1.045   2.764   4.538  0.5600 -0.4911  2.1867
 9033TIP3    H227064   1.027   2.635   4.462 -0.4746 -0.1773  1.8779
 9034TIP3   OH227065   2.173   4.338   0.056 -0.3030  0.2104  0.1362
 9034TIP3    H127066   2.099   4.356  -0.001 -0.4826 -2.4214 -0.5939
 9034TIP3    H227067   2.191   4.244   0.044  2.1184  0.3995  1.4982
 9035TIP3   OH227068   7.122   0.569   5.139  0.0892  0.7212  0.2179
 9035TIP3    H127069   7.154   0.517   5.065  1.3075  0.8568  0.6253
 9035TIP3    H227070   7.139   0.660   5.114  0.7859  0.7562  0.7620
 9036TIP3   OH227071   5.216   0.472   4.202 -0.1787 -0.4791  0.6302
 9036TIP3    H127072   5.189   0.530   4.273  0.2171 -0.5597  0.8481
 9036TIP3    H227073   5.241   0.531   4.131 -2.3375 -0.3990 -0.1306
 9037TIP3   OH227074   4.211   4.090   0.577 -0.2797  0.2602 -0.2744
 9037TIP3    H127075   4.152   4.089   0.651  0.5867  1.7819  0.4798
 9037TIP3    H227076   4.226   4.183   0.558  1.1753 -0.0764 -0.9823
 9038TIP3   OH227077   5.426   5.939   2.727  0.5598  0.1734  0.3439
 9038TIP3    H127078   5.504   5.991   2.745 -0.1055  1.9057 -1.3718
 9038TIP3    H227079   5.357   5.980   2.778  0.0265  1.0628 -1.0269
 9039TIP3   OH227080   5.991   1.519   0.877 -0.5286 -0.0541  0.0948
 9039TIP3    H127081   5.919   1.582   0.872 -1.6356 -1.3229 -0.3226
 9039TIP3    H227082   6.002   1.502   0.970 -0.5541  0.3612  0.1787
 9040TIP3   OH227083   3.022   4.025   2.170 -0.7463 -0.3728 -0.0491
 9040TIP3    H127084   3.085   3.979   2.114 -1.3534 -2.4156  0.8521
 9040TIP3    H227085   3.076   4.081   2.226  0.1016 -0.6093 -0.6092
 9041TIP3   OH227086   4.062   6.475   4.749 -0.2786  0.3275  0.0845
 9041TIP3    H127087   3.982   6.499   4.797 -0.8467 -2.0696  0.4583
 9041TIP3    H227088   4.031   6.437   4.667  0.5755  0.9665 -0.5600
 9042TIP3   OH227089   5.703   1.274   2.485  0.2351  0.0176 -0.6769
 9042TIP3    H127090   5.673   1.344   2.543  0.3356 -0.1831 -0.3799
 9042TIP3    H227091   5.794   1.259   2.511 -0.6407 -2.3391  1.4107
 9043TIP3   OH227092   5.085   1.822   4.510  0.0554  0.4122  0.1793
 9043TIP3    H127093   5.016   1.875   4.470  0.9304  1.5979  0.1608
 9043TIP3    H227094   5.052   1.803   4.598 -0.6492  0.2397 -0.1142
 9044TIP3   OH227095   7.171   2.275   2.483  0.5392  0.2185  0.5387
 9044TIP3    H127096   7.139   2.211   2.420  0.7473  0.0983  0.5533
 9044TIP3    H227097   7.263   2.286   2.461  0.5570  0.3474  0.6778
 9045TIP3   OH227098   1.632   5.160   0.307  0.0893 -0.0934 -0.4638
 9045TIP3    H127099   1.658   5.172   0.215  1.8386 -0.1755  0.0001
 9045TIP3    H227100   1.537   5.173   0.306 -0.0610 -0.9420 -2.4261
 9046TIP3   OH227101   6.492   4.152   2.906 -0.4829  0.0288 -0.3690
 9046TIP3    H127102   6.587   4.141   2.910 -0.5602 -0.6822 -0.2183
 9046TIP3    H227103   6.458   4.090   2.972 -1.0673 -0.0696 -0.7475
 9047TIP3   OH227104   7.209   3.822   2.246 -0.3934  0.0995 -0.1741
 9047TIP3    H127105   7.125   3.818   2.292 -1.3148  1.8954 -1.5623
 9047TIP3    H227106   7.260   3.888   2.293 -0.2772 -0.0423 -0.1017
 9048TIP3   OH227107   0.609   5.048   5.140  0.8144 -0.1259 -0.0799
 9048TIP3    H127108   0.522   5.009   5.130 -0.2330  2.2386 -0.8385
 9048TIP3    H227109   0.614   5.071   5.233  0.7330 -0.4957  0.0169
 9049TIP3   OH227110   4.488   2.037   3.860 -0.6232 -0.0579  0.6310
 9049TIP3    H127111   4.429   2.056   3.787 -2.0241 -1.7188  1.2497
 9049TIP3    H227112   4.459   2.097   3.930 -1.1929 -0.4388  0.7295
 9050TIP3   OH227113   5.289   6.261   5.318 -0.3488 -0.2426  0.7716
 9050TIP3    H127114   5.363   6.235   5.264  0.4165  0.2177  1.5604
 9050TIP3    H227115   5.277   6.354   5.299 -0.6017 -0.2742  0.7791
 9051TIP3   OH227116   4.982   1.551   1.830  0.4460  0.2169  0.3764
 9051TIP3    H127117   5.046   1.492   1.869 -1.3194 -0.7063  2.0353
 9051TIP3    H227118   5.000   1.636   1.870  2.2350  0.6495 -1.1469
 9052TIP3   OH227119   1.486   3.157   1.161  0.7390 -0.0015  0.2777
 9052TIP3    H127120   1.436   3.093   1.110  0.2544 -0.6301  1.5064
 9052TIP3    H227121   1.424   3.189   1.227  1.0286  1.6110 -0.1739
 9053TIP3   OH227122   7.004   5.637   5.037  0.1304 -0.2663  0.1345
 9053TIP3    H127123   7.032   5.604   5.122 -0.1509 -0.2711  0.2252
 9053TIP3    H227124   6.936   5.577   5.008  0.5250 -0.5106 -0.2913
 9054TIP3   OH227125   6.345   4.699   4.649  0.0346  0.2592  0.2363
 9054TIP3    H127126   6.391   4.753   4.584  1.6889 -1.4784 -0.1599
 9054TIP3    H227127   6.349   4.750   4.730 -0.9949  1.9421 -0.7302
 9055TIP3   OH227128   3.313   4.474   1.591 -0.0831  0.6623 -0.6252
 9055TIP3    H127129   3.329   4.511   1.504 -0.1304  1.3412 -0.3496
 9055TIP3    H227130   3.364   4.394   1.593  1.8100  1.8161 -0.4544
 9056TIP3   OH227131   6.767   1.079   2.164 -0.0670  0.0898  0.2448
 9056TIP3    H127132   6.672   1.088   2.166 -0.1268 -0.3444 -0.2160
 9056TIP3    H227133   6.784   0.996   2.208 -0.0741 -0.8265 -1.3944
 9057TIP3   OH227134   3.286   4.919   5.032  0.0817  0.0779  0.0383
 9057TIP3    H127135   3.262   5.011   5.046 -0.1739  0.0836 -0.4253
 9057TIP3    H227136   3.341   4.897   5.107 -1.3424  0.0739  1.1209
 9058TIP3   OH227137   5.831   0.417   5.550 -0.4074 -0.4718  0.1089
 9058TIP3    H127138   5.748   0.405   5.502 -0.0003  0.1841 -0.7865
 9058TIP3    H227139   5.804   0.454   5.634 -1.0765 -0.8546  0.0720
 9059TIP3   OH227140   0.474   6.128   3.085  0.0454  0.1463  0.2083
 9059TIP3    H127141   0.434   6.209   3.115  1.5652  0.3204  1.9441
 9059TIP3    H227142   0.523   6.152   3.006 -1.1557  0.4418 -0.4739
 9060TIP3   OH227143   2.086   6.311   1.037  0.2602 -0.4158 -1.0109
 9060TIP3    H127144   2.008   6.261   1.011 -0.3075 -0.4652  0.6347
 9060TIP3    H227145   2.142   6.247   1.080  0.1913  0.0568 -0.2011
 9061TIP3   OH227146   0.035   0.940   4.434  0.1820 -0.3677 -0.1243
 9061TIP3    H127147   0.085   0.940   4.353 -0.8314  1.2925 -0.8033
 9061TIP3    H227148   0.008   1.031   4.446 -2.4750 -1.1211  0.3198
 9062TIP3   OH227149   4.904   5.636   5.589  0.2974 -0.1133 -0.1617
 9062TIP3    H127150   4.956   5.579   5.646 -0.6914 -1.6501 -0.7265
 9062TIP3    H227151   4.898   5.588   5.506 -0.3725  0.9325 -0.7429
 9063TIP3   OH227152   3.712   2.764   1.724  0.4241 -0.4083  0.0359
 9063TIP3    H127153   3.757   2.681   1.735  1.4095 -0.3665 -2.8555
 9063TIP3    H227154   3.777   2.830   1.747  1.2780 -0.3993 -2.1853
 9064TIP3   OH227155   2.170   2.284   5.610 -0.0259 -0.6138 -0.1167
 9064TIP3    H127156   2.152   2.315   5.698  0.7318 -1.1140  0.2216
 9064TIP3    H227157   2.205   2.196   5.621  2.1069  0.0863 -0.7363
 9065TIP3   OH227158   5.461   2.484   1.055  0.8590 -0.6566  0.1800
 9065TIP3    H127159   5.386   2.540   1.075  1.1373 -0.3049  0.2350
 9065TIP3    H227160   5.486   2.509   0.966  0.9629 -0.7187  0.1927
 9066TIP3   OH227161   1.425   0.926   2.671 -0.0464 -0.7266  0.3979
 9066TIP3    H127162   1.450   0.844   2.630 -1.8185 -1.2143  0.2046
 9066TIP3    H227163   1.362   0.901   2.740 -2.9875  0.5821 -1.6040
 9067TIP3   OH227164   1.236   2.747   4.711 -0.1415  0.1975 -0.0860
 9067TIP3    H127165   1.212   2.721   4.622  2.5946 -0.9836 -0.5909
 9067TIP3    H227166   1.244   2.664   4.759 -2.4487  0.8479  1.5950
 9068TIP3   OH227167   4.015   1.745   1.762  0.3844  0.0510 -0.4159
 9068TIP3    H127168   3.994   1.767   1.853 -0.1462  1.6546 -0.8922
 9068TIP3    H227169   3.997   1.826   1.713  2.0436 -0.3297 -1.7463
 9069TIP3   OH227170   3.460   1.795   2.675 -0.4102  0.2092 -0.1450
 9069TIP3    H127171   3.513   1.858   2.628 -1.3280  0.0036 -1.4976
 9069TIP3    H227172   3.523   1.745   2.727  0.7206  0.0193 -1.6445
 9070TIP3   OH227173   2.644   6.681   3.301 -0.0613 -0.0671  0.0537
 9070TIP3    H127174   2.644   6.770   3.268 -0.8762  0.1577  0.6229
 9070TIP3    H227175   2.639   6.626   3.222  0.6162  0.3723 -0.3042
 9071TIP3   OH227176   5.992   4.677   5.714  0.3136 -0.0659 -0.8120
 9071TIP3    H127177   5.963   4.626   5.638  1.9388 -0.8733 -0.9473
 9071TIP3    H227178   6.066   4.627   5.748  0.5536  1.0829  0.4042
 9072TIP3   OH227179   2.902   1.494   1.861  0.3395  0.0630  0.7829
 9072TIP3    H127180   2.841   1.516   1.931 -0.4809  1.2695 -0.2566
 9072TIP3    H227181   2.846   1.460   1.791  0.5917  2.4460 -0.7148
 9073TIP3   OH227182   1.197   6.459   1.897 -0.0012  0.6033  0.0991
 9073TIP3    H127183   1.120   6.462   1.841 -0.4283 -0.4045  0.5959
 9073TIP3    H227184   1.192   6.373   1.939  1.4383  0.4911  0.0822
 9074TIP3   OH227185   3.113   6.228   1.153  0.3656  0.0562  0.0776
 9074TIP3    H127186   3.043   6.164   1.162  0.3469 -0.1711 -1.4328
 9074TIP3    H227187   3.126   6.236   1.059  3.4876 -1.1269  0.2871
 9075TIP3   OH227188   2.120   2.550   0.251  0.3803  0.1870  0.1403
 9075TIP3    H127189   2.212   2.556   0.225  0.2065  0.4831 -0.4484
 9075TIP3    H227190   2.113   2.466   0.297  1.1022  0.5278  0.8805
 9076TIP3   OH227191   3.436   1.668   0.214 -0.1638  0.0110  0.0006
 9076TIP3    H127192   3.347   1.699   0.230 -0.3098  0.2806 -1.2875
 9076TIP3    H227193   3.426   1.575   0.195 -0.2727  0.2165 -0.9772
 9077TIP3   OH227194   4.637   3.166   5.502  0.4870 -0.4107  0.1039
 9077TIP3    H127195   4.601   3.199   5.584  1.0181  0.5471 -0.0391
 9077TIP3    H227196   4.600   3.078   5.493  0.5594 -0.6016  1.4568
 9078TIP3   OH227197   1.108   3.768   4.615 -0.0685 -0.0355  0.3981
 9078TIP3    H127198   1.096   3.705   4.686 -0.1240  0.2801  0.6729
 9078TIP3    H227199   1.193   3.808   4.633 -0.1091  0.0861  0.3201
 9079TIP3   OH227200   6.207   6.687   3.559  0.5844  0.6971 -0.5587
 9079TIP3    H127201   6.214   6.616   3.495  3.7225  1.4645 -1.2127
 9079TIP3    H227202   6.234   6.765   3.512  0.0805  1.8284  0.9397
 9080TIP3   OH227203   6.245   4.097   0.971  0.0028 -0.1918 -0.4034
 9080TIP3    H127204   6.340   4.093   0.986  0.0141 -0.9340 -0.6262
 9080TIP3    H227205   6.210   4.023   1.021 -1.0839  2.8926  3.9477
 9081TIP3   OH227206   2.777   4.512   5.752  0.3706 -0.0110 -0.1356
 9081TIP3    H127207   2.754   4.565   5.676 -0.5397  0.0980  0.2008
 9081TIP3    H227208   2.693   4.490   5.793  0.8472  0.2111  1.0180
 9082TIP3   OH227209   1.274   0.505   0.893  0.1361  0.3549  0.0643
 9082TIP3    H127210   1.213   0.503   0.819 -0.5597 -0.1664  0.6377
 9082TIP3    H227211   1.306   0.416   0.900 -0.0033  0.3404  0.5498
 9083TIP3   OH227212   6.858   5.392   3.814 -0.1512  0.0377 -0.1440
 9083TIP3    H127213   6.933   5.338   3.839  0.0006 -0.4982 -1.6500
 9083TIP3    H227214   6.887   5.482   3.829  0.4393 -0.2050  0.2074
 9084TIP3   OH227215   0.902   6.733   2.522 -0.5367  0.2332  0.0882
 9084TIP3    H127216   0.946   6.719   2.606  0.7183 -2.6337 -0.9215
 9084TIP3    H227217   0.815   6.694   2.534  0.0477 -1.2195 -0.2390
 9085TIP3   OH227218   5.515   2.429   2.182 -0.3633  0.6863 -0.3937
 9085TIP3    H127219   5.478   2.458   2.266  0.1582  0.3935 -0.0525
 9085TIP3    H227220   5.458   2.467   2.116 -1.7262 -0.3466  0.1281
 9086TIP3   OH227221   6.344   5.844   5.667  0.2217 -0.7838 -0.0634
 9086TIP3    H127222   6.435   5.816   5.656  0.3508 -0.5291  0.3422
 9086TIP3    H227223   6.301   5.768   5.707  0.6244 -0.3456  1.2491
 9087TIP3   OH227224   4.389   3.242   4.332 -0.1038  0.5488  0.5938
 9087TIP3    H127225   4.406   3.247   4.237 -1.6419 -2.3966  0.0685
 9087TIP3    H227226   4.360   3.331   4.355  3.3856  2.2859 -0.9214
 9088TIP3   OH227227   4.611   2.744   2.337 -0.1958  0.4751  0.3965
 9088TIP3    H127228   4.668   2.722   2.263 -1.7353  0.7959 -0.9486
 9088TIP3    H227229   4.546   2.674   2.340  0.9607 -0.6163  2.7654
 9089TIP3   OH227230   0.583   4.431   2.841 -0.3992  0.0802 -0.0465
 9089TIP3    H127231   0.585   4.374   2.764 -1.9628 -0.1907  0.0890
 9089TIP3    H227232   0.633   4.508   2.815 -0.6365 -0.1455 -1.2272
 9090TIP3   OH227233   0.978   1.792   4.160 -0.2046 -0.2496 -0.2995
 9090TIP3    H127234   0.990   1.834   4.245 -0.2622  0.6427 -0.7212
 9090TIP3    H227235   0.973   1.698   4.180  1.0466 -0.1631  0.5454
 9091TIP3   OH227236   3.266   0.080   4.773  0.1322 -0.5193 -0.3325
 9091TIP3    H127237   3.350   0.101   4.734 -1.0761  2.2596 -1.6880
 9091TIP3    H227238   3.247   0.152   4.832 -1.4641 -0.8784 -0.3381
 9092TIP3   OH227239   5.976   4.707   3.544 -0.5931 -0.2051 -0.0236
 9092TIP3    H127240   6.022   4.708   3.460 -0.2789  0.0508  0.1492
 9092TIP3    H227241   6.029   4.649   3.599  0.8272  1.8252  0.8856
 9093TIP3   OH227242   0.850   5.355   5.573 -0.6460  0.4059 -0.2664
 9093TIP3    H127243   0.878   5.265   5.556 -1.4148  0.4576 -2.0529
 9093TIP3    H227244   0.924   5.408   5.546 -0.7096  0.3553 -0.5474
 9094TIP3   OH227245   5.762   2.016   5.577  0.4932 -0.0135 -0.2142
 9094TIP3    H127246   5.724   1.957   5.642  1.0806  1.2380  1.3349
 9094TIP3    H227247   5.770   1.963   5.498  0.8363 -1.9409  1.0584
 9095TIP3   OH227248   2.647   5.593   1.603 -0.0494  1.0476 -0.1944
 9095TIP3    H127249   2.729   5.558   1.568 -0.4693  0.2723 -0.4402
 9095TIP3    H227250   2.669   5.622   1.692  0.4985  0.8792 -0.2732
 9096TIP3   OH227251   7.227   2.608   0.846  0.3175  0.1950 -0.7369
 9096TIP3    H127252   7.205   2.550   0.772  0.9646 -0.8382 -0.1489
 9096TIP3    H227253   7.158   2.592   0.910  0.5838 -0.0479 -0.5095
 9097TIP3   OH227254   5.071   3.299   4.322 -0.3621  0.4206  0.1452
 9097TIP3    H127255   5.035   3.211   4.311  0.4494  0.0765  0.1590
 9097TIP3    H227256   5.042   3.346   4.244 -0.5571  0.0531 -0.0073
 9098TIP3   OH227257   6.486   0.555   3.777 -0.0632 -0.5735 -0.1889
 9098TIP3    H127258   6.441   0.507   3.846 -1.7980  2.5250  1.0622
 9098TIP3    H227259   6.441   0.528   3.696 -1.5135 -0.5201  0.5590
 9099TIP3   OH227260   4.043   3.483   0.517 -0.1529  0.2880 -0.0550
 9099TIP3    H127261   3.964   3.486   0.571  0.7277  3.5778  1.2726
 9099TIP3    H227262   4.115   3.472   0.580  0.7208  1.5397 -0.7934
 9100TIP3   OH227263   2.584   3.858   5.304 -0.1985  0.1692 -0.0297
 9100TIP3    H127264   2.508   3.859   5.246 -1.4001  2.2362  1.4431
 9100TIP3    H227265   2.553   3.901   5.384  2.5955  1.3760  0.5032
 9101TIP3   OH227266   3.433   5.930   1.467 -0.1864 -0.1279 -0.0455
 9101TIP3    H127267   3.524   5.959   1.472  0.5689 -2.3170 -0.0084
 9101TIP3    H227268   3.387   6.003   1.425  1.6216  0.9177 -0.3299
 9102TIP3   OH227269   6.187   1.069   5.296 -0.2283  0.0118 -0.1182
 9102TIP3    H127270   6.267   1.028   5.330 -1.1099 -2.1103 -0.4489
 9102TIP3    H227271   6.123   1.057   5.366 -0.5783  0.7033 -0.3063
 9103TIP3   OH227272   5.057   4.129   3.679  0.1762  0.1419  0.3322
 9103TIP3    H127273   5.145   4.093   3.671  0.3989  0.2741  1.8673
 9103TIP3    H227274   5.068   4.223   3.666 -0.5835 -0.1954 -4.9826
 9104TIP3   OH227275   4.735   5.461   1.356  0.2364 -0.0010  0.4519
 9104TIP3    H127276   4.678   5.537   1.344  1.9862  1.2037 -0.9200
 9104TIP3    H227277   4.790   5.461   1.278  0.4389 -2.5941  0.5340
 9105TIP3   OH227278   5.812   0.954   0.418 -0.0415 -0.2943  0.0273
 9105TIP3    H127279   5.827   1.016   0.489  1.5444 -0.4917 -0.0995
 9105TIP3    H227280   5.846   0.871   0.451  0.9216 -0.3393 -1.0368
 9106TIP3   OH227281   4.457   0.774   2.375 -0.5186  0.3676  0.0288
 9106TIP3    H127282   4.536   0.728   2.346 -0.1606  0.6245  0.5908
 9106TIP3    H227283   4.415   0.713   2.436  0.7271  1.3336  1.9401
 9107TIP3   OH227284   6.336   3.888   1.898 -0.0923  0.0091 -0.5983
 9107TIP3    H127285   6.313   3.797   1.880  0.0784 -0.1738  0.0834
 9107TIP3    H227286   6.278   3.914   1.971 -0.3895  0.5556 -1.0198
 9108TIP3   OH227287   2.554   2.879   3.141  0.1714 -0.0576  0.0671
 9108TIP3    H127288   2.630   2.911   3.192  0.2871  1.4164 -0.9664
 9108TIP3    H227289   2.480   2.888   3.201  0.7790 -1.4992  1.0859
 9109TIP3   OH227290   5.870   3.854   0.638 -0.0472 -0.2990 -0.1167
 9109TIP3    H127291   5.879   3.860   0.733  0.5136 -0.7770 -0.1332
 9109TIP3    H227292   5.882   3.761   0.619 -1.9097 -0.5030 -0.4829
 9110TIP3   OH227293   2.839   4.187   0.415 -0.1773  0.0622  0.0704
 9110TIP3    H127294   2.870   4.101   0.443 -0.4607  0.0688  0.4030
 9110TIP3    H227295   2.874   4.197   0.326 -1.4184 -1.0729 -0.5988
 9111TIP3   OH227296   3.780   1.040   5.549 -0.1531 -0.2723  0.1137
 9111TIP3    H127297   3.788   1.006   5.638  0.5469 -0.2648  0.0591
 9111TIP3    H227298   3.703   0.995   5.513 -0.1343 -0.6604  0.5479
 9112TIP3   OH227299   2.096   4.395   2.524 -0.2403  0.2670 -0.0317
 9112TIP3    H127300   2.168   4.441   2.482 -0.7363  0.1214 -1.0853
 9112TIP3    H227301   2.096   4.426   2.615  1.2710  0.0995  0.0514
 9113TIP3   OH227302   1.109   6.754   5.051 -0.5180 -0.4424 -0.3449
 9113TIP3    H127303   1.145   6.810   5.120 -1.4375 -0.8841  0.5079
 9113TIP3    H227304   1.093   6.670   5.094 -0.9941 -0.7604 -1.1319
 9114TIP3   OH227305   0.309   2.203   0.272 -0.5624 -0.2399  0.4798
 9114TIP3    H127306   0.331   2.220   0.180  0.6449  2.7633  1.2135
 9114TIP3    H227307   0.359   2.124   0.294 -0.0459 -0.4100 -1.1628
 9115TIP3   OH227308   2.542   4.971   4.724  0.4169 -0.0208  0.5516
 9115TIP3    H127309   2.454   5.003   4.740  1.0535  1.9313  0.4144
 9115TIP3    H227310   2.543   4.883   4.761 -1.3128  0.2679  1.3690
 9116TIP3   OH227311   3.852   1.686   0.762  0.0272  0.3642  0.2429
 9116TIP3    H127312   3.892   1.722   0.841  0.9553 -0.7259  0.2858
 9116TIP3    H227313   3.804   1.609   0.792 -0.8753  0.8005 -0.0431
 9117TIP3   OH227314   2.286   3.343   1.674 -0.3495  0.2112 -0.1266
 9117TIP3    H127315   2.236   3.407   1.624 -0.3812 -0.7224 -1.3434
 9117TIP3    H227316   2.372   3.342   1.631 -0.3963 -0.6423 -0.2073
 9118TIP3   OH227317   3.289   2.887   3.834  0.4313 -0.3120  0.5835
 9118TIP3    H127318   3.372   2.846   3.856  0.7544  0.9279  1.7916
 9118TIP3    H227319   3.313   2.968   3.790 -0.2022 -1.4484 -2.0981
 9119TIP3   OH227320   1.550   0.501   0.674  0.3598  0.2014 -0.1354
 9119TIP3    H127321   1.595   0.456   0.746 -0.7592  0.4432  0.7500
 9119TIP3    H227322   1.514   0.580   0.714 -0.0496  0.4859 -1.0340
 9120TIP3   OH227323   5.008   1.262   3.092 -0.3402  0.0767  0.3905
 9120TIP3    H127324   4.938   1.205   3.124  1.3161 -1.5286  1.3168
 9120TIP3    H227325   5.087   1.232   3.138  1.2945  0.6959 -1.8399
 9121TIP3   OH227326   1.451   0.644   4.039  0.8186 -0.4048 -0.2846
 9121TIP3    H127327   1.481   0.613   3.953  0.4246  0.0891 -0.6078
 9121TIP3    H227328   1.388   0.578   4.067  0.5103 -0.2683 -0.6468
 9122TIP3   OH227329   5.995   5.658   3.525  0.1777  0.2172 -0.0121
 9122TIP3    H127330   6.081   5.675   3.563  0.1253 -2.6792  1.6744
 9122TIP3    H227331   5.953   5.598   3.586 -2.0028 -0.5487 -2.1050
 9123TIP3   OH227332   0.026   2.162   1.028  0.2571  0.0720  0.1139
 9123TIP3    H127333  -0.059   2.202   1.009  0.4169  0.6550  0.6026
 9123TIP3    H227334   0.054   2.203   1.109  1.9790  1.4479 -1.1240
 9124TIP3   OH227335   5.794   0.981   2.049  0.3207 -0.0357  0.3213
 9124TIP3    H127336   5.886   0.996   2.069  0.2376 -1.4886  2.0074
 9124TIP3    H227337   5.746   1.039   2.109  0.1277 -0.5228  0.6434
 9125TIP3   OH227338   1.353   2.262   1.734 -0.1029 -0.2197 -0.5618
 9125TIP3    H127339   1.398   2.178   1.728  0.9529  0.4097 -2.0944
 9125TIP3    H227340   1.265   2.245   1.701  0.5624 -0.4424 -2.3299
 9126TIP3   OH227341   5.678   6.750   3.152  0.2840  0.2626  0.3667
 9126TIP3    H127342   5.761   6.776   3.113 -0.7523  0.5592 -1.7785
 9126TIP3    H227343   5.648   6.677   3.098 -0.6816 -0.0677  1.3176
 9127TIP3   OH227344   7.201   0.359   1.566 -0.7184  0.1654 -0.2747
 9127TIP3    H127345   7.175   0.305   1.641  3.1055 -0.8599  0.5633
 9127TIP3    H227346   7.192   0.449   1.597  0.7100 -0.2367  1.4918
 9128TIP3   OH227347   0.129   6.169   3.096 -0.5453 -0.0320  0.1573
 9128TIP3    H127348   0.206   6.220   3.120  1.3745 -1.7951 -1.8323
 9128TIP3    H227349   0.157   6.078   3.103 -1.7648 -0.7280 -2.5316
 9129TIP3   OH227350   4.202   3.905   5.180 -0.3075  0.1457 -0.6280
 9129TIP3    H127351   4.180   3.971   5.246  1.7012  0.7045 -0.4426
 9129TIP3    H227352   4.148   3.829   5.203 -0.7888  0.8675  0.7170
 9130TIP3   OH227353   2.794   3.451   4.699  0.4576  0.2004  0.1557
 9130TIP3    H127354   2.763   3.446   4.608 -0.2685 -2.3286  0.4399
 9130TIP3    H227355   2.866   3.513   4.697  0.6070  0.0541 -2.2138
 9131TIP3   OH227356   5.225   6.236   1.086  0.2602  0.5178  0.0559
 9131TIP3    H127357   5.242   6.240   0.992  0.9931 -0.7653  0.1161
 9131TIP3    H227358   5.158   6.303   1.101 -1.6437 -0.8410 -1.7743
 9132TIP3   OH227359   2.399   1.491   1.564  0.0713 -0.5858  0.1176
 9132TIP3    H127360   2.427   1.418   1.509  2.5171 -1.0106  1.7717
 9132TIP3    H227361   2.366   1.556   1.502 -1.0577 -2.5598 -1.4942
 9133TIP3   OH227362   2.005   3.207   1.340 -0.1585  0.2027  0.4728
 9133TIP3    H127363   1.920   3.246   1.359  0.3718  1.9575 -0.5247
 9133TIP3    H227364   1.985   3.131   1.286 -1.1119  0.3985  0.5424
 9134TIP3   OH227365   6.047   6.506   3.916  0.6229 -0.1028  0.1214
 9134TIP3    H127366   6.137   6.477   3.906  1.7481  2.5481  1.5260
 9134TIP3    H227367   6.021   6.476   4.003 -0.9487 -3.2207 -1.2638
 9135TIP3   OH227368   4.563   2.548   4.386  0.4811  0.0003  0.1933
 9135TIP3    H127369   4.587   2.547   4.294  0.1239  0.6458  0.0903
 9135TIP3    H227370   4.469   2.562   4.387 -0.0014 -2.6384  0.5962
 9136TIP3   OH227371   3.509   0.110   4.642  0.0821 -0.0597 -0.0759
 9136TIP3    H127372   3.478   0.057   4.569 -0.5707 -0.2948  0.3596
 9136TIP3    H227373   3.524   0.197   4.605 -0.6753 -0.0575 -0.3919
 9137TIP3   OH227374   0.733   4.670   2.790  0.1749 -0.3543  0.0501
 9137TIP3    H127375   0.816   4.713   2.810  1.0117 -1.5122 -0.7563
 9137TIP3    H227376   0.683   4.737   2.743  1.2534 -0.0763 -0.7669
 9138TIP3   OH227377   1.138   4.760   3.682 -0.0865  0.4492  0.0266
 9138TIP3    H127378   1.058   4.716   3.651  1.3906 -2.7132  0.2656
 9138TIP3    H227379   1.151   4.726   3.770  1.0761  1.5765  0.3128
 9139TIP3   OH227380   1.671   1.660   2.139 -0.2526  0.0576 -0.1230
 9139TIP3    H127381   1.612   1.600   2.184  1.1005 -1.2866 -0.0369
 9139TIP3    H227382   1.621   1.691   2.064 -1.8342  0.7587  1.1600
 9140TIP3   OH227383   1.572   5.344   2.018 -0.1169  0.0204  0.1519
 9140TIP3    H127384   1.486   5.303   2.016  0.8004 -2.2109  1.8425
 9140TIP3    H227385   1.559   5.425   2.069 -1.1394 -0.5126  0.7751
 9141TIP3   OH227386   3.293   0.370   4.873  0.3169 -0.4172  0.7299
 9141TIP3    H127387   3.348   0.324   4.936 -1.1514 -1.6460  1.1873
 9141TIP3    H227388   3.204   0.355   4.904 -0.3440  0.4907 -0.6371
 9142TIP3   OH227389   2.162   6.144   1.421  0.2488 -0.5731 -0.1854
 9142TIP3    H127390   2.242   6.114   1.378  0.4442  0.4836 -0.5830
 9142TIP3    H227391   2.190   6.176   1.507  0.2907 -0.0085 -0.4059
 9143TIP3   OH227392   6.158   3.117   5.839 -0.2504  0.4567 -0.0012
 9143TIP3    H127393   6.239   3.101   5.888 -0.7049 -0.8625  0.3710
 9143TIP3    H227394   6.161   3.210   5.817  1.6941  0.2964 -0.6144
 9144TIP3   OH227395   0.049   1.832   1.843  0.2894  0.1167 -0.6545
 9144TIP3    H127396   0.131   1.785   1.856  0.9036  1.6461  1.4586
 9144TIP3    H227397   0.074   1.912   1.799 -0.0609  0.5479 -0.0840
 9145TIP3   OH227398   4.033   3.274   5.755 -0.3286 -0.3133  0.2287
 9145TIP3    H127399   4.110   3.325   5.730 -0.8758  0.4575  0.0608
 9145TIP3    H227400   3.996   3.321   5.829 -1.4978  0.2144 -0.6543
 9146TIP3   OH227401   6.500   5.023   4.021  1.0077 -0.2585  0.5704
 9146TIP3    H127402   6.465   5.051   4.106 -0.6578 -0.1104 -0.1175
 9146TIP3    H227403   6.595   5.016   4.035  0.7884 -0.1413  2.3989
 9147TIP3   OH227404   6.316   2.237   2.232  0.2047 -0.5730  0.3749
 9147TIP3    H127405   6.337   2.323   2.268  2.9447 -0.2031 -1.6853
 9147TIP3    H227406   6.221   2.233   2.232  0.0103  1.1507  3.3053
 9148TIP3   OH227407   5.196   2.733   5.127 -1.0092 -0.1988  0.6393
 9148TIP3    H127408   5.183   2.827   5.138 -0.4541  0.2520 -1.8790
 9148TIP3    H227409   5.112   2.700   5.095 -0.9638 -0.3939  0.7208
 9149TIP3   OH227410   4.233   2.349   1.394 -0.4356  0.4216  0.8411
 9149TIP3    H127411   4.279   2.293   1.332 -1.3524  0.7562 -0.1629
 9149TIP3    H227412   4.235   2.436   1.354  0.3455  0.9839  2.0435
 9150TIP3   OH227413   4.856   6.359   5.821  0.0868 -0.1128 -0.2072
 9150TIP3    H127414   4.948   6.350   5.846  0.5519  0.1374 -1.7162
 9150TIP3    H227415   4.846   6.298   5.747 -1.0175 -0.2789  0.0647
 9151TIP3   OH227416   4.399   3.382   1.407 -0.3923 -0.3983 -0.1837
 9151TIP3    H127417   4.390   3.290   1.434 -1.0372 -0.2901 -0.0059
 9151TIP3    H227418   4.493   3.394   1.394 -0.1062 -0.6010  1.4873
 9152TIP3   OH227419   3.938   2.527   1.087  0.3279  0.2369 -0.0577
 9152TIP3    H127420   3.946   2.462   1.157  0.5050  0.4135  0.0874
 9152TIP3    H227421   3.860   2.577   1.110  1.0291  1.0296  0.6310
 9153TIP3   OH227422   6.276   6.319   2.109  0.1120  0.2150  0.1849
 9153TIP3    H127423   6.243   6.252   2.169  1.1154 -0.2551  0.2340
 9153TIP3    H227424   6.371   6.306   2.108  0.3764  1.8694  0.4630
 9154TIP3   OH227425   0.395   2.750   0.146 -0.3151 -0.5268 -1.1248
 9154TIP3    H127426   0.367   2.669   0.187  0.6547 -1.3804 -2.0946
 9154TIP3    H227427   0.339   2.817   0.185  0.6402 -1.2360  1.6566
 9155TIP3   OH227428   3.788   1.764   5.877  0.3283  0.2374 -0.7891
 9155TIP3    H127429   3.835   1.839   5.912  0.3739 -0.1290 -0.0607
 9155TIP3    H227430   3.794   1.775   5.782 -0.5826  1.7343 -0.7138
 9156TIP3   OH227431   1.368   1.138   4.935 -0.5711 -0.3469  0.2517
 9156TIP3    H127432   1.376   1.107   5.025 -0.2999  0.5079  0.5232
 9156TIP3    H227433   1.456   1.167   4.911 -0.8432  0.3127  0.0365
 9157TIP3   OH227434   2.952   3.007   5.506  0.0340  0.5282  0.0072
 9157TIP3    H127435   2.986   2.953   5.578 -0.3398  0.5158  0.1769
 9157TIP3    H227436   2.860   2.982   5.499  0.1353  0.3347 -0.6581
 9158TIP3   OH227437   4.110   5.090   2.609 -0.3339  0.1514  0.2318
 9158TIP3    H127438   4.017   5.109   2.597  0.0360  0.9746 -1.5577
 9158TIP3    H227439   4.141   5.065   2.522  2.2205  4.9032 -0.5170
 9159TIP3   OH227440   0.330   4.107   4.323 -0.0265  0.0908 -0.0025
 9159TIP3    H127441   0.363   4.058   4.399  0.3342  0.9977  0.4423
 9159TIP3    H227442   0.347   4.198   4.345  0.8347  0.3282 -1.5392
 9160TIP3   OH227443   0.415   2.857   2.695  0.4824  0.1793 -0.2767
 9160TIP3    H127444   0.462   2.896   2.621  1.6817  1.7830  1.2402
 9160TIP3    H227445   0.345   2.920   2.714 -0.9772 -1.1221 -1.1409
 9161TIP3   OH227446   5.219   4.522   2.528  0.1823 -0.0348  0.5386
 9161TIP3    H127447   5.132   4.558   2.542  0.6891  0.7541  1.8218
 9161TIP3    H227448   5.206   4.427   2.524 -0.7536  0.0923  0.4817
 9162TIP3   OH227449   5.088   0.447   4.647  0.0820  0.2114  0.3875
 9162TIP3    H127450   5.109   0.513   4.713 -2.3296 -0.7285  2.2609
 9162TIP3    H227451   5.069   0.368   4.697  0.7287 -1.3116 -1.6482
 9163TIP3   OH227452   2.247   3.415   5.345 -0.0734 -0.0327 -0.1633
 9163TIP3    H127453   2.162   3.384   5.376  0.3012 -1.1669 -0.2156
 9163TIP3    H227454   2.279   3.473   5.414 -0.1913 -0.8549  0.5900
 9164TIP3   OH227455   5.502   5.705   4.308 -0.5875  0.2243  0.2433
 9164TIP3    H127456   5.462   5.779   4.263 -0.0972  0.5931  0.4053
 9164TIP3    H227457   5.446   5.631   4.286 -0.7122  0.5162 -0.4626
 9165TIP3   OH227458   5.691   3.999   2.795  0.0484 -0.3270  0.2055
 9165TIP3    H127459   5.734   4.079   2.766 -1.8080  0.5295 -0.3186
 9165TIP3    H227460   5.737   3.975   2.876  0.6996  1.1798  0.3110
 9166TIP3   OH227461   6.166   5.675   5.824  0.1224 -0.2117  0.1349
 9166TIP3    H127462   6.155   5.582   5.808  0.9353 -0.1395 -0.9851
 9166TIP3    H227463   6.211   5.680   5.908  1.4168 -0.9176 -0.4903
 9167TIP3   OH227464   1.078   5.431   3.272  0.1112 -0.0489  0.5689
 9167TIP3    H127465   1.024   5.441   3.194  0.0586 -0.4531  0.5510
 9167TIP3    H227466   1.017   5.437   3.346  0.0669 -0.3189  0.5551
 9168TIP3   OH227467   2.332   5.090   1.817 -0.0230 -0.1597 -0.4938
 9168TIP3    H127468   2.315   5.179   1.847  0.0062 -0.2774 -0.1184
 9168TIP3    H227469   2.267   5.074   1.749 -0.2837  0.0081 -0.2839
 9169TIP3   OH227470   6.827   0.232   3.255  0.2802 -0.6961  0.7374
 9169TIP3    H127471   6.773   0.249   3.177 -0.6889 -0.2998  1.4713
 9169TIP3    H227472   6.764   0.226   3.327  1.0767 -2.0215  1.3545
 9170TIP3   OH227473   4.157   2.422   4.732  0.0314  0.2749  0.1004
 9170TIP3    H127474   4.196   2.392   4.815 -0.5587 -0.1359  0.2385
 9170TIP3    H227475   4.145   2.516   4.744 -1.9672 -0.0810  1.3109
 9171TIP3   OH227476   5.834   3.706   1.499  0.0167  0.7327  0.0773
 9171TIP3    H127477   5.885   3.754   1.433  0.7831  0.2042  0.2786
 9171TIP3    H227478   5.852   3.614   1.481  0.6066  0.5962  1.3218
 9172TIP3   OH227479   1.331   1.868   5.719  0.3382  0.0679 -0.6569
 9172TIP3    H127480   1.299   1.948   5.760 -0.3999 -0.7090  0.3464
 9172TIP3    H227481   1.258   1.838   5.665  0.8457  0.4004 -1.5431
 9173TIP3   OH227482   6.569   3.238   5.766  0.2743 -0.1192  0.0120
 9173TIP3    H127483   6.505   3.263   5.699  0.1954 -0.1412  0.0779
 9173TIP3    H227484   6.515   3.215   5.842  0.3916  0.8679  0.4128
 9174TIP3   OH227485   2.296   0.940   1.642 -0.2045  0.2287  0.0149
 9174TIP3    H127486   2.289   0.974   1.553 -0.6164 -0.8258 -0.3688
 9174TIP3    H227487   2.218   0.885   1.653  0.8948 -1.3529  0.2547
 9175TIP3   OH227488   1.797   5.006   0.464  0.6977  0.0903  0.0409
 9175TIP3    H127489   1.741   5.057   0.406 -0.5195 -1.9868 -0.6835
 9175TIP3    H227490   1.793   4.917   0.430  1.3210 -0.8658  2.3095
 9176TIP3   OH227491   2.453   6.372   1.459  0.3323  0.0813  0.0100
 9176TIP3    H127492   2.391   6.424   1.409  2.6167  0.5489 -2.5599
 9176TIP3    H227493   2.497   6.436   1.516  0.6983  0.3342 -0.5532
 9177TIP3   OH227494   4.061   5.686   4.141 -0.0996  0.1920  0.0706
 9177TIP3    H127495   4.142   5.687   4.090 -0.4865 -1.9949 -0.7004
 9177TIP3    H227496   4.017   5.767   4.119  1.1963  0.7268 -0.6529
 9178TIP3   OH227497   7.098   6.789   5.726 -0.3580 -0.0651 -0.0854
 9178TIP3    H127498   7.011   6.750   5.738 -0.8279  0.5486 -1.2848
 9178TIP3    H227499   7.151   6.752   5.796 -1.1072 -1.8826 -0.4066
 9179TIP3   OH227500   4.558   2.834   0.256 -0.1615 -0.2699  0.1734
 9179TIP3    H127501   4.504   2.757   0.235 -0.0984 -0.3003  0.1255
 9179TIP3    H227502   4.638   2.797   0.293 -0.7557 -0.2032  1.6143
 9180TIP3   OH227503   6.866   6.538   4.107  0.1123 -0.0775  0.0643
 9180TIP3    H127504   6.905   6.601   4.168  1.2297 -0.4472 -0.2410
 9180TIP3    H227505   6.941   6.502   4.059 -0.7059 -0.1236 -1.2140
 9181TIP3   OH227506   5.980   3.370   5.525  0.2528  0.3957  0.4812
 9181TIP3    H127507   5.977   3.312   5.449  1.3969  0.0013  0.7080
 9181TIP3    H227508   5.894   3.361   5.566 -1.4570  2.6781 -2.2053
 9182TIP3   OH227509   6.823   5.326   2.530 -0.2487  0.4138 -0.0640
 9182TIP3    H127510   6.865   5.383   2.465 -0.6854  0.1188 -0.6181
 9182TIP3    H227511   6.789   5.385   2.597  0.4891  0.7013  0.0676
 9183TIP3   OH227512   2.758   0.263   1.893  0.6318  0.1785 -0.2592
 9183TIP3    H127513   2.673   0.225   1.914  1.5210 -1.1656  1.1663
 9183TIP3    H227514   2.770   0.332   1.958  1.2093 -0.5674  0.4389
 9184TIP3   OH227515   3.249   6.508   2.165  0.6857 -0.6580 -0.6459
 9184TIP3    H127516   3.182   6.458   2.212 -0.1236  1.0535  0.0748
 9184TIP3    H227517   3.239   6.480   2.074 -0.3952 -1.1060 -0.4114
 9185TIP3   OH227518   3.122   2.569   3.348  0.3655 -0.3268 -0.3497
 9185TIP3    H127519   3.097   2.510   3.277  0.0584 -0.9036  0.2297
 9185TIP3    H227520   3.181   2.632   3.306  0.3068 -0.7421 -1.0863
 9186TIP3   OH227521   0.921   4.140   1.609  0.3978  0.5522 -0.4766
 9186TIP3    H127522   0.884   4.101   1.530  0.5580 -0.0727 -0.2530
 9186TIP3    H227523   0.949   4.065   1.662  0.8170  0.9760 -0.0815
 9187TIP3   OH227524   0.233   6.729   2.897 -0.0721 -0.1828 -0.2129
 9187TIP3    H127525   0.301   6.772   2.949 -0.7188  2.4118 -1.3234
 9187TIP3    H227526   0.163   6.794   2.892 -1.9608 -2.1324 -0.4963
 9188TIP3   OH227527   0.146   4.197   4.004  0.3254 -0.0163 -0.0275
 9188TIP3    H127528   0.208   4.125   4.012  0.3612  0.1250  1.1052
 9188TIP3    H227529   0.180   4.251   3.933  1.0389 -0.3856  0.0311
 9189TIP3   OH227530   1.015   5.935   0.769 -0.3163 -0.2897 -0.0025
 9189TIP3    H127531   0.958   5.857   0.772 -1.5227  0.5082 -0.9972
 9189TIP3    H227532   0.967   6.001   0.819  1.2587 -0.4809  1.8601
 9190TIP3   OH227533   4.020   5.919   3.497  0.2502  0.1447  0.1768
 9190TIP3    H127534   4.008   5.886   3.586  0.4653  1.6363  0.7822
 9190TIP3    H227535   3.973   6.002   3.495 -0.2182 -0.1149 -1.2841
 9191TIP3   OH227536   4.071   5.692   0.917  0.3843  0.0385  0.8005
 9191TIP3    H127537   4.147   5.732   0.959  2.1234 -1.8814 -0.2744
 9191TIP3    H227538   4.100   5.602   0.898 -1.5839 -0.2561 -1.1568
 9192TIP3   OH227539   3.165   3.144   4.648  0.0790  0.6860 -0.1273
 9192TIP3    H127540   3.152   3.225   4.599 -0.4871  0.9510  0.4443
 9192TIP3    H227541   3.254   3.149   4.682  0.6461  0.2867 -1.5059
 9193TIP3   OH227542   3.472   4.709   1.142  0.1607  0.4400 -0.9473
 9193TIP3    H127543   3.416   4.769   1.092  0.4872  1.0358 -0.6120
 9193TIP3    H227544   3.535   4.766   1.186  0.8484 -0.2007 -1.0811
 9194TIP3   OH227545   0.630   2.172   3.972 -0.4378 -0.1280  0.5439
 9194TIP3    H127546   0.609   2.186   3.879 -1.2917 -0.8804  0.6100
 9194TIP3    H227547   0.652   2.259   4.005  0.9813 -0.0050 -0.6200
 9195TIP3   OH227548   6.137   5.223   2.049  0.1658 -0.1432 -0.1117
 9195TIP3    H127549   6.166   5.168   2.122  1.1590  0.5332  0.0269
 9195TIP3    H227550   6.174   5.309   2.068  0.6382 -0.0085 -1.5287
 9196TIP3   OH227551   6.659   3.472   5.159  0.7005 -0.6022  0.3803
 9196TIP3    H127552   6.596   3.414   5.118 -0.1176  1.2549 -1.1211
 9196TIP3    H227553   6.737   3.417   5.173 -0.6340 -2.4873  0.7178
 9197TIP3   OH227554   6.989   2.261   0.919  0.4362 -0.1916 -1.4755
 9197TIP3    H127555   6.994   2.356   0.926  0.4232 -0.1505 -1.9634
 9197TIP3    H227556   7.018   2.242   0.830 -0.0738 -0.5992 -1.5644
 9198TIP3   OH227557   2.049   2.734   3.299  0.4337 -1.0710 -0.1136
 9198TIP3    H127558   2.031   2.826   3.318  0.0025 -1.1223 -0.2579
 9198TIP3    H227559   2.144   2.726   3.306  0.6592 -0.2442 -1.7750
 9199TIP3   OH227560   3.077   6.589   3.240  0.4402 -0.2447 -0.1107
 9199TIP3    H127561   3.155   6.642   3.257 -0.4623  1.1028  0.0097
 9199TIP3    H227562   3.045   6.566   3.327  0.8625 -1.0686 -0.1640
 9200TIP3   OH227563   7.180   0.123   3.940 -0.1424 -0.5227 -0.0495
 9200TIP3    H127564   7.201   0.177   4.017  0.9538 -1.5625  0.4080
 9200TIP3    H227565   7.247   0.147   3.876  0.9658 -2.0138  0.5063
 9201TIP3   OH227566   3.382   1.353   0.844 -0.1346  0.4794  0.5145
 9201TIP3    H127567   3.422   1.277   0.802 -2.1611 -1.1014  1.2451
 9201TIP3    H227568   3.425   1.429   0.804  1.6759 -1.0294 -0.5389
 9202TIP3   OH227569   0.136   4.327   3.092  0.0438 -0.2819  0.2590
 9202TIP3    H127570   0.204   4.303   3.029  0.4286 -1.8496  1.2102
 9202TIP3    H227571   0.066   4.264   3.077 -0.2462 -0.0812  0.7568
 9203TIP3   OH227572   0.341   3.905   2.109 -0.1469  0.9274 -0.1634
 9203TIP3    H127573   0.289   3.956   2.047 -1.2937  0.7556  0.6418
 9203TIP3    H227574   0.335   3.815   2.078 -2.4308  0.5195  1.3049
 9204TIP3   OH227575   1.841   2.577   5.864  0.5030  0.0025 -0.8855
 9204TIP3    H127576   1.919   2.622   5.832  0.1553  1.3805  0.0812
 9204TIP3    H227577   1.774   2.646   5.867 -0.2734 -0.7645 -0.1142
 9205TIP3   OH227578   2.397   2.748   4.265  0.4932 -0.2424 -0.2524
 9205TIP3    H127579   2.450   2.816   4.306  0.9188 -0.1965 -0.8629
 9205TIP3    H227580   2.411   2.760   4.171 -0.2251 -0.5318 -0.4034
 9206TIP3   OH227581   6.385   0.828   3.987 -0.2563  0.0189 -0.8350
 9206TIP3    H127582   6.454   0.892   3.999  0.0603 -0.5167  0.3344
 9206TIP3    H227583   6.408   0.782   3.906  1.5142 -1.0422  0.2174
 9207TIP3   OH227584   2.976   1.036   4.610  0.6756 -0.0232  1.0826
 9207TIP3    H127585   2.943   1.026   4.699 -1.5026 -1.0007  0.2174
 9207TIP3    H227586   3.000   0.948   4.582 -1.3631 -0.2305 -0.2358
 9208TIP3   OH227587   5.801   1.880   2.197 -0.0720  0.4045 -0.3021
 9208TIP3    H127588   5.707   1.867   2.209  0.0184 -0.1732 -0.1781
 9208TIP3    H227589   5.832   1.797   2.160  0.0573  1.2798 -2.2463
 9209TIP3   OH227590   2.431   1.547   5.179  0.7349 -0.1267 -0.5639
 9209TIP3    H127591   2.444   1.632   5.138  0.3641 -1.2186 -3.1569
 9209TIP3    H227592   2.344   1.552   5.218  0.6878  0.6506 -0.7572
 9210TIP3   OH227593   6.925   4.655   1.668  0.3162 -0.4848  0.6727
 9210TIP3    H127594   6.999   4.654   1.607  0.8548 -2.8037  1.2481
 9210TIP3    H227595   6.848   4.641   1.614  0.6757 -1.4293  0.3858
 9211TIP3   OH227596   6.325   3.735   5.702  0.0332 -0.1347  0.0831
 9211TIP3    H127597   6.283   3.661   5.657 -0.9349  0.4519 -0.0153
 9211TIP3    H227598   6.295   3.812   5.654  1.2304  0.3204  0.0346
 9212TIP3   OH227599   1.618   1.495   1.210 -0.5181 -0.5715  0.2891
 9212TIP3    H127600   1.653   1.406   1.209  2.0580  0.3714  0.1966
 9212TIP3    H227601   1.648   1.531   1.293 -1.8592  0.1212  0.4899
 9213TIP3   OH227602   0.210   0.377   5.448 -0.8373  0.1432 -0.5295
 9213TIP3    H127603   0.270   0.406   5.379  1.6046 -0.5038  1.2039
 9213TIP3    H227604   0.230   0.433   5.522 -1.3769 -1.0321  0.5402
 9214TIP3   OH227605   0.682   5.240   2.133  0.0759  0.3962  0.6588
 9214TIP3    H127606   0.664   5.148   2.116  0.0079  0.2269  1.6144
 9214TIP3    H227607   0.712   5.274   2.048  0.2781 -0.5407  0.3383
 9215TIP3   OH227608   2.300   0.828   0.888  0.0667 -0.4286 -0.5108
 9215TIP3    H127609   2.279   0.870   0.804  2.0817  1.3010 -0.2471
 9215TIP3    H227610   2.325   0.739   0.864 -2.5517 -1.0207 -1.3232
 9216TIP3   OH227611   1.293   5.604   5.213 -0.1486 -0.3645 -0.6573
 9216TIP3    H127612   1.224   5.567   5.159  0.3264 -2.1352 -0.1367
 9216TIP3    H227613   1.295   5.697   5.191 -1.7371 -0.5513 -1.6935
 9217TIP3   OH227614   6.235   0.491   5.440 -0.3828  0.5413  0.0348
 9217TIP3    H127615   6.158   0.436   5.424  0.4585 -0.7144  0.2155
 9217TIP3    H227616   6.252   0.532   5.356  0.8649 -1.9611 -1.0448
 9218TIP3   OH227617   1.050   0.244   0.978 -0.1172 -0.0323  0.6510
 9218TIP3    H127618   0.972   0.256   1.034  0.2594 -1.9926  1.6983
 9218TIP3    H227619   1.124   0.260   1.037  0.2794 -1.6120  0.6337
 9219TIP3   OH227620   1.633   5.939   2.220 -0.5818  0.4976 -0.0811
 9219TIP3    H127621   1.654   6.022   2.261 -0.8971  0.9574 -0.8218
 9219TIP3    H227622   1.598   5.963   2.134 -0.8633 -0.3884 -0.2260
 9220TIP3   OH227623   1.928   4.067   5.734 -0.4152  0.2345 -0.9824
 9220TIP3    H127624   1.938   4.084   5.828 -0.3363 -1.3155 -0.6853
 9220TIP3    H227625   1.833   4.066   5.720 -0.4254  0.6682 -0.9723
 9221TIP3   OH227626   3.424   2.893   0.911  0.5655 -0.5333  0.4343
 9221TIP3    H127627   3.427   2.858   0.822  1.1914 -1.5171  0.8166
 9221TIP3    H227628   3.369   2.971   0.906  1.3238 -0.0580 -0.9930
 9222TIP3   OH227629   2.785   6.719   4.114 -0.0301  0.4969  0.3325
 9222TIP3    H127630   2.737   6.670   4.181  0.8637  0.3074  0.8507
 9222TIP3    H227631   2.740   6.803   4.109 -1.5481 -0.3267 -0.5266
 9223TIP3   OH227632   4.446   5.937   1.633 -0.1103  0.6176  0.0693
 9223TIP3    H127633   4.404   5.956   1.549 -1.1782  0.4975  0.5585
 9223TIP3    H227634   4.373   5.921   1.693  0.6338 -2.2967  0.3468
 9224TIP3   OH227635   0.303   6.084   4.759  0.0223  0.1294  0.1722
 9224TIP3    H127636   0.252   6.057   4.836 -2.1068 -0.3442 -1.2937
 9224TIP3    H227637   0.252   6.156   4.722  1.0879  0.4397 -0.7160
 9225TIP3   OH227638   6.989   4.708   2.351 -0.2603  0.3415  0.3616
 9225TIP3    H127639   6.925   4.725   2.420 -0.0094 -0.1425  0.7187
 9225TIP3    H227640   7.007   4.794   2.314 -3.1264  0.2697 -1.5787
 9226TIP3   OH227641   3.056   2.161   2.885  0.1869  0.6072 -0.0740
 9226TIP3    H127642   3.107   2.164   2.966  1.8556 -0.8533 -0.9953
 9226TIP3    H227643   2.968   2.138   2.914  0.2800  1.9521  1.4570
 9227TIP3   OH227644   0.238   2.861   5.424  0.2358  0.0648 -0.6105
 9227TIP3    H127645   0.329   2.848   5.397  1.0767  1.1448  1.4853
 9227TIP3    H227646   0.226   2.956   5.422 -0.0956  0.0901  1.2963
 9228TIP3   OH227647   5.060   6.263   2.483 -0.3457  0.0270  0.7261
 9228TIP3    H127648   5.057   6.243   2.389 -0.5463 -1.7042  1.0687
 9228TIP3    H227649   5.092   6.353   2.487  0.1034 -0.0192 -0.9854
 9229TIP3   OH227650   5.630   5.661   5.171  0.0313 -0.1965  0.1248
 9229TIP3    H127651   5.547   5.687   5.132  0.7758  0.8675 -0.8382
 9229TIP3    H227652   5.666   5.742   5.208  0.2514 -0.8141  1.2929
 9230TIP3   OH227653   6.095   3.231   2.473  0.2617 -0.0819  0.0839
 9230TIP3    H127654   6.090   3.184   2.390  2.3739  0.9279 -0.6869
 9230TIP3    H227655   6.153   3.178   2.528  1.3794  0.7660 -0.2345
 9231TIP3   OH227656   2.826   6.503   0.897 -0.6107  0.0734 -0.2447
 9231TIP3    H127657   2.839   6.573   0.960  0.7475 -0.6259  0.3096
 9231TIP3    H227658   2.915   6.483   0.865 -0.9365 -1.4318 -0.3110
 9232TIP3   OH227659   6.279   3.212   4.160  0.6182 -0.7732 -0.0343
 9232TIP3    H127660   6.252   3.152   4.090  3.8437 -0.6625 -1.5566
 9232TIP3    H227661   6.255   3.167   4.241 -0.6824 -2.2274 -1.1808
 9233TIP3   OH227662   2.474   0.315   1.195 -0.1825 -0.2352 -0.4411
 9233TIP3    H127663   2.485   0.250   1.265 -1.9439 -0.1017  0.0172
 9233TIP3    H227664   2.526   0.390   1.224  1.1279 -1.0909 -0.5229
 9234TIP3   OH227665   3.043   0.234   0.513 -0.3214 -0.1321 -0.5812
 9234TIP3    H127666   3.090   0.194   0.585 -1.7274  1.0405  1.0741
 9234TIP3    H227667   3.095   0.310   0.489 -1.1038  0.9586  1.0037
 9235TIP3   OH227668   3.788   4.525   5.563  0.2551  0.1814 -0.1698
 9235TIP3    H127669   3.712   4.491   5.515 -0.5267  0.2202  1.0015
 9235TIP3    H227670   3.835   4.578   5.499 -1.9121  2.0102 -0.3791
 9236TIP3   OH227671   2.943   4.851   0.415 -0.3904 -0.5394  0.0191
 9236TIP3    H127672   2.913   4.802   0.338  3.0573 -0.1610 -1.7563
 9236TIP3    H227673   2.944   4.787   0.486 -0.6177 -1.7615 -1.0482
 9237TIP3   OH227674   2.313   1.607   3.506 -0.5716 -0.1736  0.2425
 9237TIP3    H127675   2.354   1.688   3.475  0.7765 -0.2800  1.5856
 9237TIP3    H227676   2.220   1.618   3.488 -0.2789  1.2373 -0.5337
 9238TIP3   OH227677   2.220   0.562   5.461  0.2633 -0.9045 -0.0973
 9238TIP3    H127678   2.262   0.630   5.514  1.2462 -1.0000 -0.7347
 9238TIP3    H227679   2.159   0.610   5.405  0.0464 -0.6843  0.3219
 9239TIP3   OH227680   3.378   5.575   3.697 -0.1287  0.2483  0.2449
 9239TIP3    H127681   3.373   5.570   3.792  0.5324  1.2315  0.3364
 9239TIP3    H227682   3.318   5.646   3.673 -0.9812 -0.5722 -0.1656
 9240TIP3   OH227683   2.283   5.954   2.882  0.1610  0.4029  0.5839
 9240TIP3    H127684   2.345   5.950   2.955  2.0202 -0.2536 -0.9318
 9240TIP3    H227685   2.336   5.984   2.808 -1.0262 -1.3780 -1.0910
 9241TIP3   OH227686   1.356   4.387   1.967 -0.1616 -0.3953 -0.5093
 9241TIP3    H127687   1.359   4.482   1.964 -1.1312 -0.2415  1.4975
 9241TIP3    H227688   1.369   4.359   1.876  0.0982  1.6286 -1.1371
 9242TIP3   OH227689   3.383   3.649   2.867  0.1270 -0.4279 -0.3231
 9242TIP3    H127690   3.440   3.573   2.855  2.0807  0.8117  0.5719
 9242TIP3    H227691   3.443   3.722   2.879 -1.6645  1.4934 -2.1802
 9243TIP3   OH227692   7.047   4.477   2.233 -0.7921 -0.6293 -0.2573
 9243TIP3    H127693   7.038   4.561   2.277 -1.6959  0.2051 -1.9388
 9243TIP3    H227694   6.960   4.436   2.242 -0.4854 -1.2066  0.1762
 9244TIP3   OH227695   2.641   0.965   0.752 -0.0200 -0.1054 -0.2058
 9244TIP3    H127696   2.712   0.925   0.701 -0.7049 -1.4306 -0.1469
 9244TIP3    H227697   2.667   0.952   0.843 -0.6319 -1.1413 -0.1771
 9245TIP3   OH227698   0.668   6.559   0.769  0.0299 -0.0822 -0.6783
 9245TIP3    H127699   0.642   6.591   0.855  0.5642  0.3021 -0.6597
 9245TIP3    H227700   0.622   6.475   0.760  0.3335 -0.3447  0.1663
 9246TIP3   OH227701   6.127   4.307   2.972  0.1796 -0.0226  0.0349
 9246TIP3    H127702   6.108   4.241   3.039 -0.9820 -1.5817 -1.7210
 9246TIP3    H227703   6.048   4.360   2.968 -0.0893 -0.4630 -0.6520
 9247TIP3   OH227704   6.266   0.612   3.112 -0.6736  0.0053  0.1363
 9247TIP3    H127705   6.181   0.633   3.148  0.3179  2.4320  1.2904
 9247TIP3    H227706   6.284   0.682   3.049  1.4469  1.0103  1.7261
 9248TIP3   OH227707   0.471   5.775   1.824 -0.4791  0.5572  0.0268
 9248TIP3    H127708   0.505   5.717   1.893 -1.8717 -0.2103  0.0986
 9248TIP3    H227709   0.500   5.862   1.851  0.5953  0.0599  0.5805
 9249TIP3   OH227710   6.448   6.190   3.848  0.5239 -0.3008 -0.0295
 9249TIP3    H127711   6.490   6.166   3.765  0.0213 -1.1049 -0.0587
 9249TIP3    H227712   6.519   6.226   3.901  1.2437 -1.5538 -0.1157
 9250TIP3   OH227713   4.319   1.137   0.580 -0.0140 -0.0242 -0.4247
 9250TIP3    H127714   4.335   1.196   0.506  1.7448 -2.2255 -1.9405
 9250TIP3    H227715   4.245   1.083   0.551  0.8903 -1.1110 -0.7639
 9251TIP3   OH227716   1.794   4.854   1.156 -0.1862 -0.0539  0.5300
 9251TIP3    H127717   1.823   4.819   1.240 -0.4549 -0.0202  0.6382
 9251TIP3    H227718   1.875   4.880   1.111 -0.0433 -0.0636  0.7807
 9252TIP3   OH227719   4.906   5.941   1.804 -0.3264  0.0642  0.1323
 9252TIP3    H127720   4.923   5.991   1.724 -2.5629 -0.0494 -0.4782
 9252TIP3    H227721   4.817   5.908   1.793 -0.5958 -0.1923  2.5582
 9253TIP3   OH227722   6.751   0.679   0.112  0.3237 -0.4007  0.0681
 9253TIP3    H127723   6.684   0.618   0.142 -0.0440  0.1508  0.3999
 9253TIP3    H227724   6.772   0.731   0.190  1.6709 -1.0493  0.1585
 9254TIP3   OH227725   5.641   3.074   2.378 -0.1708 -0.1502  0.2299
 9254TIP3    H127726   5.573   3.010   2.401 -0.3575 -0.3146 -0.7390
 9254TIP3    H227727   5.722   3.024   2.380 -0.6052 -1.2401 -3.4044
 9255TIP3   OH227728   3.486   0.300   4.400  0.4920  0.1949 -0.5397
 9255TIP3    H127729   3.406   0.323   4.448 -0.1691  0.9158 -1.9415
 9255TIP3    H227730   3.514   0.382   4.360  1.6968 -0.1491 -0.4317
 9256TIP3   OH227731   4.242   2.929   0.994 -0.0398  0.3482 -0.3111
 9256TIP3    H127732   4.242   2.902   0.902 -1.1769  0.8049 -0.4613
 9256TIP3    H227733   4.237   3.024   0.991  2.8458  0.5891  0.2239
 9257TIP3   OH227734   0.998   0.691   4.934  0.5614  0.4312  0.4125
 9257TIP3    H127735   1.070   0.697   4.871  1.5438  0.4885  1.5073
 9257TIP3    H227736   0.975   0.598   4.935  0.0352  0.5378 -0.5538
 9258TIP3   OH227737   5.655   4.305   1.587 -0.5605  0.3659  0.9411
 9258TIP3    H127738   5.619   4.267   1.507 -1.1410 -0.0654  1.3997
 9258TIP3    H227739   5.592   4.372   1.613 -0.2324  0.6995  0.8912
 9259TIP3   OH227740   5.761   0.601   1.550 -0.1554  0.1419 -0.3246
 9259TIP3    H127741   5.838   0.651   1.579  0.0717  0.6651 -1.7356
 9259TIP3    H227742   5.707   0.666   1.505 -1.4239 -0.2337  0.6225
 9260TIP3   OH227743   2.018   0.394   4.593 -0.1686 -0.1018  0.3841
 9260TIP3    H127744   2.081   0.400   4.521 -0.4704 -3.0296 -0.2722
 9260TIP3    H227745   2.070   0.367   4.668 -0.0473  1.7476  1.0149
 9261TIP3   OH227746   2.109   3.381   1.049 -0.0935 -0.0124  0.0206
 9261TIP3    H127747   2.065   3.296   1.044 -0.8112  0.2458  1.4694
 9261TIP3    H227748   2.108   3.414   0.959  1.2127 -2.0079 -0.8092
 9262TIP3   OH227749   3.300   3.486   2.126  0.3595 -0.3481  0.4423
 9262TIP3    H127750   3.312   3.404   2.174 -0.4117 -1.3528 -1.0352
 9262TIP3    H227751   3.215   3.519   2.155  1.1387  0.5407  1.8519
 9263TIP3   OH227752   3.903   0.678   3.193  0.9897 -0.3439 -0.1223
 9263TIP3    H127753   3.879   0.642   3.108 -0.8637  0.1000  0.1636
 9263TIP3    H227754   3.834   0.741   3.213  1.2573 -0.5933  1.8120
 9264TIP3   OH227755   4.311   1.324   1.810  0.4805  0.0909  0.6432
 9264TIP3    H127756   4.221   1.299   1.789  0.5837  0.1193  0.1503
 9264TIP3    H227757   4.327   1.403   1.758  0.3095  0.9412  1.8380
 9265TIP3   OH227758   3.667   0.038   5.263 -0.2958 -0.0972  0.1099
 9265TIP3    H127759   3.748  -0.011   5.280  0.7184  1.0195 -1.1675
 9265TIP3    H227760   3.678   0.119   5.312 -0.4326  0.2385 -0.4062
 9266TIP3   OH227761   2.462   5.866   1.083  0.6032  0.0229  0.1579
 9266TIP3    H127762   2.437   5.777   1.108  2.8027 -0.6140  0.3552
 9266TIP3    H227763   2.465   5.863   0.987  0.7748 -0.1567  0.1672
 9267TIP3   OH227764   2.246   2.948   0.125  0.4690 -0.5951  0.1491
 9267TIP3    H127765   2.340   2.946   0.106  0.3061  2.3485 -1.5617
 9267TIP3    H227766   2.204   2.948   0.039 -0.8472  2.1906  0.6796
 9268TIP3   OH227767   6.897   3.432   0.479 -0.1985  0.0993  0.2329
 9268TIP3    H127768   6.832   3.500   0.461 -3.2647 -1.9335  2.5228
 9268TIP3    H227769   6.903   3.382   0.398 -1.0728  0.6628 -0.1996
 9269TIP3   OH227770   0.505   2.109   0.529 -0.0980  0.1594 -0.6739
 9269TIP3    H127771   0.542   2.193   0.502  0.6298  0.4145  0.9915
 9269TIP3    H227772   0.449   2.130   0.603  1.1857 -0.9478  0.6855
 9270TIP3   OH227773   1.226   4.630   4.290  1.0396 -0.4315 -0.0049
 9270TIP3    H127774   1.176   4.559   4.331 -0.4914  0.6103  0.0340
 9270TIP3    H227775   1.282   4.663   4.359  0.1230 -0.1567  0.6177
 9271TIP3   OH227776   3.187   3.695   2.678  0.5932 -0.1022 -0.2361
 9271TIP3    H127777   3.242   3.723   2.751  0.2201  0.7404 -0.2635
 9271TIP3    H227778   3.225   3.738   2.601 -0.3052  0.8287 -0.1978
 9272TIP3   OH227779   2.004   3.722   2.945 -0.1858  0.4899  0.2909
 9272TIP3    H127780   1.924   3.682   2.978 -0.0544 -0.0288 -0.0027
 9272TIP3    H227781   1.980   3.759   2.861  0.0939 -0.5211 -0.2601
 9273TIP3   OH227782   0.468   2.926   2.427 -0.5996 -0.3616  0.0887
 9273TIP3    H127783   0.492   2.875   2.349 -0.1315 -0.7646  0.4853
 9273TIP3    H227784   0.496   3.015   2.407 -1.6382 -0.1969 -0.7050
 9274TIP3   OH227785   0.202   4.479   4.529 -0.1477  0.1370 -0.4089
 9274TIP3    H127786   0.197   4.574   4.518 -1.3360 -0.1020 -2.5609
 9274TIP3    H227787   0.276   4.453   4.473  0.8501 -0.1406  0.9934
 9275TIP3   OH227788   1.398   0.843   5.398  0.1371  0.4944  0.1659
 9275TIP3    H127789   1.388   0.910   5.331 -0.1196  0.4942  0.2032
 9275TIP3    H227790   1.463   0.782   5.362  2.0526  1.9028  1.0254
 9276TIP3   OH227791   5.619   0.249   5.871  0.3573 -0.3053 -0.3040
 9276TIP3    H127792   5.574   0.172   5.905  0.7412 -0.3027  0.2251
 9276TIP3    H227793   5.712   0.231   5.885  0.5033 -0.1619 -1.0687
 9277TIP3   OH227794   2.111   0.285   2.278  0.2156 -0.1247  0.3199
 9277TIP3    H127795   2.095   0.341   2.202 -1.2864 -1.0054 -0.0588
 9277TIP3    H227796   2.024   0.261   2.309  0.7108 -3.5415 -0.5495
 9278TIP3   OH227797   1.515   5.009   4.363 -0.4072  0.4749 -0.2324
 9278TIP3    H127798   1.569   5.040   4.290 -0.3579  2.3369  0.5619
 9278TIP3    H227799   1.475   4.928   4.330  2.0778 -0.4683 -1.1894
 9279TIP3   OH227800   5.127   1.524   4.364 -0.0377 -0.1558 -0.5199
 9279TIP3    H127801   5.045   1.524   4.414 -1.4096 -0.0537 -2.6484
 9279TIP3    H227802   5.152   1.432   4.359 -1.6900 -0.5711 -2.3323
 9280TIP3   OH227803   1.558   2.288   3.640 -0.3297  0.1263 -0.0433
 9280TIP3    H127804   1.521   2.365   3.597  1.2440  0.8106 -0.2497
 9280TIP3    H227805   1.633   2.264   3.585  1.6330  0.8829  2.1184
 9281TIP3   OH227806   7.171  -0.000   0.943 -0.5719 -0.4701  0.3684
 9281TIP3    H127807   7.127   0.037   0.866  0.0328  0.0507  0.2662
 9281TIP3    H227808   7.166   0.069   1.009  0.6050 -0.1607  0.1587
 9282TIP3   OH227809   0.303   1.099   1.765  0.1621 -0.3141 -0.4067
 9282TIP3    H127810   0.314   1.098   1.670 -1.3875  0.3662 -0.6243
 9282TIP3    H227811   0.327   1.011   1.792 -2.1264 -1.5013 -1.8301
 9283TIP3   OH227812   4.552   1.431   0.587  0.3787  0.4220 -0.3132
 9283TIP3    H127813   4.602   1.481   0.652  0.1707  1.3939 -0.8776
 9283TIP3    H227814   4.601   1.442   0.505  1.4450 -1.9877 -0.0961
 9284TIP3   OH227815   3.169   0.165   3.982  0.0784  0.0363 -0.2418
 9284TIP3    H127816   3.159   0.191   4.073 -1.6879 -0.5202 -0.2492
 9284TIP3    H227817   3.191   0.246   3.936  3.0582  0.0033  0.9185
 9285TIP3   OH227818   0.432   0.727   1.131  0.0685 -0.1478 -0.3143
 9285TIP3    H127819   0.379   0.660   1.089  1.0290 -0.4936 -1.0275
 9285TIP3    H227820   0.497   0.752   1.065  2.4261 -1.5700  1.2828
 9286TIP3   OH227821   0.467   2.809   2.169 -0.0270  0.0635  0.2229
 9286TIP3    H127822   0.451   2.717   2.186  2.7302 -0.5421 -0.1194
 9286TIP3    H227823   0.524   2.810   2.092  0.5444  2.0084  0.6133
 9287TIP3   OH227824   2.233   2.494   1.960  0.7258 -0.3480  0.5307
 9287TIP3    H127825   2.302   2.555   1.985 -0.5722  0.5609  2.0409
 9287TIP3    H227826   2.187   2.474   2.041 -1.3979 -0.1686 -0.5556
 9288TIP3   OH227827   4.640   4.135   4.830  0.4472  0.5634 -0.3102
 9288TIP3    H127828   4.575   4.173   4.889  1.6026  1.1540  0.6266
 9288TIP3    H227829   4.654   4.047   4.865 -2.0448 -0.7834 -2.3331
 9289TIP3   OH227830   3.802   0.552   1.689 -0.1622 -0.3349  0.1325
 9289TIP3    H127831   3.715   0.552   1.729 -0.5377 -1.2393 -0.6555
 9289TIP3    H227832   3.862   0.539   1.763 -0.5582  1.7466  0.8861
 9290TIP3   OH227833   1.783   1.703   5.715 -0.2874 -0.3191  0.2357
 9290TIP3    H127834   1.815   1.780   5.763  0.6790 -0.5600 -0.0092
 9290TIP3    H227835   1.687   1.713   5.716 -0.2005  0.6237  0.6360
 9291TIP3   OH227836   4.695   2.970   4.349 -0.5743 -0.2724  0.0765
 9291TIP3    H127837   4.709   2.905   4.280 -1.2918 -0.1558 -0.1838
 9291TIP3    H227838   4.603   2.960   4.373 -0.3151 -0.3736  1.0817
 9292TIP3   OH227839   1.892   3.152   5.203 -0.0879  0.3184  0.3321
 9292TIP3    H127840   1.863   3.190   5.286 -3.2603  1.4551 -1.1131
 9292TIP3    H227841   1.814   3.157   5.147  1.9859 -0.1437 -2.8056
 9293TIP3   OH227842   0.987   5.836   2.055  0.5528  0.5408 -0.6503
 9293TIP3    H127843   1.022   5.921   2.030  0.9847  0.7466  0.5883
 9293TIP3    H227844   1.038   5.773   2.003  0.7475  0.9992 -1.0162
 9294TIP3   OH227845   5.867   5.171   4.115  0.2768  0.0817 -0.0215
 9294TIP3    H127846   5.899   5.205   4.199 -2.2842 -0.9862  1.4933
 9294TIP3    H227847   5.772   5.183   4.118 -0.3337 -3.3083 -1.1335
 9295TIP3   OH227848   0.555   4.299   2.243  0.3451  0.0979 -0.3120
 9295TIP3    H127849   0.513   4.376   2.281  0.7174  0.3378 -0.3832
 9295TIP3    H227850   0.615   4.334   2.178  0.0200 -0.2897 -0.8292
 9296TIP3   OH227851   0.413   4.255   2.967 -0.4252  0.0401 -0.2052
 9296TIP3    H127852   0.404   4.190   2.898  1.0057  0.0298 -0.4126
 9296TIP3    H227853   0.451   4.331   2.924  1.3395 -0.2771  0.7094
 9297TIP3   OH227854   3.736   0.536   2.366  0.5269  0.2196  0.5228
 9297TIP3    H127855   3.805   0.505   2.425  0.6505 -0.6538 -0.0706
 9297TIP3    H227856   3.782   0.557   2.285  0.1730  0.1360  0.2997
 9298TIP3   OH227857   6.717   5.205   0.187 -0.1894  0.3358 -0.0367
 9298TIP3    H127858   6.667   5.225   0.109 -1.2097  1.8259  0.9612
 9298TIP3    H227859   6.656   5.157   0.244 -0.3874  1.7353  0.9829
 9299TIP3   OH227860   1.708   0.751   2.464  0.4818  0.1625  0.7377
 9299TIP3    H127861   1.728   0.833   2.420  1.2244 -0.5381 -0.2867
 9299TIP3    H227862   1.626   0.721   2.424 -0.0578  0.6411  1.4692
 9300TIP3   OH227863   5.291   2.704   0.492  0.5076 -0.3110  0.1728
 9300TIP3    H127864   5.278   2.774   0.555 -0.6773  1.1357 -1.5706
 9300TIP3    H227865   5.243   2.629   0.528  1.0069  0.0372  1.6133
 9301TIP3   OH227866   2.251   6.199   1.681 -0.1664 -0.0545  0.2861
 9301TIP3    H127867   2.271   6.105   1.683 -0.5334 -0.1269  1.3579
 9301TIP3    H227868   2.337   6.242   1.689 -0.1352 -0.3312  1.6962
 9302TIP3   OH227869   5.511   0.517   0.124  0.2267 -0.0720  0.2572
 9302TIP3    H127870   5.577   0.587   0.117  0.0199 -0.0206 -1.4633
 9302TIP3    H227871   5.508   0.478   0.037 -1.4753 -0.5885  0.5151
 9303TIP3   OH227872   1.346   2.509   1.360  0.7245  0.4592 -0.7191
 9303TIP3    H127873   1.383   2.597   1.360 -1.1845  1.2981 -0.8980
 9303TIP3    H227874   1.383   2.468   1.439  1.4049  1.4914 -0.4787
 9304TIP3   OH227875   1.123   4.852   0.588  0.4635  0.0821  0.2154
 9304TIP3    H127876   1.212   4.819   0.597  0.2840 -0.8086 -1.1053
 9304TIP3    H227877   1.117   4.922   0.654  2.3907  0.7035 -0.1932
 9305TIP3   OH227878   4.534   3.078   3.703 -0.1370  0.3877  0.0910
 9305TIP3    H127879   4.562   3.166   3.679  0.6624 -0.0583 -0.6369
 9305TIP3    H227880   4.575   3.021   3.638 -1.1288 -0.4709  0.1930
 9306TIP3   OH227881   2.095   0.473   3.123  0.0447  0.0047 -0.2354
 9306TIP3    H127882   2.112   0.564   3.147 -0.6066  0.5389 -1.6511
 9306TIP3    H227883   2.045   0.438   3.196 -2.1565  1.6454 -0.8368
 9307TIP3   OH227884   2.430   6.353   0.811  0.2378 -0.3887  0.1825
 9307TIP3    H127885   2.510   6.389   0.773  0.7861 -2.1205 -0.4016
 9307TIP3    H227886   2.455   6.328   0.899 -0.0664  0.3690  0.4912
 9308TIP3   OH227887   5.467   4.491   3.569 -0.0842  0.1700  0.4746
 9308TIP3    H127888   5.388   4.533   3.605 -1.0402  1.0351 -2.3646
 9308TIP3    H227889   5.448   4.481   3.476  2.9424 -0.2003 -0.1936
 9309TIP3   OH227890   6.008   2.016   3.022 -0.2656  0.3619  0.5412
 9309TIP3    H127891   5.986   2.073   2.948 -0.2861  1.9031  1.7028
 9309TIP3    H227892   6.099   1.990   3.006 -0.5584 -0.0768 -0.4875
 9310TIP3   OH227893   3.534   4.974   3.222  0.0444  0.2474 -0.6013
 9310TIP3    H127894   3.543   5.034   3.297 -0.0057 -2.1966  1.4960
 9310TIP3    H227895   3.472   4.908   3.252  0.4418 -1.1234 -2.6468
 9311TIP3   OH227896   2.555   6.300   4.822 -0.1007 -0.3531  0.0039
 9311TIP3    H127897   2.621   6.232   4.833  0.8275  0.9209  3.6296
 9311TIP3    H227898   2.505   6.272   4.745  2.3887 -3.2257 -0.7757
 9312TIP3   OH227899   2.813   0.392   0.979 -0.2695 -0.1125 -0.6652
 9312TIP3    H127900   2.802   0.428   1.067  0.1219 -0.2317 -0.5615
 9312TIP3    H227901   2.898   0.347   0.983 -1.6240 -2.8328 -0.1731
 9313TIP3   OH227902   5.569   6.506   2.349 -0.1197 -0.5642 -0.4499
 9313TIP3    H127903   5.642   6.522   2.409 -2.0463  0.3942  1.7944
 9313TIP3    H227904   5.514   6.584   2.357 -1.9346 -1.6854 -1.2084
 9314TIP3   OH227905   5.360   0.584   5.839  0.0299  0.1832 -0.4778
 9314TIP3    H127906   5.324   0.635   5.765  2.2365 -0.6650 -2.2367
 9314TIP3    H227907   5.317   0.499   5.832 -0.2648  0.3176 -0.3433
 9315TIP3   OH227908   6.777   4.491   1.379  0.0256 -0.2127 -0.2386
 9315TIP3    H127909   6.746   4.525   1.296 -1.0729 -3.1569 -1.1711
 9315TIP3    H227910   6.861   4.449   1.358  1.1561  1.4114  0.7854
 9316TIP3   OH227911   3.365   4.392   0.805  0.1073 -0.4214  0.6643
 9316TIP3    H127912   3.293   4.449   0.782  1.6946  0.9778 -1.1582
 9316TIP3    H227913   3.331   4.303   0.794 -1.4066  0.2037  0.1753
 9317TIP3   OH227914   3.335   5.760   4.450 -0.4514  0.3327 -0.3804
 9317TIP3    H127915   3.360   5.838   4.401  0.3388  0.0364 -0.4706
 9317TIP3    H227916   3.267   5.718   4.397 -1.0692  1.0824 -0.2044
 9318TIP3   OH227917   3.405   1.009   1.512  0.6409 -0.0414  0.0978
 9318TIP3    H127918   3.335   0.953   1.545  0.6980 -0.9324 -1.2178
 9318TIP3    H227919   3.364   1.062   1.444  1.1130 -0.2354 -0.3498
 9319TIP3   OH227920   5.715   2.684   3.707 -0.6733 -0.0683  0.0798
 9319TIP3    H127921   5.725   2.759   3.648  0.5181 -0.4994 -0.2828
 9319TIP3    H227922   5.672   2.618   3.654  1.6008 -0.9425 -0.7926
 9320TIP3   OH227923   4.173   5.712   2.267 -0.3604 -0.0831 -0.7077
 9320TIP3    H127924   4.114   5.705   2.192 -1.1797 -0.1741 -0.0664
 9320TIP3    H227925   4.258   5.735   2.229 -1.4581  3.2345 -1.3973
 9321TIP3   OH227926   3.451   2.691   0.361 -0.0562  0.0016 -0.4693
 9321TIP3    H127927   3.528   2.637   0.381  1.4735  1.4053 -2.2470
 9321TIP3    H227928   3.485   2.780   0.353 -1.8363  0.6487 -1.5128
 9322TIP3   OH227929   0.148   4.494   1.547 -0.0021  0.0107  0.0785
 9322TIP3    H127930   0.210   4.491   1.474  0.2269  0.1932  0.2643
 9322TIP3    H227931   0.192   4.547   1.613 -0.0742 -0.4192  0.4764
 9323TIP3   OH227932   3.517   4.611   0.769  0.5914  0.3868 -0.2130
 9323TIP3    H127933   3.468   4.679   0.816  0.3246 -0.2822  0.4996
 9323TIP3    H227934   3.462   4.532   0.777  1.5635 -0.2633  0.2131
 9324TIP3   OH227935   4.351   4.356   3.420 -0.0680  0.4360  0.2184
 9324TIP3    H127936   4.289   4.361   3.347  0.6794  0.2490 -0.4421
 9324TIP3    H227937   4.395   4.442   3.421 -0.7392  0.7926  1.0690
 9325TIP3   OH227938   7.019   4.856   1.303 -0.0748 -0.1393 -0.1632
 9325TIP3    H127939   6.994   4.899   1.385  1.5476  1.3936 -0.4143
 9325TIP3    H227940   7.095   4.803   1.324 -0.1243 -0.3614 -0.5235
 9326TIP3   OH227941   5.351   4.313   1.121 -0.3777  0.0304  0.5144
 9326TIP3    H127942   5.259   4.317   1.096 -0.2228  1.6220  0.1341
 9326TIP3    H227943   5.399   4.341   1.043  0.5097 -1.5582  0.4333
 9327TIP3   OH227944   4.465   0.656   5.292 -0.2658 -0.2466 -0.1699
 9327TIP3    H127945   4.389   0.674   5.238  0.2275  0.5936 -0.6036
 9327TIP3    H227946   4.478   0.561   5.284 -0.6159 -0.2342 -0.9669
 9328TIP3   OH227947   1.573   3.772   1.083  0.4423 -0.2832  0.2511
 9328TIP3    H127948   1.658   3.753   1.045 -0.2947 -1.5364 -0.8367
 9328TIP3    H227949   1.571   3.867   1.091  2.0717 -0.2446  0.6639
 9329TIP3   OH227950   3.803   5.154   0.073 -0.7416  0.4541 -0.2370
 9329TIP3    H127951   3.800   5.230   0.131  1.0772  1.3201 -1.1884
 9329TIP3    H227952   3.804   5.191  -0.016  2.6469 -0.4209 -0.7208
 9330TIP3   OH227953   4.178   4.345   2.072 -0.1278  0.4523  0.2193
 9330TIP3    H127954   4.237   4.363   1.998 -2.5279 -0.1883 -2.0253
 9330TIP3    H227955   4.115   4.418   2.070 -0.4641  0.2174  1.4268
 9331TIP3   OH227956   4.970   3.613   1.155 -0.5478 -0.2930 -0.0302
 9331TIP3    H127957   5.000   3.690   1.203 -1.7195  0.5137 -0.5567
 9331TIP3    H227958   4.958   3.643   1.065 -0.2109 -1.3074 -0.4306
 9332TIP3   OH227959   0.746   5.848   3.323 -0.0094 -0.6070 -0.3167
 9332TIP3    H127960   0.838   5.858   3.299  0.0767  1.7843  0.6978
 9332TIP3    H227961   0.742   5.762   3.366  2.5579  0.5302  2.6704
 9333TIP3   OH227962   1.571   6.270   2.257 -0.3405  0.0903 -0.5295
 9333TIP3    H127963   1.635   6.342   2.263 -0.1752  0.0141 -1.2735
 9333TIP3    H227964   1.562   6.238   2.347 -0.1182  0.7865 -0.2524
 9334TIP3   OH227965   0.272   0.676   1.889  0.1757  0.4072  0.5931
 9334TIP3    H127966   0.286   0.614   1.817 -0.6412 -1.8323  2.2559
 9334TIP3    H227967   0.361   0.706   1.912  0.6198 -0.3396 -0.0997
 9335TIP3   OH227968   4.807   4.264   3.780  0.0145 -0.7516 -0.2403
 9335TIP3    H127969   4.824   4.337   3.721  0.5413 -0.4704  0.2513
 9335TIP3    H227970   4.874   4.199   3.757  1.0977 -0.1033  0.9253
 9336TIP3   OH227971   4.778   2.407   2.161  0.0471 -0.1839 -0.0078
 9336TIP3    H127972   4.856   2.451   2.196 -0.0819  1.2734 -1.4550
 9336TIP3    H227973   4.771   2.438   2.071 -1.6469 -1.0704 -0.2208
 9337TIP3   OH227974   4.386   0.048   4.058 -0.2757  0.4883  0.4289
 9337TIP3    H127975   4.388  -0.008   3.981 -1.0455  2.1556 -0.8718
 9337TIP3    H227976   4.313   0.015   4.110 -0.9236  0.4674 -0.4745
 9338TIP3   OH227977   3.209   5.894   1.192 -0.2423 -0.2686  0.0293
 9338TIP3    H127978   3.211   5.835   1.267  0.4781  2.1106  2.0069
 9338TIP3    H227979   3.131   5.947   1.205  1.1876  1.8258  0.5406
 9339TIP3   OH227980   1.483   4.661   2.865 -0.3855 -0.2035  0.8454
 9339TIP3    H127981   1.496   4.569   2.888 -1.2196 -0.2418  1.1787
 9339TIP3    H227982   1.512   4.709   2.942 -1.1149 -0.2446  1.1540
 9340TIP3   OH227983   3.952   0.138   2.373 -0.3854 -0.5072 -0.0716
 9340TIP3    H127984   3.882   0.094   2.324 -0.4086  2.1429 -2.7266
 9340TIP3    H227985   4.029   0.129   2.317  0.0917  0.9714  0.2917
 9341TIP3   OH227986   4.522   5.614   3.562  0.1905  0.3396 -0.0394
 9341TIP3    H127987   4.545   5.705   3.544 -0.6278  0.6501  0.4587
 9341TIP3    H227988   4.436   5.618   3.603  0.1796 -0.6551  0.0625
 9342TIP3   OH227989   6.757   3.338   3.733 -0.4659 -0.1595 -0.2131
 9342TIP3    H127990   6.664   3.322   3.748 -0.3505 -1.3159 -0.5610
 9342TIP3    H227991   6.786   3.386   3.811 -1.2662 -0.1536  0.0945
 9343TIP3   OH227992   1.516   6.706   3.719  0.2098 -0.4006 -0.1543
 9343TIP3    H127993   1.520   6.679   3.811 -0.8813 -0.7700 -0.2049
 9343TIP3    H227994   1.508   6.624   3.671 -1.1478 -0.1238 -0.4413
 9344TIP3   OH227995   1.953   3.443   4.816  0.2028  0.4499  0.5847
 9344TIP3    H127996   1.999   3.415   4.738 -1.7956 -1.4824 -0.0015
 9344TIP3    H227997   2.001   3.403   4.888 -0.1981 -1.1174  0.0227
 9345TIP3   OH227998   6.487   1.445   0.719  0.0073 -0.3601 -0.3882
 9345TIP3    H127999   6.421   1.376   0.720  0.4609 -0.8561  2.2506
 9345TIP3    H228000   6.440   1.525   0.743 -0.0133 -0.2540 -0.7633
 9346TIP3   OH228001   0.476   0.158   1.457  0.6404  0.5115  0.0491
 9346TIP3    H128002   0.529   0.175   1.379  0.0610 -0.1572 -0.5039
 9346TIP3    H228003   0.388   0.140   1.424  0.9979 -2.7497  0.5750
 9347TIP3   OH228004   0.628   3.827   0.406  0.2890  0.3416 -0.0932
 9347TIP3    H128005   0.635   3.888   0.333  0.5851 -0.0918 -0.4273
 9347TIP3    H228006   0.546   3.851   0.449 -0.2041  0.1977 -0.9358
 9348TIP3   OH228007   4.642   1.646   2.132  0.3113  0.0647 -0.2933
 9348TIP3    H128008   4.550   1.666   2.149 -0.4070 -2.1113 -1.2081
 9348TIP3    H228009   4.663   1.577   2.195  2.2966  2.5042  1.9352
 9349TIP3   OH228010   0.235   2.935   1.436 -0.3405  0.1472  0.1142
 9349TIP3    H128011   0.251   2.973   1.522  0.2417  1.3206 -0.4962
 9349TIP3    H228012   0.293   2.983   1.377  1.2955 -2.4191 -0.5422
 9350TIP3   OH228013   5.632   5.008   2.625  0.6515 -0.6812  0.6370
 9350TIP3    H128014   5.679   5.089   2.645 -1.9200  0.2736  3.6103
 9350TIP3    H228015   5.576   5.031   2.551 -0.3853  0.5156  1.7336
 9351TIP3   OH228016   2.879   2.114   2.378  0.2338  0.1355  0.0757
 9351TIP3    H128017   2.818   2.045   2.353  0.3953 -0.0631  0.2236
 9351TIP3    H228018   2.824   2.185   2.410  0.0313  0.3466 -0.7338
 9352TIP3   OH228019   4.616   4.176   0.973 -0.0636 -0.7006 -0.2828
 9352TIP3    H128020   4.576   4.263   0.973  0.2556 -0.4764 -2.7450
 9352TIP3    H228021   4.567   4.127   0.906  0.8830 -1.8555 -0.1646
 9353TIP3   OH228022   2.100   5.440   5.537  0.1398  0.2433  0.5194
 9353TIP3    H128023   2.145   5.397   5.610 -1.5848  1.2771  2.2899
 9353TIP3    H228024   2.050   5.371   5.495  1.9709 -0.5787 -0.4304
 9354TIP3   OH228025   5.704   4.331   2.359  0.3560 -0.0623  0.2865
 9354TIP3    H128026   5.657   4.248   2.358  3.5611 -2.1452  2.8513
 9354TIP3    H228027   5.658   4.385   2.423 -0.3743 -0.7455  0.3462
 9355TIP3   OH228028   4.233   1.462   4.885 -0.0054  0.0593  0.2582
 9355TIP3    H128029   4.140   1.443   4.895 -0.6363  1.2537 -2.4079
 9355TIP3    H228030   4.264   1.397   4.823  0.4109  0.9503 -0.4884
 9356TIP3   OH228031   5.837   2.473   1.292  0.6346  0.2112 -0.3704
 9356TIP3    H128032   5.746   2.446   1.299  0.8724 -0.2321  1.4406
 9356TIP3    H228033   5.837   2.540   1.223 -0.6939 -1.1756 -1.7946
 9357TIP3   OH228034   3.196   1.643   5.312 -0.2036 -0.0008  0.6152
 9357TIP3    H128035   3.203   1.611   5.223 -0.1662 -2.0546  1.2961
 9357TIP3    H228036   3.126   1.708   5.310 -1.2409 -1.1254 -0.6244
 9358TIP3   OH228037   1.936   4.429   3.175 -0.3755  0.2966  0.3460
 9358TIP3    H128038   1.857   4.462   3.131 -0.2780  0.3906  0.2411
 9358TIP3    H228039   1.903   4.362   3.235 -0.8672  2.1716  2.3026
 9359TIP3   OH228040   5.718   0.295   0.560 -0.1926 -0.5055 -0.1503
 9359TIP3    H128041   5.677   0.214   0.590  0.6082 -0.3090  1.5795
 9359TIP3    H228042   5.785   0.314   0.626 -0.0099  1.2907 -0.7999
 9360TIP3   OH228043   5.982   4.349   1.851 -0.2885  0.3239  0.5039
 9360TIP3    H128044   6.037   4.409   1.901  0.1494  0.8772 -0.6215
 9360TIP3    H228045   5.980   4.385   1.763  0.3962 -1.5625 -0.3305
 9361TIP3   OH228046   5.861   6.254   2.387 -0.0527 -0.0880  0.1825
 9361TIP3    H128047   5.835   6.344   2.404 -1.2239 -0.2858 -0.4398
 9361TIP3    H228048   5.884   6.253   2.294  0.3991 -0.3322  0.2953
 9362TIP3   OH228049   2.796   6.422   2.713 -0.1378 -0.3054  0.0561
 9362TIP3    H128050   2.760   6.403   2.626 -0.4447  1.1373 -0.1753
 9362TIP3    H228051   2.719   6.446   2.765  0.3175  1.9457 -0.1962
 9363TIP3   OH228052   3.027   5.108   4.245  0.0046 -0.5011 -0.2612
 9363TIP3    H128053   2.946   5.080   4.288 -0.3614 -0.6565 -1.0314
 9363TIP3    H228054   3.096   5.088   4.309 -0.5595 -0.3405  0.4154
 9364TIP3   OH228055   0.053   6.101   2.718 -0.3247  0.4232 -0.5547
 9364TIP3    H128056   0.044   6.196   2.722 -0.6528  0.5001 -2.1888
 9364TIP3    H228057   0.134   6.088   2.668 -0.5227 -0.1360 -0.7347
 9365TIP3   OH228058   1.709   1.057   2.135  0.1022  0.0926  0.2318
 9365TIP3    H128059   1.780   1.092   2.080 -1.2505  3.1650  0.2578
 9365TIP3    H228060   1.674   1.134   2.180 -2.0434 -1.6179  1.6437
 9366TIP3   OH228061   1.247   0.077   4.816  0.2363  0.2501  0.2520
 9366TIP3    H128062   1.266   0.136   4.742  1.2049  0.0228  0.3067
 9366TIP3    H228063   1.310   0.006   4.807 -1.7564 -1.5294 -0.5840
 9367TIP3   OH228064   4.454   1.212   4.463  0.0953  0.5979  0.0953
 9367TIP3    H128065   4.417   1.271   4.397 -1.6227  0.1170  0.5551
 9367TIP3    H228066   4.507   1.149   4.414 -0.4464  0.7793 -0.7314
 9368TIP3   OH228067   0.568   6.031   5.800 -0.0186 -0.0131  0.4313
 9368TIP3    H128068   0.604   5.969   5.863 -1.1601 -0.6368  0.5068
 9368TIP3    H228069   0.475   6.035   5.821 -0.4203 -0.1965 -1.1578
 9369TIP3   OH228070   3.679   4.170   1.375  0.8191  0.1877 -0.2672
 9369TIP3    H128071   3.619   4.130   1.438 -0.0804  0.8600 -0.6771
 9369TIP3    H228072   3.661   4.126   1.293  0.9996  0.2775 -0.3544
 9370TIP3   OH228073   3.329   3.376   3.307 -0.1204 -0.2893  0.0549
 9370TIP3    H128074   3.347   3.456   3.257 -0.3516 -1.1449 -1.4378
 9370TIP3    H228075   3.246   3.393   3.351 -1.1828 -0.4065 -1.8257
 9371TIP3   OH228076   4.951   1.004   3.404  0.0076  0.3476  0.9037
 9371TIP3    H128077   5.006   0.937   3.444  0.3705  0.7436  1.0636
 9371TIP3    H228078   4.980   1.086   3.443 -0.1165  0.6553  0.3559
 9372TIP3   OH228079   1.770   6.185   3.344 -0.0217  0.2783  0.6118
 9372TIP3    H128080   1.849   6.234   3.322  2.2197 -2.4505  1.8732
 9372TIP3    H228081   1.780   6.102   3.296 -3.0709  0.4710 -0.5792
 9373TIP3   OH228082   6.950   5.531   1.089  0.2871  0.3104  0.3213
 9373TIP3    H128083   6.944   5.530   1.185 -0.3400 -3.2409  0.3775
 9373TIP3    H228084   6.859   5.539   1.060  0.5212  2.0705 -0.0883
 9374TIP3   OH228085   2.581   0.245   5.090  0.3100  0.1855  0.8148
 9374TIP3    H128086   2.489   0.252   5.064  0.7206 -0.7075 -0.9979
 9374TIP3    H228087   2.593   0.317   5.152 -0.7845  2.4271 -1.4120
 9375TIP3   OH228088   5.551   1.216   0.345  0.3002 -0.1068 -0.6446
 9375TIP3    H128089   5.469   1.167   0.351  0.6119 -0.5764 -0.0542
 9375TIP3    H228090   5.604   1.165   0.283  0.5024 -0.3374 -0.2843
 9376TIP3   OH228091   3.792   4.588   4.426  0.6138 -0.4254 -0.1689
 9376TIP3    H128092   3.714   4.644   4.421  1.1819  0.2833 -2.7917
 9376TIP3    H228093   3.761   4.503   4.396  0.6618 -0.3696 -0.3789
 9377TIP3   OH228094   7.036   3.572   5.639  0.5768  0.1828 -0.4525
 9377TIP3    H128095   7.040   3.527   5.723  0.9253 -1.3195 -1.2371
 9377TIP3    H228096   7.096   3.646   5.648 -0.8180  1.1722  1.2221
 9378TIP3   OH228097   1.649   0.763   3.495 -0.0192  0.1706 -0.1020
 9378TIP3    H128098   1.669   0.670   3.496  2.4951  0.6594  0.8853
 9378TIP3    H228099   1.686   0.795   3.412  0.7351  0.5782  0.3790
 9379TIP3   OH228100   2.942   4.780   3.909  0.4999 -0.7075 -0.0455
 9379TIP3    H128101   3.027   4.778   3.864  1.2268 -0.1529  1.2167
 9379TIP3    H228102   2.963   4.815   3.996 -1.4646  2.4876 -0.6985
 9380TIP3   OH228103   6.599   0.198   1.929  0.0193 -0.1180  0.5249
 9380TIP3    H128104   6.514   0.220   1.890  0.6679 -0.1820 -0.9771
 9380TIP3    H228105   6.647   0.281   1.931 -0.2996  0.0694  2.0450
 9381TIP3   OH228106   5.510   0.438   2.986 -0.0479 -0.4889 -0.3236
 9381TIP3    H128107   5.430   0.411   3.030  1.3215 -0.2107  2.5700
 9381TIP3    H228108   5.562   0.481   3.054  2.0914  0.3853 -2.3510
 9382TIP3   OH228109   0.032   5.764   4.270  0.2673  0.0582  0.4974
 9382TIP3    H128110  -0.003   5.695   4.327  0.8988 -1.7106 -1.1108
 9382TIP3    H228111   0.038   5.841   4.325 -1.6623 -0.8336  2.0692
 9383TIP3   OH228112   6.575   5.566   5.367 -0.1845  0.0264 -0.3260
 9383TIP3    H128113   6.486   5.585   5.396  0.0950  0.5005  0.2339
 9383TIP3    H228114   6.568   5.483   5.320 -0.6098 -0.8730  1.2739
 9384TIP3   OH228115   0.934   1.097   2.651  0.7907  0.2370  0.0967
 9384TIP3    H128116   0.907   1.005   2.644 -0.8169  0.7746 -1.8468
 9384TIP3    H228117   0.918   1.120   2.742  0.6200 -1.2388  0.4651
 9385TIP3   OH228118   5.716   4.797   4.761 -0.0783 -0.2086  0.3628
 9385TIP3    H128119   5.779   4.748   4.707  0.3160  1.4679 -0.8009
 9385TIP3    H228120   5.630   4.765   4.732  0.1684 -1.7021  1.1571
 9386TIP3   OH228121   6.409   0.946   5.382 -0.1163 -0.0775  0.0198
 9386TIP3    H128122   6.378   0.868   5.336 -0.8767  0.3341 -0.1902
 9386TIP3    H228123   6.499   0.957   5.353  1.1042 -2.6387  2.3900
 9387TIP3   OH228124   4.443   4.767   2.501  0.0054  0.3581  0.1605
 9387TIP3    H128125   4.416   4.679   2.477  0.7919 -0.1739  1.1202
 9387TIP3    H228126   4.483   4.757   2.588  0.7681  1.5357 -0.0254
 9388TIP3   OH228127   4.149   3.767   5.667 -0.3938  0.2341  0.5875
 9388TIP3    H128128   4.213   3.799   5.731  0.6649  0.3952 -0.5147
 9388TIP3    H228129   4.064   3.795   5.702  0.2130  0.9811  1.5323
 9389TIP3   OH228130   1.783   1.499   4.570 -0.1890  0.4918 -0.2098
 9389TIP3    H128131   1.858   1.550   4.538  2.0881 -1.1568  2.1458
 9389TIP3    H228132   1.758   1.443   4.496  3.0703 -1.2287 -0.1659
 9390TIP3   OH228133   0.311   1.741   3.048 -0.2586 -0.3523  0.0744
 9390TIP3    H128134   0.285   1.821   3.094  1.6750  0.5158 -0.2142
 9390TIP3    H228135   0.229   1.702   3.019 -1.4555 -0.1525  2.9027
 9391TIP3   OH228136   2.255   4.620   1.939 -0.2231 -0.1296 -0.3030
 9391TIP3    H128137   2.286   4.705   1.970 -1.1141 -0.0068  0.2787
 9391TIP3    H228138   2.200   4.587   2.010 -0.8413 -0.6596 -1.0130
 9392TIP3   OH228139   1.210   1.728   3.250  0.4887 -0.0957 -0.0960
 9392TIP3    H128140   1.134   1.770   3.210  0.7543  2.6325  1.9163
 9392TIP3    H228141   1.173   1.662   3.309 -0.1924 -0.2104 -0.6470
 9393TIP3   OH228142   6.610   1.055   1.002  0.4422 -0.1245 -0.0391
 9393TIP3    H128143   6.603   1.066   0.907  3.0862 -1.3271 -0.4658
 9393TIP3    H228144   6.681   1.114   1.028  1.1555 -1.3076  0.8150
 9394TIP3   OH228145   5.292   3.517   1.030 -0.1316 -0.3967 -0.6717
 9394TIP3    H128146   5.261   3.591   0.979 -0.7621 -1.6164 -2.1291
 9394TIP3    H228147   5.213   3.471   1.057  0.2537 -0.6508  0.0594
 9395TIP3   OH228148   6.587   5.619   2.292  0.1122 -0.0656  0.0837
 9395TIP3    H128149   6.519   5.634   2.357 -1.8636  0.4439 -1.9454
 9395TIP3    H228150   6.596   5.702   2.246 -1.3121 -1.2746 -2.6468
 9396TIP3   OH228151   5.310   0.432   5.487 -0.1234 -0.2838 -0.4174
 9396TIP3    H128152   5.340   0.521   5.472 -0.0266 -0.0283  1.1398
 9396TIP3    H228153   5.216   0.435   5.472  0.0163 -0.1562 -1.3226
 9397TIP3   OH228154   0.811   3.046   5.473 -0.3319  0.0894 -0.3264
 9397TIP3    H128155   0.869   3.025   5.400  0.7353 -1.9093  1.0131
 9397TIP3    H228156   0.821   3.140   5.486  0.3631  0.2747 -1.9584
 9398TIP3   OH228157   3.163   4.406   2.776  0.2051 -0.0667  0.0249
 9398TIP3    H128158   3.224   4.446   2.715  1.2857 -0.9366  0.4975
 9398TIP3    H228159   3.179   4.312   2.767 -0.7961 -0.2934  0.4487
 9399TIP3   OH228160   2.129   5.929   3.297 -0.0014 -0.5399  0.0253
 9399TIP3    H128161   2.177   5.980   3.232 -0.6728 -0.3628 -0.3430
 9399TIP3    H228162   2.124   5.987   3.373 -0.7432 -0.0461 -0.3855
 9400TIP3   OH228163   0.274   4.879   4.796 -0.2263  0.1790  0.4654
 9400TIP3    H128164   0.352   4.891   4.741  0.6892  0.6750  1.8099
 9400TIP3    H228165   0.248   4.789   4.782  0.7674 -0.0782  0.1758
 9401TIP3   OH228166   1.761   1.950   4.142  0.1469 -0.6439  0.3037
 9401TIP3    H128167   1.758   1.862   4.104  0.5417  0.2705 -2.0171
 9401TIP3    H228168   1.851   1.979   4.127 -0.3784  0.7018 -0.3492
 9402TIP3   OH228169   2.496   5.122   1.193  0.8229  0.4761  0.6954
 9402TIP3    H128170   2.591   5.115   1.207  0.8329  0.8928  0.8583
 9402TIP3    H228171   2.482   5.215   1.176  0.3704  0.5110  1.2454
 9403TIP3   OH228172   5.746   4.887   2.837 -0.5579 -0.3289  0.3766
 9403TIP3    H128173   5.819   4.947   2.858 -0.0048 -0.3210 -1.4107
 9403TIP3    H228174   5.695   4.934   2.771 -1.7450 -0.6844  1.0121
 9404TIP3   OH228175   0.552   1.638   5.302  0.0958 -0.3126  0.4248
 9404TIP3    H128176   0.610   1.664   5.230 -1.0710 -0.0882 -0.4743
 9404TIP3    H228177   0.546   1.716   5.358  1.2485 -0.5844  0.9544
 9405TIP3   OH228178   1.920   2.252   1.371 -0.1590 -0.2010  0.4965
 9405TIP3    H128179   1.957   2.277   1.455 -0.4995 -0.5076  0.7395
 9405TIP3    H228180   1.843   2.308   1.361  0.1633  0.1900  0.1538
 9406TIP3   OH228181   1.988   4.316   2.890 -0.0522  0.1020 -0.5268
 9406TIP3    H128182   1.914   4.290   2.835  1.6570 -1.4235 -2.2899
 9406TIP3    H228183   2.001   4.409   2.870 -0.7389  0.0770 -1.1380
 9407TIP3   OH228184   1.934   2.557   4.279  0.2019  0.2214  0.2097
 9407TIP3    H128185   2.007   2.546   4.219  0.0017 -0.3042  0.0539
 9407TIP3    H228186   1.888   2.473   4.277 -0.0515  0.3370  0.7753
 9408TIP3   OH228187   3.286   2.061   3.874 -0.5263  0.1877  0.1823
 9408TIP3    H128188   3.309   2.133   3.815  1.1558  0.3791  0.9954
 9408TIP3    H228189   3.292   2.100   3.961 -3.4627  0.0365  0.5231
 9409TIP3   OH228190   4.335   6.118   2.068 -0.3484 -0.0671  0.2951
 9409TIP3    H128191   4.288   6.176   2.007 -0.6510 -1.1295 -0.5238
 9409TIP3    H228192   4.279   6.116   2.146  0.0775  1.3689  0.6682
 9410TIP3   OH228193   2.376   5.172   4.865 -0.0677  0.5309  0.3264
 9410TIP3    H128194   2.468   5.183   4.839  0.7314 -1.5625  1.9966
 9410TIP3    H228195   2.331   5.244   4.820  1.8073 -0.2284 -3.1937
 9411TIP3   OH228196   3.262   5.321   2.992 -0.1088 -0.0728  0.3345
 9411TIP3    H128197   3.357   5.306   2.989  0.0195  0.5411  0.9995
 9411TIP3    H228198   3.246   5.386   2.924 -0.2262 -0.9744 -0.5234
 9412TIP3   OH228199   5.534   6.330   4.505 -0.5598  0.3925  0.2869
 9412TIP3    H128200   5.565   6.387   4.575 -0.5188  1.4608 -0.5623
 9412TIP3    H228201   5.461   6.378   4.466 -0.6122 -0.1977 -0.3656
 9413TIP3   OH228202   0.888   4.969   3.487  0.0969  0.4059 -1.0437
 9413TIP3    H128203   0.800   4.934   3.501  0.0343  1.3404  1.3371
 9413TIP3    H228204   0.919   4.924   3.409 -2.3202 -0.2651 -1.7112
 9414TIP3   OH228205   1.669   4.036   5.702  0.2224 -0.1535 -0.2435
 9414TIP3    H128206   1.602   4.100   5.679  0.7599  0.3661 -0.4061
 9414TIP3    H228207   1.621   3.962   5.738 -0.4451  0.1341 -0.5313
 9415TIP3   OH228208   4.475   0.075   5.615 -0.1450  0.0412  0.2282
 9415TIP3    H128209   4.405   0.029   5.662 -0.2410 -0.0762 -0.0322
 9415TIP3    H228210   4.449   0.168   5.618 -0.8416 -0.1032 -0.7584
 9416TIP3   OH228211   7.123   3.180   2.833 -0.5546 -0.5102  0.5289
 9416TIP3    H128212   7.029   3.170   2.818 -0.1173 -1.1449 -2.2517
 9416TIP3    H228213   7.164   3.161   2.748  2.1310 -0.7171  1.7535
 9417TIP3   OH228214   5.689   3.425   2.544 -0.1797  0.5108 -0.1025
 9417TIP3    H128215   5.758   3.359   2.547  1.1738  1.8870  0.0905
 9417TIP3    H228216   5.734   3.507   2.525 -2.0262  1.1061 -2.5713
 9418TIP3   OH228217   5.792   6.648   0.589 -0.8330  0.5814  0.0690
 9418TIP3    H128218   5.792   6.670   0.496 -1.6421 -0.3980 -0.1664
 9418TIP3    H228219   5.844   6.718   0.629  0.2476  0.5621 -1.2138
 9419TIP3   OH228220   3.990   2.178   4.672  0.3628 -0.4652 -0.3065
 9419TIP3    H128221   4.011   2.269   4.653  2.6241 -1.1276 -1.3563
 9419TIP3    H228222   4.032   2.161   4.756  0.6843 -0.7710 -0.5282
 9420TIP3   OH228223   1.960   5.106   5.637  0.1380  0.1792 -0.0166
 9420TIP3    H128224   1.896   5.044   5.671  0.0327 -0.3299 -1.1261
 9420TIP3    H228225   1.907   5.176   5.599  0.2446  0.1677 -0.1867
 9421TIP3   OH228226   2.224   3.093   2.153 -0.1497 -0.1880  0.0048
 9421TIP3    H128227   2.303   3.130   2.191 -0.6207  2.3763 -1.2698
 9421TIP3    H228228   2.183   3.167   2.107 -2.4595 -1.7983 -0.6982
 9422TIP3   OH228229   6.365   5.827   5.239  0.2043  0.5211  0.1325
 9422TIP3    H128230   6.277   5.864   5.231 -0.9171 -2.3620 -3.6002
 9422TIP3    H228231   6.355   5.751   5.296 -0.3782 -1.1349 -2.0511
 9423TIP3   OH228232   0.540   1.171   0.620  0.5162  0.9376  0.0955
 9423TIP3    H128233   0.590   1.094   0.593 -0.0536  0.5376  0.1903
 9423TIP3    H228234   0.574   1.241   0.563  0.8404  0.5658 -0.1795
 9424TIP3   OH228235   2.160   2.181   3.291 -0.4094  0.0043 -0.0834
 9424TIP3    H128236   2.075   2.147   3.264 -0.9372  1.3175 -0.1668
 9424TIP3    H228237   2.146   2.276   3.300  1.1834  0.3261 -0.6524
 9425TIP3   OH228238   0.874   5.640   4.271  0.3408  0.1074  0.4740
 9425TIP3    H128239   0.841   5.712   4.324  0.2233  1.1091 -0.8900
 9425TIP3    H228240   0.967   5.632   4.295  0.3975  0.8447  0.5165
 9426TIP3   OH228241   2.702   5.476   4.449 -0.3976  0.0401 -0.1074
 9426TIP3    H128242   2.631   5.430   4.494 -0.7284  1.4531  0.8637
 9426TIP3    H228243   2.751   5.519   4.519 -0.2452  1.3491 -0.9903
 9427TIP3   OH228244   0.672   1.922   2.771 -0.3537 -0.1435 -0.2872
 9427TIP3    H128245   0.638   1.985   2.835 -0.9912  0.4248 -1.1643
 9427TIP3    H228246   0.710   1.852   2.824 -1.4851 -0.0182  0.7334
 9428TIP3   OH228247   4.868   3.366   3.464 -0.2328  0.0561  0.0258
 9428TIP3    H128248   4.849   3.422   3.539 -1.6676  1.3497 -1.2262
 9428TIP3    H228249   4.877   3.427   3.391 -3.3390 -1.3657 -1.7114
 9429TIP3   OH228250   2.168   3.501   2.520  0.6913 -0.1457  0.7294
 9429TIP3    H128251   2.172   3.592   2.491 -1.7140 -0.9472 -2.7944
 9429TIP3    H228252   2.240   3.458   2.475  0.0744 -0.4523  0.0014
 9430TIP3   OH228253   3.677   4.551   5.821  0.3755  0.3577 -0.3562
 9430TIP3    H128254   3.709   4.514   5.738  1.8615 -0.0088  0.3478
 9430TIP3    H228255   3.756   4.568   5.872 -0.4379  1.7397  0.5270
 9431TIP3   OH228256   5.942   1.656   0.490  0.1286  0.0350  0.1734
 9431TIP3    H128257   5.974   1.689   0.406  1.6444 -0.7730  0.3929
 9431TIP3    H228258   5.936   1.734   0.546  0.5033  0.3816 -0.2678
 9432TIP3   OH228259   5.831   5.291   2.254 -0.1156 -0.4245 -0.1269
 9432TIP3    H128260   5.884   5.347   2.312 -1.4281  3.5878 -2.3719
 9432TIP3    H228261   5.769   5.248   2.312  0.3591  1.2277  1.7239
 9433TIP3   OH228262   2.728   6.759   2.612  0.1982 -0.1362 -0.1915
 9433TIP3    H128263   2.725   6.851   2.636 -0.9963 -0.4113  0.8604
 9433TIP3    H228264   2.705   6.757   2.519  0.3302  0.6202 -0.2446
 9434TIP3   OH228265   3.693   3.451   5.136 -0.5118 -0.8421 -0.6111
 9434TIP3    H128266   3.697   3.526   5.196 -2.1792 -2.3083  1.5227
 9434TIP3    H228267   3.750   3.385   5.177  1.1301 -0.7360 -2.5834
 9435TIP3   OH228268   1.644   3.133   4.258 -0.0583  0.0180 -0.7552
 9435TIP3    H128269   1.587   3.058   4.243 -0.6554  0.5261 -1.0634
 9435TIP3    H228270   1.676   3.157   4.171  1.7851 -1.1317 -0.4598
 9436TIP3   OH228271   6.195   6.544   4.393  0.1079 -0.5565  0.6978
 9436TIP3    H128272   6.175   6.633   4.424  1.3244  0.1175 -0.3738
 9436TIP3    H228273   6.156   6.487   4.459  0.2477  0.7925  2.0063
 9437TIP3   OH228274   3.405   2.046   2.984 -0.2906 -0.2613 -0.1518
 9437TIP3    H128275   3.424   1.953   2.978 -0.8009 -0.2859 -1.8927
 9437TIP3    H228276   3.478   2.089   2.939 -1.8616 -0.0993 -2.7782
 9438TIP3   OH228277   2.262   3.763   4.694  0.1951  0.1642 -0.2139
 9438TIP3    H128278   2.243   3.729   4.606 -1.8810 -1.3732  0.7587
 9438TIP3    H228279   2.271   3.858   4.682 -1.4403  0.1535 -1.8822
 9439TIP3   OH228280   6.016   4.037   2.379  0.3500 -0.2731 -0.1551
 9439TIP3    H128281   5.953   4.104   2.351 -0.0086  0.5604  2.3825
 9439TIP3    H228282   6.063   4.014   2.299 -0.0343  2.4643 -1.2832
 9440TIP3   OH228283   1.153   1.054   1.773 -0.3473 -0.1303  0.1439
 9440TIP3    H128284   1.219   1.117   1.745 -0.8943  0.0507 -0.7799
 9440TIP3    H228285   1.072   1.083   1.730 -1.0975 -0.1879  1.4463
 9441TIP3   OH228286   2.864   6.274   4.892 -0.0569 -0.1173 -0.4267
 9441TIP3    H128287   2.893   6.188   4.920  0.9827 -0.2636 -1.8572
 9441TIP3    H228288   2.879   6.331   4.968 -1.0168 -1.2145  0.6231
 9442TIP3   OH228289   3.314   2.869   5.563  0.0645  0.5632 -0.4704
 9442TIP3    H128290   3.407   2.848   5.574  0.1580  0.8449 -0.6961
 9442TIP3    H228291   3.314   2.950   5.512 -0.3066  0.5656 -0.4695
 9443TIP3   OH228292   3.856   3.863   5.527  0.4769  0.0057 -0.2071
 9443TIP3    H128293   3.911   3.787   5.509 -0.8417 -0.6230 -1.8056
 9443TIP3    H228294   3.768   3.828   5.540  0.0696  1.1570  0.3491
 9444TIP3   OH228295   1.320   3.852   1.025 -0.7692  0.3138  0.3926
 9444TIP3    H128296   1.399   3.798   1.024  0.1266  1.5929 -0.6433
 9444TIP3    H228297   1.300   3.868   0.933 -1.3884  1.2032  0.6670
 9445TIP3   OH228298   0.570   3.745   3.876  0.3701  0.2341 -0.0274
 9445TIP3    H128299   0.647   3.781   3.832 -0.0438 -0.4112 -1.3338
 9445TIP3    H228300   0.578   3.650   3.864 -0.0308  0.0857  0.8478
 9446TIP3   OH228301   1.757   2.550   2.859 -0.1836 -0.1722 -0.1199
 9446TIP3    H128302   1.783   2.510   2.942 -0.9327 -0.1537  0.1286
 9446TIP3    H228303   1.742   2.642   2.881 -0.6122 -0.2165 -0.2293
 9447TIP3   OH228304   7.032   5.990   4.038  0.7564  0.0559  0.0976
 9447TIP3    H128305   6.974   6.063   4.015  0.8582  0.4518  1.0207
 9447TIP3    H228306   6.976   5.931   4.088  1.0650  0.3126  0.7649
 9448TIP3   OH228307   5.836   2.692   0.352 -0.0794  0.2076  0.4742
 9448TIP3    H128308   5.779   2.765   0.374 -2.0563 -0.7466 -1.0932
 9448TIP3    H228309   5.875   2.717   0.268  0.9381  0.3560  0.9779
 9449TIP3   OH228310   5.834   2.931   3.892 -0.2710  0.2111 -0.1726
 9449TIP3    H128311   5.805   3.018   3.919 -0.4722 -0.0934  0.6292
 9449TIP3    H228312   5.913   2.946   3.841  0.1013  0.8137  0.5822
 9450TIP3   OH228313   0.338   4.462   5.044  0.0931 -0.6325 -0.1000
 9450TIP3    H128314   0.369   4.543   5.084  1.0836 -0.8183 -0.4676
 9450TIP3    H228315   0.307   4.409   5.117  1.2468 -0.6944  0.3681
 9451TIP3   OH228316   4.593   3.084   0.160 -0.4620 -0.1446 -0.5728
 9451TIP3    H128317   4.532   3.145   0.201  0.6993  1.0960 -0.6198
 9451TIP3    H228318   4.556   2.998   0.178 -0.5782  0.3779  2.1642
 9452TIP3   OH228319   6.662   4.611   3.267 -0.1459  0.6608  0.3322
 9452TIP3    H128320   6.612   4.688   3.243 -0.9646 -0.8440 -3.3949
 9452TIP3    H228321   6.600   4.556   3.315 -0.6193  0.7942 -0.1250
 9453TIP3   OH228322   6.992   6.706   2.928  0.1526  0.1881 -0.0612
 9453TIP3    H128323   7.056   6.687   2.996  2.0045 -0.0664 -1.7980
 9453TIP3    H228324   6.979   6.801   2.934  0.1403  0.1464  0.7530
 9454TIP3   OH228325   6.844   1.299   5.228  0.6173 -0.4048 -0.1744
 9454TIP3    H128326   6.920   1.280   5.172  0.1727  0.5190 -1.1283
 9454TIP3    H228327   6.805   1.377   5.189 -1.7872 -1.7611 -0.7174
 9455TIP3   OH228328   0.542   0.251   3.308  0.0811  0.0310  0.4799
 9455TIP3    H128329   0.533   0.189   3.236  2.8399 -0.0903  0.1385
 9455TIP3    H228330   0.623   0.298   3.290 -0.2294  1.4740  2.4459
 9456TIP3   OH228331   4.422   1.243   5.510 -0.2158 -0.9878  0.0369
 9456TIP3    H128332   4.471   1.170   5.471 -0.1813  0.0245 -1.9650
 9456TIP3    H228333   4.460   1.321   5.470 -0.7885  0.0973  1.5273
 9457TIP3   OH228334   4.411   0.392   5.552  0.2139 -0.7016 -0.2636
 9457TIP3    H128335   4.494   0.372   5.510  0.4347 -0.6171  0.1252
 9457TIP3    H228336   4.435   0.420   5.641 -0.2862 -1.4808  0.1246
 9458TIP3   OH228337   2.565   6.390   3.687 -0.1223 -0.0624  0.1513
 9458TIP3    H128338   2.615   6.413   3.765  0.4112 -1.8774  0.3967
 9458TIP3    H228339   2.530   6.303   3.707 -2.1628  0.5350 -0.6087
 9459TIP3   OH228340   0.229   1.721   3.523 -0.3136  0.1054  0.3355
 9459TIP3    H128341   0.309   1.674   3.498 -0.7228 -0.1138 -0.5863
 9459TIP3    H228342   0.260   1.789   3.583  1.0213  1.8914 -2.1839
 9460TIP3   OH228343   2.400   5.891   0.019  0.2309 -0.0315  0.2597
 9460TIP3    H128344   2.426   5.799   0.021  1.8482  0.3441 -1.4619
 9460TIP3    H228345   2.323   5.893  -0.039  2.4643  0.1188 -2.9155
 9461TIP3   OH228346   5.569   1.073   1.353  0.1952  0.3129 -0.1598
 9461TIP3    H128347   5.551   1.103   1.443 -0.3451 -0.8878  0.1490
 9461TIP3    H228348   5.582   1.154   1.304  1.6831  0.9639  1.2250
 9462TIP3   OH228349   5.499   3.261   5.245 -0.2181 -0.0213  0.7545
 9462TIP3    H128350   5.524   3.306   5.325 -0.6926  1.7155 -0.0334
 9462TIP3    H228351   5.407   3.236   5.259  0.2193 -1.3521  1.4283
 9463TIP3   OH228352   4.280   1.281   4.665 -0.1466 -0.0168 -0.1379
 9463TIP3    H128353   4.241   1.358   4.625 -2.1185 -2.1216 -2.6406
 9463TIP3    H228354   4.344   1.251   4.601  0.3039 -0.6849  0.6072
 9464TIP3   OH228355   3.735   1.310   0.882  0.0690  0.3439 -0.1668
 9464TIP3    H128356   3.690   1.395   0.878  1.0922  0.8794 -2.2582
 9464TIP3    H228357   3.671   1.248   0.848 -0.0183  0.6322 -0.5391
 9465TIP3   OH228358   2.103   5.214   2.261 -0.7728 -0.5350 -0.7710
 9465TIP3    H128359   2.010   5.202   2.240 -1.1147  0.6122 -0.0554
 9465TIP3    H228360   2.123   5.301   2.226 -0.8573  0.6197  1.8341
 9466TIP3   OH228361   2.608   0.777   3.028 -0.0333  0.1956 -0.1633
 9466TIP3    H128362   2.595   0.772   3.123 -2.0357 -2.3952 -0.4490
 9466TIP3    H228363   2.530   0.822   2.996 -0.9630 -1.7368 -0.7587
 9467TIP3   OH228364   6.040  -0.000   2.618  0.3589  0.0491 -0.1327
 9467TIP3    H128365   5.971   0.012   2.552  0.8234 -0.1335 -0.6634
 9467TIP3    H228366   6.057   0.088   2.651  0.6711  0.2609 -0.8322
 9468TIP3   OH228367   0.567   2.501   0.747  0.1377  0.0802  0.6195
 9468TIP3    H128368   0.507   2.554   0.694  1.1206  1.2828  0.6611
 9468TIP3    H228369   0.547   2.525   0.838  0.7813  0.6243  0.6264
 9469TIP3   OH228370   0.064   1.151   1.231  0.1367 -0.4947  0.0983
 9469TIP3    H128371   0.008   1.073   1.236 -0.9263  0.2928  1.2339
 9469TIP3    H228372   0.073   1.168   1.137 -0.6855 -1.2542 -0.1345
 9470TIP3   OH228373   4.848   1.805   5.126 -0.0386  0.4282  0.2186
 9470TIP3    H128374   4.789   1.875   5.099  1.8142  1.9778 -0.0394
 9470TIP3    H228375   4.894   1.840   5.202 -0.4780 -1.3395  1.3591
 9471TIP3   OH228376   5.304   1.941   1.439  0.9965  0.1732 -0.5339
 9471TIP3    H128377   5.240   1.875   1.467  0.6045 -0.1892 -2.1746
 9471TIP3    H228378   5.385   1.917   1.485  0.5852 -0.8341 -0.3147
 9472TIP3   OH228379   6.649   0.001   0.575 -0.1383 -0.4502 -0.0430
 9472TIP3    H128380   6.652   0.096   0.572  0.8406 -0.3658  2.1068
 9472TIP3    H228381   6.578  -0.019   0.636  0.2062 -1.0725  0.1669
 9473TIP3   OH228382   5.119   3.599   0.545  0.4702  0.1360 -0.5327
 9473TIP3    H128383   5.104   3.604   0.451  1.6115  0.0511 -0.7299
 9473TIP3    H228384   5.120   3.505   0.564  1.1015  0.1313 -0.5838
 9474TIP3   OH228385   5.348   1.879   2.349  0.2983  0.1480 -0.3653
 9474TIP3    H128386   5.364   1.968   2.381 -1.3853  0.5440 -0.5302
 9474TIP3    H228387   5.349   1.825   2.428 -1.3162  0.7444  0.1097
 9475TIP3   OH228388   3.426   1.145   2.696 -0.2145  0.4008 -0.7409
 9475TIP3    H128389   3.334   1.172   2.685 -0.1227  0.3729 -1.6427
 9475TIP3    H228390   3.464   1.214   2.750 -0.7935  0.3468 -0.2441
 9476TIP3   OH228391   2.361   6.583   2.560  0.1234 -0.0738  0.0503
 9476TIP3    H128392   2.278   6.627   2.580  0.2525  0.1354  0.1246
 9476TIP3    H228393   2.352   6.555   2.469 -0.0399 -0.0754  0.0664
 9477TIP3   OH228394   2.965   3.823   4.960  1.0164  0.5406 -0.1245
 9477TIP3    H128395   3.057   3.809   4.981  0.9948  0.1999 -0.2521
 9477TIP3    H228396   2.944   3.754   4.897  0.2178 -0.4431  1.1659
 9478TIP3   OH228397   2.647   6.082   5.099  0.5035 -0.4566  0.0387
 9478TIP3    H128398   2.648   6.002   5.046  0.2631 -0.3407 -0.1423
 9478TIP3    H228399   2.558   6.117   5.088  0.4900 -0.3650  0.4155
 9479TIP3   OH228400   4.311   5.698   3.981  0.3532 -0.2799 -0.1271
 9479TIP3    H128401   4.344   5.782   3.949  1.9708  0.5160  3.2156
 9479TIP3    H228402   4.384   5.660   4.029 -0.7106 -3.1257 -0.5606
 9480TIP3   OH228403   3.226   6.224   4.992  0.2507  0.1385  0.0358
 9480TIP3    H128404   3.260   6.135   5.001  0.0185 -0.2992 -2.5692
 9480TIP3    H228405   3.144   6.223   5.040  0.4060 -0.9659  0.3181
 9481TIP3   OH228406   1.617   0.014   5.588  0.5135  0.5073  0.4283
 9481TIP3    H128407   1.650  -0.007   5.501 -1.5583  0.7524 -0.4927
 9481TIP3    H228408   1.695   0.027   5.642  1.8446 -1.1019 -1.0130
 9482TIP3   OH228409   3.893   5.246   2.110 -0.1264 -0.1470 -0.0094
 9482TIP3    H128410   3.858   5.217   2.195 -0.0087  2.5112  1.0405
 9482TIP3    H228411   3.830   5.213   2.046 -0.8391 -1.2614  1.2009
 9483TIP3   OH228412   2.722   4.615   5.218 -0.5178 -0.0750 -0.4293
 9483TIP3    H128413   2.804   4.663   5.223 -0.1114 -0.8069  0.1950
 9483TIP3    H228414   2.673   4.658   5.148  0.9708 -0.5122 -1.8032
 9484TIP3   OH228415   1.186   2.471   0.768  0.0666  0.1509  0.6218
 9484TIP3    H128416   1.239   2.447   0.693 -2.1183 -0.0833 -0.9527
 9484TIP3    H228417   1.167   2.565   0.756  1.5915  0.7023  2.1731
 9485TIP3   OH228418   4.731   1.198   3.904  0.3111  0.4443 -0.3509
 9485TIP3    H128419   4.798   1.130   3.911  1.1492  1.1449 -1.2288
 9485TIP3    H228420   4.680   1.174   3.826 -0.5564 -0.1599  0.3930
 9486TIP3   OH228421   3.122   4.372   0.572 -0.3421  0.0954  0.8229
 9486TIP3    H128422   3.061   4.348   0.642 -0.0731 -0.1633  0.9697
 9486TIP3    H228423   3.166   4.290   0.550 -0.6088  0.1209  0.1707
 9487TIP3   OH228424   5.248   1.342   0.355  0.2141 -0.1806 -0.6915
 9487TIP3    H128425   5.297   1.399   0.414  1.9882 -0.8329 -1.4578
 9487TIP3    H228426   5.251   1.256   0.396  0.1886 -0.3373 -1.0121
 9488TIP3   OH228427   5.401   0.053   2.877  0.2867  0.0223  0.3584
 9488TIP3    H128428   5.433   0.028   2.790  1.1182 -1.0129  0.9351
 9488TIP3    H228429   5.355   0.136   2.863  1.6781  0.6412 -0.8188
 9489TIP3   OH228430   5.775   4.586   2.695  0.4217  0.1416  0.1189
 9489TIP3    H128431   5.703   4.524   2.709 -0.2007  0.7011 -0.5310
 9489TIP3    H228432   5.745   4.667   2.736  0.7690  0.3225  0.0157
 9490TIP3   OH228433   6.423   2.780   5.140  0.3046 -0.1460 -0.4065
 9490TIP3    H128434   6.341   2.734   5.160  0.1191  0.5664  0.5489
 9490TIP3    H228435   6.491   2.726   5.180  0.1661 -0.0644 -0.0490
 9491TIP3   OH228436   5.421   0.255   4.071  0.5735  0.0523  0.6811
 9491TIP3    H128437   5.402   0.245   4.165  0.1559 -0.3134  0.5630
 9491TIP3    H228438   5.414   0.166   4.036  0.4073  0.2381  0.2415
 9492TIP3   OH228439   1.142   3.660   4.858 -0.2188  0.5614  0.2147
 9492TIP3    H128440   1.053   3.682   4.885 -0.0385 -0.1756  1.5159
 9492TIP3    H228441   1.141   3.564   4.849 -0.2059  0.7317 -2.3287
 9493TIP3   OH228442   5.475   4.006   5.020  0.3366 -1.2923  0.3234
 9493TIP3    H128443   5.566   3.981   5.003  0.7636 -0.2592  0.9892
 9493TIP3    H228444   5.424   3.954   4.958  1.5148 -0.5776 -1.3196
 9494TIP3   OH228445   6.503   0.974   0.485 -0.5271 -0.3437 -0.0638
 9494TIP3    H128446   6.539   0.887   0.469 -1.5192 -0.8672  0.4778
 9494TIP3    H228447   6.544   1.030   0.419 -0.1159 -1.2831 -0.6120
 9495TIP3   OH228448   4.400   0.730   4.545 -0.2149  0.0208 -0.4537
 9495TIP3    H128449   4.466   0.732   4.475 -0.3692 -0.5108 -0.6186
 9495TIP3    H228450   4.347   0.653   4.526 -1.0127  0.5502 -0.4342
 9496TIP3   OH228451   4.336   5.536   0.991 -0.1398  0.3264  0.6898
 9496TIP3    H128452   4.352   5.486   1.071 -1.4395 -1.3237 -0.0101
 9496TIP3    H228453   4.343   5.627   1.018  1.4836 -0.2007  2.2162
 9497TIP3   OH228454   3.552   3.836   0.216 -0.1242  0.2666 -0.2341
 9497TIP3    H128455   3.554   3.763   0.155  0.7849 -0.5924  0.7745
 9497TIP3    H228456   3.644   3.859   0.230 -0.3257  0.6723  0.5352
 9498TIP3   OH228457   5.857   5.611   3.279 -0.3017 -0.2624 -0.4882
 9498TIP3    H128458   5.925   5.593   3.344 -0.5457  0.8227  0.1004
 9498TIP3    H228459   5.806   5.531   3.275 -0.8477 -0.0535  1.3939
 9499TIP3   OH228460   5.245   2.203   5.558 -0.2976 -0.0432 -0.0692
 9499TIP3    H128461   5.238   2.278   5.498 -0.2402  0.9102  1.0641
 9499TIP3    H228462   5.339   2.182   5.559 -0.2588  0.1267 -0.1034
 9500TIP3   OH228463   1.805   6.452   1.281 -0.5220  0.1991 -0.1474
 9500TIP3    H128464   1.842   6.372   1.318  0.7943  1.3189  1.0849
 9500TIP3    H228465   1.717   6.459   1.319 -0.8887 -0.9402 -0.7495
 9501TIP3   OH228466   5.546   3.929   2.585 -0.2578 -0.3678 -0.3968
 9501TIP3    H128467   5.610   3.951   2.653  1.2903 -2.3472 -1.1328
 9501TIP3    H228468   5.535   3.834   2.593 -1.3220 -0.3896 -1.8417
 9502TIP3   OH228469   2.382   2.474   3.884 -0.2758 -0.4108 -0.7865
 9502TIP3    H128470   2.435   2.430   3.818  0.0726 -0.4072 -0.5156
 9502TIP3    H228471   2.296   2.433   3.878  0.3174 -1.8541  0.1430
 9503TIP3   OH228472   4.285   0.970   4.451 -0.1412  0.5027 -0.2656
 9503TIP3    H128473   4.367   1.014   4.426  0.2287 -0.7374 -1.3280
 9503TIP3    H228474   4.314   0.894   4.503 -0.4600 -0.9337 -2.0959
 9504TIP3   OH228475   4.932   3.090   1.056  0.1709 -0.0498  0.1300
 9504TIP3    H128476   4.946   3.171   1.104 -0.6790 -0.3288  0.8820
 9504TIP3    H228477   4.884   3.116   0.977 -1.7288  0.0011  1.2438
 9505TIP3   OH228478   5.450   0.635   5.363  0.2868  0.2159  0.5347
 9505TIP3    H128479   5.416   0.724   5.349 -3.9248 -1.4658 -2.1165
 9505TIP3    H228480   5.488   0.611   5.278  0.0667 -0.9363  0.7434
 9506TIP3   OH228481   6.035   2.032   1.825  0.1003 -0.5427  0.0747
 9506TIP3    H128482   6.081   2.116   1.836 -1.1588  0.3566 -1.1166
 9506TIP3    H228483   6.080   1.991   1.751  0.1793 -0.5174  0.1082
 9507TIP3   OH228484   2.449   3.452   2.446 -0.2403  0.0988  0.3342
 9507TIP3    H128485   2.524   3.451   2.505  0.7783 -1.9985 -0.8554
 9507TIP3    H228486   2.479   3.502   2.370  0.4197 -1.6317 -0.6011
 9508TIP3   OH228487   2.614   1.325   5.766 -0.0482 -0.2625  0.0366
 9508TIP3    H128488   2.635   1.268   5.692  0.4032  0.3646 -0.3255
 9508TIP3    H228489   2.683   1.308   5.830 -1.3784 -2.0962  1.0858
 9509TIP3   OH228490   3.686   2.386   3.836  0.3268 -0.0643  0.3822
 9509TIP3    H128491   3.702   2.464   3.889 -0.6970 -1.6048  3.0952
 9509TIP3    H228492   3.728   2.315   3.884 -1.8429 -1.7611 -0.0838
 9510TIP3   OH228493   5.323   3.470   3.242  0.0849 -0.2663  0.0706
 9510TIP3    H128494   5.302   3.510   3.158  1.2515  1.9964  0.7880
 9510TIP3    H228495   5.264   3.511   3.305  0.1858 -0.8959  0.5918
 9511TIP3   OH228496   1.185   6.730   1.143 -0.2221 -0.0238  0.1608
 9511TIP3    H128497   1.252   6.708   1.208  0.9132 -2.5747 -1.6820
 9511TIP3    H228498   1.102   6.712   1.186  0.3891  0.6271  1.6491
 9512TIP3   OH228499   0.366   4.627   1.060 -0.1925 -0.1886 -0.2422
 9512TIP3    H128500   0.304   4.691   1.025  0.3600  0.6790  0.3462
 9512TIP3    H228501   0.422   4.604   0.985  0.5182  1.0998 -0.1236
 9513TIP3   OH228502   4.036   2.709   5.572 -0.1281  1.1762 -0.0332
 9513TIP3    H128503   4.052   2.694   5.479  0.9693  1.3828  0.1090
 9513TIP3    H228504   3.973   2.641   5.597  1.8785 -0.9016 -0.2614
 9514TIP3   OH228505   0.997   4.535   5.551 -0.7206 -0.0928 -0.3029
 9514TIP3    H128506   0.918   4.585   5.529 -1.9261 -1.5494  0.5534
 9514TIP3    H228507   1.012   4.553   5.644 -0.4118 -0.3390 -0.3019
 9515TIP3   OH228508   5.024   1.091   0.361 -0.2381  0.4647 -0.1658
 9515TIP3    H128509   5.055   1.148   0.432 -0.8703 -0.7812  1.1599
 9515TIP3    H228510   4.978   1.020   0.406 -0.7239 -0.3277 -1.8470
 9516TIP3   OH228511   0.653   0.626   2.682  0.6134  0.1311  0.0926
 9516TIP3    H128512   0.676   0.569   2.754 -1.0121  2.1327  2.3659
 9516TIP3    H228513   0.558   0.624   2.679  0.4200  3.1540  0.7976
 9517TIP3   OH228514   4.912   4.515   0.362  0.1293 -0.0212  0.0150
 9517TIP3    H128515   4.995   4.482   0.397  0.3372  1.2535  0.8166
 9517TIP3    H228516   4.854   4.440   0.361  1.2310 -0.8874 -0.3317
 9518TIP3   OH228517   1.513   2.619   4.895  0.3955 -0.1722 -0.6963
 9518TIP3    H128518   1.578   2.562   4.854  0.8777 -0.0982 -0.0537
 9518TIP3    H228519   1.499   2.581   4.982 -2.3690 -1.7119 -1.6838
 9519TIP3   OH228520   1.450   0.645   1.788 -0.0467 -0.7000  0.3892
 9519TIP3    H128521   1.531   0.634   1.738 -1.2858 -0.0030 -1.9356
 9519TIP3    H228522   1.428   0.738   1.777 -0.5674 -0.6101  1.9765
 9520TIP3   OH228523   1.459   2.766   1.114  0.4813  0.7761 -0.2183
 9520TIP3    H128524   1.552   2.791   1.109  1.0020 -1.1753 -1.2186
 9520TIP3    H228525   1.432   2.756   1.023  0.1992 -1.6838  0.0716
 9521TIP3   OH228526   1.119   5.791   4.453  0.1916  0.2127  0.4809
 9521TIP3    H128527   1.076   5.830   4.529 -1.4297  0.8236 -0.6722
 9521TIP3    H228528   1.186   5.855   4.428  0.1938  0.3906  0.9332
 9522TIP3   OH228529   3.952   2.010   4.431  0.8404  0.6777  0.8083
 9522TIP3    H128530   3.989   1.925   4.454  1.8082  1.1758  1.1616
 9522TIP3    H228531   3.921   2.045   4.515 -0.4948  0.2578  0.5141
 9523TIP3   OH228532   6.739   2.824   5.174 -0.0491 -0.0511  0.3838
 9523TIP3    H128533   6.656   2.868   5.192  0.0481  0.3381 -0.1051
 9523TIP3    H228534   6.804   2.875   5.223 -0.1223 -0.5080  0.9778
 9524TIP3   OH228535   0.783   3.050   2.575 -0.1710 -0.1378  0.0802
 9524TIP3    H128536   0.792   3.059   2.481  1.8457 -0.3677  0.1996
 9524TIP3    H228537   0.873   3.039   2.607 -0.8912 -1.2869  1.9013
 9525TIP3   OH228538   1.037   1.689   4.608 -0.0378 -0.2010  0.1198
 9525TIP3    H128539   1.055   1.746   4.534  0.7781 -0.2135  0.2999
 9525TIP3    H228540   0.948   1.712   4.635  0.5618  1.5795  0.7196
 9526TIP3   OH228541   2.982   4.958   3.131 -0.1626 -0.2812 -0.1156
 9526TIP3    H128542   2.897   4.915   3.132 -0.4971  0.3663 -0.0971
 9526TIP3    H228543   2.973   5.029   3.195  1.4061 -2.0964  2.3154
 9527TIP3   OH228544   3.071   2.423   1.607 -0.2886 -0.3468 -0.0509
 9527TIP3    H128545   3.033   2.463   1.685  0.0529 -0.2476  0.0702
 9527TIP3    H228546   2.999   2.415   1.545 -0.3076  0.7523 -0.1926
 9528TIP3   OH228547   0.344   0.919   1.302  0.0547 -0.2689  0.8516
 9528TIP3    H128548   0.373   0.838   1.258  0.9500  0.3056  0.3438
 9528TIP3    H228549   0.334   0.982   1.231  2.8360  1.0740  1.5011
 9529TIP3   OH228550   3.583   4.772   4.446  1.1877 -0.0244  0.3822
 9529TIP3    H128551   3.527   4.751   4.371  0.9163  0.9549  0.2950
 9529TIP3    H228552   3.554   4.860   4.473  2.1445  0.1566  0.8354
 9530TIP3   OH228553   5.901   4.490   1.624 -0.0369  0.3831  0.3740
 9530TIP3    H128554   5.830   4.434   1.594  0.2452 -0.4623  1.2363
 9530TIP3    H228555   5.948   4.514   1.544  1.8525 -3.3796  0.1175
 9531TIP3   OH228556   0.511   5.923   0.550  0.0042 -0.1275 -0.5548
 9531TIP3    H128557   0.530   5.861   0.480 -1.1914 -0.9315 -0.2095
 9531TIP3    H228558   0.476   5.868   0.621 -1.8545  0.9904 -0.5219
 9532TIP3   OH228559   5.070   0.250   4.334  0.7375 -0.0643 -0.4531
 9532TIP3    H128560   5.137   0.207   4.386  1.0387  0.2679 -0.5606
 9532TIP3    H228561   5.114   0.325   4.295 -0.3254  1.6708  1.5190
 9533TIP3   OH228562   6.945   3.998   4.854 -0.2117 -0.3771 -0.0710
 9533TIP3    H128563   6.969   3.949   4.932  1.4681 -1.2047 -1.0386
 9533TIP3    H228564   6.947   3.934   4.783 -0.0514  0.6598 -1.0469
 9534TIP3   OH228565   2.728   5.856   0.614 -0.1758 -0.3207 -0.5548
 9534TIP3    H128566   2.820   5.883   0.615 -0.1986 -0.0046 -2.8478
 9534TIP3    H228567   2.699   5.873   0.525 -2.7117  0.3519  0.3212
 9535TIP3   OH228568   0.024   5.203   0.571  0.4078 -0.3119  0.5466
 9535TIP3    H128569   0.065   5.261   0.635 -0.3773 -0.4357  1.1834
 9535TIP3    H228570   0.001   5.261   0.498  1.6366 -0.2332  0.1960
 9536TIP3   OH228571   5.969   6.118   3.346 -0.2842  0.2968  0.0475
 9536TIP3    H128572   5.950   6.051   3.412 -0.1096  1.0277  0.8686
 9536TIP3    H228573   5.899   6.183   3.356  0.1525  0.7806  0.0312
 9537TIP3   OH228574   5.716   0.819   2.407 -0.3751  0.2077 -0.1220
 9537TIP3    H128575   5.781   0.877   2.366  1.0262 -0.3196  1.2282
 9537TIP3    H228576   5.632   0.859   2.386  0.4538  1.7780 -0.6779
 9538TIP3   OH228577   1.653   4.116   1.670 -0.5458 -0.0227  0.0335
 9538TIP3    H128578   1.612   4.111   1.584 -0.3448  1.4370 -0.1575
 9538TIP3    H228579   1.741   4.079   1.657  1.5707  4.8746 -1.7689
 9539TIP3   OH228580   0.383   4.932   5.035  0.0475  0.0228 -0.3429
 9539TIP3    H128581   0.308   4.897   4.988  0.9705 -0.9259 -1.1586
 9539TIP3    H228582   0.422   4.995   4.975  0.6836 -0.4977 -0.4915
 9540TIP3   OH228583   4.038   3.450   1.493  0.3105  0.1621 -0.4591
 9540TIP3    H128584   3.961   3.424   1.545  0.4240  1.7823  0.5887
 9540TIP3    H228585   4.032   3.545   1.487  0.8547  0.1224 -2.6220
 9541TIP3   OH228586   1.477   5.229   5.637 -0.1227 -0.0019 -0.4410
 9541TIP3    H128587   1.390   5.257   5.608 -0.6343 -1.9534 -0.9315
 9541TIP3    H228588   1.535   5.253   5.565 -0.6156 -0.5184 -1.0287
 9542TIP3   OH228589   1.711   1.219   1.128 -0.0569 -0.1558 -0.0558
 9542TIP3    H128590   1.769   1.144   1.115  2.9388  1.3814  2.8685
 9542TIP3    H228591   1.639   1.185   1.181  1.5343 -0.9556  1.7074
 9543TIP3   OH228592   3.085   1.494   5.711  0.1294  0.3141 -0.2293
 9543TIP3    H128593   3.101   1.553   5.784  0.7519  1.7332 -1.4638
 9543TIP3    H228594   3.040   1.419   5.750  0.0379  1.2282  1.5108
 9544TIP3   OH228595   3.847   4.886   3.463 -0.3298 -0.0920  0.2685
 9544TIP3    H128596   3.841   4.980   3.483 -2.0000 -0.3057  0.9374
 9544TIP3    H228597   3.762   4.851   3.488 -0.9425 -1.2459 -3.0099
 9545TIP3   OH228598   1.567   6.404   4.684 -0.7459  0.3764  0.0824
 9545TIP3    H128599   1.524   6.328   4.644  0.5014  0.0054 -0.5946
 9545TIP3    H228600   1.528   6.410   4.771 -1.0980 -0.8421  0.0299
 9546TIP3   OH228601   0.732   6.281   2.641 -0.2197  0.1141 -0.8191
 9546TIP3    H128602   0.816   6.237   2.628 -0.5402 -0.1736 -2.0810
 9546TIP3    H228603   0.673   6.240   2.577 -1.0239  1.0819 -0.7248
 9547TIP3   OH228604   0.014   3.299   3.998 -0.6105  0.4343  0.2850
 9547TIP3    H128605   0.102   3.333   4.014 -0.8867  1.2986  0.0462
 9547TIP3    H228606  -0.019   3.276   4.084 -0.3016  0.4899  0.4206
 9548TIP3   OH228607   0.618   0.138   5.425  0.2017  0.1556 -0.3421
 9548TIP3    H128608   0.690   0.103   5.478  0.7449  1.4359 -0.1882
 9548TIP3    H228609   0.539   0.112   5.472  0.4092 -2.7651 -1.4072
 9549TIP3   OH228610   0.025   3.072   4.517 -0.4613 -0.1406  0.3142
 9549TIP3    H128611   0.081   2.999   4.490 -0.8899 -1.0784  1.8459
 9549TIP3    H228612   0.086   3.139   4.549 -0.1227 -0.2790 -0.0373
 9550TIP3   OH228613   5.018   5.158   2.867 -0.4770 -0.0899 -0.3498
 9550TIP3    H128614   4.989   5.067   2.862  0.0439 -0.3295  0.6299
 9550TIP3    H228615   5.070   5.172   2.788  0.3371 -0.9886  0.0027
 9551TIP3   OH228616   4.571   1.789   1.157 -0.2252  0.2933 -0.0512
 9551TIP3    H128617   4.589   1.883   1.150 -0.8908  0.4478  0.1860
 9551TIP3    H228618   4.477   1.782   1.138 -0.4428 -0.1779  1.1176
 9552TIP3   OH228619   3.389   4.562   5.060 -0.2478 -0.0859 -0.1382
 9552TIP3    H128620   3.371   4.469   5.058 -1.7506  0.1618  0.7317
 9552TIP3    H228621   3.436   4.576   5.142 -1.1648  0.0976  0.3649
 9553TIP3   OH228622   6.603   1.507   1.545 -0.3674 -0.3695  0.4901
 9553TIP3    H128623   6.676   1.536   1.599 -0.3271  0.0177  0.2294
 9553TIP3    H228624   6.620   1.545   1.459  0.3137 -2.1207 -0.2014
 9554TIP3   OH228625   2.638   1.228   3.748 -0.6788  0.1421  0.1595
 9554TIP3    H128626   2.611   1.177   3.824  0.1764  0.1956  0.5065
 9554TIP3    H228627   2.683   1.166   3.692  3.2786  0.9881  2.0227
 9555TIP3   OH228628   4.668   1.087   0.903  0.1497  0.8480  0.7230
 9555TIP3    H128629   4.603   1.143   0.861 -0.6721 -0.4760  0.1782
 9555TIP3    H228630   4.705   1.035   0.832  0.1651 -0.0197  1.3381
 9556TIP3   OH228631   0.161   6.793   1.084  0.1276  0.4789 -0.4462
 9556TIP3    H128632   0.159   6.878   1.039 -0.3079  1.6634  1.6698
 9556TIP3    H228633   0.238   6.749   1.049  1.9668  2.8905  0.2927
 9557TIP3   OH228634   2.309   0.785   5.636  0.0477 -0.1618 -0.1065
 9557TIP3    H128635   2.308   0.740   5.720 -1.4209 -1.1152 -0.6005
 9557TIP3    H228636   2.274   0.872   5.654  2.6605  0.8021  0.8087
 9558TIP3   OH228637   1.766   5.308   5.643  0.0919 -0.4626 -0.0686
 9558TIP3    H128638   1.737   5.390   5.603 -0.6687 -0.0490  1.2807
 9558TIP3    H228639   1.760   5.324   5.737 -1.4295 -2.5396  0.2353
 9559TIP3   OH228640   1.785   2.426   5.594  0.1694 -0.5127  0.8695
 9559TIP3    H128641   1.767   2.465   5.680  0.6059 -0.8370  1.1134
 9559TIP3    H228642   1.771   2.332   5.607 -0.9899 -0.4486  0.2552
 9560TIP3   OH228643   2.344   5.609   2.649  0.6639 -0.1360  0.3717
 9560TIP3    H128644   2.435   5.615   2.621  0.5622 -1.4675 -0.3273
 9560TIP3    H228645   2.316   5.522   2.620 -0.1596 -0.6637  2.5629
 9561TIP3   OH228646   6.888   4.853   0.833  0.4032  0.1481  0.2308
 9561TIP3    H128647   6.912   4.894   0.916 -0.9886  0.5339  0.4557
 9561TIP3    H228648   6.931   4.907   0.766  0.2325  0.7760  0.6248
 9562TIP3   OH228649   2.618   6.123   0.852  0.1690 -0.3152 -0.0410
 9562TIP3    H128650   2.712   6.134   0.838 -0.0935  0.5581 -1.2871
 9562TIP3    H228651   2.599   6.171   0.932  0.7257 -0.2473  0.0540
 9563TIP3   OH228652   0.352   2.731   5.196  0.0680  0.4871 -0.8265
 9563TIP3    H128653   0.276   2.685   5.162 -0.5842 -0.2518  1.4654
 9563TIP3    H228654   0.381   2.680   5.271  2.2966  1.2496 -1.0707
 9564TIP3   OH228655   4.532   1.084   2.858 -0.1121 -0.2676 -0.3264
 9564TIP3    H128656   4.536   1.040   2.773 -0.6643  0.0526 -0.5178
 9564TIP3    H228657   4.456   1.142   2.852  0.8809  1.0754 -0.2397
 9565TIP3   OH228658   1.077   6.280   0.965 -0.4486 -0.2692 -0.5766
 9565TIP3    H128659   1.143   6.331   0.918  0.3712 -2.8158 -2.3884
 9565TIP3    H228660   0.995   6.303   0.922 -0.0528 -0.6680 -1.5788
 9566TIP3   OH228661   1.095   3.286   5.308  0.1370  0.5933  0.0271
 9566TIP3    H128662   1.047   3.253   5.232  0.3293 -2.1328  0.9729
 9566TIP3    H228663   1.028   3.328   5.362 -0.5321  0.0594 -0.3690
 9567TIP3   OH228664   3.918   1.662   4.898 -0.5116 -0.3026 -0.2749
 9567TIP3    H128665   3.832   1.676   4.937 -0.7165 -0.5366 -0.6303
 9567TIP3    H228666   3.929   1.567   4.896 -0.7946 -0.3293 -1.3754
 9568TIP3   OH228667   2.118   5.277   0.441 -0.4940 -0.0721  0.3234
 9568TIP3    H128668   2.193   5.321   0.480 -0.2063 -0.4247  0.1713
 9568TIP3    H228669   2.044   5.305   0.495 -0.2828  0.4134  0.3686
 9569TIP3   OH228670   6.602   4.517   0.602 -0.3406  0.8733  0.1604
 9569TIP3    H128671   6.608   4.431   0.644 -1.3551  0.5068 -0.4159
 9569TIP3    H228672   6.596   4.579   0.675  2.3464  0.6917  0.6606
 9570TIP3   OH228673   1.328   4.244   2.314 -0.3180  0.4044 -0.2953
 9570TIP3    H128674   1.309   4.328   2.271  0.6457  0.1147 -1.3525
 9570TIP3    H228675   1.412   4.259   2.357  0.2375 -0.2209 -1.1263
 9571TIP3   OH228676   1.445   1.266   5.241  0.1715  0.2602  0.3875
 9571TIP3    H128677   1.516   1.212   5.206 -0.6529  0.9886 -2.7731
 9571TIP3    H228678   1.384   1.204   5.281  0.2674 -0.9985 -1.2872
 9572TIP3   OH228679   0.976   5.697   2.937  0.1338 -0.4212  0.2461
 9572TIP3    H128680   0.916   5.657   3.000 -0.0953  0.4274  0.5881
 9572TIP3    H228681   1.056   5.713   2.987 -0.9207  2.7123  1.1672
 9573TIP3   OH228682   1.400   5.089   0.474  0.1252 -0.1159 -0.1428
 9573TIP3    H128683   1.378   5.073   0.382  0.3019 -1.3821  0.0088
 9573TIP3    H228684   1.429   5.003   0.506  1.1429  0.5541  0.7996
 9574TIP3   OH228685   2.352   0.922   5.096  0.9255  0.2363 -0.2255
 9574TIP3    H128686   2.356   0.829   5.072 -0.2168 -0.5152  2.2364
 9574TIP3    H228687   2.260   0.946   5.087  0.8946  0.5992  0.8760
 9575TIP3   OH228688   7.053   4.787   0.230  0.1708 -0.7297  0.2312
 9575TIP3    H128689   7.086   4.811   0.316  2.6615  0.7479 -1.0235
 9575TIP3    H228690   6.991   4.857   0.208 -0.6136 -1.2095  0.8510
 9576TIP3   OH228691   2.777   2.642   5.601 -0.0761  0.0330  0.1370
 9576TIP3    H128692   2.768   2.730   5.562 -2.6643 -1.0403 -2.0307
 9576TIP3    H228693   2.741   2.651   5.689 -1.2459  1.0041 -0.3957
 9577TIP3   OH228694   6.956   3.497   2.330  0.4443  0.0964 -0.3277
 9577TIP3    H128695   6.953   3.402   2.338 -1.0836 -0.0109 -1.6023
 9577TIP3    H228696   7.047   3.517   2.309  0.5018 -1.2536 -1.5450
 9578TIP3   OH228697   2.775   5.663   2.889  0.2662 -0.2303  0.1408
 9578TIP3    H128698   2.832   5.592   2.919 -0.0821  0.3729  2.4051
 9578TIP3    H228699   2.829   5.742   2.896 -0.5065  0.2150  1.4002
 9579TIP3   OH228700   4.110   2.624   4.997 -0.4532 -0.2534 -0.1415
 9579TIP3    H128701   4.144   2.672   4.921  1.1845 -1.2074 -0.0471
 9579TIP3    H228702   4.017   2.611   4.976 -0.4215  0.9511 -1.1981
 9580TIP3   OH228703   5.693   6.704   4.877 -0.0658  0.2907 -0.0114
 9580TIP3    H128704   5.737   6.704   4.962 -0.7905  2.1512  0.4125
 9580TIP3    H228705   5.708   6.792   4.843 -1.0290  0.0349 -1.1514
 9581TIP3   OH228706   1.445   1.089   1.534  0.0563  0.3627 -0.1730
 9581TIP3    H128707   1.421   0.996   1.527 -0.3551  0.5379 -1.2384
 9581TIP3    H228708   1.419   1.114   1.623  0.6307 -0.6632  0.3051
 9582TIP3   OH228709   0.391   1.846   2.375 -0.5616  0.3713 -0.1848
 9582TIP3    H128710   0.467   1.900   2.397  0.6990 -1.3824 -0.0609
 9582TIP3    H228711   0.372   1.796   2.455 -0.1565 -1.1335 -0.9968
 9583TIP3   OH228712   6.585   5.345   4.920 -0.5617 -0.0329  0.1558
 9583TIP3    H128713   6.618   5.427   4.956  0.6807  0.2325 -1.4536
 9583TIP3    H228714   6.517   5.371   4.858  0.7461 -0.0575 -1.3544
 9584TIP3   OH228715   1.507   4.858   0.607  1.0378  0.3568  0.3697
 9584TIP3    H128716   1.483   4.834   0.697  2.1968  0.7022  0.7941
 9584TIP3    H228717   1.598   4.828   0.598  0.7855 -0.0919 -0.8556
 9585TIP3   OH228718   4.602   5.322   1.568 -0.3990 -0.1096  0.0684
 9585TIP3    H128719   4.665   5.335   1.498  0.4299 -1.2996  0.5556
 9585TIP3    H228720   4.652   5.278   1.638 -1.5888 -0.4518  0.7417
 9586TIP3   OH228721   0.552   5.312   4.018 -0.0664 -0.1386 -0.1489
 9586TIP3    H128722   0.617   5.374   3.985  1.6455 -0.7543  1.8557
 9586TIP3    H228723   0.498   5.363   4.077  0.8690 -0.3476  0.9179
 9587TIP3   OH228724   1.720  -0.011   4.473 -0.0851 -0.4548 -0.2767
 9587TIP3    H128725   1.681   0.027   4.394 -0.9819 -0.2597  0.2513
 9587TIP3    H228726   1.796   0.044   4.491 -1.6361  1.4992  0.7693
 9588TIP3   OH228727   1.111   5.529   5.482  0.4136  0.0682  0.6440
 9588TIP3    H128728   1.156   5.549   5.400  1.0786  0.6355  1.1343
 9588TIP3    H228729   1.174   5.479   5.533 -0.5729 -1.7181  0.1875
 9589TIP3   OH228730   6.179   0.055   2.891 -0.3520  0.3871  0.3232
 9589TIP3    H128731   6.132  -0.028   2.881  3.1149 -1.7755  0.4796
 9589TIP3    H228732   6.232   0.063   2.813 -2.0917  3.6956 -0.7079
 9590TIP3   OH228733   5.767   2.832   5.496 -0.4758  0.3772  0.6835
 9590TIP3    H128734   5.721   2.846   5.579 -0.4224 -0.5859  0.8928
 9590TIP3    H228735   5.752   2.912   5.446 -1.4481  0.5179  1.1805
 9591TIP3   OH228736   0.672   0.584   0.054  0.0721 -0.1114 -0.0443
 9591TIP3    H128737   0.662   0.506  -0.000  0.0456  1.4655 -2.4271
 9591TIP3    H228738   0.582   0.608   0.078 -0.3022  1.2913 -2.5553
 9592TIP3   OH228739   3.597   6.465   4.458 -0.3254  0.2934 -0.6871
 9592TIP3    H128740   3.503   6.468   4.479 -0.6001 -0.8783 -1.6407
 9592TIP3    H228741   3.636   6.533   4.514 -1.2710 -1.3275  2.1723
 9593TIP3   OH228742   1.522   0.583   3.765  0.1429 -0.0917  0.1958
 9593TIP3    H128743   1.472   0.603   3.686  0.7555  2.5301  0.3781
 9593TIP3    H228744   1.585   0.516   3.737 -0.5903 -0.2609 -1.1351
 9594TIP3   OH228745   1.082   2.376   4.939 -0.0276  0.6795 -0.2594
 9594TIP3    H128746   1.046   2.441   5.000  0.8133  0.2185  0.7720
 9594TIP3    H228747   1.144   2.426   4.886 -0.0366  0.8993 -0.0685
 9595TIP3   OH228748   6.050   4.707   5.170 -0.7656 -0.2175 -0.2322
 9595TIP3    H128749   6.029   4.699   5.077 -0.0096  1.0006 -0.5300
 9595TIP3    H228750   6.114   4.778   5.174 -1.8046  0.7014  1.3648
 9596TIP3   OH228751   5.553   0.327   5.402  0.5207 -0.2170 -0.4407
 9596TIP3    H128752   5.558   0.382   5.323  2.0445  2.1907  1.2032
 9596TIP3    H228753   5.464   0.340   5.435  0.8726  1.4550 -0.0294
 9597TIP3   OH228754   2.741   1.356   1.660 -0.0298 -0.0297 -0.0184
 9597TIP3    H128755   2.661   1.306   1.675 -0.4105  0.9738  1.5219
 9597TIP3    H228756   2.713   1.433   1.611  0.0803  0.0517  0.0443
 9598TIP3   OH228757   1.576   5.180   0.713 -0.1434  0.0759  0.4122
 9598TIP3    H128758   1.526   5.185   0.631 -0.5564  1.7078  0.7141
 9598TIP3    H228759   1.667   5.181   0.685 -0.2319 -2.2850 -0.1194
 9599TIP3   OH228760   0.395   0.488   3.406 -0.3676  0.4005  0.2801
 9599TIP3    H128761   0.350   0.492   3.490  0.0115 -0.2588  0.5267
 9599TIP3    H228762   0.440   0.403   3.408  3.5730  2.3168  1.4041
 9600TIP3   OH228763   1.961   2.814   3.651  0.8318 -0.0651 -0.3418
 9600TIP3    H128764   1.894   2.753   3.682 -0.1539  2.0262  2.0849
 9600TIP3    H228765   2.038   2.795   3.704  0.9282 -0.0173 -0.4629
 9601TIP3   OH228766   7.117   6.038   5.521  0.4547  0.0003  0.9309
 9601TIP3    H128767   7.150   5.970   5.580 -0.1745  0.9484  2.4519
 9601TIP3    H228768   7.187   6.104   5.521  1.0443 -0.5944 -0.5028
 9602TIP3   OH228769   1.770   5.206   0.062  0.9221  0.2566  1.0141
 9602TIP3    H128770   1.772   5.119   0.023 -1.8635  1.1406 -1.4524
 9602TIP3    H228771   1.838   5.254   0.016  1.9150 -0.3509  1.8077
 9603TIP3   OH228772   6.129   4.559   4.569 -0.2457  0.3620  0.1694
 9603TIP3    H128773   6.203   4.618   4.554  1.2659 -1.8864 -1.9476
 9603TIP3    H228774   6.169   4.473   4.580 -2.5216 -1.0406 -1.6521
 9604TIP3   OH228775   0.380  -0.003   1.894  0.2460 -0.0390  0.3172
 9604TIP3    H128776   0.445  -0.016   1.825  0.9896  0.6211  0.8757
 9604TIP3    H228777   0.324   0.067   1.862  0.8394  0.5500  0.5507
 9605TIP3   OH228778   4.176   1.390   5.482  0.3960 -0.2058  0.7885
 9605TIP3    H128779   4.260   1.354   5.509  1.7149  0.3149 -2.2378
 9605TIP3    H228780   4.154   1.342   5.401 -1.0719  1.2135  0.2776
 9606TIP3   OH228781   1.857   0.552   4.042 -0.8718 -0.9715 -0.4673
 9606TIP3    H128782   1.813   0.625   3.998 -0.4518  0.2961  1.1411
 9606TIP3    H228783   1.786   0.493   4.066 -1.6314  0.5130  1.1147
 9607TIP3   OH228784   0.925   2.948   4.497  0.3825  0.3154  0.6394
 9607TIP3    H128785   0.969   3.006   4.558 -0.1674  0.0403  1.3131
 9607TIP3    H228786   0.978   2.952   4.417  1.3343  0.3756  1.2587
 9608TIP3   OH228787   6.427   0.257   1.122 -0.0421  0.2039  0.4992
 9608TIP3    H128788   6.499   0.309   1.156 -1.7946  0.9706  3.3418
 9608TIP3    H228789   6.349   0.311   1.135 -1.1943 -0.5011 -2.6539
 9609TIP3   OH228790   5.024   2.172   2.612 -0.0916  0.1143 -1.1004
 9609TIP3    H128791   4.942   2.124   2.619 -0.1157  0.3406  0.5724
 9609TIP3    H228792   5.091   2.107   2.636  0.1285  0.1710 -1.5662
 9610TIP3   OH228793   0.154   0.009   3.169  0.5712 -0.6538  0.3040
 9610TIP3    H128794   0.165   0.067   3.244 -0.4804 -1.0043  0.7512
 9610TIP3    H228795   0.130   0.068   3.097  0.3433 -0.4377  0.5525
 9611TIP3   OH228796   4.460   2.285   0.258 -0.6791  0.3238  0.3238
 9611TIP3    H128797   4.399   2.222   0.295 -0.4402  1.3782  2.7559
 9611TIP3    H228798   4.423   2.370   0.281  0.8010  1.0077  0.2998
 9612TIP3   OH228799   5.198   4.855   5.660  0.0932  0.0528  0.3272
 9612TIP3    H128800   5.215   4.810   5.577 -0.4388  2.3663 -1.1260
 9612TIP3    H228801   5.284   4.861   5.702  0.5605 -0.1944 -0.5717
 9613TIP3   OH228802   2.946   0.228   2.257 -0.2445 -0.4336  0.0426
 9613TIP3    H128803   2.938   0.280   2.337  0.9022  0.0965 -0.1620
 9613TIP3    H228804   2.859   0.191   2.243 -0.5852 -0.1300  1.2574
 9614TIP3   OH228805   1.283   2.640   4.248 -0.1929 -0.3381 -1.0584
 9614TIP3    H128806   1.223   2.680   4.312 -0.5893 -0.8946 -1.0712
 9614TIP3    H228807   1.281   2.547   4.269 -0.3570 -0.5358 -1.9038
 9615TIP3   OH228808   5.915   3.587   0.616 -0.5129 -0.4185 -0.0116
 9615TIP3    H128809   5.964   3.546   0.687  1.3286 -1.0197 -1.5451
 9615TIP3    H228810   5.849   3.522   0.592  1.1195 -1.7432 -1.1133
 9616TIP3   OH228811   0.156   5.726   1.877  0.2827  0.0875 -0.2539
 9616TIP3    H128812   0.174   5.650   1.823 -1.2653 -1.8600  1.7825
 9616TIP3    H228813   0.241   5.769   1.888  1.3270 -1.6868 -0.9957
 9617TIP3   OH228814   4.371   1.299   1.386  0.1135 -0.1417 -0.1615
 9617TIP3    H128815   4.415   1.356   1.448  1.4289  2.2465 -3.0486
 9617TIP3    H228816   4.283   1.336   1.378  0.0762 -0.2024 -0.0372
 9618TIP3   OH228817   5.679   4.907   3.219  0.3562  0.6828  0.0627
 9618TIP3    H128818   5.640   4.961   3.150 -0.1363 -0.2878 -0.4492
 9618TIP3    H228819   5.604   4.877   3.271  0.6032  0.3781  0.2474
 9619TIP3   OH228820   2.914   5.789   2.238  0.2641 -0.7456  0.2686
 9619TIP3    H128821   2.847   5.788   2.170 -0.5252  0.5529  0.9748
 9619TIP3    H228822   2.988   5.744   2.200  0.4231  1.2880 -2.0806
 9620TIP3   OH228823   2.288   1.838   2.733  0.2836 -0.3339 -0.2000
 9620TIP3    H128824   2.314   1.929   2.745  0.8681 -0.5495  0.2108
 9620TIP3    H228825   2.204   1.843   2.687  0.2988  0.4082 -0.1594
 9621TIP3   OH228826   5.062   5.611   5.877  0.1125 -0.6829  0.1841
 9621TIP3    H128827   5.119   5.612   5.800  2.0062  0.5994  1.5190
 9621TIP3    H228828   5.111   5.561   5.942 -1.5426 -1.9052  0.5450
 9622TIP3   OH228829   2.310   3.180   5.191 -0.0682 -0.4797 -0.0498
 9622TIP3    H128830   2.287   3.248   5.254  0.1905  1.4251 -1.8853
 9622TIP3    H228831   2.402   3.195   5.171 -0.8030  0.9449 -2.9765
 9623TIP3   OH228832   0.794   0.905   5.397  0.6233  0.5723 -0.2412
 9623TIP3    H128833   0.843   0.857   5.330 -0.2680 -0.8899  0.1332
 9623TIP3    H228834   0.830   0.874   5.480  0.2007  0.7355  0.0027
 9624TIP3   OH228835   2.660   1.512   4.770  0.3916  0.0724 -1.0050
 9624TIP3    H128836   2.659   1.538   4.862  0.4310  0.6572 -1.1646
 9624TIP3    H228837   2.571   1.481   4.752  0.6080 -0.8638 -0.5513
 9625TIP3   OH228838   1.238   5.019   2.038  0.1570 -0.1972  0.1334
 9625TIP3    H128839   1.241   4.950   2.103  0.4517  0.4937  0.8665
 9625TIP3    H228840   1.144   5.034   2.023  0.0895 -0.7718 -0.0684
 9626TIP3   OH228841   5.214   0.102   1.178  0.5536  0.1286 -0.7740
 9626TIP3    H128842   5.222   0.097   1.273  0.5935 -0.5093 -0.8062
 9626TIP3    H228843   5.258   0.184   1.155  1.0922 -0.0155 -0.2982
 9627TIP3   OH228844   4.389   2.974   5.223  0.0874 -0.1274 -0.2192
 9627TIP3    H128845   4.393   2.999   5.315  1.2503  0.6425 -0.4429
 9627TIP3    H228846   4.357   3.053   5.178 -1.8545 -0.9455 -0.3463
 9628TIP3   OH228847   7.031   1.183   5.021  0.5009 -0.2699  0.7677
 9628TIP3    H128848   6.971   1.168   4.947 -1.9192 -1.0492  2.7442
 9628TIP3    H228849   7.082   1.260   4.995 -1.9132  0.9604 -0.7460
 9629TIP3   OH228850   2.305   6.195   0.607 -0.0909  0.2921 -0.2516
 9629TIP3    H128851   2.366   6.226   0.674  1.5563  0.4820 -1.7768
 9629TIP3    H228852   2.244   6.268   0.594 -0.4762  0.2292  1.0408
 9630TIP3   OH228853   5.172   1.666   1.126  0.0502 -0.4138  0.2491
 9630TIP3    H128854   5.175   1.648   1.033  0.5043  0.0018  0.1763
 9630TIP3    H228855   5.082   1.646   1.152  0.3849 -2.2375  0.0920
 9631TIP3   OH228856   3.187   1.387   0.257  0.0501 -0.6516  0.4652
 9631TIP3    H128857   3.177   1.292   0.249  0.5047 -0.7408  0.9197
 9631TIP3    H228858   3.098   1.421   0.246 -0.1263 -1.1308  0.3699
 9632TIP3   OH228859   3.259   3.629   5.207 -0.7140 -0.0113 -0.4484
 9632TIP3    H128860   3.340   3.613   5.158 -0.6648  1.6396 -0.9834
 9632TIP3    H228861   3.233   3.543   5.241  0.2729 -0.8798 -1.8032
 9633TIP3   OH228862   7.093   3.928   1.096  0.0947 -0.2816 -0.3907
 9633TIP3    H128863   7.102   3.886   1.011  1.6846 -0.0891 -0.3409
 9633TIP3    H228864   7.108   4.021   1.079  0.7420 -0.2793  0.1253
 9634TIP3   OH228865   1.373   3.766   2.783 -0.1021 -0.1868  0.5076
 9634TIP3    H128866   1.338   3.852   2.804 -1.4446 -0.6755  0.3798
 9634TIP3    H228867   1.467   3.775   2.794 -0.2674  1.1509  1.0042
 9635TIP3   OH228868   5.602   1.989   3.236  0.0275 -0.5265  0.0851
 9635TIP3    H128869   5.636   1.961   3.151 -0.1905 -0.3582 -0.0577
 9635TIP3    H228870   5.680   2.017   3.284  0.2165 -1.1306  0.1386
 9636TIP3   OH228871   0.054   0.588   2.330 -0.1203  0.5914 -0.2743
 9636TIP3    H128872  -0.002   0.649   2.282 -2.1944 -1.3570 -0.5139
 9636TIP3    H228873  -0.007   0.525   2.369  1.8448 -3.3607 -2.8451
 9637TIP3   OH228874   3.174   5.379   4.251 -0.1344 -0.6056 -0.0582
 9637TIP3    H128875   3.118   5.303   4.244  0.3747 -0.8599 -2.6024
 9637TIP3    H228876   3.259   5.349   4.219 -0.2986  1.2753 -2.6531
 9638TIP3   OH228877   1.756   2.297   4.861  0.3602 -0.2398  0.4286
 9638TIP3    H128878   1.773   2.203   4.864  2.7657  0.1148  0.7715
 9638TIP3    H228879   1.769   2.321   4.769  0.0733 -0.2123  0.3975
 9639TIP3   OH228880   6.451   2.715   1.818  0.2846  0.1862 -0.3120
 9639TIP3    H128881   6.455   2.626   1.783  1.6731 -0.3915  1.2282
 9639TIP3    H228882   6.359   2.726   1.844  0.1664 -0.9048 -0.2236
 9640TIP3   OH228883   1.195   1.488   2.343  0.0217  0.1525 -0.3011
 9640TIP3    H128884   1.163   1.497   2.433  0.8844  0.1266  0.0201
 9640TIP3    H228885   1.284   1.522   2.346  0.6300 -1.3093 -0.7889
 9641TIP3   OH228886   6.041   5.655   1.256  0.0541 -0.3009 -0.0295
 9641TIP3    H128887   6.093   5.590   1.303  0.3826 -1.5617 -2.0622
 9641TIP3    H228888   5.963   5.665   1.310 -0.6859 -3.4651 -0.3355
 9642TIP3   OH228889   2.760   4.909   4.098 -0.5318 -0.4281 -0.2165
 9642TIP3    H128890   2.684   4.888   4.043 -0.3318 -0.7559 -0.3749
 9642TIP3    H228891   2.790   4.994   4.066 -2.2673  0.8883  1.4256
 9643TIP3   OH228892   2.936   2.613   1.741  0.4712 -0.6345 -0.5535
 9643TIP3    H128893   2.942   2.647   1.652 -1.3519  0.3422 -0.3435
 9643TIP3    H228894   2.843   2.621   1.763  1.1151  0.7294  2.0260
 9644TIP3   OH228895   4.033   4.561   2.990 -0.6090  1.0830 -0.0089
 9644TIP3    H128896   4.080   4.627   2.939 -0.5112  0.0208 -1.3123
 9644TIP3    H228897   3.941   4.576   2.971 -0.5443  0.3318 -0.9632
 9645TIP3   OH228898   1.260   2.153   2.572 -0.1009 -0.1954 -0.0724
 9645TIP3    H128899   1.245   2.233   2.622  1.3015 -0.3915  0.7019
 9645TIP3    H228900   1.352   2.157   2.547  0.1454 -1.8152  0.4501
 9646TIP3   OH228901   1.706   2.889   1.072 -0.4218  0.0480  0.0632
 9646TIP3    H128902   1.776   2.823   1.063 -0.9615 -0.4766 -0.3644
 9646TIP3    H228903   1.741   2.951   1.136 -0.4531 -1.4078  1.5723
 9647TIP3   OH228904   0.671   3.597   2.095  0.2877 -0.2180  0.1219
 9647TIP3    H128905   0.691   3.665   2.159  0.3570 -1.1719  1.1353
 9647TIP3    H228906   0.576   3.604   2.083  0.3578  0.3592 -0.1420
 9648TIP3   OH228907   6.478   2.579   3.765 -0.4911  0.5796  0.0181
 9648TIP3    H128908   6.516   2.666   3.753  2.1201 -0.4474  0.1715
 9648TIP3    H228909   6.472   2.568   3.860  0.4229  0.1248  0.0319
 9649TIP3   OH228910   6.443   0.846   0.197  0.2296  0.1105  0.2682
 9649TIP3    H128911   6.487   0.874   0.117 -1.2156  2.1737  0.1252
 9649TIP3    H228912   6.493   0.887   0.268 -0.9477  1.8530  0.1434
 9650TIP3   OH228913   1.035   5.834   1.052 -0.1363 -0.3347  0.0605
 9650TIP3    H128914   0.967   5.835   0.985  0.1871 -1.7968 -0.3351
 9650TIP3    H228915   1.103   5.892   1.017  0.2786 -1.5168 -1.1980
 9651TIP3   OH228916   2.181   1.269   0.588 -0.1105 -0.1192  0.6165
 9651TIP3    H128917   2.269   1.241   0.562 -0.1003 -0.4973  1.0595
 9651TIP3    H228918   2.160   1.339   0.526  0.0608 -0.7646 -0.1861
 9652TIP3   OH228919   0.215   5.174   2.090 -0.0272  0.1814  0.5377
 9652TIP3    H128920   0.306   5.203   2.080 -0.2848  0.5041 -1.1260
 9652TIP3    H228921   0.193   5.133   2.007 -0.7622 -1.8338  1.6751
 9653TIP3   OH228922   2.124   2.894   1.217 -0.6270  0.0577  0.1659
 9653TIP3    H128923   2.122   2.808   1.258 -0.7531  0.0343  0.1111
 9653TIP3    H228924   2.035   2.927   1.227 -1.3681 -0.9817 -2.2864
 9654TIP3   OH228925   1.221   5.749   3.490 -0.2296 -0.6395  0.6794
 9654TIP3    H128926   1.251   5.698   3.415 -0.1654  0.6496 -0.1966
 9654TIP3    H228927   1.219   5.686   3.562  0.5621 -1.6974 -0.1899
 9655TIP3   OH228928   3.688   1.793   4.028  0.1642  0.1922  0.6515
 9655TIP3    H128929   3.757   1.750   4.079  1.0615  0.0817 -0.6276
 9655TIP3    H228930   3.682   1.880   4.067  2.3518  0.8725 -0.3536
 9656TIP3   OH228931   2.796   2.660   0.554 -0.0725 -0.1484 -0.2124
 9656TIP3    H128932   2.877   2.618   0.524 -0.3890 -0.5038 -0.5742
 9656TIP3    H228933   2.744   2.672   0.475  0.6012  2.3025 -0.3744
 9657TIP3   OH228934   4.176   3.714   0.855 -0.2947  0.1923 -0.2168
 9657TIP3    H128935   4.266   3.739   0.874  0.6320 -1.1206 -2.4229
 9657TIP3    H228936   4.169   3.718   0.759 -1.6654 -2.5071 -0.3365
 9658TIP3   OH228937   5.504   0.575   3.379  0.4102  0.0642 -0.2136
 9658TIP3    H128938   5.520   0.646   3.441 -0.2963 -0.7530  0.9579
 9658TIP3    H228939   5.483   0.619   3.297  1.0205  1.1872  0.2055
 9659TIP3   OH228940   4.173   2.130   5.330  0.7218  0.1694 -0.4831
 9659TIP3    H128941   4.172   2.039   5.299  0.7053 -0.2638  0.7234
 9659TIP3    H228942   4.179   2.182   5.251  2.1164 -0.9294 -1.1462
 9660TIP3   OH228943   0.071   2.843   2.888 -0.3828 -0.4441  0.1221
 9660TIP3    H128944   0.143   2.781   2.878 -0.7215 -0.5600 -2.1124
 9660TIP3    H228945   0.031   2.847   2.802 -0.8923  2.2629  0.3842
 9661TIP3   OH228946   6.288   1.080   2.462 -0.2283  0.4705 -0.4162
 9661TIP3    H128947   6.207   1.123   2.489  0.5617  0.7392  1.7191
 9661TIP3    H228948   6.264   0.988   2.455 -0.5350  0.4139  1.1084
 9662TIP3   OH228949   1.373   0.045   1.122 -0.0526 -0.0521 -0.1481
 9662TIP3    H128950   1.449   0.034   1.180 -0.2953 -0.2891  0.1354
 9662TIP3    H228951   1.298   0.045   1.182 -0.5468 -2.9630 -0.5948
 9663TIP3   OH228952   5.238   6.757   5.035 -0.1180 -0.0332 -0.4545
 9663TIP3    H128953   5.309   6.818   5.012 -0.6530  1.0181  0.5748
 9663TIP3    H228954   5.213   6.783   5.124 -1.9672 -0.2076 -0.8984
 9664TIP3   OH228955   6.963   4.062   4.431 -0.5854 -0.1012 -0.0056
 9664TIP3    H128956   6.995   4.039   4.344 -2.2336 -0.8204 -0.4742
 9664TIP3    H228957   6.897   4.130   4.414  0.2873  0.9851  0.8592
 9665TIP3   OH228958   4.078   3.374   3.241  0.0821 -0.6895  0.1121
 9665TIP3    H128959   4.101   3.449   3.186 -0.3607 -0.9978 -0.5125
 9665TIP3    H228960   3.987   3.389   3.266  0.5447 -0.0965  1.5400
 9666TIP3   OH228961   2.430   0.453   0.021  0.2560 -0.2132 -0.0195
 9666TIP3    H128962   2.433   0.370   0.069  3.1758 -0.3046 -0.1719
 9666TIP3    H228963   2.451   0.429  -0.069 -0.0880  0.5440 -0.3027
 9667TIP3   OH228964   5.210   6.624   3.139  0.4256  0.1847 -0.1239
 9667TIP3    H128965   5.164   6.611   3.056  1.7462  1.8325 -1.1722
 9667TIP3    H228966   5.296   6.584   3.125  0.4276 -0.1286  0.7195
 9668TIP3   OH228967   2.965   6.681   1.047 -0.6610 -0.1214 -0.6241
 9668TIP3    H128968   3.022   6.691   0.971  0.1583 -1.8267 -0.2961
 9668TIP3    H228969   2.952   6.770   1.080 -3.2537  1.0914 -4.2585
 9669TIP3   OH228970   3.656   0.132   0.777 -0.3700 -0.0413  0.2204
 9669TIP3    H128971   3.750   0.149   0.773 -0.5258  0.8293  0.2018
 9669TIP3    H228972   3.618   0.188   0.710 -0.6411 -2.4856 -1.8223
 9670TIP3   OH228973   3.868   5.386   3.768 -0.6368  0.2008 -0.0874
 9670TIP3    H128974   3.890   5.464   3.819 -0.0687  0.5846 -0.9008
 9670TIP3    H228975   3.794   5.412   3.714  0.8039  0.8487 -1.8451
 9671TIP3   OH228976   1.006   5.102   3.236 -0.0063  0.5179 -0.2728
 9671TIP3    H128977   0.968   5.014   3.232 -0.9849  0.9080  0.3438
 9671TIP3    H228978   0.934   5.159   3.262  1.0815  1.2048  1.3880
 9672TIP3   OH228979   1.421   0.593   4.519 -0.2228 -0.5126 -0.2747
 9672TIP3    H128980   1.444   0.648   4.444 -0.6753 -0.6263 -0.5011
 9672TIP3    H228981   1.332   0.563   4.501  0.0699 -1.4395 -0.2227
 9673TIP3   OH228982   2.879   4.575   1.437 -0.2222  0.0963  0.0386
 9673TIP3    H128983   2.866   4.610   1.349  0.5201  1.3919  0.4193
 9673TIP3    H228984   2.946   4.507   1.427  1.4214  1.6621 -0.1320
 9674TIP3   OH228985   0.200   3.315   3.710 -0.1948 -0.4066 -0.5538
 9674TIP3    H128986   0.236   3.371   3.641  0.2090 -0.4003 -0.3429
 9674TIP3    H228987   0.198   3.371   3.788 -0.4043 -0.4907 -0.4973
 9675TIP3   OH228988   6.796   4.436   1.789  0.0954  0.3293 -0.2797
 9675TIP3    H128989   6.854   4.473   1.722 -1.3519  1.3395 -1.0092
 9675TIP3    H228990   6.734   4.382   1.740 -0.5417  0.5078  0.3154
 9676TIP3   OH228991   3.214   1.588   3.361 -0.3624  0.5660 -0.3813
 9676TIP3    H128992   3.232   1.617   3.271  1.9639 -0.5850 -0.3597
 9676TIP3    H228993   3.196   1.494   3.352  1.1206  0.1739  0.4444
 9677TIP3   OH228994   4.687   6.233   0.543  0.2747 -0.3198  0.1710
 9677TIP3    H128995   4.652   6.282   0.468 -0.6378 -0.7760  0.2828
 9677TIP3    H228996   4.690   6.142   0.512 -1.3204 -0.7157  1.0793
 9678TIP3   OH228997   4.337   4.129   3.605 -0.5387  0.0031  0.2887
 9678TIP3    H128998   4.275   4.152   3.673  0.1510  1.4109  0.4860
 9678TIP3    H228999   4.352   4.211   3.557  0.3494 -0.5464 -0.4143
 9679TIP3   OH229000   6.289   4.710   3.489 -0.0570 -0.6812  0.2517
 9679TIP3    H129001   6.250   4.662   3.562 -1.5447 -0.8836 -0.6440
 9679TIP3    H229002   6.326   4.643   3.433  0.2746 -0.5877  0.3567
 9680TIP3   OH229003   2.401   1.279   2.683 -0.2156  0.7963 -0.8152
 9680TIP3    H129004   2.353   1.196   2.682  0.6362  0.2981 -1.4446
 9680TIP3    H229005   2.481   1.261   2.633  0.7927  1.5147  0.4900
 9681TIP3   OH229006   5.518   3.839   0.910 -0.4748  0.2498  0.1972
 9681TIP3    H129007   5.503   3.843   0.816 -1.5314 -1.6128  0.2297
 9681TIP3    H229008   5.514   3.930   0.939 -0.9857  0.7789 -1.4257
 9682TIP3   OH229009   0.108   0.125   2.877 -0.2245 -0.1952  0.1796
 9682TIP3    H129010   0.193   0.083   2.862  0.0370 -0.5388  2.3062
 9682TIP3    H229011   0.127   0.219   2.875  0.5079 -0.2683  1.8986
 9683TIP3   OH229012   5.754   4.594   0.647  0.4525 -0.5597 -0.5893
 9683TIP3    H129013   5.716   4.671   0.688 -0.1219 -1.1731  0.0547
 9683TIP3    H229014   5.710   4.587   0.562  1.5536  0.6388 -1.3020
 9684TIP3   OH229015   6.579   3.622   1.418  0.4926  0.7391  0.0919
 9684TIP3    H129016   6.553   3.677   1.492 -1.0571  1.3096 -0.8047
 9684TIP3    H229017   6.654   3.572   1.449 -0.0893  0.9956  2.0149
 9685TIP3   OH229018   0.094   1.948   2.916 -0.1537 -0.4919 -0.3437
 9685TIP3    H129019   0.080   1.856   2.938  0.1466 -0.3685  0.3981
 9685TIP3    H229020   0.022   1.994   2.958  0.7371 -0.1907  0.8945
 9686TIP3   OH229021   0.211   2.390   2.410  0.0983  0.3729  0.0275
 9686TIP3    H129022   0.228   2.465   2.353 -1.1361  0.1131 -0.7142
 9686TIP3    H229023   0.291   2.337   2.406  0.2680  0.6985 -0.9386
 9687TIP3   OH229024   5.605   5.239   3.436  0.0195  0.0923 -0.7069
 9687TIP3    H129025   5.532   5.249   3.375 -0.9816  1.3768  0.6490
 9687TIP3    H229026   5.589   5.155   3.480  0.9955 -1.0745 -2.4569
 9688TIP3   OH229027   2.145   5.657   0.525 -0.1193 -1.1084  0.0984
 9688TIP3    H129028   2.133   5.663   0.430  1.3894  0.8559 -0.0244
 9688TIP3    H229029   2.236   5.684   0.540 -0.3688 -1.2107  2.1349
 9689TIP3   OH229030   1.762   1.900   1.524 -0.2677  0.0484 -0.5624
 9689TIP3    H129031   1.680   1.851   1.517 -0.6734  0.9462 -3.0540
 9689TIP3    H229032   1.807   1.885   1.441  1.8807  0.0099  0.5401
 9690TIP3   OH229033   1.096   3.582   4.314 -0.1792  0.2343 -0.4085
 9690TIP3    H129034   1.153   3.623   4.248 -1.8237  0.2600 -1.8870
 9690TIP3    H229035   1.080   3.494   4.280  1.2282 -0.8012  1.4446
 9691TIP3   OH229036   0.773   6.029   1.867  0.2477 -0.7314 -0.1954
 9691TIP3    H129037   0.751   6.072   1.949  0.7112  1.4383 -1.1343
 9691TIP3    H229038   0.694   6.038   1.813  0.6592 -0.2287 -0.7227
 9692TIP3   OH229039   4.022   0.134   4.592  0.6505 -0.3427 -0.5419
 9692TIP3    H129040   3.997   0.202   4.530  0.5564 -1.4046 -1.7140
 9692TIP3    H229041   4.018   0.053   4.541 -0.0248 -1.3274  1.0156
 9693TIP3   OH229042   5.627   5.531   5.678  0.5772  0.5275 -0.0478
 9693TIP3    H129043   5.660   5.495   5.596  3.7030 -0.5440  1.5181
 9693TIP3    H229044   5.626   5.456   5.738  1.8378  1.9067  1.8010
 9694TIP3   OH229045   5.157   3.875   2.963  0.4477  0.0773  0.2850
 9694TIP3    H129046   5.248   3.848   2.947  0.0088 -0.4847 -1.4993
 9694TIP3    H229047   5.106   3.795   2.954 -0.4932  0.8149 -1.4464
 9695TIP3   OH229048   5.546   6.008   1.384 -0.2954 -0.1597  0.1307
 9695TIP3    H129049   5.553   6.013   1.479 -2.6005  0.4277  0.3296
 9695TIP3    H229050   5.554   5.915   1.363  1.1551 -0.1964  0.7864
 9696TIP3   OH229051   4.026   3.525   0.078  0.3143  0.8439 -0.2174
 9696TIP3    H129052   4.052   3.457   0.140 -0.7846 -0.0730 -0.7332
 9696TIP3    H229053   4.069   3.501  -0.004  0.2819  1.0193 -0.2874
 9697TIP3   OH229054   6.379   3.941   3.693 -0.0642  0.2284  0.5116
 9697TIP3    H129055   6.444   3.875   3.718 -0.5470 -0.2937  0.4121
 9697TIP3    H229056   6.326   3.898   3.626  0.0828  0.9805 -0.1026
 9698TIP3   OH229057   6.492   5.839   3.699 -0.0523  0.0946  0.1430
 9698TIP3    H129058   6.563   5.788   3.736  0.0180  0.8311  1.0780
 9698TIP3    H229059   6.425   5.840   3.768 -0.7719 -0.1785 -0.5326
 9699TIP3   OH229060   3.608   5.592   0.300  0.5891  0.0960  0.0035
 9699TIP3    H129061   3.680   5.617   0.358  0.2390 -2.0367  1.4804
 9699TIP3    H229062   3.650   5.575   0.216  1.8775 -1.1479  0.8426
 9700TIP3   OH229063   1.302   3.113   4.738  0.0934 -0.4237 -0.0085
 9700TIP3    H129064   1.237   3.166   4.692  0.3247  2.0740  2.2752
 9700TIP3    H229065   1.386   3.145   4.707  0.2227 -0.2831  0.4656
 9701TIP3   OH229066   4.477   1.643   3.172  0.1934  0.4201 -0.1201
 9701TIP3    H129067   4.452   1.726   3.132  0.8332  0.0448 -1.3442
 9701TIP3    H229068   4.395   1.595   3.180  0.1096  0.2760 -1.5550
 9702TIP3   OH229069   4.096   2.181   4.079  0.3607  0.0454 -0.6228
 9702TIP3    H129070   4.137   2.095   4.076  1.4033  0.4984  0.1232
 9702TIP3    H229071   4.059   2.187   4.167  0.6718  0.5143 -0.5172
 9703TIP3   OH229072   4.547   0.324   0.693 -0.3498 -0.0186 -0.3172
 9703TIP3    H129073   4.516   0.367   0.613  0.0816  1.5583  0.3225
 9703TIP3    H229074   4.470   0.280   0.728 -1.2084  1.4790 -0.2367
 9704TIP3   OH229075   6.301   4.153   0.161  0.2684  0.0402  0.4921
 9704TIP3    H129076   6.249   4.198   0.227 -0.1273  0.0744  0.1579
 9704TIP3    H229077   6.308   4.216   0.089  1.9310  0.5799  1.0710
 9705TIP3   OH229078   3.399   2.202   1.022 -0.3688 -0.0440  0.7955
 9705TIP3    H129079   3.406   2.107   1.012  0.7703  0.1386 -0.3310
 9705TIP3    H229080   3.344   2.214   1.100 -1.1475 -1.6126  0.5265
 9706TIP3   OH229081   0.856   2.559   4.766  0.7270 -0.2307 -0.0710
 9706TIP3    H129082   0.947   2.535   4.784  0.6677 -0.7466 -0.4435
 9706TIP3    H229083   0.822   2.487   4.712 -0.0132 -0.2394  0.3849
 9707TIP3   OH229084   2.560   2.167   1.339 -0.1425 -0.4195 -0.0534
 9707TIP3    H129085   2.649   2.150   1.307  0.4328  0.9218  0.7460
 9707TIP3    H229086   2.527   2.236   1.281 -1.5537 -2.4169 -1.7696
 9708TIP3   OH229087   3.383   3.162   5.495 -0.2957  0.3419 -0.2240
 9708TIP3    H129088   3.290   3.180   5.477  0.1229  2.6380 -0.3877
 9708TIP3    H229089   3.400   3.205   5.579  0.4774 -0.6809  0.1622
 9709TIP3   OH229090   1.617   1.211   5.477  0.0163 -0.0962  0.2001
 9709TIP3    H129091   1.571   1.137   5.517 -0.3903  0.0843  0.0689
 9709TIP3    H229092   1.548   1.266   5.442  0.3245  0.2948  0.2011
 9710TIP3   OH229093   0.150   5.064   0.336  0.3754 -0.5267  0.0689
 9710TIP3    H129094   0.058   5.084   0.323  0.2441 -0.5147  0.9122
 9710TIP3    H229095   0.166   4.985   0.286 -0.3001 -0.9839  0.5648
 9711TIP3   OH229096   5.105   4.413   3.413  0.2212 -0.2758 -0.2363
 9711TIP3    H129097   5.140   4.330   3.380 -0.3649 -0.3848 -0.6053
 9711TIP3    H229098   5.115   4.474   3.341  0.8773  0.0424  0.1215
 9712TIP3   OH229099   5.547   6.321   0.948  0.6321  0.1173  0.1250
 9712TIP3    H129100   5.606   6.261   0.993  0.4906 -0.0318  0.1140
 9712TIP3    H229101   5.604   6.382   0.902  0.7760 -0.0199  0.1226
 9713TIP3   OH229102   1.446   2.607   5.462  0.5931  0.0264  0.0707
 9713TIP3    H129103   1.361   2.564   5.452  0.5770  0.1811 -0.4906
 9713TIP3    H229104   1.461   2.650   5.378  1.4403 -0.3801  0.0017
 9714TIP3   OH229105   0.347   2.607   2.641  0.1359 -0.4358  0.2298
 9714TIP3    H129106   0.373   2.594   2.550 -0.1134 -0.3905  0.1508
 9714TIP3    H229107   0.381   2.693   2.664  0.7828 -0.7295  0.3900
 9715TIP3   OH229108   2.385   3.352   5.879 -0.0482 -0.3010  0.6415
 9715TIP3    H129109   2.351   3.272   5.840 -0.5132  0.3766 -0.3864
 9715TIP3    H229110   2.308   3.403   5.903  0.1192  1.3837 -1.9808
 9716TIP3   OH229111   0.578   5.512   0.734  0.1003  0.0215 -0.0315
 9716TIP3    H129112   0.576   5.472   0.647  0.5400 -0.0049 -0.0315
 9716TIP3    H229113   0.511   5.580   0.730 -0.7331 -0.7704  0.0018
 9717TIP3   OH229114   5.199   3.245   5.538  0.2853  0.2193  0.0869
 9717TIP3    H129115   5.114   3.288   5.542  0.2922  0.2424 -0.0091
 9717TIP3    H229116   5.261   3.310   5.570  0.7070  1.3518 -2.7394
 9718TIP3   OH229117   6.568   4.216   0.310  0.1604  0.0537 -1.0592
 9718TIP3    H129118   6.529   4.247   0.228  0.3966 -0.8869 -1.5340
 9718TIP3    H229119   6.498   4.170   0.355 -0.0949  0.9562 -0.5107
 9719TIP3   OH229120   2.843   5.320   3.626 -0.1621  0.8777  0.2113
 9719TIP3    H129121   2.770   5.262   3.607  1.0356 -1.0263  1.1088
 9719TIP3    H229122   2.827   5.352   3.715  1.0670 -1.2341  1.2661
 9720TIP3   OH229123   5.636   0.744   3.583  0.1835 -0.6415  0.4519
 9720TIP3    H129124   5.565   0.807   3.576  1.4976  0.7486 -1.4932
 9720TIP3    H229125   5.688   0.775   3.657  0.6690  0.4500 -0.3222
 9721TIP3   OH229126   6.897   4.085   5.660  0.1923  0.7026  0.3520
 9721TIP3    H129127   6.945   4.103   5.741  3.6834  0.5763 -1.4618
 9721TIP3    H229128   6.917   3.993   5.642  0.4717  1.0345 -1.1671
 9722TIP3   OH229129   3.170   3.013   5.805  0.5655  0.1505 -0.3481
 9722TIP3    H129130   3.228   2.978   5.736  0.6643 -1.6073  0.5586
 9722TIP3    H229131   3.098   2.950   5.809  0.5752  0.2189  1.1685
 9723TIP3   OH229132   0.881   3.793   1.937  0.2274 -0.5385  0.1927
 9723TIP3    H129133   0.896   3.701   1.958  1.7069  0.1066  2.2822
 9723TIP3    H229134   0.818   3.823   2.002 -0.6357 -0.1506 -0.7901
 9724TIP3   OH229135   5.009   4.590   1.629  0.4520  0.1268 -0.5087
 9724TIP3    H129136   4.990   4.684   1.626 -1.4737 -0.2336 -2.5534
 9724TIP3    H229137   5.081   4.578   1.567 -0.5163  0.0655 -1.6550
 9725TIP3   OH229138   5.837   5.286   3.296  0.2435 -0.4072  0.2785
 9725TIP3    H129139   5.758   5.289   3.349 -1.1021 -2.2321 -1.4670
 9725TIP3    H229140   5.902   5.242   3.351 -0.6520 -0.9203  0.9424
 9726TIP3   OH229141   4.949   6.358   1.515  0.6834 -0.1550  0.2428
 9726TIP3    H129142   4.955   6.375   1.421  0.4188 -0.5134  0.1558
 9726TIP3    H229143   4.928   6.443   1.554 -0.9916 -0.3118 -0.2095
 9727TIP3   OH229144   1.657   3.636   5.525 -0.1144  0.2242  0.1261
 9727TIP3    H129145   1.638   3.623   5.432 -0.4388  0.0264  0.2190
 9727TIP3    H229146   1.735   3.692   5.526 -2.1325  3.3439 -0.3096
 9728TIP3   OH229147   3.600   2.609   5.423  0.1487  0.0450 -0.0012
 9728TIP3    H129148   3.650   2.617   5.342  0.5735 -1.2135  0.1208
 9728TIP3    H229149   3.636   2.531   5.466 -0.4008  0.4108  1.1658
 9729TIP3   OH229150   4.650   5.953   0.442  0.2491 -0.3349 -0.2659
 9729TIP3    H129151   4.627   5.902   0.364  0.1219 -0.2977 -0.2529
 9729TIP3    H229152   4.675   5.888   0.507  0.9771 -0.3373 -0.5380
 9730TIP3   OH229153   0.719   0.249   2.095  0.6855 -0.3172 -0.0382
 9730TIP3    H129154   0.773   0.174   2.070  0.8555 -0.3558  0.4238
 9730TIP3    H229155   0.690   0.287   2.012 -0.4149 -1.6070 -0.2652
 9731TIP3   OH229156   5.786   0.917   1.667 -0.9560 -0.0521  0.1531
 9731TIP3    H129157   5.704   0.921   1.717  0.2465 -0.3697  2.3233
 9731TIP3    H229158   5.840   0.855   1.717  1.0001  0.9816 -0.5885
 9732TIP3   OH229159   4.262   1.825   0.106  0.1961  0.5916 -0.2999
 9732TIP3    H129160   4.226   1.785   0.186 -0.4522 -0.9730 -1.3333
 9732TIP3    H229161   4.342   1.869   0.136  1.3108 -2.0003  0.8565
 9733TIP3   OH229162   5.380   3.735   5.887 -0.0004  0.3569  0.1839
 9733TIP3    H129163   5.365   3.698   5.800  1.5538  1.1671 -0.4790
 9733TIP3    H229164   5.298   3.722   5.934 -1.0496  0.3617 -1.5744
 9734TIP3   OH229165   6.518   1.475   4.636  0.3262 -0.0120  0.2158
 9734TIP3    H129166   6.565   1.534   4.695 -2.1512  1.2223  1.1220
 9734TIP3    H229167   6.510   1.524   4.555  0.2860 -0.0533  0.1949
 9735TIP3   OH229168   1.828   3.644   0.626  0.5366  0.0336  0.5946
 9735TIP3    H129169   1.793   3.558   0.650  0.0886 -0.0835 -0.4494
 9735TIP3    H229170   1.922   3.629   0.616  0.7518  0.0798  2.1893
 9736TIP3   OH229171   3.759   1.056   1.692  0.7170 -0.3091  0.1844
 9736TIP3    H129172   3.797   0.970   1.711  1.2540  0.0964  0.9417
 9736TIP3    H229173   3.767   1.105   1.773 -2.0687 -0.4240  0.6412
 9737TIP3   OH229174   0.269   4.751   4.473  0.4405  0.0712  0.4437
 9737TIP3    H129175   0.345   4.775   4.419 -0.0726  0.4958 -0.1036
 9737TIP3    H229176   0.222   4.833   4.485 -0.7917 -0.4407 -0.5844
 9738TIP3   OH229177   1.373   4.377   4.603 -0.5696  0.0678 -0.3108
 9738TIP3    H129178   1.346   4.447   4.544  0.3161  0.9638  0.3023
 9738TIP3    H229179   1.405   4.423   4.681  0.7500 -0.9692 -0.1947
 9739TIP3   OH229180   0.756   3.894   2.159 -0.0962 -0.5298  0.2221
 9739TIP3    H129181   0.840   3.909   2.203  0.5297 -0.4824 -0.9465
 9739TIP3    H229182   0.696   3.955   2.200  0.7777  0.4100  0.1374
 9740TIP3   OH229183   2.273   1.051   4.514  0.1448  0.0668  0.1142
 9740TIP3    H129184   2.182   1.073   4.530  0.1834 -0.3397  0.9324
 9740TIP3    H229185   2.274   1.021   4.423 -0.4319  0.5751 -0.0685
 9741TIP3   OH229186   2.746   2.236   5.566  0.2339 -0.2934 -0.1492
 9741TIP3    H129187   2.825   2.276   5.602  0.4943  0.4347 -1.4377
 9741TIP3    H229188   2.711   2.302   5.506 -0.2409 -1.3613 -1.0963
 9742TIP3   OH229189   2.015   1.470   3.133  0.1675  0.1834 -0.7320
 9742TIP3    H129190   1.939   1.428   3.093  0.5278 -0.8931 -0.3160
 9742TIP3    H229191   2.061   1.511   3.059 -0.5168  0.3816 -1.0575
 9743TIP3   OH229192   2.321   6.277   5.036 -0.0995  0.2509  0.1943
 9743TIP3    H129193   2.377   6.312   5.105  0.5256  0.9669 -0.6396
 9743TIP3    H229194   2.317   6.183   5.053  0.6675  0.3098  0.7616
 9744TIP3   OH229195   1.430   3.519   1.549 -0.0066 -0.1552 -0.1312
 9744TIP3    H129196   1.466   3.604   1.525  1.1556 -0.5189  0.2400
 9744TIP3    H229197   1.358   3.539   1.609 -0.1850  0.5802 -0.5806
 9745TIP3   OH229198   0.528   2.128   1.599  0.6146 -0.1192  0.3450
 9745TIP3    H129199   0.581   2.134   1.678  1.2596 -0.7811 -0.0317
 9745TIP3    H229200   0.500   2.219   1.582  1.9989  0.3178  0.2920
 9746TIP3   OH229201   3.105   0.489   0.737  0.4719  0.0717  0.1592
 9746TIP3    H129202   3.108   0.400   0.771  1.8601 -0.0696 -0.3098
 9746TIP3    H229203   3.091   0.543   0.815 -0.0005 -0.5072  0.4915
 9747TIP3   OH229204   4.306   6.105   0.355  0.9110  0.1202 -0.5313
 9747TIP3    H129205   4.326   6.178   0.297  0.3147 -0.7913 -1.9209
 9747TIP3    H229206   4.215   6.119   0.381  0.9480  0.1296 -0.4055
 9748TIP3   OH229207   6.660   4.328   1.568  0.0590 -0.2652 -0.3214
 9748TIP3    H129208   6.688   4.385   1.496 -0.8588 -2.3456 -2.4579
 9748TIP3    H229209   6.606   4.262   1.526 -3.3589  0.2681  2.7569
 9749TIP3   OH229210   4.271   2.580   2.236  0.3298  0.5674 -0.1779
 9749TIP3    H129211   4.175   2.579   2.228  0.2934 -0.7764  0.2813
 9749TIP3    H229212   4.292   2.673   2.248 -0.8841  0.9210 -0.5676
   7.22150   6.80850   5.89633   0.00000   0.00000  -2.40717   0.00000  -2.40717  -3.40425
