Title
19927
    1ASP      N    1   1.668   5.069   1.966 -0.3459 -0.6948 -0.3729
    1ASP    HT1    2   1.681   5.153   2.025  1.8078 -2.3780  1.7749
    1ASP    HT2    3   1.658   5.103   1.868  1.8964  1.0620 -0.0794
    1ASP    HT3    4   1.762   5.023   1.955 -0.5763 -1.2715  0.0115
    1ASP     CA    5   1.564   4.965   2.000  0.6174  0.5358  0.0814
    1ASP     HA    6   1.567   4.889   1.923  0.2209  1.2543 -0.6576
    1ASP     CB    7   1.596   4.892   2.130  0.5488  0.4015 -0.4093
    1ASP    HB1    8   1.516   4.825   2.168  1.5054 -0.3308  0.3388
    1ASP    HB2    9   1.621   4.959   2.215 -1.8922 -0.1823  0.8396
    1ASP     CG   10   1.712   4.795   2.111  0.3646 -0.5458 -0.4211
    1ASP    OD1   11   1.743   4.765   1.994  0.5406  0.0111 -0.5134
    1ASP    OD2   12   1.770   4.736   2.208 -0.4131  0.3240  0.5837
    1ASP      C   13   1.417   5.022   1.996  0.2756 -0.5338  0.4401
    1ASP      O   14   1.356   5.005   1.893 -0.1662  0.5289 -0.3390
    2ALA      N   15   1.371   5.097   2.097 -0.5372  0.2891  0.1748
    2ALA     HN   16   1.429   5.146   2.162 -3.0976  2.2221  1.2083
    2ALA     CA   17   1.233   5.142   2.111 -0.1293  0.2985 -0.2547
    2ALA     HA   18   1.166   5.060   2.132 -0.2781  0.4557 -0.1044
    2ALA     CB   19   1.216   5.235   2.227  0.0608 -0.0160 -0.1922
    2ALA    HB1   20   1.118   5.286   2.241 -1.3491 -3.0436  2.2050
    2ALA    HB2   21   1.294   5.314   2.229  0.5561 -0.4530 -1.3214
    2ALA    HB3   22   1.222   5.168   2.316 -1.1571 -0.8503 -0.7061
    2ALA      C   23   1.179   5.214   1.989  0.6047 -0.9202  0.3537
    2ALA      O   24   1.064   5.188   1.946 -0.2087 -0.2920  1.0857
    3ASP      N   25   1.265   5.304   1.938 -0.8465 -0.3011  0.9238
    3ASP     HN   26   1.356   5.310   1.976 -0.1654  0.2360 -0.6782
    3ASP     CA   27   1.224   5.395   1.828  0.7814  0.3972  0.5976
    3ASP     HA   28   1.122   5.422   1.851  0.7620  1.5080 -0.6924
    3ASP     CB   29   1.309   5.529   1.830 -0.5885 -0.0375 -0.5104
    3ASP    HB1   30   1.278   5.592   1.744 -0.1053 -0.3058 -0.8908
    3ASP    HB2   31   1.416   5.499   1.819  0.4231  3.1936 -0.4167
    3ASP     CG   32   1.292   5.607   1.965 -0.0077  0.0470  0.1787
    3ASP    OD1   33   1.394   5.671   2.000  0.2764  0.5593 -0.0302
    3ASP    OD2   34   1.179   5.609   2.021  0.6078 -0.9016 -0.0966
    3ASP      C   35   1.203   5.331   1.690  0.7773 -0.1987  0.1158
    3ASP      O   36   1.283   5.243   1.648 -0.2377  0.2165  0.1587
    4GLY      N   37   1.098   5.375   1.614 -0.0945 -0.2790  0.2927
    4GLY     HN   38   1.033   5.440   1.654  1.1163  0.5720  0.9453
    4GLY     CA   39   1.078   5.343   1.472  0.3172  0.1761 -0.8519
    4GLY    HA1   40   0.987   5.396   1.450  0.1661  0.7674  0.9623
    4GLY    HA2   41   1.063   5.236   1.466  0.0508 -0.1689  3.1422
    4GLY      C   42   1.183   5.396   1.384  0.7529  0.5332 -0.1903
    4GLY      O   43   1.274   5.455   1.440  0.1170  0.1915 -0.6953
    5PRO      N   44   1.175   5.365   1.254  0.2735 -0.3481 -0.1342
    5PRO     CD   45   1.086   5.271   1.191 -0.0603 -0.0025 -0.1213
    5PRO    HD1   46   0.980   5.303   1.184 -0.3874 -1.1764 -0.8291
    5PRO    HD2   47   1.086   5.182   1.256 -1.4447 -1.3691 -1.8902
    5PRO     CA   48   1.238   5.445   1.152  0.5104  0.7996 -0.1844
    5PRO     HA   49   1.341   5.431   1.179 -0.0319  0.6590  2.0098
    5PRO     CB   50   1.186   5.383   1.022 -0.4057  0.0074  0.2412
    5PRO    HB1   51   1.264   5.376   0.943  1.5633 -0.0913  2.1017
    5PRO    HB2   52   1.100   5.444   0.989  0.3118  1.5254  1.0817
    5PRO     CG   53   1.147   5.240   1.050  0.1211 -0.2997  0.0640
    5PRO    HG1   54   1.061   5.204   0.989 -0.2850 -0.6218  0.8189
    5PRO    HG2   55   1.230   5.168   1.068  0.8104  0.3279 -0.5363
    5PRO      C   56   1.216   5.599   1.159  0.2337  0.0614  0.0464
    5PRO      O   57   1.111   5.640   1.208  0.8176  0.2750  0.4806
    6GLY      N   58   1.316   5.688   1.127 -0.2281 -0.3180  0.0350
    6GLY     HN   59   1.402   5.661   1.085  0.0539 -2.2535  1.7298
    6GLY     CA   60   1.292   5.830   1.137 -0.1124  0.5974 -0.2506
    6GLY    HA1   61   1.386   5.882   1.150 -0.8607  1.8207  0.4380
    6GLY    HA2   62   1.230   5.846   1.224 -2.1052 -1.3596 -1.2176
    6GLY      C   63   1.221   5.887   1.016 -0.4548  0.1798  0.1008
    6GLY      O   64   1.165   5.824   0.925  0.0797  0.0139  0.1198
    7ASP      N   65   1.219   6.015   1.009  0.0839  0.0518 -0.4931
    7ASP     HN   66   1.268   6.084   1.062  1.3653 -1.2394  0.0677
    7ASP     CA   67   1.138   6.078   0.902  0.4459  0.6489 -0.2525
    7ASP     HA   68   1.046   6.024   0.889  0.3844  1.0756 -1.7819
    7ASP     CB   69   1.100   6.219   0.958 -0.6179  0.0331  0.0537
    7ASP    HB1   70   1.019   6.262   0.897 -2.5604 -2.3712  0.7986
    7ASP    HB2   71   1.186   6.287   0.977 -0.2807 -0.0565 -1.1211
    7ASP     CG   72   1.020   6.205   1.087 -0.1248 -0.7093  0.0379
    7ASP    OD1   73   0.942   6.105   1.094 -0.1790  0.3867  0.3325
    7ASP    OD2   74   1.024   6.293   1.175 -0.1929 -0.0463  0.8806
    7ASP      C   75   1.224   6.078   0.773 -0.0448 -0.0644 -0.3638
    7ASP      O   76   1.341   6.125   0.773  0.2364  0.3577  0.5394
    8PRO      N   77   1.179   6.020   0.657 -0.4526 -0.1418  0.0710
    8PRO     CD   78   1.036   6.002   0.626  0.0514  0.4676 -0.5141
    8PRO    HD1   79   0.968   6.079   0.668 -2.4187 -1.7461 -0.1474
    8PRO    HD2   80   1.007   5.908   0.679  1.7269  0.2906  0.1472
    8PRO     CA   81   1.267   6.015   0.536  0.4624 -0.1219  0.5743
    8PRO     HA   82   1.350   5.951   0.562 -0.1027 -1.8459 -1.5988
    8PRO     CB   83   1.178   5.949   0.429  0.2598  0.4978 -0.1051
    8PRO    HB1   84   1.198   5.840   0.426  1.6738  0.7614 -0.9296
    8PRO    HB2   85   1.199   5.982   0.325  1.0443  2.6023  0.6627
    8PRO     CG   86   1.029   5.988   0.475 -0.2271 -0.4151  0.2900
    8PRO    HG1   87   1.001   6.087   0.434 -0.1538 -0.9595 -1.1235
    8PRO    HG2   88   0.947   5.917   0.452 -0.4193  0.0383 -0.4292
    8PRO      C   89   1.324   6.144   0.476  0.1560 -0.3987 -0.4854
    8PRO      O   90   1.251   6.243   0.483 -0.1878 -0.4691  0.4984
    9ASP      N   91   1.449   6.149   0.429 -0.2235  0.3909  0.0505
    9ASP     HN   92   1.490   6.059   0.416  0.3284  0.5770  0.4833
    9ASP     CA   93   1.530   6.256   0.381 -0.0036  0.2761 -0.2442
    9ASP     HA   94   1.524   6.330   0.460 -0.9559 -0.7382  0.6548
    9ASP     CB   95   1.670   6.220   0.347 -0.6630 -0.3069  0.0504
    9ASP    HB1   96   1.712   6.307   0.293 -0.1502  2.1877  4.0336
    9ASP    HB2   97   1.678   6.138   0.273 -0.4013 -0.0230 -0.2322
    9ASP     CG   98   1.759   6.201   0.472 -0.5481  0.0172  0.2865
    9ASP    OD1   99   1.719   6.228   0.586  0.7381 -0.0239  0.1727
    9ASP    OD2  100   1.877   6.159   0.449 -0.4341  0.8377 -0.3910
    9ASP      C  101   1.472   6.315   0.257 -0.5424 -0.9236  0.3172
    9ASP      O  102   1.407   6.246   0.182  0.0404 -0.3528 -0.2418
   10ALA      N  103   1.491   6.446   0.243  0.0149  0.1299  0.7841
   10ALA     HN  104   1.543   6.506   0.303  2.4840 -1.2608  0.1766
   10ALA     CA  105   1.441   6.506   0.113 -0.5053  0.6216 -0.6184
   10ALA     HA  106   1.348   6.454   0.096 -1.2667  2.0332 -0.9216
   10ALA     CB  107   1.388   6.647   0.123 -0.3814  0.3296 -0.3524
   10ALA    HB1  108   1.468   6.714   0.162 -1.3259  1.4128 -0.2338
   10ALA    HB2  109   1.308   6.663   0.199  1.2799 -0.6190  1.7032
   10ALA    HB3  110   1.365   6.689   0.023 -1.1904  0.8756  0.0513
   10ALA      C  111   1.549   6.486   0.003 -0.0525  0.3497  0.0208
   10ALA      O  112   1.661   6.537   0.015  0.1982  0.4347  0.5123
   11GLY      N  113   1.517   6.409  -0.101 -0.1224 -0.1760  0.5423
   11GLY     HN  114   1.449   6.335  -0.105  0.0406 -0.3712  1.1397
   11GLY     CA  115   1.596   6.405  -0.221 -0.2175  0.3153  0.3953
   11GLY    HA1  116   1.701   6.398  -0.195 -0.6523  0.0479  2.1679
   11GLY    HA2  117   1.584   6.497  -0.276 -0.1091  1.8190  2.7833
   11GLY      C  118   1.558   6.281  -0.303 -0.3208 -0.8649  0.3490
   11GLY    OT1  119   1.534   6.180  -0.239 -0.3026  0.3661  0.6655
   11GLY    OT2  120   1.548   6.291  -0.429 -0.0801  0.5713 -0.4973
   12SOD    SOD  121   5.640   3.850   1.458 -0.2427 -0.5605 -1.0005
   13SOD    SOD  122   2.797   0.530   0.319 -0.4884  0.2813 -0.5328
   14SOD    SOD  123   5.938   0.163   3.309  0.0450 -0.0299  0.6160
   15SOD    SOD  124   0.652   5.234   4.205 -0.2424 -0.0805  0.0012
   16SOD    SOD  125   3.416   1.858   1.452 -0.2392 -0.1194  0.0308
   17SOD    SOD  126   0.098   5.965   1.637 -0.3519 -0.0929 -0.0305
   18SOD    SOD  127   4.678   3.927   1.925  0.2111  0.2816  0.1352
   19SOD    SOD  128   0.929   2.329   2.985 -0.0116 -0.0368 -0.1680
   20SOD    SOD  129   1.112   0.986   2.724  0.5605  0.1440 -0.1300
   21SOD    SOD  130   1.686   2.890   4.389  0.1461 -0.4962 -0.0047
   22SOD    SOD  131   1.698   2.299   1.769 -0.6512  0.1042 -0.3117
   23SOD    SOD  132   4.756   0.928   1.631 -0.1585 -0.0142  0.1207
   24SOD    SOD  133   3.344   4.779   2.605  0.1958 -0.6147 -0.0742
   25SOD    SOD  134   3.881   0.100   1.195  0.1793  0.1523 -0.0799
   26SOD    SOD  135   3.613   4.804   1.133 -0.1786  0.5214  0.2515
   27SOD    SOD  136   3.030   4.036   2.686  0.2199  0.1950  0.0950
   28SOD    SOD  137   5.630   0.956   2.664 -0.0474 -0.2173 -0.3144
   29SOD    SOD  138   1.560   3.851   2.735 -0.3662  0.1269 -0.0751
   30SOD    SOD  139   2.441   5.184   2.359  0.0192  0.0025  0.5143
   31SOD    SOD  140   4.256   4.496   3.936  0.1044 -0.0182  0.2442
   32SOD    SOD  141   4.389   2.377   4.384  0.1727 -0.0602  0.0540
   33SOD    SOD  142   3.360   4.169   3.681 -0.1109 -0.2728  0.3426
   34CLA    CLA  143   0.928   5.847   3.042 -0.1452 -0.0188  0.3888
   35CLA    CLA  144   4.977   3.295   4.872  0.1079  0.3618  0.2368
   36CLA    CLA  145   0.726   4.640   3.182 -0.3786  0.1962 -0.0564
   37CLA    CLA  146   2.363   1.024   3.029 -0.4124 -0.1874 -0.0287
   38CLA    CLA  147   2.480   5.839   3.685  0.0893 -0.2188 -0.0954
   39CLA    CLA  148   2.909   4.827   1.651  0.0530 -0.4006 -0.2773
   40CLA    CLA  149   3.967   0.677   1.474 -0.2766 -0.0874  0.0637
   41CLA    CLA  150   1.828   2.439   4.399 -0.0838  0.2426 -0.1868
   42CLA    CLA  151   3.222   3.088   2.771  0.3693 -0.6041  0.4196
   43CLA    CLA  152   3.496   4.009   2.480 -0.2720 -0.1789  0.2020
   44CLA    CLA  153   4.602   3.797   4.138 -0.3408  0.6097  0.0485
   45CLA    CLA  154   2.117   0.999   4.898  0.0554  0.0681  0.4344
   46CLA    CLA  155   3.102   4.986   2.163  0.0234  0.1272  0.5514
   47CLA    CLA  156   1.236   2.834   0.422  0.5780  0.3006  0.0270
   48CLA    CLA  157   1.356   2.981   4.088 -0.3130 -0.0738  0.0161
   49CLA    CLA  158   0.161   5.532   2.535  0.1970 -0.3193  0.1574
   50CLA    CLA  159   3.645   4.485   3.854  0.0080 -0.3363  0.0723
   51CLA    CLA  160   4.397   5.138   0.096  0.3292  0.2195  0.1786
   52TIP3   OH2  161   6.076   5.766   3.705  0.0956  0.3233  0.1544
   52TIP3    H1  162   6.110   5.676   3.701  0.9449  0.4783  2.2988
   52TIP3    H2  163   6.149   5.820   3.674 -0.2235  0.3035 -0.6277
   53TIP3   OH2  164   1.179   4.744   3.737  0.1408  0.2751 -0.3080
   53TIP3    H1  165   1.191   4.674   3.801 -0.4776  0.0861 -0.3915
   53TIP3    H2  166   1.191   4.701   3.652 -4.3149 -0.7746 -0.6427
   54TIP3   OH2  167   4.849   2.506   4.229 -0.1638 -0.5011  0.0602
   54TIP3    H1  168   4.906   2.520   4.304  0.4916 -0.2298 -0.4707
   54TIP3    H2  169   4.766   2.477   4.266 -0.1976  0.6616  0.9565
   55TIP3   OH2  170   5.285   5.422   3.202 -0.8153  0.4163 -0.1593
   55TIP3    H1  171   5.240   5.375   3.132 -1.1544  1.3929 -0.6223
   55TIP3    H2  172   5.258   5.378   3.282 -1.9671  0.4742 -0.4967
   56TIP3   OH2  173   5.559   5.116   4.236 -0.1501 -0.1587  0.0897
   56TIP3    H1  174   5.628   5.127   4.302  1.5179  0.6221 -1.6871
   56TIP3    H2  175   5.486   5.168   4.269  0.8002  0.5757  1.1049
   57TIP3   OH2  176   1.080   0.471   2.394  0.4191 -0.7086 -0.7092
   57TIP3    H1  177   1.148   0.406   2.412  0.0521 -1.0607 -0.5917
   57TIP3    H2  178   1.119   0.528   2.327  1.5949  0.3065  0.7580
   58TIP3   OH2  179   1.460   3.863   4.746  0.0346  0.4002  0.6609
   58TIP3    H1  180   1.484   3.895   4.833  0.7901  1.0233  0.2387
   58TIP3    H2  181   1.483   3.935   4.687 -0.8765  0.1586 -0.0100
   59TIP3   OH2  182   0.645   2.917   3.092 -0.0455  0.0708 -0.3128
   59TIP3    H1  183   0.678   2.972   3.021 -0.8255  2.9104  1.3727
   59TIP3    H2  184   0.684   2.953   3.171 -2.7500  0.0525  1.1652
   60TIP3   OH2  185   1.258   3.304   0.099  0.2734  0.8921  0.2610
   60TIP3    H1  186   1.286   3.347   0.180  0.6053  1.3412 -0.0836
   60TIP3    H2  187   1.319   3.337   0.033  2.1458 -1.9862  0.3957
   61TIP3   OH2  188   0.127   4.119   3.285 -0.1783  0.3508 -0.1452
   61TIP3    H1  189   0.180   4.041   3.265 -0.2495  0.3216 -0.2211
   61TIP3    H2  190   0.060   4.088   3.346  0.3111  0.5339  0.5015
   62TIP3   OH2  191   4.682   2.735   1.823  0.0338  0.2081 -0.3246
   62TIP3    H1  192   4.707   2.717   1.732 -1.7655 -1.6012 -0.5377
   62TIP3    H2  193   4.598   2.779   1.816  0.1952  0.6634  0.4717
   63TIP3   OH2  194   3.104   2.536   1.595 -0.4799  0.2228  0.3840
   63TIP3    H1  195   3.055   2.455   1.605 -1.1600  0.7883  1.9111
   63TIP3    H2  196   3.185   2.522   1.644 -1.0589  0.7982  1.5579
   64TIP3   OH2  197   5.585   4.774   4.167 -0.3441  0.7854 -0.4816
   64TIP3    H1  198   5.573   4.823   4.248  0.9061  2.1261 -1.0701
   64TIP3    H2  199   5.657   4.714   4.186 -1.0781 -0.0110 -0.1404
   65TIP3   OH2  200   5.894   0.998   4.360  0.1316  0.0820  0.1986
   65TIP3    H1  201   5.934   0.970   4.442  0.8127  0.7556  0.1009
   65TIP3    H2  202   5.863   1.087   4.377  0.7477  0.4231 -0.4277
   66TIP3   OH2  203   5.481   4.070   1.141  0.2455 -0.8190  0.1399
   66TIP3    H1  204   5.423   4.100   1.212  0.3571 -2.2282  0.8655
   66TIP3    H2  205   5.460   3.977   1.130  0.7201 -0.7863 -1.2205
   67TIP3   OH2  206   4.346   5.187   3.169  0.1914  0.0435  0.2681
   67TIP3    H1  207   4.402   5.264   3.174  1.8290 -1.0438 -0.6408
   67TIP3    H2  208   4.283   5.198   3.241  1.6231  1.2626  1.3813
   68TIP3   OH2  209   1.643   2.897   4.990  0.0178 -0.2241  0.4235
   68TIP3    H1  210   1.729   2.887   4.949  0.5879 -1.1081  1.7501
   68TIP3    H2  211   1.602   2.811   4.982  0.4172 -0.6191  2.2440
   69TIP3   OH2  212   2.737   3.638   5.109  0.1322  0.1095 -0.3504
   69TIP3    H1  213   2.807   3.573   5.105 -0.5244 -0.6018 -0.7587
   69TIP3    H2  214   2.723   3.653   5.203  1.2055  0.7018 -0.2682
   70TIP3   OH2  215   0.406   4.403   2.291 -0.0248 -0.1630 -0.6913
   70TIP3    H1  216   0.481   4.455   2.319  0.2244 -0.8526 -0.0800
   70TIP3    H2  217   0.428   4.376   2.202  0.7021 -0.8121 -0.3261
   71TIP3   OH2  218   1.945   5.923   0.544 -0.4082  0.1634 -0.4304
   71TIP3    H1  219   1.899   5.859   0.490  0.0755 -0.3351 -0.2663
   71TIP3    H2  220   1.911   6.007   0.515 -1.0807 -0.1676 -0.6247
   72TIP3   OH2  221   1.555   3.915   0.480  0.3802 -0.3462 -0.3992
   72TIP3    H1  222   1.633   3.862   0.494  1.4836  0.7393 -2.0683
   72TIP3    H2  223   1.576   4.000   0.520  0.2339  0.0823 -1.2148
   73TIP3   OH2  224   5.028   0.755   1.152  0.0300  0.1927 -0.5865
   73TIP3    H1  225   5.034   0.680   1.093  1.3304 -1.5380  1.5904
   73TIP3    H2  226   5.099   0.813   1.125  1.2687 -1.0723 -0.1040
   74TIP3   OH2  227   6.034   1.239   2.978 -0.0827  0.6175  0.0329
   74TIP3    H1  228   6.123   1.213   3.000  0.3656  0.1022 -2.1273
   74TIP3    H2  229   6.036   1.334   2.976  0.2779  0.6195  0.5423
   75TIP3   OH2  230   5.488   1.907   2.116  0.0447 -0.0335  0.1320
   75TIP3    H1  231   5.537   1.829   2.089  0.1264 -0.0672  0.3742
   75TIP3    H2  232   5.397   1.884   2.101 -0.2153 -1.3523  3.0156
   76TIP3   OH2  233   0.962   2.938   5.072 -0.5317 -0.0399  0.4529
   76TIP3    H1  234   0.908   3.017   5.077  0.1696  0.3738  2.4304
   76TIP3    H2  235   1.035   2.955   5.132  0.4312 -1.6157 -0.1966
   77TIP3   OH2  236   2.662   4.279   4.969 -0.7217  0.5292  0.1117
   77TIP3    H1  237   2.671   4.186   4.951 -0.6929  0.4963  0.2891
   77TIP3    H2  238   2.748   4.316   4.952 -0.7824  0.5548 -0.1392
   78TIP3   OH2  239   1.732   5.332   3.550 -0.2946  0.1044  0.4024
   78TIP3    H1  240   1.773   5.418   3.547  2.8827 -1.2957 -2.2955
   78TIP3    H2  241   1.721   5.314   3.643 -0.6212  3.1686  1.0589
   79TIP3   OH2  242   0.739   2.975   4.450  0.3768  0.0836  0.1809
   79TIP3    H1  243   0.661   2.957   4.502 -0.7593  1.6861 -0.8623
   79TIP3    H2  244   0.707   3.026   4.376  2.1688 -0.8265 -1.2958
   80TIP3   OH2  245   6.279   5.428   0.506 -0.3720 -0.7109  0.5247
   80TIP3    H1  246   6.282   5.446   0.412 -1.2401  0.6500  0.7370
   80TIP3    H2  247   6.371   5.419   0.531 -0.0437  0.4946 -0.1799
   81TIP3   OH2  248   0.403   5.266   2.273  0.0856 -0.0357 -0.2574
   81TIP3    H1  249   0.404   5.357   2.243  1.3315  0.0040 -0.1686
   81TIP3    H2  250   0.455   5.267   2.353  1.3943 -1.0448 -1.0460
   82TIP3   OH2  251   0.154   0.865   0.088 -0.0832 -0.0108  0.3656
   82TIP3    H1  252   0.126   0.863   0.180  1.2612  0.0662  0.7990
   82TIP3    H2  253   0.233   0.920   0.089 -0.0503 -0.0249 -0.8401
   83TIP3   OH2  254   0.533   1.623   1.940 -0.6947  0.0323  0.3630
   83TIP3    H1  255   0.517   1.535   1.906 -0.8405  0.2734 -0.2054
   83TIP3    H2  256   0.612   1.614   1.993 -0.6276 -0.4121  0.1944
   84TIP3   OH2  257   3.629   5.158   2.137  0.2721  0.1562 -0.3738
   84TIP3    H1  258   3.591   5.228   2.084 -0.1283 -0.9228 -1.6020
   84TIP3    H2  259   3.566   5.086   2.130  0.2798 -0.0833  1.5007
   85TIP3   OH2  260   3.919   4.006   1.277 -0.2563  0.3387 -0.4085
   85TIP3    H1  261   3.880   3.958   1.350  0.6761  1.2823  0.7615
   85TIP3    H2  262   3.956   4.085   1.317 -0.2826  1.2162 -2.0104
   86TIP3   OH2  263   5.318   2.552   4.252 -0.3495  0.1859 -0.2445
   86TIP3    H1  264   5.397   2.512   4.215 -0.8957 -1.0583 -0.1067
   86TIP3    H2  265   5.248   2.526   4.192 -0.6707  1.2559 -0.3489
   87TIP3   OH2  266   4.378   1.768   2.249  0.3724  0.5136  0.1816
   87TIP3    H1  267   4.465   1.764   2.208  0.4670  0.0449  0.4308
   87TIP3    H2  268   4.319   1.732   2.183  0.5682 -0.5376  0.5740
   88TIP3   OH2  269   5.039   2.197   3.767  0.6524  0.1181 -0.2026
   88TIP3    H1  270   4.946   2.208   3.785  1.0266  2.8149  0.4669
   88TIP3    H2  271   5.047   2.214   3.673  0.4485 -0.5815 -0.3573
   89TIP3   OH2  272   2.274   4.463   1.302  0.3852 -0.1516 -0.2575
   89TIP3    H1  273   2.219   4.500   1.233 -0.1789 -0.1084  0.2112
   89TIP3    H2  274   2.363   4.475   1.270  0.1074 -1.1227 -1.4923
   90TIP3   OH2  275   0.584   2.436   3.665  0.3662 -0.2276  0.2449
   90TIP3    H1  276   0.674   2.462   3.684  0.5703  0.8822 -1.9098
   90TIP3    H2  277   0.592   2.351   3.621  0.3531 -0.2577  0.3016
   91TIP3   OH2  278   1.668   5.874   2.238  0.0237 -0.1813  0.1244
   91TIP3    H1  279   1.586   5.830   2.261  0.7986 -1.8917 -0.2906
   91TIP3    H2  280   1.663   5.887   2.144 -0.6254  1.6119  0.3519
   92TIP3   OH2  281   1.103   1.852   1.620 -0.4021 -0.6048 -0.0232
   92TIP3    H1  282   1.059   1.879   1.540  0.1756 -0.0586 -0.1592
   92TIP3    H2  283   1.089   1.757   1.624 -3.4436 -0.2312  1.0636
   93TIP3   OH2  284   0.679   2.453   2.084  0.4670 -0.3772 -0.3759
   93TIP3    H1  285   0.600   2.467   2.032  0.0287 -2.2846 -0.2974
   93TIP3    H2  286   0.743   2.420   2.021  0.5562 -0.7839 -0.0749
   94TIP3   OH2  287   0.258   1.127   2.243  0.2448 -0.2123  0.0491
   94TIP3    H1  288   0.347   1.093   2.233  0.5316 -0.4489  2.6056
   94TIP3    H2  289   0.205   1.074   2.183  1.5324 -1.4174 -0.0659
   95TIP3   OH2  290   0.039   4.071  -0.007  0.0944 -0.0598  0.0835
   95TIP3    H1  291  -0.035   4.011  -0.000  0.8625 -1.1757 -1.1103
   95TIP3    H2  292   0.105   4.034   0.052  0.0108  0.5157  0.5570
   96TIP3   OH2  293   2.489   5.328   1.281  0.4949 -0.0937 -0.1484
   96TIP3    H1  294   2.574   5.289   1.261  1.2362  0.8062  1.1078
   96TIP3    H2  295   2.456   5.358   1.196  1.2721 -0.7629 -0.7057
   97TIP3   OH2  296   1.165   5.528   0.702  0.3366  0.0264  0.0152
   97TIP3    H1  297   1.167   5.559   0.612  2.6730  0.1947  0.0630
   97TIP3    H2  298   1.116   5.595   0.750 -1.5709 -0.4271 -1.2010
   98TIP3   OH2  299   0.412   1.281   3.779  0.2793 -0.1505  0.4915
   98TIP3    H1  300   0.376   1.193   3.776  2.0961 -0.9350  0.4970
   98TIP3    H2  301   0.405   1.314   3.689  2.5709 -1.6178 -0.3188
   99TIP3   OH2  302   6.051   1.885   0.620 -0.0318 -0.1423  0.8622
   99TIP3    H1  303   6.071   1.843   0.704  0.4186 -1.7286  0.0082
   99TIP3    H2  304   6.125   1.861   0.564 -1.1264 -0.5153 -0.4541
  100TIP3   OH2  305   5.933   5.418   3.152  0.1390 -0.2434 -0.4134
  100TIP3    H1  306   5.880   5.371   3.216  0.1410  0.5453  0.1792
  100TIP3    H2  307   5.994   5.470   3.204 -2.5007  3.6679 -0.7958
  101TIP3   OH2  308   1.107   2.609   4.667 -0.0906  0.8761  0.0119
  101TIP3    H1  309   1.088   2.577   4.579  1.9562 -0.2386 -0.0865
  101TIP3    H2  310   1.040   2.675   4.684 -0.8980  0.6693 -2.1224
  102TIP3   OH2  311   5.014   5.336   0.203  0.3773 -0.0988  0.6076
  102TIP3    H1  312   4.946   5.276   0.233  0.9870 -0.7875  0.6531
  102TIP3    H2  313   5.091   5.313   0.255 -0.1268  2.8232  2.9615
  103TIP3   OH2  314   2.180   2.434   3.670  0.4891 -0.5334 -0.2504
  103TIP3    H1  315   2.254   2.438   3.609  1.5260  2.1741  0.9741
  103TIP3    H2  316   2.159   2.526   3.688 -1.3361 -1.2266  1.6106
  104TIP3   OH2  317   3.573   2.747   3.103 -0.2834  0.1665 -0.4254
  104TIP3    H1  318   3.493   2.799   3.107  0.4861  1.3305  0.4497
  104TIP3    H2  319   3.563   2.681   3.172 -0.7209 -0.0321 -0.6811
  105TIP3   OH2  320   1.529   3.844   1.724  0.1768 -0.5320  0.1487
  105TIP3    H1  321   1.469   3.912   1.692 -0.4669 -1.0625  0.2025
  105TIP3    H2  322   1.608   3.855   1.672  0.2141  0.4857  0.3993
  106TIP3   OH2  323   5.940   5.504   4.309 -0.8011  0.0394  0.2248
  106TIP3    H1  324   5.955   5.429   4.367  0.5794 -0.3887 -0.6386
  106TIP3    H2  325   5.919   5.577   4.368  0.3695 -0.4222  1.2502
  107TIP3   OH2  326   3.715   1.596   2.484 -0.1617 -0.0803  0.9983
  107TIP3    H1  327   3.710   1.685   2.447 -0.0700  0.2999  1.8767
  107TIP3    H2  328   3.744   1.609   2.574  0.8649 -1.0826  0.8318
  108TIP3   OH2  329   5.756   2.305   1.985 -0.0415 -1.2605 -0.3576
  108TIP3    H1  330   5.688   2.245   1.956 -0.5335 -0.8649 -0.0522
  108TIP3    H2  331   5.766   2.287   2.079 -0.7897 -0.3235 -0.0704
  109TIP3   OH2  332   0.185   5.711   3.458  0.0048 -0.5081  0.0476
  109TIP3    H1  333   0.251   5.706   3.528  0.7971  0.7564 -0.5526
  109TIP3    H2  334   0.203   5.635   3.402 -0.2099 -1.1578  0.8435
  110TIP3   OH2  335   2.183   1.969   2.604  0.4736  0.1026  0.4250
  110TIP3    H1  336   2.140   1.972   2.518  0.8183  1.0148  0.2701
  110TIP3    H2  337   2.125   2.016   2.662  1.1381  1.1708  0.2564
  111TIP3   OH2  338   5.008   2.668   0.924  0.3376 -0.1967 -0.1812
  111TIP3    H1  339   4.981   2.744   0.872 -3.5405  0.6890  2.6465
  111TIP3    H2  340   4.969   2.593   0.880  1.2864 -0.1519 -1.1348
  112TIP3   OH2  341   2.951   5.033   5.067 -0.4409  0.0503  0.1854
  112TIP3    H1  342   2.968   5.007   5.157  0.3462  1.1026  0.3439
  112TIP3    H2  343   3.033   5.018   5.021 -1.1710 -1.6830 -0.6836
  113TIP3   OH2  344   1.773   4.404   0.368  0.4448  0.2927 -0.1000
  113TIP3    H1  345   1.755   4.321   0.324  1.1197 -0.6350  1.3190
  113TIP3    H2  346   1.721   4.401   0.448 -0.4501  1.7805 -0.5814
  114TIP3   OH2  347   4.311   2.634   2.377  0.2466  0.0327 -0.0065
  114TIP3    H1  348   4.374   2.702   2.353  1.6028 -1.0667  0.3589
  114TIP3    H2  349   4.322   2.624   2.471  2.3684 -2.8425 -0.4374
  115TIP3   OH2  350   5.856   0.494   3.141  0.3162  0.3637  0.3227
  115TIP3    H1  351   5.878   0.516   3.232 -0.5680 -1.7538  1.1071
  115TIP3    H2  352   5.798   0.565   3.114 -0.1726  0.5578  1.7520
  116TIP3   OH2  353   3.006   4.540   1.606  0.1736 -0.1010 -0.4518
  116TIP3    H1  354   2.981   4.632   1.614  1.2072  0.3353 -1.7704
  116TIP3    H2  355   3.058   4.537   1.525  0.1468 -1.8476 -0.4348
  117TIP3   OH2  356   2.479   0.517   2.637  0.5514  1.0500  0.1305
  117TIP3    H1  357   2.411   0.564   2.686 -1.0919 -0.1370 -0.9515
  117TIP3    H2  358   2.511   0.581   2.573 -0.5721  1.1940 -0.3014
  118TIP3   OH2  359   3.160   4.208   4.760  0.1477  0.5381  0.0499
  118TIP3    H1  360   3.168   4.138   4.694 -0.3165 -0.3573  0.9157
  118TIP3    H2  361   3.067   4.208   4.784  0.2170  1.2048  0.3394
  119TIP3   OH2  362   5.589   1.220   1.467  0.1143  0.2598 -0.5450
  119TIP3    H1  363   5.671   1.186   1.505  1.1227  1.8556 -1.1872
  119TIP3    H2  364   5.602   1.211   1.372 -1.2218 -1.0931 -0.6375
  120TIP3   OH2  365   0.129   4.726   4.658  0.4653 -0.1981 -0.5984
  120TIP3    H1  366   0.156   4.786   4.589  0.0395  1.2246  0.4236
  120TIP3    H2  367   0.042   4.756   4.683  0.2276 -1.2743 -0.0922
  121TIP3   OH2  368   1.886   5.325   0.914 -0.1540  0.1959 -0.3153
  121TIP3    H1  369   1.913   5.256   0.975  1.9193  0.7326 -0.5535
  121TIP3    H2  370   1.896   5.406   0.963  0.9578  0.5836 -1.1449
  122TIP3   OH2  371   3.495   3.667   1.880 -0.3608  0.0501 -0.4324
  122TIP3    H1  372   3.522   3.604   1.814  1.2928 -0.3162  0.5326
  122TIP3    H2  373   3.439   3.618   1.939 -1.5814  0.2987 -1.3465
  123TIP3   OH2  374   3.423   3.282   1.191  0.1328 -0.7213  0.1160
  123TIP3    H1  375   3.432   3.366   1.235  2.4017  0.9662 -3.1070
  123TIP3    H2  376   3.512   3.261   1.162 -0.6042 -3.5575 -0.3808
  124TIP3   OH2  377   4.266   4.482   4.499  0.1466  0.1590  0.3354
  124TIP3    H1  378   4.306   4.397   4.479 -2.2166 -0.4490 -2.3132
  124TIP3    H2  379   4.172   4.469   4.484 -0.4667  2.9113  1.1802
  125TIP3   OH2  380   5.748   5.392   1.787  0.0855  0.5309  0.5017
  125TIP3    H1  381   5.764   5.482   1.759  1.7757 -0.6880 -2.9588
  125TIP3    H2  382   5.686   5.358   1.723 -0.0386 -0.9794  1.3873
  126TIP3   OH2  383   0.434   1.758   1.396 -0.4653 -0.2402  0.1328
  126TIP3    H1  384   0.339   1.772   1.393 -0.3300  1.3163  1.6703
  126TIP3    H2  385   0.454   1.744   1.488  0.5565 -2.9142 -0.4136
  127TIP3   OH2  386   1.682   2.221   2.489 -0.5427 -0.2786  0.1413
  127TIP3    H1  387   1.603   2.171   2.467 -2.1057  1.1269  2.1266
  127TIP3    H2  388   1.722   2.172   2.561 -0.5776 -0.0925  0.2894
  128TIP3   OH2  389   3.999   4.472   3.510  0.2961 -0.5790 -0.4195
  128TIP3    H1  390   3.914   4.516   3.512  0.2771 -0.6327  0.0579
  128TIP3    H2  391   4.062   4.541   3.533  0.1926 -0.9609  1.0721
  129TIP3   OH2  392   0.758   3.515   4.985  0.1891  0.0353 -0.1843
  129TIP3    H1  393   0.828   3.567   4.945  0.1853  2.0813  2.2041
  129TIP3    H2  394   0.682   3.529   4.930  1.1664 -0.8182 -1.8447
  130TIP3   OH2  395   4.936   5.020   3.931  0.0770  0.3835 -0.0118
  130TIP3    H1  396   5.029   5.009   3.947  0.4223  2.0274 -0.6900
  130TIP3    H2  397   4.911   5.096   3.984 -0.5527  0.8224 -0.8998
  131TIP3   OH2  398   4.025   4.177   2.231  0.2638  0.4545  0.4136
  131TIP3    H1  399   4.115   4.210   2.230  0.2335  0.5531  0.8418
  131TIP3    H2  400   3.996   4.187   2.322 -0.6164  1.6096  0.0393
  132TIP3   OH2  401   4.322   1.628   3.557  0.4050 -0.1576 -0.4109
  132TIP3    H1  402   4.391   1.687   3.527 -0.5643  0.8986 -0.6380
  132TIP3    H2  403   4.363   1.576   3.626  0.2113  3.7384  3.0183
  133TIP3   OH2  404   5.605   5.794   0.947  0.2909  0.4034 -0.2798
  133TIP3    H1  405   5.534   5.756   0.999  0.9027  0.1217  0.3643
  133TIP3    H2  406   5.571   5.878   0.918  0.6281  1.5429  2.3154
  134TIP3   OH2  407   1.117   4.447   2.819  0.1376  0.8139  0.4153
  134TIP3    H1  408   1.169   4.491   2.752 -0.2376 -1.9367 -1.8646
  134TIP3    H2  409   1.035   4.497   2.823  0.4011  1.3658 -0.7546
  135TIP3   OH2  410   4.044   0.028   3.573  0.3799 -0.1888  0.4131
  135TIP3    H1  411   3.970   0.089   3.575  1.4507  1.1272  0.6287
  135TIP3    H2  412   4.075   0.031   3.482  0.2109 -0.7213  0.3309
  136TIP3   OH2  413   1.223   1.138   0.365 -0.5211 -0.4502  0.5874
  136TIP3    H1  414   1.136   1.123   0.403 -2.0345  0.2108 -2.3543
  136TIP3    H2  415   1.253   1.052   0.337 -0.3899 -0.6148  1.2155
  137TIP3   OH2  416   5.959   0.874   2.111 -0.1582  0.2481  0.6223
  137TIP3    H1  417   5.913   0.898   2.191 -0.1248  0.2078  0.6541
  137TIP3    H2  418   6.052   0.889   2.131 -0.2609  1.9327  0.0073
  138TIP3   OH2  419   5.451   3.484   2.150 -0.6902 -0.1904 -0.1761
  138TIP3    H1  420   5.496   3.565   2.173 -0.1420 -0.7273  0.6754
  138TIP3    H2  421   5.479   3.464   2.061  1.9663 -1.2868  0.8122
  139TIP3   OH2  422   1.357   4.678   4.396 -0.2200 -0.3195  0.4652
  139TIP3    H1  423   1.294   4.644   4.460  1.5385 -2.1008  1.3780
  139TIP3    H2  424   1.442   4.662   4.436  0.9066 -0.2654 -1.7583
  140TIP3   OH2  425   1.179   2.809   1.300 -0.2244  0.4045 -0.8159
  140TIP3    H1  426   1.212   2.821   1.389 -1.3139 -0.0762 -0.3289
  140TIP3    H2  427   1.165   2.898   1.267 -2.4761  0.6276  0.5461
  141TIP3   OH2  428   2.437   3.493   0.864 -0.3249 -0.8296  0.3487
  141TIP3    H1  429   2.458   3.453   0.779  0.6785 -1.1569  0.7329
  141TIP3    H2  430   2.447   3.421   0.927  1.4819 -0.0361  1.0476
  142TIP3   OH2  431   5.933   1.460   3.142 -0.4228  0.1035  0.1738
  142TIP3    H1  432   5.983   1.479   3.221 -1.4012  1.2624  0.5551
  142TIP3    H2  433   5.989   1.487   3.070  0.4585 -0.9187  0.4492
  143TIP3   OH2  434   4.163   5.397   0.436  0.1292  0.0607  0.2057
  143TIP3    H1  435   4.119   5.479   0.459  1.5148  0.7592  0.4633
  143TIP3    H2  436   4.236   5.391   0.498  0.4593 -1.0233 -0.2690
  144TIP3   OH2  437   4.127   2.180   2.440  0.2987  0.2792 -0.1075
  144TIP3    H1  438   4.196   2.164   2.505  0.3692  2.4563  0.4458
  144TIP3    H2  439   4.161   2.253   2.388 -0.9293  0.3444 -0.8424
  145TIP3   OH2  440   5.034   3.457   2.281  0.0759 -0.1533 -0.2409
  145TIP3    H1  441   4.999   3.426   2.364 -0.6154 -0.3300 -0.5935
  145TIP3    H2  442   5.035   3.379   2.224  1.4691 -0.2584 -0.1047
  146TIP3   OH2  443   4.149   0.798   0.461 -0.1444  0.0693 -0.0231
  146TIP3    H1  444   4.170   0.718   0.414  1.0300  0.4548 -0.2080
  146TIP3    H2  445   4.134   0.770   0.552  0.8378 -0.3053  0.0380
  147TIP3   OH2  446   0.052   0.339   1.612 -0.0272 -0.2071 -0.8799
  147TIP3    H1  447   0.074   0.411   1.672  1.2293 -0.2003 -1.3229
  147TIP3    H2  448  -0.044   0.340   1.608 -0.2094 -0.6072  1.6024
  148TIP3   OH2  449   5.512   3.764   1.276  0.0299  0.0838 -0.1323
  148TIP3    H1  450   5.482   3.722   1.195  0.1325  0.0103 -0.1326
  148TIP3    H2  451   5.432   3.795   1.317  0.0121  0.4860 -0.4614
  149TIP3   OH2  452   6.017   0.494   3.476  0.2829  1.0017 -0.3216
  149TIP3    H1  453   6.062   0.447   3.547 -0.3844  0.0774 -0.4927
  149TIP3    H2  454   6.077   0.487   3.402 -0.0830 -0.1685 -0.5304
  150TIP3   OH2  455   4.284   5.964   3.687 -0.4591 -0.5351 -0.1604
  150TIP3    H1  456   4.368   5.996   3.654 -0.1146 -0.2761  0.9318
  150TIP3    H2  457   4.308   5.899   3.753 -1.0783  0.6545  1.2705
  151TIP3   OH2  458   5.942   0.961   4.860 -0.4303  0.1811 -0.3543
  151TIP3    H1  459   5.975   1.043   4.896  0.6575 -0.8458  1.1135
  151TIP3    H2  460   6.006   0.895   4.887 -0.6023 -0.9953 -2.5540
  152TIP3   OH2  461   5.118   5.717   2.119 -0.0606 -0.4269 -0.2305
  152TIP3    H1  462   5.200   5.710   2.168 -0.4218 -0.7815  0.3302
  152TIP3    H2  463   5.087   5.627   2.110  0.2833 -0.4245 -1.6130
  153TIP3   OH2  464   5.433   4.297   2.113  0.0009 -0.0487  0.1460
  153TIP3    H1  465   5.495   4.362   2.145 -0.1809 -0.0759  0.5586
  153TIP3    H2  466   5.383   4.343   2.045 -1.1666  0.7313  1.4896
  154TIP3   OH2  467   2.409   5.655   0.450 -0.7137  0.7182  0.3948
  154TIP3    H1  468   2.315   5.645   0.462 -0.6874  0.4818  0.4071
  154TIP3    H2  469   2.428   5.744   0.478 -0.7703  0.4287  1.3860
  155TIP3   OH2  470   0.769   5.627   4.167  0.1958  0.3415  0.9013
  155TIP3    H1  471   0.734   5.715   4.178  2.3917  1.4890 -0.6283
  155TIP3    H2  472   0.776   5.615   4.072  0.2162 -1.3807  1.0788
  156TIP3   OH2  473   3.089   0.673   1.438  0.4082  0.0406  0.5141
  156TIP3    H1  474   3.115   0.703   1.351  0.7555 -0.5808  0.3991
  156TIP3    H2  475   2.995   0.658   1.430  0.4468 -0.0680  0.2266
  157TIP3   OH2  476   2.511   4.780   1.986  0.2095  0.0220  0.4406
  157TIP3    H1  477   2.518   4.828   1.903 -0.9874  0.2779  0.4759
  157TIP3    H2  478   2.562   4.700   1.971 -3.2115 -1.9909 -2.0961
  158TIP3   OH2  479   3.017   2.276   4.132  0.4535 -0.2446  0.2790
  158TIP3    H1  480   3.101   2.274   4.178  0.6497  0.1707 -0.0554
  158TIP3    H2  481   2.951   2.288   4.200  0.7208  0.1064  0.4735
  159TIP3   OH2  482   4.487   2.491   4.560  0.3409  0.1481  0.1462
  159TIP3    H1  483   4.556   2.554   4.584  1.1720 -0.5620 -0.3297
  159TIP3    H2  484   4.451   2.462   4.644  1.0136  0.1028  0.4254
  160TIP3   OH2  485   2.175   3.911   2.057 -0.1897  0.2101  0.4477
  160TIP3    H1  486   2.177   3.817   2.040 -2.2841  0.2777 -0.4115
  160TIP3    H2  487   2.174   3.951   1.970  1.4176  1.0909  0.7980
  161TIP3   OH2  488   2.755   1.623   3.214  0.1117 -0.0592 -0.2515
  161TIP3    H1  489   2.749   1.544   3.267  0.3422 -0.2903 -0.5699
  161TIP3    H2  490   2.748   1.592   3.124  2.3189  0.0341 -0.5069
  162TIP3   OH2  491   3.331   3.774   0.268 -0.3687 -0.2963 -0.4580
  162TIP3    H1  492   3.390   3.848   0.250 -0.5795 -0.3387 -1.3892
  162TIP3    H2  493   3.370   3.701   0.219  0.6235 -1.2073  1.5477
  163TIP3   OH2  494   3.281   4.055   3.475 -0.5606  0.3257 -0.1061
  163TIP3    H1  495   3.239   3.978   3.437  1.4870 -0.0167 -1.8102
  163TIP3    H2  496   3.271   4.123   3.409 -0.0856  0.7711  0.2733
  164TIP3   OH2  497   1.895   1.953   3.600  0.8548 -0.2356 -0.5018
  164TIP3    H1  498   1.906   1.893   3.526  1.1124  0.3103 -0.9122
  164TIP3    H2  499   1.953   1.918   3.667  0.7768 -0.6191 -0.6313
  165TIP3   OH2  500   3.154   4.188   1.241 -0.2224 -0.3113  0.3114
  165TIP3    H1  501   3.192   4.273   1.221 -0.4184 -0.3288 -0.1707
  165TIP3    H2  502   3.196   4.160   1.322  0.3118 -0.0429  0.1296
  166TIP3   OH2  503   2.330   1.406   0.235  1.2197 -0.0332 -0.4038
  166TIP3    H1  504   2.404   1.404   0.296 -1.8047 -3.5979  3.7499
  166TIP3    H2  505   2.331   1.321   0.193 -0.1114  0.1410 -0.8240
  167TIP3   OH2  506   4.499   4.016   2.033  0.2775 -0.5287 -0.7008
  167TIP3    H1  507   4.506   4.046   2.124  0.5894  0.2366 -0.9660
  167TIP3    H2  508   4.467   4.093   1.985 -0.0516 -0.9784 -1.2110
  168TIP3   OH2  509   1.041   2.168   2.576  0.0438  0.5115 -0.2381
  168TIP3    H1  510   1.074   2.196   2.662  0.3931 -0.8283  0.0891
  168TIP3    H2  511   1.116   2.180   2.517  0.5950 -0.8409  0.1482
  169TIP3   OH2  512   0.056   1.167   1.893 -0.8452  0.1789 -0.2417
  169TIP3    H1  513   0.128   1.168   1.830  0.5158 -0.6477  1.2099
  169TIP3    H2  514   0.072   1.244   1.949 -1.2658  0.1540 -0.0806
  170TIP3   OH2  515   2.826   1.803   4.988 -0.2314  0.2540 -0.7854
  170TIP3    H1  516   2.737   1.816   4.956 -0.5849 -2.7143 -1.2889
  170TIP3    H2  517   2.821   1.725   5.044  1.9514  0.3577 -0.3246
  171TIP3   OH2  518   1.059   5.847   0.018  0.6098  0.1205 -0.1154
  171TIP3    H1  519   0.972   5.851   0.056  1.0481 -0.3920  0.9904
  171TIP3    H2  520   1.074   5.934  -0.019 -1.3064 -0.4787 -2.5602
  172TIP3   OH2  521   2.634   2.060   4.610 -0.1213  0.7272 -0.3007
  172TIP3    H1  522   2.618   2.051   4.704  0.2823 -0.7581 -0.3442
  172TIP3    H2  523   2.546   2.071   4.572 -0.2947  1.2520  0.2332
  173TIP3   OH2  524   1.554   4.370   3.877 -0.4639  0.7807 -0.6195
  173TIP3    H1  525   1.497   4.328   3.813 -0.6769  1.5423 -0.9370
  173TIP3    H2  526   1.568   4.459   3.843  0.5953  0.7340 -0.3505
  174TIP3   OH2  527   5.596   4.862   0.300 -0.1906  0.1129 -0.1884
  174TIP3    H1  528   5.525   4.921   0.327 -0.5329 -1.1547  1.8680
  174TIP3    H2  529   5.669   4.884   0.359  0.1386 -0.5610 -0.3346
  175TIP3   OH2  530   2.116   4.597   3.073 -0.1250  0.0048 -0.1761
  175TIP3    H1  531   2.048   4.579   3.007 -1.0935  0.2216  0.7393
  175TIP3    H2  532   2.132   4.691   3.066 -0.1617  0.0123 -0.1614
  176TIP3   OH2  533   4.798   1.450   0.184  0.6129  0.4767  0.2432
  176TIP3    H1  534   4.753   1.366   0.184  0.4215  0.5573  1.5622
  176TIP3    H2  535   4.743   1.507   0.131  0.1622  0.0667  0.2649
  177TIP3   OH2  536   2.065   5.105   1.495  0.5673 -0.0914  0.0817
  177TIP3    H1  537   1.995   5.153   1.540 -1.0546 -0.9466 -1.4246
  177TIP3    H2  538   2.146   5.142   1.531 -0.5644  3.1353 -0.3502
  178TIP3   OH2  539   0.738   0.059   1.910  0.0559 -0.0375  0.5960
  178TIP3    H1  540   0.665   0.111   1.875  1.3865  0.5605 -1.4691
  178TIP3    H2  541   0.779   0.117   1.975 -0.5465  0.0926  0.8752
  179TIP3   OH2  542   2.950   2.504   4.536 -0.3178 -0.1888  0.1918
  179TIP3    H1  543   2.883   2.477   4.473 -2.0513 -2.0495  2.6389
  179TIP3    H2  544   2.967   2.426   4.588 -0.7340  1.7761  3.5150
  180TIP3   OH2  545   6.284   0.939   1.860  0.3322 -0.2521  0.0702
  180TIP3    H1  546   6.192   0.957   1.842  0.4360  0.0330 -0.1792
  180TIP3    H2  547   6.319   1.023   1.891 -0.1290 -0.9869  2.8533
  181TIP3   OH2  548   0.535   3.244   2.837 -0.2128  0.2212  0.4200
  181TIP3    H1  549   0.472   3.237   2.909 -1.4969 -0.9561 -0.7566
  181TIP3    H2  550   0.521   3.332   2.801 -0.9106  0.1166  0.4267
  182TIP3   OH2  551   2.595   4.433   5.195 -0.1399 -0.8063  0.1686
  182TIP3    H1  552   2.586   4.375   5.119  1.7834  0.8870 -1.4803
  182TIP3    H2  553   2.506   4.464   5.212 -0.3554  1.1578 -3.4760
  183TIP3   OH2  554   0.530   0.516   1.338 -0.4031  0.4890 -0.2823
  183TIP3    H1  555   0.450   0.483   1.379  0.2228 -0.5247  0.1574
  183TIP3    H2  556   0.568   0.575   1.403 -0.9997  1.3115 -0.6633
  184TIP3   OH2  557   4.176   2.344   1.338 -0.1632  0.3418  0.4935
  184TIP3    H1  558   4.128   2.307   1.412  0.8305  2.0114  2.0667
  184TIP3    H2  559   4.132   2.427   1.319  0.2316  0.4264 -0.1004
  185TIP3   OH2  560   0.601   4.100   2.156 -0.3112  0.3568 -0.5612
  185TIP3    H1  561   0.662   4.142   2.216  0.4912 -1.3788 -0.0750
  185TIP3    H2  562   0.547   4.171   2.122  0.5475  1.6520  0.6674
  186TIP3   OH2  563   4.149   4.789   3.051 -0.1916  0.3874  0.2056
  186TIP3    H1  564   4.186   4.871   3.018  0.6520  0.2881  0.8674
  186TIP3    H2  565   4.219   4.751   3.105 -1.0144 -0.1592  0.9109
  187TIP3   OH2  566   1.357   5.141   4.398  0.3130  0.4911  0.1411
  187TIP3    H1  567   1.358   5.221   4.450  2.3352  0.2845  0.4742
  187TIP3    H2  568   1.413   5.080   4.446 -1.7603 -1.4318  0.3004
  188TIP3   OH2  569   3.601   5.877   1.277  0.7402  0.1431  0.1350
  188TIP3    H1  570   3.549   5.942   1.324  1.1018  0.6617 -0.1782
  188TIP3    H2  571   3.657   5.928   1.219  0.9853 -0.4510 -0.1586
  189TIP3   OH2  572   2.709   1.559   2.178  0.0278 -0.1968  0.4918
  189TIP3    H1  573   2.692   1.476   2.222  0.6553 -0.2391  0.6655
  189TIP3    H2  574   2.676   1.546   2.089 -0.4646 -0.4040  0.7013
  190TIP3   OH2  575   3.918   1.998   3.126  0.2361  0.1412  0.1133
  190TIP3    H1  576   3.872   2.082   3.130  0.2859  0.1714  0.0639
  190TIP3    H2  577   3.857   1.935   3.162  0.2428  0.2184  0.2595
  191TIP3   OH2  578   5.368   4.422   5.036 -0.3768  0.2513 -0.0855
  191TIP3    H1  579   5.326   4.362   4.973  0.8022 -0.6505 -0.0452
  191TIP3    H2  580   5.394   4.497   4.983  1.4188 -0.8909 -0.9056
  192TIP3   OH2  581   4.769   5.605   1.157 -0.3562 -0.3034  0.3721
  192TIP3    H1  582   4.747   5.540   1.223 -1.2508 -0.8789 -0.4619
  192TIP3    H2  583   4.865   5.599   1.148 -0.2760 -0.5212  1.2760
  193TIP3   OH2  584   0.409   0.473   0.655 -0.0759  0.9352  0.2623
  193TIP3    H1  585   0.358   0.545   0.618  2.8130  2.6800 -0.6953
  193TIP3    H2  586   0.496   0.484   0.616  1.3629 -1.1242  2.6461
  194TIP3   OH2  587   4.690   5.666   4.182  0.1327 -0.2149 -0.0835
  194TIP3    H1  588   4.675   5.676   4.088  1.6372  0.6414 -0.2577
  194TIP3    H2  589   4.774   5.709   4.198 -0.4386  0.3179  1.7857
  195TIP3   OH2  590   2.617   1.724   4.618 -0.8723  0.8935  0.3014
  195TIP3    H1  591   2.660   1.749   4.536  1.0855 -2.3753  0.1758
  195TIP3    H2  592   2.535   1.683   4.591 -0.2220 -0.1962 -0.0802
  196TIP3   OH2  593   1.248   0.227   4.993  0.2169 -0.8958  0.0279
  196TIP3    H1  594   1.160   0.244   5.026  0.2272  0.3605 -0.5338
  196TIP3    H2  595   1.274   0.145   5.035 -1.5585 -1.7613 -0.4737
  197TIP3   OH2  596   6.163   0.944   0.200  0.3334  0.0046 -0.2053
  197TIP3    H1  597   6.204   0.922   0.284 -0.4628  1.3792  0.5895
  197TIP3    H2  598   6.223   1.008   0.161 -0.9116  1.9526  0.9194
  198TIP3   OH2  599   4.003   0.184   4.670 -0.0813 -0.3370  0.0526
  198TIP3    H1  600   3.937   0.183   4.601  1.1092  1.0786 -1.1987
  198TIP3    H2  601   4.034   0.094   4.675 -0.1599 -0.4641 -1.3231
  199TIP3   OH2  602   2.672   2.808   3.700  0.5166  0.6537  0.2874
  199TIP3    H1  603   2.698   2.822   3.791  2.6833 -0.6701 -0.0638
  199TIP3    H2  604   2.615   2.731   3.704  1.1777  0.1616  0.4728
  200TIP3   OH2  605   4.057   4.747   2.036  0.0304  0.5012 -0.2226
  200TIP3    H1  606   4.085   4.739   2.127  1.0027  0.0207 -0.5476
  200TIP3    H2  607   4.083   4.664   1.995  0.7705  1.1933 -1.2220
  201TIP3   OH2  608   3.028   3.056   0.913  0.4099  0.5772  0.7216
  201TIP3    H1  609   2.979   3.132   0.881  0.6467  0.6316  0.4808
  201TIP3    H2  610   3.087   3.091   0.979  0.5154  0.6037  0.6142
  202TIP3   OH2  611   4.743   1.522   3.823 -0.0846 -0.4444  0.4039
  202TIP3    H1  612   4.742   1.537   3.728  0.1801  1.4148  0.6500
  202TIP3    H2  613   4.740   1.427   3.832  0.4068 -0.6900 -1.4803
  203TIP3   OH2  614   1.053   2.041   3.727 -0.5626  0.2926  0.4148
  203TIP3    H1  615   1.104   2.109   3.771 -0.7660  0.2165  0.7751
  203TIP3    H2  616   1.014   2.085   3.652  0.2489  0.2863 -0.0279
  204TIP3   OH2  617   4.173   2.009   4.660 -0.1375  0.4943 -0.2596
  204TIP3    H1  618   4.122   1.961   4.594 -2.0183  2.5674 -0.4201
  204TIP3    H2  619   4.131   2.095   4.665  1.0492  1.0103  2.3857
  205TIP3   OH2  620   4.278   1.969   3.460 -0.1431  0.3297  0.7958
  205TIP3    H1  621   4.197   1.949   3.506 -1.4338 -1.6944 -2.0320
  205TIP3    H2  622   4.314   1.883   3.437  0.7345  1.2108 -1.3585
  206TIP3   OH2  623   2.381   3.163   4.734 -0.1994  0.5190  0.0937
  206TIP3    H1  624   2.385   3.168   4.639 -2.7486  0.5914 -0.0584
  206TIP3    H2  625   2.428   3.241   4.764 -1.9751  2.1956 -1.2198
  207TIP3   OH2  626   5.197   5.014   0.856  0.0625 -0.2344 -0.3706
  207TIP3    H1  627   5.183   5.018   0.951 -1.7732 -0.8253 -0.5799
  207TIP3    H2  628   5.110   5.028   0.818  0.7600 -0.0477 -1.9744
  208TIP3   OH2  629   0.266   3.421   0.492 -0.6999 -0.0056  0.0734
  208TIP3    H1  630   0.195   3.486   0.489 -1.0930 -0.4075  0.6378
  208TIP3    H2  631   0.261   3.377   0.407 -0.4869  0.6311 -0.2812
  209TIP3   OH2  632   0.777   1.136   3.606  0.1512  0.6226 -0.1872
  209TIP3    H1  633   0.811   1.226   3.605 -0.0468  0.6920 -1.1837
  209TIP3    H2  634   0.820   1.096   3.682  2.2647  0.7924 -1.2017
  210TIP3   OH2  635   6.305   0.856   2.746 -0.1085 -0.0014  0.4387
  210TIP3    H1  636   6.367   0.788   2.772  0.8077  0.6291 -0.0463
  210TIP3    H2  637   6.266   0.885   2.829 -2.0692 -2.4978  0.5282
  211TIP3   OH2  638   5.394   3.294   4.330 -0.3314 -0.4530  0.0470
  211TIP3    H1  639   5.395   3.234   4.405 -0.9482  0.3351  0.7046
  211TIP3    H2  640   5.464   3.357   4.348  0.4796 -1.0951 -0.7640
  212TIP3   OH2  641   4.509   2.545   3.088  0.5069  0.5689 -0.5293
  212TIP3    H1  642   4.466   2.566   3.171  0.4276  1.3122 -0.7511
  212TIP3    H2  643   4.588   2.497   3.114 -0.2429 -0.4997 -0.0992
  213TIP3   OH2  644   6.187   3.766   1.656  0.0792 -0.1664 -0.4815
  213TIP3    H1  645   6.178   3.814   1.738  0.3131 -0.3277 -0.3605
  213TIP3    H2  646   6.274   3.726   1.660 -0.5726 -1.6013 -0.0411
  214TIP3   OH2  647   1.082   4.445   2.003  0.0825 -0.5110 -0.2278
  214TIP3    H1  648   1.100   4.494   1.922 -1.3158  1.2792  0.4989
  214TIP3    H2  649   1.137   4.367   1.995  2.5801  1.2098 -1.3696
  215TIP3   OH2  650   6.228   2.023   1.906  0.2328  0.6562 -0.3014
  215TIP3    H1  651   6.272   1.963   1.846 -1.5009  0.1828 -1.1524
  215TIP3    H2  652   6.178   2.081   1.850 -0.1059  1.2881  0.6330
  216TIP3   OH2  653   5.945   4.234   1.388  0.5629  0.9463  0.3960
  216TIP3    H1  654   5.987   4.150   1.407 -1.2575  0.2518  1.5929
  216TIP3    H2  655   6.007   4.279   1.330  1.1606 -1.6033 -1.0953
  217TIP3   OH2  656   5.518   5.451   2.220  0.4254 -0.7102  0.4428
  217TIP3    H1  657   5.574   5.470   2.295  0.2422 -1.7691  0.8718
  217TIP3    H2  658   5.544   5.362   2.193 -1.1059 -1.2652  0.7223
  218TIP3   OH2  659   3.674   5.344   2.312 -0.1796 -0.1482 -0.0313
  218TIP3    H1  660   3.689   5.415   2.249  0.1795  0.4575  0.7136
  218TIP3    H2  661   3.645   5.270   2.259  0.9818  0.0697 -1.0005
  219TIP3   OH2  662   2.098   0.488   0.920  0.3258  0.2697 -0.3428
  219TIP3    H1  663   2.039   0.486   0.844  0.6572 -1.8233 -0.6033
  219TIP3    H2  664   2.168   0.548   0.894  0.6754 -0.7651 -1.8994
  220TIP3   OH2  665   1.587   0.605   3.378 -0.5284 -0.4086  0.5204
  220TIP3    H1  666   1.633   0.549   3.316 -1.8412 -1.6598  0.6177
  220TIP3    H2  667   1.649   0.676   3.398  0.5046 -0.8564 -0.9655
  221TIP3   OH2  668   3.596   1.750   1.128  0.2270  0.4152  0.1583
  221TIP3    H1  669   3.565   1.704   1.050  1.6036  0.7367 -0.6234
  221TIP3    H2  670   3.631   1.681   1.184  1.4209  0.3759 -0.5945
  222TIP3   OH2  671   4.838   1.678   4.690 -0.2734  0.0250 -0.2118
  222TIP3    H1  672   4.908   1.698   4.629  2.2016  1.7674  2.9072
  222TIP3    H2  673   4.770   1.742   4.671 -0.1464 -0.3105 -1.9176
  223TIP3   OH2  674   5.109   3.948   1.104 -0.5964 -0.3686  0.1760
  223TIP3    H1  675   5.029   3.950   1.157 -0.4342  0.3916  0.4036
  223TIP3    H2  676   5.105   4.027   1.051 -0.5666 -0.9274 -0.6951
  224TIP3   OH2  677   0.544   5.406   3.614  0.0942 -0.5332  0.9784
  224TIP3    H1  678   0.624   5.364   3.647  0.7476 -0.7843 -0.8256
  224TIP3    H2  679   0.542   5.491   3.659  2.2449  0.1319 -0.0687
  225TIP3   OH2  680   3.811   2.866   3.879 -0.8530  0.3422  0.6059
  225TIP3    H1  681   3.830   2.902   3.792 -0.2915 -1.3800 -0.0144
  225TIP3    H2  682   3.868   2.915   3.938  0.8176 -0.3455 -0.3860
  226TIP3   OH2  683   4.164   1.225   4.050  0.0433 -0.4582 -0.6488
  226TIP3    H1  684   4.154   1.149   3.992 -0.2467  0.1948 -1.4614
  226TIP3    H2  685   4.076   1.240   4.085 -0.1360  0.1831 -1.3577
  227TIP3   OH2  686   4.975   5.804   4.918  0.1042 -0.1083 -0.0402
  227TIP3    H1  687   4.895   5.754   4.931  0.5382 -0.3452  2.0420
  227TIP3    H2  688   5.045   5.745   4.945  0.6813  1.3235  1.7339
  228TIP3   OH2  689   1.224   2.691   2.321 -0.0697 -0.0037 -0.0501
  228TIP3    H1  690   1.227   2.713   2.414 -0.1872  0.3801 -0.1353
  228TIP3    H2  691   1.216   2.775   2.277  2.0134  0.0029 -0.5230
  229TIP3   OH2  692   5.239   4.749   4.078  1.0554  0.1875  0.3626
  229TIP3    H1  693   5.204   4.838   4.072 -0.9761 -0.5271  0.7603
  229TIP3    H2  694   5.289   4.749   4.160  0.5026  0.7996  0.7142
  230TIP3   OH2  695   4.377   1.241   0.819 -0.4497 -0.6540  0.5814
  230TIP3    H1  696   4.345   1.164   0.772 -1.6791 -0.3197  0.8260
  230TIP3    H2  697   4.297   1.285   0.850  0.2526  0.3658  1.0005
  231TIP3   OH2  698   2.509   3.230   5.162  0.3604 -0.5264 -0.4402
  231TIP3    H1  699   2.503   3.141   5.129 -1.1050 -0.1984 -1.1593
  231TIP3    H2  700   2.541   3.281   5.087 -0.6460 -0.1678 -0.6473
  232TIP3   OH2  701   5.424   3.338   1.079 -0.0496  0.0208  0.3872
  232TIP3    H1  702   5.473   3.419   1.062 -2.3530  1.7097  1.2310
  232TIP3    H2  703   5.336   3.357   1.048 -0.9143 -1.7871  1.5854
  233TIP3   OH2  704   1.807   2.210   3.684  0.4524 -0.0311  0.0413
  233TIP3    H1  705   1.822   2.120   3.654 -0.3745  0.0298 -0.5910
  233TIP3    H2  706   1.891   2.237   3.722  0.3213 -1.5468  1.4988
  234TIP3   OH2  707   4.256   4.133   1.028  0.0819  0.3633 -0.0895
  234TIP3    H1  708   4.201   4.144   1.106 -0.3631  0.9986 -0.4880
  234TIP3    H2  709   4.194   4.114   0.958  0.3482  1.2666 -0.5822
  235TIP3   OH2  710   6.102   4.483   2.892 -0.3564  0.0054  0.7666
  235TIP3    H1  711   6.170   4.462   2.828 -1.5470 -0.5781 -0.3794
  235TIP3    H2  712   6.129   4.567   2.929  1.3697 -0.5803  0.9373
  236TIP3   OH2  713   1.184   5.224   3.003  0.2992  0.0932 -0.1001
  236TIP3    H1  714   1.092   5.251   3.007  0.4854  0.6271  2.6220
  236TIP3    H2  715   1.187   5.162   2.930 -2.8643 -2.1286  1.4095
  237TIP3   OH2  716   2.012   2.427   2.581 -0.2155  0.0892  0.2170
  237TIP3    H1  717   2.031   2.512   2.621 -2.3001  1.1363 -0.8444
  237TIP3    H2  718   2.086   2.410   2.523  1.4950 -0.1201  2.3357
  238TIP3   OH2  719   0.405   3.865   2.783 -0.3217 -0.2791  0.2323
  238TIP3    H1  720   0.500   3.868   2.796  0.5171  1.0766 -4.5162
  238TIP3    H2  721   0.377   3.957   2.792 -0.1183  0.2695 -3.4733
  239TIP3   OH2  722   0.844   0.657   2.454  0.4376  0.6365 -0.2075
  239TIP3    H1  723   0.892   0.574   2.461 -0.9984 -0.1782  0.5180
  239TIP3    H2  724   0.840   0.675   2.360 -1.0804 -1.2887 -0.5842
  240TIP3   OH2  725   4.328   1.096   2.730  0.1421 -0.1740  0.6855
  240TIP3    H1  726   4.366   1.023   2.680 -0.7855  0.4828 -1.0505
  240TIP3    H2  727   4.386   1.170   2.713 -0.9434  0.4133 -0.6390
  241TIP3   OH2  728   2.805   3.838   2.989  0.0396  0.1877  0.6560
  241TIP3    H1  729   2.876   3.902   2.981  1.4199 -1.3016  0.3783
  241TIP3    H2  730   2.797   3.801   2.902 -0.8270  0.0439  0.7900
  242TIP3   OH2  731   3.291   1.683   1.910 -0.3589  0.1697 -0.2314
  242TIP3    H1  732   3.250   1.606   1.872  0.5122 -0.8606  0.8350
  242TIP3    H2  733   3.219   1.746   1.920 -1.5190 -1.2318  0.7198
  243TIP3   OH2  734   2.163   0.368   3.481  0.5412 -0.5655 -0.4033
  243TIP3    H1  735   2.138   0.450   3.525 -0.6576 -0.2680 -1.5555
  243TIP3    H2  736   2.247   0.387   3.441 -0.5654  0.8205 -2.2597
  244TIP3   OH2  737   5.644   2.542   0.598 -0.2817  0.5977 -0.3942
  244TIP3    H1  738   5.727   2.586   0.614  0.4600 -0.3156 -1.5365
  244TIP3    H2  739   5.599   2.597   0.535 -1.6477  2.3300  1.9083
  245TIP3   OH2  740   5.088   2.447   5.134 -0.7178  0.2419  0.6656
  245TIP3    H1  741   5.014   2.396   5.169 -1.6857  2.1873  1.6129
  245TIP3    H2  742   5.051   2.533   5.114  0.7804  0.5151 -1.2459
  246TIP3   OH2  743   0.252   3.082   0.314  0.1816 -0.6132  0.2301
  246TIP3    H1  744   0.343   3.105   0.332  0.6817 -2.1827 -0.2063
  246TIP3    H2  745   0.256   3.001   0.264 -1.4236  0.0624 -1.0938
  247TIP3   OH2  746   3.464   1.904   0.813 -0.1031 -0.3775 -0.7107
  247TIP3    H1  747   3.454   1.972   0.879  1.1416 -0.8008 -0.0601
  247TIP3    H2  748   3.405   1.834   0.841  0.5987 -0.6556  0.1142
  248TIP3   OH2  749   1.893   3.143   1.458 -0.0433  0.0633 -0.1132
  248TIP3    H1  750   1.870   3.217   1.401  0.9395 -0.5359 -1.3147
  248TIP3    H2  751   1.833   3.073   1.433 -0.0409  0.0046  0.0419
  249TIP3   OH2  752   2.934   4.931   2.628  0.1732  0.0316 -0.0695
  249TIP3    H1  753   3.013   4.963   2.670 -0.2153 -0.4379  1.0623
  249TIP3    H2  754   2.925   4.984   2.549  1.9096 -0.2783 -0.5149
  250TIP3   OH2  755   0.828   2.798   0.232  0.1942 -0.3512  0.0453
  250TIP3    H1  756   0.804   2.875   0.284  0.0199 -0.2103 -0.2371
  250TIP3    H2  757   0.790   2.724   0.279 -2.1375 -0.0126 -1.1556
  251TIP3   OH2  758   5.508   4.161   0.335  0.1035  0.3256 -0.6207
  251TIP3    H1  759   5.464   4.106   0.270 -1.6990  0.9574 -0.0039
  251TIP3    H2  760   5.598   4.168   0.304  0.1407 -2.1120 -1.2486
  252TIP3   OH2  761   4.172   2.916   1.742  0.3176 -0.2612 -0.2094
  252TIP3    H1  762   4.209   2.937   1.829 -0.9778 -0.6258  0.4530
  252TIP3    H2  763   4.086   2.958   1.743 -0.6082 -2.0799 -0.4701
  253TIP3   OH2  764   5.299   0.700   0.071  0.1376  0.5932  0.3453
  253TIP3    H1  765   5.223   0.755   0.050  0.5196  1.4175  1.0625
  253TIP3    H2  766   5.297   0.631   0.005 -1.8381 -0.0015  0.9490
  254TIP3   OH2  767   4.303   0.271   0.359 -0.2537 -0.2941 -0.3446
  254TIP3    H1  768   4.249   0.193   0.344  1.4104 -1.6901  0.5962
  254TIP3    H2  769   4.347   0.285   0.275  0.4050 -1.1599 -0.1541
  255TIP3   OH2  770   0.367   0.130   1.270 -0.1044  0.3626 -0.5415
  255TIP3    H1  771   0.278   0.165   1.271 -0.0276  0.5836 -0.9588
  255TIP3    H2  772   0.374   0.086   1.185 -0.4544 -1.3566  0.2827
  256TIP3   OH2  773   3.592   0.622   0.705 -0.4687  0.4698  0.3367
  256TIP3    H1  774   3.620   0.531   0.695 -0.7266  0.4447 -0.1688
  256TIP3    H2  775   3.528   0.620   0.775  0.3935  0.4457  1.1509
  257TIP3   OH2  776   6.007   1.559   2.342 -0.3255  0.2903 -0.0260
  257TIP3    H1  777   6.005   1.521   2.430  0.8742  0.9684  0.3175
  257TIP3    H2  778   6.035   1.487   2.285  0.4910  0.2473  0.4060
  258TIP3   OH2  779   0.579   5.600   3.001 -0.7114 -0.0496  0.5815
  258TIP3    H1  780   0.523   5.669   3.037 -0.0944  0.7876 -0.0244
  258TIP3    H2  781   0.588   5.624   2.909 -0.0576 -0.6532  0.4898
  259TIP3   OH2  782   2.817   3.781   3.748 -0.2829  0.2847 -0.2533
  259TIP3    H1  783   2.725   3.756   3.757  0.5591 -2.6619  1.2394
  259TIP3    H2  784   2.834   3.778   3.653 -0.8369 -3.0115 -0.3473
  260TIP3   OH2  785   5.339   0.149   1.445 -0.2785  0.2431  0.7252
  260TIP3    H1  786   5.268   0.086   1.434 -0.0442 -0.0187  0.6952
  260TIP3    H2  787   5.296   0.229   1.473 -0.6906  0.3713 -0.2485
  261TIP3   OH2  788   0.184   4.591   4.339 -0.0196 -0.3477 -0.1378
  261TIP3    H1  789   0.104   4.633   4.370 -0.4688 -0.2880 -1.3314
  261TIP3    H2  790   0.177   4.500   4.369 -0.4137 -0.2803 -0.0160
  262TIP3   OH2  791   2.959   0.369   0.348  0.5440  0.2891 -0.1362
  262TIP3    H1  792   2.970   0.291   0.294  0.9815 -0.1850  0.6199
  262TIP3    H2  793   3.048   0.401   0.362  0.5184 -0.0639  0.9632
  263TIP3   OH2  794   0.565   0.601   0.915 -0.1419  0.5468  0.0855
  263TIP3    H1  795   0.505   0.597   0.989  0.5902 -2.4704  0.6477
  263TIP3    H2  796   0.530   0.537   0.853  0.7190  1.1312 -1.0300
  264TIP3   OH2  797   2.292   2.106   3.265  0.4641 -0.4348  0.7213
  264TIP3    H1  798   2.270   2.191   3.226  0.7817 -0.0739  1.3061
  264TIP3    H2  799   2.216   2.083   3.318  0.6094 -0.2372  1.0172
  265TIP3   OH2  800   4.672   4.163   1.137  0.2020 -0.1618 -0.3959
  265TIP3    H1  801   4.698   4.106   1.065  1.5591  1.1707 -1.0158
  265TIP3    H2  802   4.718   4.245   1.121 -2.6250  1.6113 -0.2658
  266TIP3   OH2  803   5.015   0.923   2.801  0.6655 -0.2108 -0.1646
  266TIP3    H1  804   4.920   0.910   2.807  0.3723  0.9242 -1.7252
  266TIP3    H2  805   5.025   0.998   2.743  2.5464 -0.9079 -0.8101
  267TIP3   OH2  806   3.833   2.006   1.816  0.3035  0.1872 -0.1875
  267TIP3    H1  807   3.853   2.088   1.770  1.3317  0.9530  1.5410
  267TIP3    H2  808   3.916   1.960   1.822  0.3781  0.4737  1.5489
  268TIP3   OH2  809   4.872   5.790   0.756 -0.3727 -0.1554  0.3707
  268TIP3    H1  810   4.901   5.734   0.828 -0.9577 -0.6732  0.2093
  268TIP3    H2  811   4.790   5.751   0.726  0.1630 -0.3073 -0.9886
  269TIP3   OH2  812   0.126   0.950   1.376  0.4879  0.7844 -0.3019
  269TIP3    H1  813   0.073   0.962   1.455 -1.8949  1.8928 -1.9357
  269TIP3    H2  814   0.216   0.966   1.405 -0.1638  0.1342  2.3632
  270TIP3   OH2  815   4.775   1.590   3.555  0.1982  0.3513  0.1157
  270TIP3    H1  816   4.793   1.664   3.498 -0.1121  0.2992 -0.0497
  270TIP3    H2  817   4.821   1.516   3.514 -1.5998 -0.1180 -1.1326
  271TIP3   OH2  818   6.109   2.019   1.156 -0.2520 -0.4795 -0.3417
  271TIP3    H1  819   6.100   2.079   1.083 -0.4154  1.0005  0.8393
  271TIP3    H2  820   6.023   2.019   1.198  0.5611  0.9785  1.4874
  272TIP3   OH2  821   3.265   0.202   0.121 -0.2292  0.6008  0.2378
  272TIP3    H1  822   3.346   0.227   0.165  0.0959  0.7682 -0.4505
  272TIP3    H2  823   3.255   0.266   0.051  1.4559 -2.0059 -2.6014
  273TIP3   OH2  824   5.743   0.273   3.390  0.0585 -0.2611  0.2368
  273TIP3    H1  825   5.706   0.361   3.400  1.3662  0.4288 -0.6435
  273TIP3    H2  826   5.694   0.219   3.451  0.6653  1.5189  2.4420
  274TIP3   OH2  827   4.457   2.106   3.616  0.1969 -0.2328 -0.3762
  274TIP3    H1  828   4.420   2.181   3.661  0.4580  0.2430 -0.9422
  274TIP3    H2  829   4.396   2.088   3.544  1.4539  1.1048 -1.8501
  275TIP3   OH2  830   1.004   2.558   2.235 -0.2969 -0.4577 -0.4104
  275TIP3    H1  831   1.087   2.594   2.269 -0.6750  0.3568 -0.3243
  275TIP3    H2  832   0.936   2.602   2.286 -0.8223 -0.3463 -1.1905
  276TIP3   OH2  833   4.485   1.661   0.822 -0.0294 -0.1619 -0.0712
  276TIP3    H1  834   4.559   1.612   0.859 -0.3997 -0.2836  0.5109
  276TIP3    H2  835   4.434   1.595   0.775 -0.0371 -0.1735 -0.0469
  277TIP3   OH2  836   2.966   5.496   3.906 -0.0107  0.7010 -0.2092
  277TIP3    H1  837   2.927   5.432   3.965  0.1539  1.0753  0.3079
  277TIP3    H2  838   2.895   5.556   3.884 -0.3649 -0.0793 -1.3033
  278TIP3   OH2  839   0.657   1.403   1.198  0.0192 -0.3788 -0.3905
  278TIP3    H1  840   0.665   1.422   1.291  1.5067 -0.8731 -0.3904
  278TIP3    H2  841   0.735   1.443   1.158  0.1405 -1.3753 -1.2046
  279TIP3   OH2  842   0.103   5.298   2.892 -0.1031  0.4062  0.1320
  279TIP3    H1  843   0.049   5.252   2.957 -0.7558  0.1931 -0.5370
  279TIP3    H2  844   0.113   5.386   2.928  0.5218 -0.0316  1.0673
  280TIP3   OH2  845   3.441   5.327   0.950  0.4406  0.4006  0.1070
  280TIP3    H1  846   3.353   5.363   0.959 -0.0754 -0.8877  0.4690
  280TIP3    H2  847   3.487   5.351   1.030 -0.1072 -0.2706  0.6363
  281TIP3   OH2  848   3.022   5.754   0.558  0.1845 -0.1683 -0.0728
  281TIP3    H1  849   2.996   5.755   0.650  0.9929 -1.7381  0.1983
  281TIP3    H2  850   3.090   5.687   0.552 -1.0945 -1.3939 -2.1331
  282TIP3   OH2  851   5.501   4.430   1.491 -0.6018 -0.5591  0.1319
  282TIP3    H1  852   5.577   4.383   1.525 -1.5694 -1.3387  1.3447
  282TIP3    H2  853   5.488   4.502   1.554  0.5855  1.1356 -1.4467
  283TIP3   OH2  854   4.051   3.437   4.763 -0.3663 -0.3282 -0.8665
  283TIP3    H1  855   4.107   3.515   4.766 -0.8298  0.0536 -1.8710
  283TIP3    H2  856   4.072   3.390   4.844  0.4573  0.4619 -0.6003
  284TIP3   OH2  857   2.634   2.841   2.392  0.2272 -0.6458  0.0515
  284TIP3    H1  858   2.604   2.885   2.471 -0.2797 -2.0013  0.6443
  284TIP3    H2  859   2.562   2.781   2.369 -0.7284  1.3771 -2.8254
  285TIP3   OH2  860   3.396   2.060   1.574 -0.7033 -0.0916  0.2587
  285TIP3    H1  861   3.338   2.111   1.518  0.6700 -0.0264 -1.1692
  285TIP3    H2  862   3.370   2.083   1.663 -2.0859  0.7922 -0.3416
  286TIP3   OH2  863   1.616   0.852   4.730  0.4490 -0.6469 -0.4112
  286TIP3    H1  864   1.573   0.792   4.791  0.3656 -1.4917 -1.2645
  286TIP3    H2  865   1.710   0.839   4.745  0.4644  0.8692  1.1382
  287TIP3   OH2  866   5.164   5.184   0.398 -0.2130  0.4021 -0.4071
  287TIP3    H1  867   5.086   5.143   0.436  0.9735 -0.7700  0.9235
  287TIP3    H2  868   5.205   5.114   0.347  0.3415  0.7645 -0.4683
  288TIP3   OH2  869   5.642   3.291   1.261  0.0213 -0.9270  0.0032
  288TIP3    H1  870   5.703   3.224   1.291  2.6947  1.0014 -0.7079
  288TIP3    H2  871   5.600   3.252   1.184  1.6175 -1.7916 -0.4965
  289TIP3   OH2  872   3.667   2.128   3.409  0.4192 -0.1849 -0.6936
  289TIP3    H1  873   3.703   2.056   3.461 -0.2366 -1.2780 -1.6925
  289TIP3    H2  874   3.599   2.086   3.355 -0.0044  1.2010 -1.2673
  290TIP3   OH2  875   5.681   2.810   0.829 -0.2179  0.0668  0.0878
  290TIP3    H1  876   5.591   2.812   0.862 -0.2278 -0.7665  0.1249
  290TIP3    H2  877   5.735   2.799   0.908 -0.1307 -0.2298 -0.0149
  291TIP3   OH2  878   3.572   2.623   0.929  0.4602  0.1803  0.0437
  291TIP3    H1  879   3.579   2.552   0.866  0.4621  0.8425 -0.7253
  291TIP3    H2  880   3.492   2.603   0.979 -0.4471  0.4517 -1.2338
  292TIP3   OH2  881   5.049   1.342   0.770 -0.2380  0.3071  0.2969
  292TIP3    H1  882   5.023   1.385   0.852  0.5251  1.3739  0.0004
  292TIP3    H2  883   5.096   1.410   0.722  1.2087 -0.9354 -0.0930
  293TIP3   OH2  884   0.329   0.935   0.704  0.3533  0.1807  0.1776
  293TIP3    H1  885   0.275   0.864   0.738  1.6320 -1.4083 -0.9574
  293TIP3    H2  886   0.416   0.919   0.741  1.5050 -0.9026 -2.6917
  294TIP3   OH2  887   0.955   1.040   0.524  0.3177 -0.0080 -0.0995
  294TIP3    H1  888   0.943   0.945   0.526  2.0219 -0.2450  0.4730
  294TIP3    H2  889   0.957   1.066   0.616  0.2331  0.5334 -0.2470
  295TIP3   OH2  890   2.541   1.323   4.766 -0.0442 -0.3226  0.1730
  295TIP3    H1  891   2.549   1.233   4.732  2.9825 -0.8536  1.8715
  295TIP3    H2  892   2.623   1.365   4.739 -1.1787  1.8295 -0.1213
  296TIP3   OH2  893   0.059   3.839   2.717  0.1321  0.4848 -0.0076
  296TIP3    H1  894   0.051   3.863   2.625  0.8891 -1.9021 -0.7535
  296TIP3    H2  895  -0.019   3.876   2.758 -0.2150  1.6024 -1.5741
  297TIP3   OH2  896   3.031   3.681   2.413  0.5956 -0.1980  0.0704
  297TIP3    H1  897   3.084   3.652   2.339  0.7941  0.1637  0.0712
  297TIP3    H2  898   2.997   3.600   2.451  0.6774 -0.3967 -0.2783
  298TIP3   OH2  899   3.932   0.493   3.865 -0.7358 -0.2874  0.0211
  298TIP3    H1  900   3.847   0.535   3.873 -0.3317  0.4776  0.3790
  298TIP3    H2  901   3.914   0.410   3.822 -1.5777  0.1476 -0.4740
  299TIP3   OH2  902   0.068   5.330   4.688 -0.4709 -0.0071  0.0008
  299TIP3    H1  903  -0.006   5.355   4.633 -1.3400  0.9835  1.5701
  299TIP3    H2  904   0.102   5.250   4.647 -2.2827 -0.3910 -0.8401
  300TIP3   OH2  905   2.476   4.948   4.624  0.5278 -0.1253 -0.4834
  300TIP3    H1  906   2.518   4.868   4.590  1.1940  0.7407 -1.7983
  300TIP3    H2  907   2.395   4.917   4.665  1.4128 -1.6159  0.2403
  301TIP3   OH2  908   4.336   1.484   2.395  0.1941 -0.1949  0.0344
  301TIP3    H1  909   4.245   1.460   2.411 -0.5769  1.7805 -1.0704
  301TIP3    H2  910   4.353   1.555   2.457  0.9238 -0.3869  0.0638
  302TIP3   OH2  911   2.147   3.536   2.801 -0.9144 -0.1574 -0.1152
  302TIP3    H1  912   2.215   3.526   2.868 -0.6260 -0.4074 -0.4456
  302TIP3    H2  913   2.065   3.522   2.848 -0.7572  0.3514  0.3314
  303TIP3   OH2  914   5.537   4.409   1.861  0.3274  0.4211 -0.3881
  303TIP3    H1  915   5.525   4.503   1.869  0.4034  0.2699  2.4484
  303TIP3    H2  916   5.630   4.394   1.877  0.2428 -0.1773 -0.4051
  304TIP3   OH2  917   0.488   2.073   1.411 -0.0158 -0.1871 -0.7539
  304TIP3    H1  918   0.545   1.996   1.409  0.7814  0.3961 -1.1694
  304TIP3    H2  919   0.481   2.095   1.504  0.1052 -0.5051 -0.6675
  305TIP3   OH2  920   4.356   0.474   1.190 -0.1365 -0.2218 -0.2347
  305TIP3    H1  921   4.437   0.478   1.139  0.2283  0.8596  0.4106
  305TIP3    H2  922   4.332   0.381   1.189  0.2354 -0.3272 -1.7739
  306TIP3   OH2  923   2.335   0.994   3.474 -0.2894  0.1648  0.0848
  306TIP3    H1  924   2.411   1.046   3.448  0.6467 -1.6072 -0.9552
  306TIP3    H2  925   2.367   0.904   3.475 -1.9622 -0.4695  1.3362
  307TIP3   OH2  926   0.141   4.469   1.655 -0.6345  0.6101  0.1466
  307TIP3    H1  927   0.087   4.536   1.613 -1.0547  0.7861  0.9595
  307TIP3    H2  928   0.211   4.517   1.699 -1.1249  0.5488  1.0106
  308TIP3   OH2  929   0.005   4.923   3.701 -0.5189 -0.5269 -0.5842
  308TIP3    H1  930   0.026   4.998   3.757 -0.5986 -1.5241  0.8321
  308TIP3    H2  931   0.064   4.932   3.626  0.3432  0.2685  0.1642
  309TIP3   OH2  932   4.303   1.626   1.988 -0.2220 -0.3342  0.0384
  309TIP3    H1  933   4.315   1.545   2.037 -0.8053  0.6044  1.8213
  309TIP3    H2  934   4.212   1.650   2.002 -0.0510  0.6587 -0.4330
  310TIP3   OH2  935   3.615   1.101   2.097  0.0273  0.0854  0.4061
  310TIP3    H1  936   3.588   1.062   2.014 -0.6131  0.2458  0.5350
  310TIP3    H2  937   3.703   1.134   2.080  0.6254 -1.4549  0.3140
  311TIP3   OH2  938   2.019   0.134   2.877 -0.0977 -0.1568 -0.1760
  311TIP3    H1  939   2.023   0.110   2.969 -0.5886  1.7231  0.3788
  311TIP3    H2  940   2.030   0.051   2.830  0.4120 -1.1137  1.5481
  312TIP3   OH2  941   5.452   5.316   0.385  0.3750 -0.8202 -0.2442
  312TIP3    H1  942   5.368   5.345   0.348 -1.5432 -3.1062  1.9141
  312TIP3    H2  943   5.459   5.224   0.360  2.7069 -0.4801 -1.0466
  313TIP3   OH2  944   1.154   3.598   1.944 -0.5247 -0.3895 -0.0048
  313TIP3    H1  945   1.091   3.614   1.875  0.3293 -0.6945 -0.8791
  313TIP3    H2  946   1.149   3.503   1.960  0.4336 -0.5988 -0.8269
  314TIP3   OH2  947   3.798   4.067   4.562 -0.1611  0.0182  0.1443
  314TIP3    H1  948   3.767   4.154   4.587 -0.6315 -0.0254 -0.2691
  314TIP3    H2  949   3.769   4.057   4.471 -0.3651 -0.6889  0.2825
  315TIP3   OH2  950   2.513   4.581   3.362  0.1802 -0.1509  0.2631
  315TIP3    H1  951   2.491   4.654   3.304 -0.1904 -1.8668 -1.8564
  315TIP3    H2  952   2.595   4.546   3.327 -0.3234 -1.5557  0.4190
  316TIP3   OH2  953   5.603   2.345   2.248 -0.3286 -0.2736  0.3455
  316TIP3    H1  954   5.575   2.362   2.338 -0.7886 -2.8597  0.7861
  316TIP3    H2  955   5.531   2.377   2.194 -0.5924  0.2016  0.9659
  317TIP3   OH2  956   0.858   2.513   0.631  0.2693  0.1335 -0.2045
  317TIP3    H1  957   0.831   2.604   0.628  1.4218  0.4874 -0.1541
  317TIP3    H2  958   0.936   2.509   0.575 -0.1102 -0.9436 -0.6872
  318TIP3   OH2  959   3.316   3.525   4.965  0.2774  0.7049  0.1996
  318TIP3    H1  960   3.396   3.490   4.926 -0.0896  0.7810 -0.6284
  318TIP3    H2  961   3.295   3.463   5.035 -0.2846 -0.6719 -1.1470
  319TIP3   OH2  962   2.657   3.051   2.785  0.3367  0.2687  0.9028
  319TIP3    H1  963   2.627   3.083   2.870  0.7836  1.3198  0.6809
  319TIP3    H2  964   2.669   3.130   2.732  0.2690 -0.3523 -0.0732
  320TIP3   OH2  965   1.344   1.709   3.407 -0.0083 -0.0981  0.1555
  320TIP3    H1  966   1.310   1.765   3.477 -1.1998 -2.2038  1.3490
  320TIP3    H2  967   1.388   1.637   3.452  1.7326 -0.0596 -1.3448
  321TIP3   OH2  968   1.628   5.641   4.863  0.3684 -0.0165  0.5336
  321TIP3    H1  969   1.636   5.685   4.948 -0.5146  0.6775  0.2577
  321TIP3    H2  970   1.708   5.665   4.817  0.7508 -0.2142  1.0773
  322TIP3   OH2  971   4.686   0.424   3.645  0.1132 -0.1454  0.2238
  322TIP3    H1  972   4.769   0.380   3.661 -0.9732 -2.0540  0.8955
  322TIP3    H2  973   4.629   0.357   3.608 -1.5678  0.6936  1.1535
  323TIP3   OH2  974   1.549   4.690   5.184 -0.3235 -0.5877  0.2609
  323TIP3    H1  975   1.562   4.610   5.133  0.5337  0.3164 -0.9923
  323TIP3    H2  976   1.637   4.717   5.210 -0.4772  0.5505 -0.3094
  324TIP3   OH2  977   4.897   1.149   0.201  0.1292 -0.2776  0.5932
  324TIP3    H1  978   4.811   1.192   0.209  1.3240  2.1495  1.2793
  324TIP3    H2  979   4.916   1.151   0.107  0.3142  1.1201  0.6372
  325TIP3   OH2  980   5.167   5.350   1.365  0.1056 -0.2597 -0.3164
  325TIP3    H1  981   5.143   5.344   1.273  0.9364 -1.8742 -0.4598
  325TIP3    H2  982   5.256   5.388   1.364 -0.2100  0.5167 -0.1076
  326TIP3   OH2  983   0.812   0.488   2.886 -0.1802  0.0273  0.3988
  326TIP3    H1  984   0.891   0.508   2.937 -0.3398  0.5981  0.4284
  326TIP3    H2  985   0.832   0.405   2.844  0.6261  0.3914  0.0345
  327TIP3   OH2  986   3.676   0.926   5.046  0.4491 -0.1457 -0.1738
  327TIP3    H1  987   3.606   0.920   4.980  0.7886  1.3539 -0.7014
  327TIP3    H2  988   3.755   0.943   4.995  1.2657 -1.9721  0.4106
  328TIP3   OH2  989   3.324   1.471   1.579  0.0673 -0.4976  0.0145
  328TIP3    H1  990   3.368   1.392   1.545  1.4802  1.2135 -2.4437
  328TIP3    H2  991   3.384   1.504   1.646  0.4905 -0.4552 -0.3760
  329TIP3   OH2  992   3.476   0.189   4.975  0.0736  0.1679  0.0007
  329TIP3    H1  993   3.502   0.280   4.963 -0.3161  0.4662  1.2901
  329TIP3    H2  994   3.525   0.160   5.051  0.7141 -0.9328 -0.7930
  330TIP3   OH2  995   5.717   4.827   3.895 -0.0760 -0.4158  0.2819
  330TIP3    H1  996   5.739   4.912   3.858 -2.7306  0.2300 -0.0703
  330TIP3    H2  997   5.748   4.831   3.986  0.1866  0.7837  0.1465
  331TIP3   OH2  998   6.161   5.759   4.169  0.4468  0.3154  0.2163
  331TIP3    H1  999   6.094   5.818   4.134  0.4572  0.3669  0.2821
  331TIP3    H2 1000   6.208   5.728   4.092 -0.0592 -0.2212  0.1212
  332TIP3   OH2 1001   2.677   5.041   5.105  0.1510  0.6106 -0.1975
  332TIP3    H1 1002   2.771   5.028   5.089 -0.2446 -0.0090 -2.3930
  332TIP3    H2 1003   2.673   5.118   5.161  1.9557  1.4534 -1.1353
  333TIP3   OH2 1004   2.144   3.464   5.034  0.0508  0.2247  0.0612
  333TIP3    H1 1005   2.131   3.539   5.092  0.7315 -0.9561  1.7824
  333TIP3    H2 1006   2.166   3.391   5.092 -0.4636 -1.3075 -1.5710
  334TIP3   OH2 1007   6.100   5.723   2.920  0.1247 -0.1476 -0.0579
  334TIP3    H1 1008   6.031   5.657   2.914  0.3965 -0.4022 -0.4729
  334TIP3    H2 1009   6.161   5.700   2.851  0.9819 -0.3383  0.7420
  335TIP3   OH2 1010   4.329   1.282   1.681 -0.0803 -0.6128 -0.8307
  335TIP3    H1 1011   4.402   1.344   1.685 -0.1838 -0.4572 -1.3521
  335TIP3    H2 1012   4.253   1.333   1.706 -0.2005 -0.4718 -1.4782
  336TIP3   OH2 1013   1.052   4.978   1.408 -0.6597 -0.2928 -0.0003
  336TIP3    H1 1014   1.075   4.996   1.499 -0.4857  1.0422 -0.2957
  336TIP3    H2 1015   0.958   4.995   1.402 -0.3488  1.4341 -0.4678
  337TIP3   OH2 1016   6.294   4.538   4.435 -0.3547  0.4271  0.1880
  337TIP3    H1 1017   6.212   4.588   4.436 -0.7087 -0.0855  2.7127
  337TIP3    H2 1018   6.274   4.458   4.484  1.7514  0.4821  1.2214
  338TIP3   OH2 1019   4.351   1.219   1.219  0.3228 -0.1251 -0.2621
  338TIP3    H1 1020   4.437   1.260   1.217  0.0295  0.4992 -0.2960
  338TIP3    H2 1021   4.362   1.138   1.169  1.1249 -0.5323  0.5429
  339TIP3   OH2 1022   4.716   2.342   0.366 -0.2798  0.3206  0.5328
  339TIP3    H1 1023   4.721   2.259   0.412  0.6720  0.3201  0.4426
  339TIP3    H2 1024   4.689   2.319   0.277 -1.0904  0.2239  0.7963
  340TIP3   OH2 1025   0.289   1.572   2.542  0.2316  0.2599  0.2400
  340TIP3    H1 1026   0.344   1.593   2.618  1.2793 -1.9772  0.1883
  340TIP3    H2 1027   0.216   1.523   2.578  0.4267 -0.2995 -0.1128
  341TIP3   OH2 1028   0.546   3.673   4.865 -0.1347 -0.0258 -0.0373
  341TIP3    H1 1029   0.560   3.715   4.950  1.6056 -0.8643  0.1439
  341TIP3    H2 1030   0.557   3.742   4.801  0.8603  0.1659  0.3304
  342TIP3   OH2 1031   1.073   5.622   0.177  0.1522  0.3440 -0.2448
  342TIP3    H1 1032   0.983   5.644   0.198  0.2478  1.0086 -0.5089
  342TIP3    H2 1033   1.090   5.665   0.093  0.7557  0.3320 -0.1362
  343TIP3   OH2 1034   1.230   5.413   3.198  0.4859 -0.1744 -0.1510
  343TIP3    H1 1035   1.193   5.361   3.270 -2.0895  0.3083 -0.9942
  343TIP3    H2 1036   1.250   5.349   3.130  1.0054 -0.4339  0.2436
  344TIP3   OH2 1037   2.672   0.760   4.161  0.5731 -0.3433 -0.7061
  344TIP3    H1 1038   2.612   0.730   4.092  1.6677 -1.1731 -1.3251
  344TIP3    H2 1039   2.631   0.732   4.243  0.9116 -2.4421 -1.2058
  345TIP3   OH2 1040   0.573   3.659   1.185  0.4296  0.5696 -0.0617
  345TIP3    H1 1041   0.587   3.754   1.187  1.7368  0.5420 -2.9904
  345TIP3    H2 1042   0.478   3.649   1.180  0.1037  1.5466  2.7162
  346TIP3   OH2 1043   5.046   1.837   4.873  0.3639 -0.0182 -0.1033
  346TIP3    H1 1044   5.134   1.805   4.893 -0.0592 -1.2074 -0.0880
  346TIP3    H2 1045   5.038   1.829   4.778  0.7653  1.4355 -0.2869
  347TIP3   OH2 1046   1.241   3.642   0.888 -0.2133 -0.5406 -0.2773
  347TIP3    H1 1047   1.170   3.670   0.830 -1.8237 -2.6545  0.5511
  347TIP3    H2 1048   1.285   3.724   0.912 -0.2945  0.5374 -3.3625
  348TIP3   OH2 1049   4.816   4.386   0.412 -0.0666 -0.0384  0.5589
  348TIP3    H1 1050   4.845   4.360   0.325 -1.5771 -1.1545  0.3505
  348TIP3    H2 1051   4.877   4.344   0.472  0.5652  0.1749  0.0767
  349TIP3   OH2 1052   3.786   5.389   3.774 -0.1031 -0.0427  0.4589
  349TIP3    H1 1053   3.692   5.405   3.781 -0.1128  0.5831 -0.7261
  349TIP3    H2 1054   3.792   5.306   3.726 -0.0831  0.6365 -0.7686
  350TIP3   OH2 1055   3.381   1.290   1.319  0.5791  0.2204  0.5937
  350TIP3    H1 1056   3.398   1.341   1.240  0.8897  0.3485  0.7410
  350TIP3    H2 1057   3.286   1.279   1.320  0.6706 -0.8292 -0.4438
  351TIP3   OH2 1058   3.893   3.766   4.819  0.6053 -0.1828  0.1906
  351TIP3    H1 1059   3.805   3.795   4.843  0.2504  0.0566 -1.3134
  351TIP3    H2 1060   3.945   3.776   4.899 -0.7462 -0.4185  1.1216
  352TIP3   OH2 1061   1.554   3.283   3.574 -0.1800  0.0246  0.3755
  352TIP3    H1 1062   1.461   3.267   3.590 -0.2234 -0.6830 -0.4927
  352TIP3    H2 1063   1.573   3.365   3.618 -1.2149  0.1557  0.5849
  353TIP3   OH2 1064   5.217   3.837   3.552  0.3753  0.0717  0.4496
  353TIP3    H1 1065   5.275   3.776   3.506 -1.4032 -1.3251 -0.0241
  353TIP3    H2 1066   5.223   3.810   3.644  0.9508  0.3530  0.5007
  354TIP3   OH2 1067   1.320   1.665   0.492  0.1061  0.1000 -0.1527
  354TIP3    H1 1068   1.225   1.666   0.479  0.1365 -1.4920 -0.6353
  354TIP3    H2 1069   1.356   1.687   0.405  0.1913  0.1914 -0.0946
  355TIP3   OH2 1070   3.325   0.966   0.676  0.0001 -0.1499  0.0840
  355TIP3    H1 1071   3.305   0.923   0.759 -0.7636 -0.3710 -0.2050
  355TIP3    H2 1072   3.261   0.931   0.615 -1.3783  2.1975  0.0629
  356TIP3   OH2 1073   5.030   2.914   0.782  0.3533  0.5103  0.0960
  356TIP3    H1 1074   5.086   2.910   0.704  0.3852 -1.0309  0.1773
  356TIP3    H2 1075   4.941   2.912   0.747  0.3675 -0.1922  0.0971
  357TIP3   OH2 1076   3.741   4.198   0.174 -0.2577 -0.1046  0.0645
  357TIP3    H1 1077   3.809   4.162   0.230 -1.4905 -1.2254  0.9114
  357TIP3    H2 1078   3.693   4.259   0.230  0.8254  1.7237 -0.9067
  358TIP3   OH2 1079   3.031   5.968   0.977 -0.1089  0.1371  0.1366
  358TIP3    H1 1080   3.101   5.945   1.037 -0.4226 -0.5749  0.2375
  358TIP3    H2 1081   3.000   5.884   0.943 -1.5387  0.3575  0.8149
  359TIP3   OH2 1082   2.885   3.265   0.821  0.1970  0.8896 -0.4635
  359TIP3    H1 1083   2.885   3.324   0.897 -2.9818  0.9313 -0.3815
  359TIP3    H2 1084   2.861   3.320   0.748  0.5736  0.3124 -1.0340
  360TIP3   OH2 1085   0.223   2.923   2.290 -0.0799 -0.0608 -0.7067
  360TIP3    H1 1086   0.257   2.838   2.262 -2.1818 -0.9270 -0.7686
  360TIP3    H2 1087   0.156   2.945   2.224  0.2938  1.5681 -0.5879
  361TIP3   OH2 1088   3.714   1.142   3.922 -0.2667 -0.5678 -0.1091
  361TIP3    H1 1089   3.751   1.067   3.876 -0.0600 -0.3615 -0.2847
  361TIP3    H2 1090   3.632   1.110   3.959 -1.4449 -0.2527 -2.2349
  362TIP3   OH2 1091   1.700   1.955   3.020  0.0238  0.2352 -0.0147
  362TIP3    H1 1092   1.682   1.966   3.113  1.1496  1.1278  0.1230
  362TIP3    H2 1093   1.614   1.950   2.979 -0.5282 -1.7597  1.2151
  363TIP3   OH2 1094   3.631   1.344   0.010 -0.1692  0.2207  0.1049
  363TIP3    H1 1095   3.563   1.374   0.070  0.7298  0.9608  0.7856
  363TIP3    H2 1096   3.694   1.417   0.006  0.0594 -0.0249 -1.3251
  364TIP3   OH2 1097   4.984   3.468   2.554 -0.2096 -0.4322 -0.0534
  364TIP3    H1 1098   5.076   3.483   2.576  0.0494 -1.5516 -0.3110
  364TIP3    H2 1099   4.937   3.538   2.598  0.7698  0.1632  0.0713
  365TIP3   OH2 1100   1.151   5.686   3.724 -0.2913  0.1270  0.2130
  365TIP3    H1 1101   1.165   5.779   3.710  0.2371  0.3356  1.8597
  365TIP3    H2 1102   1.142   5.649   3.636 -1.2083  1.8140 -0.4398
  366TIP3   OH2 1103   1.075   2.456   3.879  0.0413 -0.8700  0.0627
  366TIP3    H1 1104   1.029   2.538   3.898  0.9908  0.0219 -1.2624
  366TIP3    H2 1105   1.118   2.433   3.961  1.1049  0.8906  0.0619
  367TIP3   OH2 1106   2.717   2.761   1.234  0.4490 -0.3286 -0.1130
  367TIP3    H1 1107   2.775   2.794   1.165  2.9880 -1.8141  1.1600
  367TIP3    H2 1108   2.776   2.737   1.305 -1.7470 -2.2428  1.1875
  368TIP3   OH2 1109   6.023   3.536   1.919  0.4156  0.4358 -0.1580
  368TIP3    H1 1110   6.030   3.503   1.829  0.0765 -0.7126  0.2233
  368TIP3    H2 1111   5.968   3.472   1.964 -0.2916  1.5647  0.6089
  369TIP3   OH2 1112   3.312   1.206   4.153  0.1664  0.3481 -0.4253
  369TIP3    H1 1113   3.368   1.260   4.209  0.7428 -0.4028 -0.2734
  369TIP3    H2 1114   3.225   1.246   4.161  0.4647  0.9009  0.1416
  370TIP3   OH2 1115   4.510   1.152   4.142  0.0297  0.3525  0.2775
  370TIP3    H1 1116   4.433   1.161   4.198 -1.3376 -4.6100 -0.3916
  370TIP3    H2 1117   4.583   1.136   4.203 -0.8322 -1.7163  0.8313
  371TIP3   OH2 1118   4.439   1.855   1.363 -0.0858 -0.1272 -0.1164
  371TIP3    H1 1119   4.376   1.925   1.380  0.0102 -0.0383 -0.1262
  371TIP3    H2 1120   4.385   1.776   1.353 -0.2974  0.1563 -1.3839
  372TIP3   OH2 1121   2.087   0.046   4.576  0.6742 -0.0354  0.8031
  372TIP3    H1 1122   2.014   0.006   4.530  0.9518  0.0750  0.2589
  372TIP3    H2 1123   2.104   0.128   4.528  0.0215  0.8253  1.9787
  373TIP3   OH2 1124   3.872   5.902   1.102 -0.4427 -0.1269  0.3964
  373TIP3    H1 1125   3.863   5.997   1.093 -1.0062 -0.3283 -1.8483
  373TIP3    H2 1126   3.886   5.872   1.012  0.7393 -2.0784  1.1927
  374TIP3   OH2 1127   1.490   5.956   3.736 -0.1941 -0.1205 -0.0925
  374TIP3    H1 1128   1.457   5.949   3.646 -1.7721 -2.1356  0.5651
  374TIP3    H2 1129   1.579   5.919   3.732 -0.9754 -2.1087 -0.5314
  375TIP3   OH2 1130   5.730   5.601   1.480 -0.5639  0.3132 -0.4674
  375TIP3    H1 1131   5.786   5.639   1.548 -0.5044 -0.6033  0.0093
  375TIP3    H2 1132   5.750   5.651   1.401  1.0406 -0.0940 -0.3523
  376TIP3   OH2 1133   3.712   2.206   3.077 -0.1556 -0.4624  0.0476
  376TIP3    H1 1134   3.653   2.236   3.146 -1.9763 -2.8447 -0.3239
  376TIP3    H2 1135   3.782   2.271   3.075 -0.8275  0.5297  3.0606
  377TIP3   OH2 1136   3.968   1.396   2.961 -0.0450  0.1174 -0.4054
  377TIP3    H1 1137   4.060   1.377   2.946  0.1205  1.0639 -0.6794
  377TIP3    H2 1138   3.929   1.311   2.982  0.8562 -0.3146 -0.4144
  378TIP3   OH2 1139   2.761   0.157   3.372 -0.3557  0.0333  0.1059
  378TIP3    H1 1140   2.832   0.201   3.324  1.4151 -2.4042  0.3167
  378TIP3    H2 1141   2.778   0.178   3.464 -1.3972  1.4051  0.0266
  379TIP3   OH2 1142   1.129   0.748   4.438 -0.6454 -0.9250  0.1446
  379TIP3    H1 1143   1.204   0.759   4.381 -1.0721 -0.5704 -0.3620
  379TIP3    H2 1144   1.148   0.803   4.514 -0.0824 -1.3845  0.3358
  380TIP3   OH2 1145   5.446   3.076   1.046  0.1192 -0.2667 -0.7422
  380TIP3    H1 1146   5.424   3.053   0.956 -1.0476  1.7823 -1.0465
  380TIP3    H2 1147   5.433   3.171   1.051  0.4859 -0.2632  1.4978
  381TIP3   OH2 1148   0.745   1.571   5.035  0.3198 -0.4284  0.0930
  381TIP3    H1 1149   0.731   1.585   5.129  1.8237 -0.1306  0.3001
  381TIP3    H2 1150   0.698   1.643   4.993 -0.9197 -0.9454  0.5750
  382TIP3   OH2 1151   5.864   3.729   0.751 -0.0891 -0.0108  0.5538
  382TIP3    H1 1152   5.807   3.653   0.738  0.9790 -0.7617  0.1115
  382TIP3    H2 1153   5.834   3.793   0.687  0.5015 -0.9605 -0.7024
  383TIP3   OH2 1154   1.399   0.030   1.656  0.0755 -0.7047  0.1831
  383TIP3    H1 1155   1.419   0.120   1.683  1.4298 -0.8975 -0.1350
  383TIP3    H2 1156   1.358  -0.009   1.733 -2.1838  0.6563 -0.2115
  384TIP3   OH2 1157   6.395   2.381   4.214 -0.2170  0.5080 -0.7208
  384TIP3    H1 1158   6.343   2.341   4.145 -0.0690 -0.4013 -0.3273
  384TIP3    H2 1159   6.331   2.422   4.272 -0.6446 -1.5894  0.3888
  385TIP3   OH2 1160   3.858   1.510   0.669  0.4538  0.1298  0.2150
  385TIP3    H1 1161   3.786   1.447   0.658  0.8805 -0.2744 -0.3537
  385TIP3    H2 1162   3.816   1.589   0.703 -0.4997  0.3627 -1.3650
  386TIP3   OH2 1163   2.730   5.428   2.943 -0.0403  0.1965 -0.9616
  386TIP3    H1 1164   2.767   5.374   2.873 -0.3985  0.4711 -1.3707
  386TIP3    H2 1165   2.798   5.494   2.960  1.1542 -1.3813  0.7624
  387TIP3   OH2 1166   5.243   0.488   1.141  0.0789  0.1788  0.5537
  387TIP3    H1 1167   5.174   0.496   1.076  0.5371  0.7165  0.1219
  387TIP3    H2 1168   5.304   0.560   1.121  1.0793 -0.6461  0.5328
  388TIP3   OH2 1169   5.406   5.459   1.332 -0.2881  0.0930  0.1526
  388TIP3    H1 1170   5.475   5.434   1.393  0.5364  0.2737 -0.6849
  388TIP3    H2 1171   5.429   5.548   1.305 -2.5683  1.4643  2.2480
  389TIP3   OH2 1172   1.843   4.372   2.069  0.1613 -0.4994 -0.0526
  389TIP3    H1 1173   1.802   4.294   2.109 -0.5352  0.5915  1.4766
  389TIP3    H2 1174   1.924   4.338   2.029 -0.4555 -2.1160 -0.0234
  390TIP3   OH2 1175   6.121   3.136   2.105  0.4532  0.3467 -0.5699
  390TIP3    H1 1176   6.078   3.107   2.186  0.4560  0.9254 -0.3564
  390TIP3    H2 1177   6.057   3.118   2.036  1.6819 -3.4145 -1.0046
  391TIP3   OH2 1178   0.522   5.025   2.244  0.1833  0.3836 -0.4131
  391TIP3    H1 1179   0.499   4.980   2.325 -0.6157 -0.3426 -1.0262
  391TIP3    H2 1180   0.496   5.116   2.258  0.4420  0.3542  0.2918
  392TIP3   OH2 1181   0.881   2.239   1.815  0.0093  0.2148  0.1942
  392TIP3    H1 1182   0.873   2.294   1.737  0.5698 -0.1854 -0.1481
  392TIP3    H2 1183   0.897   2.301   1.887  1.4796  0.4601 -0.3094
  393TIP3   OH2 1184   0.319   2.135   0.133 -0.5666 -0.1525 -0.1591
  393TIP3    H1 1185   0.246   2.186   0.168 -0.4021 -0.2374  0.3158
  393TIP3    H2 1186   0.365   2.195   0.075  0.2433  0.6057  1.1980
  394TIP3   OH2 1187   1.160   1.343   4.138  0.1087 -0.1607 -0.4322
  394TIP3    H1 1188   1.207   1.423   4.161 -0.2530 -0.2897  0.8365
  394TIP3    H2 1189   1.229   1.276   4.133  0.5843  0.4401 -2.7709
  395TIP3   OH2 1190   3.407   4.827   4.208 -0.0152 -0.2337  0.1819
  395TIP3    H1 1191   3.499   4.844   4.225 -0.1066  1.2919 -0.6782
  395TIP3    H2 1192   3.405   4.741   4.166  0.7306 -1.4648  2.4742
  396TIP3   OH2 1193   2.549   1.349   2.323 -0.4751 -0.0655 -0.1412
  396TIP3    H1 1194   2.594   1.326   2.405  0.6920 -0.2963 -0.8210
  396TIP3    H2 1195   2.456   1.333   2.342  0.0381 -4.8239 -0.2539
  397TIP3   OH2 1196   1.405   0.331   0.758  0.5898 -0.4721  0.1012
  397TIP3    H1 1197   1.326   0.331   0.811  0.0745  0.1946 -0.6434
  397TIP3    H2 1198   1.457   0.404   0.791  0.8434 -0.8363  0.5116
  398TIP3   OH2 1199   5.738   2.665   1.303 -0.2201 -0.3517 -0.3057
  398TIP3    H1 1200   5.656   2.714   1.301 -0.6700 -1.0765  0.1285
  398TIP3    H2 1201   5.755   2.643   1.211  0.0087  0.6304 -0.5115
  399TIP3   OH2 1202   3.448   2.262   1.213  0.9914 -0.0645  0.1826
  399TIP3    H1 1203   3.510   2.271   1.286  1.6873 -1.4823 -0.2055
  399TIP3    H2 1204   3.366   2.235   1.255  1.5298 -1.4014  0.4180
  400TIP3   OH2 1205   2.947   2.603   4.224  0.0334 -0.0292 -0.0395
  400TIP3    H1 1206   2.932   2.573   4.135  1.0524  0.1141 -0.2661
  400TIP3    H2 1207   2.897   2.542   4.279 -0.7433 -0.0089 -0.7062
  401TIP3   OH2 1208   4.108   1.417   4.428 -0.3266 -0.0714 -0.6375
  401TIP3    H1 1209   4.147   1.479   4.489 -0.4415 -0.1112 -0.5235
  401TIP3    H2 1210   4.171   1.412   4.356  0.9421 -1.7327  0.4994
  402TIP3   OH2 1211   2.745   1.905   0.767  0.0834 -0.2080 -0.2240
  402TIP3    H1 1212   2.773   1.976   0.825 -0.3881  0.3665 -0.6779
  402TIP3    H2 1213   2.734   1.830   0.824  1.3956 -0.1397  0.1393
  403TIP3   OH2 1214   2.074   5.578   4.875 -0.6428  0.4699  0.1474
  403TIP3    H1 1215   2.023   5.541   4.947 -2.3864  0.3815 -1.0842
  403TIP3    H2 1216   2.158   5.602   4.915 -0.8945 -1.1960  1.8170
  404TIP3   OH2 1217   5.284   5.332   4.705 -0.3051  0.1985 -0.1797
  404TIP3    H1 1218   5.345   5.307   4.774  1.0918 -0.3736 -1.5494
  404TIP3    H2 1219   5.312   5.419   4.678 -1.6078  0.9434  0.7428
  405TIP3   OH2 1220   0.078   1.741   3.021  0.3340  0.1712  0.1377
  405TIP3    H1 1221   0.129   1.726   2.942  0.1186  2.0300 -0.4166
  405TIP3    H2 1222   0.132   1.801   3.073 -1.6108  3.1046 -0.9525
  406TIP3   OH2 1223   1.821   5.891   1.586 -0.2023  0.2550  0.3614
  406TIP3    H1 1224   1.841   5.952   1.515  1.4508 -0.7860 -0.1447
  406TIP3    H2 1225   1.786   5.814   1.541  0.5514 -0.2905  0.6872
  407TIP3   OH2 1226   4.588   4.412   2.417 -0.3112 -0.0261 -0.0655
  407TIP3    H1 1227   4.625   4.487   2.464 -1.3296  1.4983 -1.5739
  407TIP3    H2 1228   4.494   4.415   2.436 -0.6908  0.3950 -1.7844
  408TIP3   OH2 1229   5.185   1.320   3.473  0.7690  0.3502 -0.7201
  408TIP3    H1 1230   5.248   1.249   3.477 -0.1303 -0.4650 -0.5981
  408TIP3    H2 1231   5.149   1.326   3.561 -0.2625 -0.0792 -1.0978
  409TIP3   OH2 1232   1.363   5.350   2.837 -0.4871 -0.7887  0.4167
  409TIP3    H1 1233   1.298   5.339   2.906  1.2002 -2.1206  1.8936
  409TIP3    H2 1234   1.382   5.444   2.836 -1.4397 -0.5880  0.8911
  410TIP3   OH2 1235   3.936   2.725   0.789  0.0257 -0.1616  0.3064
  410TIP3    H1 1236   3.877   2.763   0.854 -0.6652 -1.3457  0.3863
  410TIP3    H2 1237   3.905   2.761   0.706 -0.8164 -0.7707  0.3486
  411TIP3   OH2 1238   4.108   5.079   3.901  0.3041  0.2450 -0.3017
  411TIP3    H1 1239   4.197   5.106   3.925  0.5857 -1.5914  0.9054
  411TIP3    H2 1240   4.076   5.031   3.977 -1.5820  0.5032 -0.8852
  412TIP3   OH2 1241   5.170   1.624   3.492  0.5780 -0.5032  0.1489
  412TIP3    H1 1242   5.203   1.541   3.458 -1.9818 -1.8271  0.6656
  412TIP3    H2 1243   5.231   1.690   3.457  1.5629 -2.3670 -1.9150
  413TIP3   OH2 1244   2.567   4.486   2.315  0.1718 -0.3758 -0.0003
  413TIP3    H1 1245   2.510   4.563   2.317  1.8100  0.9083 -0.2977
  413TIP3    H2 1246   2.655   4.522   2.317  0.9936 -2.2821  0.0205
  414TIP3   OH2 1247   5.556   2.150   1.987  0.3810 -0.2534 -0.1493
  414TIP3    H1 1248   5.546   2.066   2.031 -0.1296 -0.2740 -0.2955
  414TIP3    H2 1249   5.467   2.176   1.965  0.3592  1.1632  1.4227
  415TIP3   OH2 1250   2.000   1.551   3.846 -0.4711  0.3940 -0.2289
  415TIP3    H1 1251   1.959   1.586   3.925  0.2742  1.2939 -0.2282
  415TIP3    H2 1252   1.988   1.456   3.853  0.1956  0.3958  1.3081
  416TIP3   OH2 1253   3.980   0.678   2.491 -0.1763 -0.2257 -0.2159
  416TIP3    H1 1254   4.004   0.587   2.509  0.7534  0.3351  1.6886
  416TIP3    H2 1255   3.892   0.687   2.528 -0.8919 -0.7008 -1.7348
  417TIP3   OH2 1256   5.990   0.895   1.823  0.0809 -0.4510 -0.3443
  417TIP3    H1 1257   5.948   0.869   1.904  1.5507 -0.4364  0.4576
  417TIP3    H2 1258   5.997   0.814   1.772  0.3669 -0.7144  0.1156
  418TIP3   OH2 1259   0.023   1.302   1.461  0.2530 -0.2819  0.0865
  418TIP3    H1 1260  -0.007   1.391   1.478  1.6663  0.0426  1.1116
  418TIP3    H2 1261   0.084   1.311   1.388  1.7486 -0.0891  1.3124
  419TIP3   OH2 1262   4.256   3.945   0.324 -0.3823 -0.2242 -0.0278
  419TIP3    H1 1263   4.212   3.920   0.406  1.7038 -0.6937  1.0126
  419TIP3    H2 1264   4.277   3.861   0.282 -1.2928  0.0131 -0.9965
  420TIP3   OH2 1265   2.891   2.201   3.136 -0.2226 -0.0177  0.0620
  420TIP3    H1 1266   2.840   2.130   3.098  0.1288  0.2093 -0.8610
  420TIP3    H2 1267   2.841   2.281   3.116  1.2507  0.3954 -2.3323
  421TIP3   OH2 1268   5.916   4.516   4.951  0.2275 -0.2450 -0.1923
  421TIP3    H1 1269   5.862   4.545   4.878  1.8039  0.6643 -1.0377
  421TIP3    H2 1270   5.910   4.587   5.015  4.1862  2.3574 -2.3123
  422TIP3   OH2 1271   4.268   0.067   0.653 -0.2102  0.2464  0.1283
  422TIP3    H1 1272   4.332   0.037   0.589 -0.1638  0.7622 -0.0766
  422TIP3    H2 1273   4.194   0.007   0.644  1.0070 -1.6401  1.7891
  423TIP3   OH2 1274   3.898   0.832   0.939  0.1457  0.2012 -0.5175
  423TIP3    H1 1275   3.879   0.757   0.995 -0.4028  0.0445 -0.9011
  423TIP3    H2 1276   3.864   0.807   0.853  0.4369  0.6761 -0.7743
  424TIP3   OH2 1277   3.567   3.630   5.141  0.0331  0.0116  0.1014
  424TIP3    H1 1278   3.598   3.643   5.052 -1.7047 -1.7534 -0.8368
  424TIP3    H2 1279   3.485   3.679   5.146 -0.4310 -0.7656  0.3607
  425TIP3   OH2 1280   4.387   5.898   5.060 -0.0822 -0.2171  0.0922
  425TIP3    H1 1281   4.398   5.893   5.155  0.6662 -0.4628 -0.0014
  425TIP3    H2 1282   4.295   5.874   5.045  0.1241 -1.4401  0.6534
  426TIP3   OH2 1283   5.122   5.636   3.161 -0.3157  0.1196 -0.3359
  426TIP3    H1 1284   5.159   5.549   3.177  0.6992  0.7964  1.2681
  426TIP3    H2 1285   5.179   5.674   3.095 -0.4135 -0.2065 -0.6134
  427TIP3   OH2 1286   5.955   3.848   4.910  0.0967 -0.5711  0.5460
  427TIP3    H1 1287   5.952   3.872   4.818  1.2042 -0.3659  0.5506
  427TIP3    H2 1288   5.929   3.928   4.957 -0.1080 -0.5670  0.4237
  428TIP3   OH2 1289   2.122   3.631   2.385 -0.0331  0.0390  0.3833
  428TIP3    H1 1290   2.085   3.557   2.433  0.8381 -0.6008  0.0974
  428TIP3    H2 1291   2.172   3.591   2.313  0.6737  0.8896  0.3781
  429TIP3   OH2 1292   5.983   0.850  -0.017  0.0466 -0.1238  0.4279
  429TIP3    H1 1293   6.037   0.872   0.058  0.2476  0.4244  0.1286
  429TIP3    H2 1294   5.981   0.754  -0.018 -0.7143 -0.1322  1.6531
  430TIP3   OH2 1295   1.471   2.993   3.796 -0.2206 -0.2177  0.2103
  430TIP3    H1 1296   1.441   3.066   3.741  1.7150  0.7942  0.4064
  430TIP3    H2 1297   1.435   3.012   3.882  1.5120  1.3976  0.6305
  431TIP3   OH2 1298   6.369   0.681   4.653 -0.3432  0.2274  0.2710
  431TIP3    H1 1299   6.286   0.633   4.654 -1.7334  2.4937  1.3569
  431TIP3    H2 1300   6.384   0.704   4.745  0.5385  1.3836 -0.1434
  432TIP3   OH2 1301   5.967   2.117   1.506 -0.6943 -0.0629  0.0386
  432TIP3    H1 1302   6.008   2.092   1.423 -3.0996 -0.1886 -1.2089
  432TIP3    H2 1303   5.970   2.212   1.507  0.5938 -0.0950  0.5154
  433TIP3   OH2 1304   3.555   3.842   1.013  0.1338 -0.2539  0.1694
  433TIP3    H1 1305   3.493   3.770   1.028 -0.5318  0.3519  0.3341
  433TIP3    H2 1306   3.641   3.802   1.028 -0.3128 -0.5712  2.1714
  434TIP3   OH2 1307   0.159   3.861   0.387  0.5533 -0.4058 -0.0200
  434TIP3    H1 1308   0.253   3.877   0.399  0.8251 -1.9747  0.2114
  434TIP3    H2 1309   0.126   3.843   0.475  0.0479  0.0788 -0.1090
  435TIP3   OH2 1310   5.076   4.374   3.369  0.5074 -0.6083  0.0657
  435TIP3    H1 1311   5.080   4.313   3.443  1.9248  0.6881  1.1035
  435TIP3    H2 1312   5.127   4.331   3.300 -1.8940 -2.4373 -0.7322
  436TIP3   OH2 1313   0.273   2.993   3.048 -0.5138 -0.5256  0.6446
  436TIP3    H1 1314   0.241   3.013   3.136 -1.9405 -0.1709  0.0634
  436TIP3    H2 1315   0.313   3.075   3.018  0.3701 -0.7699  1.0993
  437TIP3   OH2 1316   4.550   0.397   4.854  0.0324  0.5645  0.1539
  437TIP3    H1 1317   4.549   0.467   4.918 -0.1686  1.6211 -0.9706
  437TIP3    H2 1318   4.484   0.421   4.790  1.5742  0.5984 -1.5311
  438TIP3   OH2 1319   1.117   0.216   3.918 -0.3133  0.4784  0.2541
  438TIP3    H1 1320   1.208   0.235   3.936  0.4817 -1.1517 -1.6056
  438TIP3    H2 1321   1.099   0.261   3.835 -0.9736  0.2368  0.2573
  439TIP3   OH2 1322   4.818   1.515   0.634  0.0097  0.3149  0.7262
  439TIP3    H1 1323   4.859   1.602   0.637 -0.8350  0.7798 -0.4803
  439TIP3    H2 1324   4.892   1.454   0.631  0.6167  1.0496  0.4047
  440TIP3   OH2 1325   1.568   4.175   0.631 -0.4653  0.3768 -0.3621
  440TIP3    H1 1326   1.647   4.136   0.669 -2.2096 -0.5662  2.6388
  440TIP3    H2 1327   1.590   4.268   0.622  1.7720 -0.2147 -2.0698
  441TIP3   OH2 1328   3.063   5.285   4.302 -0.2173  0.1796  0.6756
  441TIP3    H1 1329   3.001   5.358   4.293  0.6411  0.9201  0.6210
  441TIP3    H2 1330   3.043   5.228   4.228  0.1397  1.1664 -0.2112
  442TIP3   OH2 1331   3.294   5.257   4.478 -0.3958  0.1022 -0.7815
  442TIP3    H1 1332   3.367   5.221   4.427 -0.2776  0.0213 -0.5540
  442TIP3    H2 1333   3.227   5.277   4.412 -0.4035 -0.3859 -0.9294
  443TIP3   OH2 1334   4.685   1.442   0.869 -0.0266  0.3749  0.3290
  443TIP3    H1 1335   4.731   1.490   0.800 -1.0336  0.3421 -0.3924
  443TIP3    H2 1336   4.712   1.351   0.857 -0.8233  0.2446 -0.5590
  444TIP3   OH2 1337   5.317   4.635   3.089 -0.4724  0.2726  0.1533
  444TIP3    H1 1338   5.289   4.726   3.077 -0.2176  0.5411  1.4492
  444TIP3    H2 1339   5.302   4.617   3.182  1.0416 -0.4573  0.2910
  445TIP3   OH2 1340   1.732   3.053   3.720 -0.1545  0.0686  0.6346
  445TIP3    H1 1341   1.646   3.013   3.736 -0.3534  0.3842  0.3443
  445TIP3    H2 1342   1.794   2.988   3.753 -0.5384  0.4347  2.1770
  446TIP3   OH2 1343   0.279   0.589   4.645 -0.3943  0.4973 -0.1518
  446TIP3    H1 1344   0.274   0.495   4.663 -1.5270  0.1892 -1.8152
  446TIP3    H2 1345   0.190   0.613   4.620 -0.2823  2.1902  0.8711
  447TIP3   OH2 1346   3.536   2.980   4.352 -0.0664  0.3372  0.1297
  447TIP3    H1 1347   3.456   3.019   4.386  1.1105  1.0920  2.1653
  447TIP3    H2 1348   3.549   3.023   4.267 -1.0194  1.2610  0.4378
  448TIP3   OH2 1349   2.782   2.018   2.971 -0.0204  0.4813  0.5224
  448TIP3    H1 1350   2.852   1.971   2.924 -0.1520  0.3082  0.4982
  448TIP3    H2 1351   2.719   1.950   2.993 -0.2573  0.6645  0.4089
  449TIP3   OH2 1352   4.491   0.423   1.901  0.5466 -0.0160 -0.1047
  449TIP3    H1 1353   4.403   0.458   1.890 -1.0136 -3.1078  1.2926
  449TIP3    H2 1354   4.529   0.475   1.972 -0.1209  1.3609 -0.7323
  450TIP3   OH2 1355   1.959   3.301   0.402 -0.4501  0.0097 -0.1793
  450TIP3    H1 1356   2.036   3.244   0.399  2.0932  3.1544 -2.4651
  450TIP3    H2 1357   1.902   3.268   0.332 -0.2156 -1.1229  0.1478
  451TIP3   OH2 1358   0.647   3.462   3.958  0.2365  0.4031 -0.4895
  451TIP3    H1 1359   0.610   3.432   3.875  1.8422 -1.1748 -0.6997
  451TIP3    H2 1360   0.741   3.456   3.945  0.5214  0.5654  1.3074
  452TIP3   OH2 1361   2.995   5.307   2.275  0.1749  0.3395 -0.4549
  452TIP3    H1 1362   3.049   5.263   2.209  0.0376  1.7756 -1.5506
  452TIP3    H2 1363   2.925   5.349   2.226 -1.0542 -0.1607  0.8063
  453TIP3   OH2 1364   4.514   3.121   3.386 -0.4695  0.2719 -0.2354
  453TIP3    H1 1365   4.532   3.068   3.464  1.9098 -1.2042 -1.6770
  453TIP3    H2 1366   4.420   3.112   3.372 -0.9319  0.4023  2.2803
  454TIP3   OH2 1367   0.699   0.267   0.637 -0.7500 -0.1513 -0.5131
  454TIP3    H1 1368   0.747   0.186   0.618 -1.8276 -0.6944 -1.0197
  454TIP3    H2 1369   0.654   0.249   0.720  1.1929  0.9593  0.8419
  455TIP3   OH2 1370   2.749   0.585   2.456  0.0726 -0.0894  0.1564
  455TIP3    H1 1371   2.794   0.668   2.440  1.3618 -0.8854 -0.4907
  455TIP3    H2 1372   2.658   0.603   2.432  0.2066  1.2757  0.5434
  456TIP3   OH2 1373   4.285   4.435   4.754  0.0381  1.0855 -0.2376
  456TIP3    H1 1374   4.277   4.528   4.773  0.6004  1.2857 -0.9460
  456TIP3    H2 1375   4.287   4.429   4.659  1.1398  0.4645 -0.1944
  457TIP3   OH2 1376   1.355   0.102   0.061  0.1085 -0.3107  0.1207
  457TIP3    H1 1377   1.328   0.193   0.073  2.2225  0.4513 -0.5938
  457TIP3    H2 1378   1.354   0.065   0.150 -3.5075 -0.5101  0.1439
  458TIP3   OH2 1379   2.342   0.005   4.442  0.4750 -0.0735 -0.1859
  458TIP3    H1 1380   2.298   0.084   4.411 -0.3705 -1.3936 -2.6161
  458TIP3    H2 1381   2.280  -0.034   4.504  0.4503  0.5857  0.2267
  459TIP3   OH2 1382   1.863   5.840   4.878  0.2277 -0.2209 -0.2364
  459TIP3    H1 1383   1.945   5.792   4.865  0.3055  0.0724 -0.8857
  459TIP3    H2 1384   1.861   5.903   4.806 -0.5142 -0.1476 -0.1565
  460TIP3   OH2 1385   2.031   2.272   5.104  0.1269  0.1340  0.0430
  460TIP3    H1 1386   2.094   2.231   5.164  1.3357 -0.6036 -1.6552
  460TIP3    H2 1387   2.073   2.354   5.077 -0.4537  0.5128  0.2585
  461TIP3   OH2 1388   1.689   0.562   1.896 -0.6180 -0.1889 -1.0090
  461TIP3    H1 1389   1.770   0.559   1.845  1.3871  3.0695  1.5468
  461TIP3    H2 1390   1.632   0.622   1.848  0.5254  1.4063 -0.4522
  462TIP3   OH2 1391   1.748   5.115   0.629  0.2710 -0.2074 -0.2891
  462TIP3    H1 1392   1.815   5.172   0.668  0.2645  0.1419 -0.7828
  462TIP3    H2 1393   1.719   5.162   0.550  1.1499 -1.4438 -1.3912
  463TIP3   OH2 1394   1.726   3.653   3.380  0.6045 -0.2104  0.0287
  463TIP3    H1 1395   1.676   3.603   3.444 -0.4069 -0.0844 -0.6325
  463TIP3    H2 1396   1.740   3.738   3.421 -1.9936  0.6774 -0.7173
  464TIP3   OH2 1397   2.243   2.598   1.374 -0.0822 -0.4577 -0.5040
  464TIP3    H1 1398   2.297   2.536   1.424 -0.5261 -0.8691 -0.5255
  464TIP3    H2 1399   2.305   2.665   1.346  0.0566  0.1423  1.1409
  465TIP3   OH2 1400   2.397   1.825   3.256 -0.1636 -0.3863  0.3176
  465TIP3    H1 1401   2.361   1.910   3.282 -1.6519 -0.2842 -1.8656
  465TIP3    H2 1402   2.443   1.794   3.334 -1.2910  1.4953  1.8174
  466TIP3   OH2 1403   3.741   3.073   0.256  0.4841 -0.5215 -0.2533
  466TIP3    H1 1404   3.699   3.088   0.171 -1.1812 -0.9984  0.4306
  466TIP3    H2 1405   3.798   3.149   0.269  0.7789 -0.4563 -1.7913
  467TIP3   OH2 1406   5.803   4.066   1.121  0.0697 -0.0286  0.0924
  467TIP3    H1 1407   5.726   4.015   1.098 -1.3163  1.2260  1.7438
  467TIP3    H2 1408   5.877   4.013   1.090 -1.4227 -0.8703 -2.2999
  468TIP3   OH2 1409   1.613   2.443   2.826  0.2452  0.1128 -0.1335
  468TIP3    H1 1410   1.665   2.478   2.753 -1.6952  0.6514 -1.3091
  468TIP3    H2 1411   1.562   2.518   2.857 -1.1216 -0.7860 -0.1624
  469TIP3   OH2 1412   0.386   3.108   3.650  0.5178 -0.0116  0.4222
  469TIP3    H1 1413   0.370   3.101   3.744 -0.2511  0.3388  0.3240
  469TIP3    H2 1414   0.299   3.118   3.611  0.9318  2.2493 -0.1074
  470TIP3   OH2 1415   3.144   3.466   4.581 -0.3248 -0.2209 -0.1653
  470TIP3    H1 1416   3.151   3.518   4.662  2.7802  0.1718 -0.5650
  470TIP3    H2 1417   3.167   3.528   4.511 -0.8475 -1.0911 -1.1315
  471TIP3   OH2 1418   5.151   1.680   0.051  0.0372  0.3507  0.2127
  471TIP3    H1 1419   5.114   1.676  -0.037 -0.3170  1.2138  0.3119
  471TIP3    H2 1420   5.210   1.605   0.055 -0.2015  0.0995 -0.6377
  472TIP3   OH2 1421   2.667   1.082   4.690 -0.0787 -0.0841  0.0661
  472TIP3    H1 1422   2.739   1.020   4.681  0.2824  0.4542 -0.9477
  472TIP3    H2 1423   2.591   1.027   4.712  0.7141 -0.5965  1.6821
  473TIP3   OH2 1424   1.885   4.668   3.543 -0.5385 -0.3529  0.5406
  473TIP3    H1 1425   1.791   4.665   3.559 -0.7547 -0.8369 -0.7154
  473TIP3    H2 1426   1.917   4.583   3.574 -1.1505 -1.8334 -2.4206
  474TIP3   OH2 1427   5.954   5.889   4.090  0.0070 -0.7837  0.0708
  474TIP3    H1 1428   5.951   5.958   4.024 -2.7180 -0.5794  0.2935
  474TIP3    H2 1429   5.911   5.814   4.049 -0.0472 -1.2596  0.9631
  475TIP3   OH2 1430   2.118   0.094   2.379 -0.0053  0.0035  0.3436
  475TIP3    H1 1431   2.157   0.179   2.396 -1.5779  0.4027  2.2509
  475TIP3    H2 1432   2.178   0.031   2.419 -0.3124  0.4718  1.5888
  476TIP3   OH2 1433   0.587   5.734   3.332  0.3182  0.0132  0.4428
  476TIP3    H1 1434   0.582   5.639   3.345 -0.3640 -0.2687 -1.6045
  476TIP3    H2 1435   0.677   5.757   3.356  1.0826 -1.4832 -0.8301
  477TIP3   OH2 1436   1.906   2.254   2.267  0.2424 -0.3401  0.3941
  477TIP3    H1 1437   1.910   2.168   2.310  0.9776  0.2833  1.6133
  477TIP3    H2 1438   1.845   2.305   2.321  1.3757  0.5336  0.8828
  478TIP3   OH2 1439   4.894   2.935   1.295  0.2821 -0.2254 -0.4873
  478TIP3    H1 1440   4.819   2.977   1.338  0.2587 -0.5725 -0.1805
  478TIP3    H2 1441   4.880   2.950   1.201  0.6121  0.9948 -0.3513
  479TIP3   OH2 1442   3.429   5.956   4.096 -0.0397 -0.5642 -0.2031
  479TIP3    H1 1443   3.357   5.894   4.112 -0.1224 -0.1809  1.0291
  479TIP3    H2 1444   3.396   6.039   4.129  0.6255 -0.1770 -0.5076
  480TIP3   OH2 1445   6.353   3.344   3.547 -0.3053  0.1891 -0.3427
  480TIP3    H1 1446   6.369   3.438   3.541 -1.3608  0.3872 -0.2548
  480TIP3    H2 1447   6.261   3.336   3.575 -0.9230 -0.8464 -2.4121
  481TIP3   OH2 1448   3.392   5.688   3.655  0.1928 -1.1219 -0.5878
  481TIP3    H1 1449   3.391   5.686   3.750 -0.3420  0.1461 -0.5485
  481TIP3    H2 1450   3.301   5.679   3.629  0.3855 -2.0074 -1.0216
  482TIP3   OH2 1451   5.362   3.904   4.345 -0.2416  0.2838  0.4883
  482TIP3    H1 1452   5.268   3.901   4.361  0.0478  0.8747  2.5332
  482TIP3    H2 1453   5.387   3.812   4.332 -1.1328  0.1604 -0.5347
  483TIP3   OH2 1454   0.897   0.096   4.392 -0.1867  0.8248  0.3039
  483TIP3    H1 1455   0.803   0.098   4.373 -0.9856 -2.4521  2.9025
  483TIP3    H2 1456   0.937   0.080   4.306 -2.1596  0.7074 -0.6713
  484TIP3   OH2 1457   1.817   3.524   2.378 -0.1128  0.0964 -0.1144
  484TIP3    H1 1458   1.822   3.522   2.474 -0.6481 -1.4538 -0.0822
  484TIP3    H2 1459   1.725   3.543   2.359  0.4935  3.2897 -0.4098
  485TIP3   OH2 1460   0.918   5.292   3.569 -0.0434  0.1016 -0.1130
  485TIP3    H1 1461   0.962   5.355   3.512  0.8961  1.0456  1.5738
  485TIP3    H2 1462   0.892   5.343   3.646 -0.9661 -1.1939  0.4694
  486TIP3   OH2 1463   4.857   3.237   2.630 -0.3187  0.2541 -0.3167
  486TIP3    H1 1464   4.909   3.310   2.596 -0.6353  0.2926 -0.7167
  486TIP3    H2 1465   4.768   3.254   2.599 -0.8843  0.9460  1.5062
  487TIP3   OH2 1466   1.609   5.316   4.468 -0.3014  0.6073  0.2896
  487TIP3    H1 1467   1.648   5.273   4.393  1.7137  1.0017  1.0654
  487TIP3    H2 1468   1.560   5.390   4.431 -2.6461 -1.3938 -0.9231
  488TIP3   OH2 1469   2.935   0.749   3.235 -0.1045  0.7192  0.1374
  488TIP3    H1 1470   2.952   0.788   3.149  0.0483  1.5412  0.5308
  488TIP3    H2 1471   2.849   0.707   3.226  0.2610  0.1379 -0.6409
  489TIP3   OH2 1472   3.192   2.664   1.909 -0.5361 -0.1054  0.0102
  489TIP3    H1 1473   3.181   2.686   2.001  0.3269  0.0239  0.0921
  489TIP3    H2 1474   3.195   2.749   1.864  1.1641 -0.0686  0.1325
  490TIP3   OH2 1475   2.951   2.432   4.970  0.9067  0.7942 -0.0831
  490TIP3    H1 1476   2.993   2.413   4.885 -0.1794  0.1193 -0.4900
  490TIP3    H2 1477   2.900   2.354   4.989 -0.4703  1.7399  0.2112
  491TIP3   OH2 1478   3.557   5.009   1.215  0.0017  0.2389  0.1535
  491TIP3    H1 1479   3.467   5.041   1.213  0.0945  0.4577 -0.9377
  491TIP3    H2 1480   3.607   5.078   1.258 -0.5535 -0.4867  2.1000
  492TIP3   OH2 1481   1.677   2.395   0.777  0.0097 -0.3414  0.0058
  492TIP3    H1 1482   1.631   2.452   0.716  0.3384  0.1344  0.1909
  492TIP3    H2 1483   1.748   2.450   0.811 -0.0863 -0.6418  0.7043
  493TIP3   OH2 1484   2.287   4.533   2.086  0.2940  0.0661 -0.2523
  493TIP3    H1 1485   2.324   4.592   2.021 -0.5432 -0.8973 -1.6802
  493TIP3    H2 1486   2.224   4.480   2.036 -0.7505 -0.3798  1.4517
  494TIP3   OH2 1487   3.085   5.226   1.931 -0.3211 -0.2624  0.2708
  494TIP3    H1 1488   3.031   5.153   1.900 -1.6053  0.5784  0.4578
  494TIP3    H2 1489   3.125   5.193   2.012  1.5432 -1.7999 -1.1890
  495TIP3   OH2 1490   2.504   0.041   3.819  0.9050  0.2705 -0.8413
  495TIP3    H1 1491   2.492   0.091   3.899  1.3652 -2.3152  0.9446
  495TIP3    H2 1492   2.598   0.050   3.799  1.1963 -0.6942  0.0602
  496TIP3   OH2 1493   0.455   2.979   2.642 -0.2308  0.1868  0.3776
  496TIP3    H1 1494   0.430   2.987   2.550 -1.8305 -0.4070  0.7123
  496TIP3    H2 1495   0.462   3.069   2.674  1.5195  0.4248 -0.5861
  497TIP3   OH2 1496   0.443   1.371   2.409 -0.0235  0.5660  0.0990
  497TIP3    H1 1497   0.376   1.439   2.407  0.2991  1.0660  2.8710
  497TIP3    H2 1498   0.400   1.296   2.451  0.8670  0.5994  1.0997
  498TIP3   OH2 1499   2.593   0.099   2.412  0.4652 -0.1729  0.0386
  498TIP3    H1 1500   2.654   0.065   2.478  0.6107 -1.9183 -0.9517
  498TIP3    H2 1501   2.515   0.123   2.462  1.2810  0.3889  1.0871
  499TIP3   OH2 1502   0.414   0.370   3.465 -0.3581  0.2840  0.3631
  499TIP3    H1 1503   0.456   0.315   3.531 -0.0766 -0.1870 -0.1874
  499TIP3    H2 1504   0.462   0.453   3.468  1.0084 -0.4109 -0.6025
  500TIP3   OH2 1505   3.270   1.729   0.904  0.1598 -0.3962  0.1523
  500TIP3    H1 1506   3.210   1.803   0.894  1.0212  0.1540 -1.3028
  500TIP3    H2 1507   3.227   1.657   0.859  0.1202 -0.2911  0.0212
  501TIP3   OH2 1508   1.596   3.068   2.977  0.1557 -0.7877 -0.0107
  501TIP3    H1 1509   1.651   3.004   3.022 -0.8759 -1.6473  0.0697
  501TIP3    H2 1510   1.531   3.016   2.930 -0.4305  0.1833 -0.3177
  502TIP3   OH2 1511   3.843   0.783   3.127  0.2143  0.4557  0.5598
  502TIP3    H1 1512   3.757   0.793   3.169 -0.1109  1.0913 -0.2367
  502TIP3    H2 1513   3.905   0.784   3.200 -0.5543 -1.9357  1.3216
  503TIP3   OH2 1514   1.251   2.294   2.153 -0.2647 -0.2334  0.1237
  503TIP3    H1 1515   1.173   2.239   2.163 -1.3661  0.8827 -1.7789
  503TIP3    H2 1516   1.281   2.278   2.064 -0.0541  1.5219 -0.1594
  504TIP3   OH2 1517   5.373   3.530   0.508  0.1618 -0.4370 -0.3066
  504TIP3    H1 1518   5.389   3.451   0.456  0.6077  0.0812 -0.9724
  504TIP3    H2 1519   5.430   3.597   0.469  1.9125 -0.4759  1.9594
  505TIP3   OH2 1520   6.021   3.452   0.320  0.9216  0.1389  0.4203
  505TIP3    H1 1521   6.004   3.401   0.241 -0.8429 -0.0781  0.9036
  505TIP3    H2 1522   5.976   3.404   0.389  1.7773  0.7557  1.4309
  506TIP3   OH2 1523   3.855   3.855   0.294 -0.3901  0.3612 -0.4095
  506TIP3    H1 1524   3.819   3.808   0.369  0.5862 -0.2160 -0.2903
  506TIP3    H2 1525   3.863   3.789   0.225  1.6668  0.1452 -0.0094
  507TIP3   OH2 1526   5.423   5.020   3.171  0.1184  0.1462  0.3388
  507TIP3    H1 1527   5.474   5.033   3.252 -0.8133  1.3937  0.7696
  507TIP3    H2 1528   5.343   4.976   3.200  0.0297  0.0837  0.0011
  508TIP3   OH2 1529   0.322   5.529   4.882  0.1168 -1.1138 -0.1096
  508TIP3    H1 1530   0.401   5.494   4.841  0.2969 -2.6228  1.4261
  508TIP3    H2 1531   0.263   5.546   4.809  1.1806 -1.7228 -1.1377
  509TIP3   OH2 1532   4.632   5.382   2.047  0.3005 -0.0663 -0.1136
  509TIP3    H1 1533   4.556   5.406   2.101  1.5621  2.1813  0.8149
  509TIP3    H2 1534   4.707   5.397   2.104  1.5008 -1.7182 -1.1916
  510TIP3   OH2 1535   2.339   3.131   1.297  0.5903 -0.7231 -0.7567
  510TIP3    H1 1536   2.318   3.051   1.346  1.8033  0.5311  2.0616
  510TIP3    H2 1537   2.434   3.134   1.294  0.5821  0.6294 -0.6977
  511TIP3   OH2 1538   1.220   3.721   1.548 -0.6194 -0.0616 -0.4579
  511TIP3    H1 1539   1.293   3.660   1.539 -0.0803  0.6570 -1.0926
  511TIP3    H2 1540   1.257   3.807   1.524 -1.7376  0.2681 -1.1032
  512TIP3   OH2 1541   2.245   4.595   2.350  0.2655 -0.3516 -0.6503
  512TIP3    H1 1542   2.252   4.578   2.256  0.3066  0.0993 -0.7311
  512TIP3    H2 1543   2.216   4.686   2.356  0.0973 -0.4295 -0.2280
  513TIP3   OH2 1544   1.288   3.317   0.462 -0.1311 -0.1881 -0.1715
  513TIP3    H1 1545   1.192   3.315   0.458 -0.1375 -2.0280 -0.3006
  513TIP3    H2 1546   1.308   3.312   0.556 -0.1686  0.2643 -0.1413
  514TIP3   OH2 1547   1.358   2.394   4.532  0.2797  0.2527  0.0830
  514TIP3    H1 1548   1.326   2.467   4.479  1.5814  0.7749 -0.0198
  514TIP3    H2 1549   1.332   2.315   4.483  1.4752  0.7263 -1.3563
  515TIP3   OH2 1550   3.797   1.299   0.868  0.0825  0.0088  0.0500
  515TIP3    H1 1551   3.830   1.354   0.939  0.6632  1.4865 -1.3087
  515TIP3    H2 1552   3.868   1.238   0.849 -0.1664 -0.5496  0.8806
  516TIP3   OH2 1553   2.995   0.706   2.152  0.1670  0.4213  0.0139
  516TIP3    H1 1554   3.002   0.798   2.180  1.5601  0.0532  0.9514
  516TIP3    H2 1555   3.062   0.696   2.085  0.2870 -0.0201  0.2000
  517TIP3   OH2 1556   0.487   1.695   2.303 -0.0333  0.3867  0.5394
  517TIP3    H1 1557   0.449   1.630   2.362 -2.6213  1.1050 -0.1851
  517TIP3    H2 1558   0.479   1.657   2.216 -2.8181  2.0653 -0.0489
  518TIP3   OH2 1559   5.351   3.272   3.669  0.0853 -0.6976 -0.1444
  518TIP3    H1 1560   5.285   3.294   3.603 -1.8613 -1.9158  1.2886
  518TIP3    H2 1561   5.354   3.176   3.668  1.0627 -0.6872  0.5771
  519TIP3   OH2 1562   1.588   0.964   4.185  0.2451  0.0864  0.8845
  519TIP3    H1 1563   1.658   0.976   4.250  0.3172 -0.3938  0.9018
  519TIP3    H2 1564   1.618   0.890   4.132  2.5324  3.2585 -2.8022
  520TIP3   OH2 1565   0.961   4.019   3.564  0.0193  0.0330  0.6603
  520TIP3    H1 1566   1.052   4.018   3.536 -0.1407  0.4070  0.1125
  520TIP3    H2 1567   0.927   3.933   3.537  0.1449 -0.0169  0.6610
  521TIP3   OH2 1568   5.289   1.672   4.848  0.5597  0.6970 -0.0029
  521TIP3    H1 1569   5.341   1.708   4.920  0.9019  1.5068 -0.6389
  521TIP3    H2 1570   5.326   1.711   4.769  0.1179 -0.0893 -0.6228
  522TIP3   OH2 1571   3.962   3.553   3.252 -0.7818 -0.3976 -0.1269
  522TIP3    H1 1572   4.046   3.577   3.212 -0.2333 -0.7030  0.7907
  522TIP3    H2 1573   3.904   3.535   3.178 -0.2779  0.6159 -0.7822
  523TIP3   OH2 1574   2.201   1.186   3.737 -0.2588 -0.4892  0.1411
  523TIP3    H1 1575   2.118   1.211   3.696  0.4263 -0.6691 -1.4006
  523TIP3    H2 1576   2.263   1.254   3.712  0.3382 -0.9548  0.3176
  524TIP3   OH2 1577   6.121   1.042   3.213  0.0919  0.3317  0.0249
  524TIP3    H1 1578   6.150   1.131   3.235  1.0873 -0.3177  1.5487
  524TIP3    H2 1579   6.035   1.034   3.255  0.9173 -0.0854  1.7030
  525TIP3   OH2 1580   4.303   3.234   1.406 -0.0562 -0.8622 -0.1007
  525TIP3    H1 1581   4.248   3.291   1.459  0.9531 -0.4297  0.5040
  525TIP3    H2 1582   4.309   3.153   1.457 -0.7988 -1.2161 -0.5609
  526TIP3   OH2 1583   2.085   1.351   1.873  0.6197  0.3221  0.0262
  526TIP3    H1 1584   2.028   1.416   1.832 -0.6454  0.8952  2.4808
  526TIP3    H2 1585   2.078   1.369   1.967  1.0350 -2.7108  0.7542
  527TIP3   OH2 1586   5.425   1.131   4.004 -0.6648  0.2581 -0.1337
  527TIP3    H1 1587   5.407   1.123   3.910  0.5651  1.9266 -0.5575
  527TIP3    H2 1588   5.502   1.076   4.018 -0.5318  0.4226 -0.2156
  528TIP3   OH2 1589   1.331   0.097   2.269  0.3554  0.4505  0.5736
  528TIP3    H1 1590   1.255   0.076   2.213  0.4742  1.2371  0.1005
  528TIP3    H2 1591   1.346   0.018   2.320 -0.4768  0.1103  0.3076
  529TIP3   OH2 1592   2.434   2.566   0.859  0.5440  0.0644 -0.3408
  529TIP3    H1 1593   2.435   2.566   0.955  0.3369  0.6337 -0.3349
  529TIP3    H2 1594   2.427   2.473   0.835 -1.1524  0.0043  0.2325
  530TIP3   OH2 1595   4.330   4.671   0.903 -0.0255  0.3431  0.0501
  530TIP3    H1 1596   4.384   4.737   0.948  1.5938  1.3188 -2.9969
  530TIP3    H2 1597   4.381   4.590   0.909  0.4902  0.6179 -0.4958
  531TIP3   OH2 1598   6.089   4.409   5.114 -0.6564 -0.4713 -0.1982
  531TIP3    H1 1599   6.029   4.457   5.057 -0.2537  1.0745  0.6314
  531TIP3    H2 1600   6.047   4.412   5.200 -0.1676 -0.8163  0.0565
  532TIP3   OH2 1601   1.536   5.326   2.011  0.0268 -0.6340  0.0081
  532TIP3    H1 1602   1.556   5.329   2.104 -1.1755  0.1629  0.2592
  532TIP3    H2 1603   1.544   5.416   1.981 -1.4640 -0.5448 -0.2182
  533TIP3   OH2 1604   4.546   4.582   0.683  0.1077  0.2783 -0.3197
  533TIP3    H1 1605   4.528   4.495   0.716 -0.0918  0.3869 -0.1417
  533TIP3    H2 1606   4.546   4.573   0.588 -1.6617  0.4263 -0.3622
  534TIP3   OH2 1607   2.827   3.861   4.415 -0.0766  0.3475 -0.0718
  534TIP3    H1 1608   2.912   3.901   4.397 -0.5540  2.7897  2.4059
  534TIP3    H2 1609   2.764   3.922   4.379 -0.7979  0.9527  2.0620
  535TIP3   OH2 1610   3.374   2.492   1.055 -0.3228  0.4680  0.0122
  535TIP3    H1 1611   3.417   2.450   1.129  0.9846  2.0513  0.2106
  535TIP3    H2 1612   3.333   2.420   1.007 -1.3908 -0.6147  2.3319
  536TIP3   OH2 1613   3.810   5.428   1.285 -0.6143 -0.0103  0.1596
  536TIP3    H1 1614   3.898   5.440   1.320 -0.8708 -1.9551  1.6399
  536TIP3    H2 1615   3.823   5.393   1.197  0.0759 -0.0449  0.2730
  537TIP3   OH2 1616   2.307   5.376   4.101  0.6346 -0.4774 -0.1436
  537TIP3    H1 1617   2.224   5.328   4.113  1.5132 -1.8382  0.7824
  537TIP3    H2 1618   2.371   5.325   4.151  2.4781 -0.6394 -2.5287
  538TIP3   OH2 1619   4.805   3.597   4.336 -0.2787  0.0363  0.0163
  538TIP3    H1 1620   4.821   3.642   4.253  2.1002 -1.7992 -0.6447
  538TIP3    H2 1621   4.864   3.521   4.333  1.4805  0.9809  4.2533
  539TIP3   OH2 1622   3.727   0.836   1.550 -0.3128  0.0523 -0.3070
  539TIP3    H1 1623   3.656   0.774   1.567  0.4195 -1.2735 -1.8415
  539TIP3    H2 1624   3.804   0.781   1.532  0.7767  1.4337 -0.0661
  540TIP3   OH2 1625   5.426   2.965   3.371 -0.2706 -0.6238  0.1920
  540TIP3    H1 1626   5.390   2.882   3.341  0.7910 -1.2647  0.6000
  540TIP3    H2 1627   5.419   2.961   3.467  0.9664 -0.8429  0.2964
  541TIP3   OH2 1628   3.440   3.174   0.449  0.1986 -0.4983 -0.0090
  541TIP3    H1 1629   3.399   3.093   0.478 -2.1162  1.1465  1.6983
  541TIP3    H2 1630   3.404   3.191   0.362 -1.1809 -0.1513  0.6083
  542TIP3   OH2 1631   3.996   0.967   4.631  0.1233  0.1735 -0.2893
  542TIP3    H1 1632   3.954   0.882   4.641  0.1531  0.0559 -1.0972
  542TIP3    H2 1633   3.950   1.008   4.557  0.3050  0.7394 -0.0957
  543TIP3   OH2 1634   1.089   1.889   0.600 -0.1266 -0.2318 -0.0027
  543TIP3    H1 1635   1.050   1.853   0.520 -1.4839  0.9275  0.1000
  543TIP3    H2 1636   1.109   1.980   0.578 -1.3309  0.3606  1.2235
  544TIP3   OH2 1637   0.498   1.260   1.003  0.7069  0.2710  0.3711
  544TIP3    H1 1638   0.558   1.302   1.065  1.6124 -0.0139 -0.2952
  544TIP3    H2 1639   0.456   1.333   0.958  0.0801  0.4810  1.2529
  545TIP3   OH2 1640   4.339   0.095   3.035  0.2211 -0.0968 -0.0843
  545TIP3    H1 1641   4.327   0.155   3.109  0.6647  1.0515 -0.9374
  545TIP3    H2 1642   4.257   0.044   3.034  0.3189 -0.3523  1.3673
  546TIP3   OH2 1643   1.870   1.894   1.238  0.8460  0.6761 -0.1725
  546TIP3    H1 1644   1.795   1.906   1.179  0.0870  0.3953  0.7178
  546TIP3    H2 1645   1.936   1.852   1.183  0.9184  2.2833 -1.3753
  547TIP3   OH2 1646   1.511   2.979   1.949  0.8236 -0.4510  0.2201
  547TIP3    H1 1647   1.502   2.955   1.856  0.3205  1.3784 -0.2354
  547TIP3    H2 1648   1.604   3.000   1.959  0.6894  0.3488 -0.1417
  548TIP3   OH2 1649   1.125   5.613   2.996  0.9103  0.1411  0.2436
  548TIP3    H1 1650   1.143   5.566   3.077  0.8618  0.3443  0.3733
  548TIP3    H2 1651   1.083   5.694   3.024 -0.5094 -0.4624 -0.0693
  549TIP3   OH2 1652   2.903   4.715   0.723 -0.1541 -0.4357  0.1847
  549TIP3    H1 1653   2.951   4.796   0.707 -1.6591  0.3607 -0.4675
  549TIP3    H2 1654   2.829   4.741   0.778  0.0358 -1.6007  1.0305
  550TIP3   OH2 1655   5.443   5.014   4.000  0.1016  0.2739  0.1488
  550TIP3    H1 1656   5.482   4.932   4.030  1.4385  0.8493  0.0819
  550TIP3    H2 1657   5.488   5.081   4.051 -0.0165  1.0440 -0.7359
  551TIP3   OH2 1658   5.227   1.015   1.793 -0.2850 -0.1359  0.1696
  551TIP3    H1 1659   5.220   1.027   1.698  0.2520  0.3970  0.1956
  551TIP3    H2 1660   5.306   1.062   1.818 -0.9845  0.6093  1.0415
  552TIP3   OH2 1661   5.107   3.503   5.048  0.2094  0.1904  0.7752
  552TIP3    H1 1662   5.086   3.438   4.981  0.0786 -1.0626  1.9928
  552TIP3    H2 1663   5.188   3.471   5.088  0.7828  1.3982  0.6412
  553TIP3   OH2 1664   3.270   1.058   1.005 -0.2976 -0.1341 -0.3629
  553TIP3    H1 1665   3.344   1.098   0.958  0.1017 -0.6478 -0.1818
  553TIP3    H2 1666   3.293   1.066   1.098 -0.7818  0.2975 -0.2769
  554TIP3   OH2 1667   0.113   3.094   4.364  0.1399 -0.3773 -0.5761
  554TIP3    H1 1668   0.042   3.062   4.419  0.1971  0.7730  0.2063
  554TIP3    H2 1669   0.075   3.102   4.276 -1.1458  1.5464  0.0950
  555TIP3   OH2 1670   3.942   0.839   3.390  0.0810  0.1853 -0.4991
  555TIP3    H1 1671   3.903   0.794   3.465  0.3984  1.6657  0.6088
  555TIP3    H2 1672   4.022   0.879   3.425  0.3282  0.7691 -1.6818
  556TIP3   OH2 1673   5.504   2.717   2.255 -1.0159 -0.3900 -0.0356
  556TIP3    H1 1674   5.494   2.796   2.203 -0.9599  0.6248  1.4361
  556TIP3    H2 1675   5.511   2.646   2.191 -0.7604  0.8228 -1.3854
  557TIP3   OH2 1676   4.283   0.173   1.084 -0.0125 -0.5923  0.8107
  557TIP3    H1 1677   4.295   0.203   0.994 -2.3610  2.7038  1.4139
  557TIP3    H2 1678   4.371   0.178   1.123  0.8704 -1.1964 -0.9869
  558TIP3   OH2 1679   6.314   2.979   3.703  0.3073 -0.7076 -0.0744
  558TIP3    H1 1680   6.395   2.936   3.728  0.1742 -0.3149  1.0808
  558TIP3    H2 1681   6.316   3.062   3.751 -0.5952 -0.5271 -0.3421
  559TIP3   OH2 1682   4.019   5.448   2.814 -0.6263  0.3925  0.0188
  559TIP3    H1 1683   4.106   5.489   2.813  0.6560 -2.0918  1.0995
  559TIP3    H2 1684   3.958   5.522   2.820  1.4445  2.1840  0.4194
  560TIP3   OH2 1685   0.756   5.843   2.411  0.1736 -0.1671 -0.3330
  560TIP3    H1 1686   0.733   5.753   2.387  1.1997 -0.2568 -1.0433
  560TIP3    H2 1687   0.690   5.868   2.476  0.8556 -2.0331  1.1961
  561TIP3   OH2 1688   5.595   4.298   1.009 -0.1196 -0.3732 -0.2308
  561TIP3    H1 1689   5.628   4.353   1.080 -2.4183  0.9992 -0.1574
  561TIP3    H2 1690   5.539   4.234   1.052  0.8308 -1.4666 -0.5553
  562TIP3   OH2 1691   5.308   0.499   5.082  0.5524 -0.5440  0.1760
  562TIP3    H1 1692   5.381   0.452   5.043  0.2710  0.0959 -1.1589
  562TIP3    H2 1693   5.246   0.513   5.011 -1.7093 -2.5277  1.5925
  563TIP3   OH2 1694   0.224   4.962   2.101 -0.5290 -0.1175  0.3244
  563TIP3    H1 1695   0.157   4.913   2.149  0.3007 -0.3417  1.2868
  563TIP3    H2 1696   0.183   4.981   2.017 -1.2932 -1.4783  0.3550
  564TIP3   OH2 1697   2.928   2.643   1.829  0.1194  0.0026 -0.0737
  564TIP3    H1 1698   3.020   2.631   1.854  0.0934 -1.2826 -0.5313
  564TIP3    H2 1699   2.924   2.614   1.738 -1.1489 -2.1228  0.5972
  565TIP3   OH2 1700   0.202   2.413   4.693  0.4588 -0.0689  0.5694
  565TIP3    H1 1701   0.137   2.452   4.752  0.4699  0.4138  0.2710
  565TIP3    H2 1702   0.154   2.393   4.614  1.0135  2.0261 -0.3737
  566TIP3   OH2 1703   0.549   2.275   2.980  0.6256  0.0508  0.0671
  566TIP3    H1 1704   0.539   2.365   2.947  0.5794  0.2800  0.6859
  566TIP3    H2 1705   0.620   2.281   3.044 -0.8024  0.1105  1.7264
  567TIP3   OH2 1706   5.797   2.642   0.999 -0.4359  0.1221 -0.1450
  567TIP3    H1 1707   5.751   2.568   0.960 -0.3580 -0.1108  0.2018
  567TIP3    H2 1708   5.884   2.639   0.958 -0.5565  0.2508 -0.4130
  568TIP3   OH2 1709   4.282   0.755   5.130 -0.0660 -0.4566  0.3687
  568TIP3    H1 1710   4.343   0.796   5.191  0.4410 -1.2607  0.4254
  568TIP3    H2 1711   4.284   0.810   5.052 -1.0703  0.8459  1.2205
  569TIP3   OH2 1712   0.427   5.085   1.142 -0.0090 -0.2711 -0.1575
  569TIP3    H1 1713   0.362   5.156   1.138 -0.3359 -0.3781  1.9310
  569TIP3    H2 1714   0.374   5.005   1.143  0.0041 -0.3365  2.4318
  570TIP3   OH2 1715   1.867   5.522   0.559 -0.5401  0.4267  0.3562
  570TIP3    H1 1716   1.883   5.560   0.473 -0.6369  0.2880  0.2757
  570TIP3    H2 1717   1.782   5.556   0.585 -1.1782 -0.6662 -0.2405
  571TIP3   OH2 1718   4.139   2.502   3.586  0.4216  0.4027  0.7277
  571TIP3    H1 1719   4.159   2.591   3.558 -0.1140  0.9386  2.0092
  571TIP3    H2 1720   4.046   2.502   3.605  0.4101 -0.4410  0.7264
  572TIP3   OH2 1721   5.241   2.505   0.307  0.3473  0.4014  0.0659
  572TIP3    H1 1722   5.146   2.507   0.299  0.2183  0.4358  1.3445
  572TIP3    H2 1723   5.257   2.480   0.398  1.5697  0.0726 -0.2145
  573TIP3   OH2 1724   5.385   5.855   0.599 -0.1832 -0.6399 -0.3024
  573TIP3    H1 1725   5.391   5.928   0.662  0.0112 -1.8717  1.1567
  573TIP3    H2 1726   5.291   5.846   0.582 -0.2250 -0.2051 -0.3332
  574TIP3   OH2 1727   2.204   0.636   0.627 -0.5948 -0.1188  0.3657
  574TIP3    H1 1728   2.164   0.594   0.551  0.1699  0.5434 -0.4226
  574TIP3    H2 1729   2.135   0.690   0.665 -1.5036 -1.8109  1.2207
  575TIP3   OH2 1730   2.331   5.600   4.996  0.3739 -0.2332 -0.7129
  575TIP3    H1 1731   2.320   5.688   5.033  0.6189 -0.4359 -0.1445
  575TIP3    H2 1732   2.415   5.603   4.952  1.0429 -0.5769  0.4960
  576TIP3   OH2 1733   0.326   0.739   4.856 -0.0315 -0.0555  0.3475
  576TIP3    H1 1734   0.326   0.706   4.766 -1.5937 -0.6884  0.5573
  576TIP3    H2 1735   0.412   0.714   4.890  0.9175  0.8919 -1.1829
  577TIP3   OH2 1736   5.467   0.031   4.510  0.5638 -0.0834  0.0068
  577TIP3    H1 1737   5.381   0.045   4.470  0.2033 -0.5606  0.5906
  577TIP3    H2 1738   5.496   0.118   4.535  0.6446  0.1798 -0.9804
  578TIP3   OH2 1739   2.046   3.472   3.509 -0.5556  0.2691 -0.2978
  578TIP3    H1 1740   2.133   3.439   3.531  0.3325  1.1789 -2.2015
  578TIP3    H2 1741   2.022   3.528   3.583 -0.1906 -1.1165  0.9218
  579TIP3   OH2 1742   1.148   5.714   2.281 -0.2468 -0.1661  0.1460
  579TIP3    H1 1743   1.165   5.670   2.198  2.3942  0.9828 -0.0443
  579TIP3    H2 1744   1.056   5.697   2.300 -0.8054 -0.8461 -2.7626
  580TIP3   OH2 1745   0.397   1.394   0.284 -0.1029 -0.4855 -0.1192
  580TIP3    H1 1746   0.314   1.347   0.280 -0.6567  0.2396  1.7721
  580TIP3    H2 1747   0.394   1.456   0.211 -0.2073 -1.9893 -1.4350
  581TIP3   OH2 1748   5.701   0.993   4.680  0.0931 -0.3783 -0.3208
  581TIP3    H1 1749   5.672   0.906   4.655 -2.6957 -0.2379  1.9512
  581TIP3    H2 1750   5.768   0.979   4.746 -0.2699 -0.8090 -0.0437
  582TIP3   OH2 1751   6.303   0.567   4.397 -0.0908  0.1537  0.1239
  582TIP3    H1 1752   6.321   0.593   4.307 -0.1731  0.4424  0.1885
  582TIP3    H2 1753   6.316   0.647   4.448 -0.7033  0.1624  0.2800
  583TIP3   OH2 1754   4.217   2.298   4.516 -0.3955 -0.2409  0.7185
  583TIP3    H1 1755   4.199   2.323   4.607  1.1794  1.0143  0.7389
  583TIP3    H2 1756   4.145   2.239   4.492 -2.4973  1.7181  1.8183
  584TIP3   OH2 1757   0.483   5.744   0.439 -0.1859 -0.0675 -0.3560
  584TIP3    H1 1758   0.457   5.833   0.462  1.2570  0.3592 -0.2542
  584TIP3    H2 1759   0.401   5.697   0.427 -0.9872  0.7830  1.4817
  585TIP3   OH2 1760   5.369   5.678   2.252  0.3212  0.1955 -0.3297
  585TIP3    H1 1761   5.416   5.695   2.334  1.4273  1.2660 -1.1409
  585TIP3    H2 1762   5.406   5.595   2.221 -1.8913 -1.5683  1.4335
  586TIP3   OH2 1763   4.028   5.383   3.379  0.0075 -0.0130  0.1846
  586TIP3    H1 1764   4.015   5.346   3.291  2.8357  0.4737 -0.5430
  586TIP3    H2 1765   3.999   5.474   3.372 -2.0407 -0.5895  0.5055
  587TIP3   OH2 1766   0.678   0.470   4.572  0.1194 -0.0452  0.5340
  587TIP3    H1 1767   0.737   0.429   4.636 -0.9374  0.6184  1.9899
  587TIP3    H2 1768   0.592   0.432   4.592 -0.0468 -0.7754 -1.3557
  588TIP3   OH2 1769   3.908   3.414   0.731 -0.0496 -0.0597 -0.4341
  588TIP3    H1 1770   3.822   3.391   0.696  0.7760  0.4051 -2.9170
  588TIP3    H2 1771   3.907   3.509   0.735  0.2049 -0.0722 -0.0515
  589TIP3   OH2 1772   6.299   3.994   1.285 -0.6985 -0.1511 -0.0977
  589TIP3    H1 1773   6.341   3.926   1.232 -1.2828 -0.4773 -0.1465
  589TIP3    H2 1774   6.244   4.042   1.223 -0.4954  0.2036 -0.0086
  590TIP3   OH2 1775   2.575   2.270   0.183 -0.4882 -0.2716 -0.2971
  590TIP3    H1 1776   2.541   2.307   0.264 -0.2550  1.4627 -0.9474
  590TIP3    H2 1777   2.622   2.191   0.210  0.6376  0.9225  1.4380
  591TIP3   OH2 1778   1.380   3.184   2.085  0.1772  0.0658  0.0109
  591TIP3    H1 1779   1.363   3.131   2.164  1.5813  0.9071  0.9273
  591TIP3    H2 1780   1.418   3.122   2.023 -0.9945 -0.6209 -0.0578
  592TIP3   OH2 1781   0.360   5.772   2.637 -0.2277 -0.2893 -0.0454
  592TIP3    H1 1782   0.310   5.691   2.621 -0.0470 -1.0505  2.6534
  592TIP3    H2 1783   0.304   5.823   2.696  1.4154 -0.4667  1.7895
  593TIP3   OH2 1784   0.897   2.604   0.026  0.1940 -0.4263  0.2292
  593TIP3    H1 1785   0.863   2.664   0.092  0.6012 -2.2916  2.2678
  593TIP3    H2 1786   0.826   2.595  -0.037 -0.6845  0.5494  1.0441
  594TIP3   OH2 1787   0.902   2.428   4.900  0.1603 -0.5446  0.6374
  594TIP3    H1 1788   0.808   2.444   4.910 -0.1129  0.9296 -2.6736
  594TIP3    H2 1789   0.942   2.514   4.916  0.6661 -0.6231 -0.1680
  595TIP3   OH2 1790   5.406   4.449   0.099  0.0700  0.0292 -0.5193
  595TIP3    H1 1791   5.356   4.511   0.047 -3.0577 -0.2046  1.9055
  595TIP3    H2 1792   5.487   4.495   0.121 -0.0465  1.3648 -2.5951
  596TIP3   OH2 1793   3.491   0.721   4.631  0.0720  0.8687 -0.2396
  596TIP3    H1 1794   3.554   0.762   4.572 -0.2707 -0.8387 -1.8792
  596TIP3    H2 1795   3.416   0.779   4.630  1.1306  2.3493  0.8602
  597TIP3   OH2 1796   4.629   0.766   1.023 -0.0440  0.2633  0.1387
  597TIP3    H1 1797   4.702   0.765   0.961  1.4993 -1.9282  1.8103
  597TIP3    H2 1798   4.552   0.748   0.970  1.1776 -1.2468 -1.2434
  598TIP3   OH2 1799   0.893   2.753   4.408 -0.2336  0.3414  0.6755
  598TIP3    H1 1800   0.959   2.789   4.349 -0.9356 -1.3655 -1.2288
  598TIP3    H2 1801   0.835   2.827   4.426  1.0079  1.3456  0.7480
  599TIP3   OH2 1802   2.274   5.168   0.236 -0.0591 -0.3788 -0.0586
  599TIP3    H1 1803   2.239   5.082   0.258  0.4860 -0.2009  1.6178
  599TIP3    H2 1804   2.214   5.229   0.280  1.8653 -0.0532  2.3271
  600TIP3   OH2 1805   1.945   2.194   4.862 -0.3832  0.4225  0.1025
  600TIP3    H1 1806   1.965   2.202   4.955 -0.3509 -0.1519  0.1506
  600TIP3    H2 1807   1.853   2.169   4.859 -0.1122 -0.6294  0.0336
  601TIP3   OH2 1808   3.746   5.622   0.460 -0.3630  0.3131  0.7387
  601TIP3    H1 1809   3.835   5.588   0.449 -0.8312 -1.1787  1.3681
  601TIP3    H2 1810   3.758   5.711   0.491  0.9281 -0.2032  1.7957
  602TIP3   OH2 1811   1.279   0.018   3.674  0.3423 -0.0108  0.1206
  602TIP3    H1 1812   1.334   0.085   3.715 -0.4736  0.5683  0.2924
  602TIP3    H2 1813   1.229   0.065   3.608 -0.9063 -0.2517  0.8620
  603TIP3   OH2 1814   0.309   4.675   3.708  0.0115  0.2008  0.0264
  603TIP3    H1 1815   0.285   4.644   3.795  1.9686 -1.1673  0.1208
  603TIP3    H2 1816   0.296   4.770   3.712 -0.7159  0.0693  1.5114
  604TIP3   OH2 1817   4.920   5.324   1.819  0.2364  0.0155 -0.6030
  604TIP3    H1 1818   4.886   5.380   1.749  0.8796 -0.1033 -1.0277
  604TIP3    H2 1819   4.877   5.240   1.805 -0.1519  0.1878 -0.4391
  605TIP3   OH2 1820   0.093   3.681   1.719 -0.4839 -0.1424  0.0769
  605TIP3    H1 1821   0.129   3.595   1.695 -0.2275 -0.4053  1.3242
  605TIP3    H2 1822   0.098   3.683   1.814  1.2699  2.0298  0.0124
  606TIP3   OH2 1823   2.474   5.190   0.642 -0.5680  0.3355  0.1020
  606TIP3    H1 1824   2.416   5.135   0.590  0.5441  0.1011 -0.9258
  606TIP3    H2 1825   2.440   5.183   0.731 -0.0849 -2.6130  0.1553
  607TIP3   OH2 1826   5.572   1.544   4.269  0.2709 -0.0579  0.3752
  607TIP3    H1 1827   5.487   1.550   4.315 -0.1824  0.5498 -0.5198
  607TIP3    H2 1828   5.552   1.493   4.190  1.2790 -2.0627  1.3285
  608TIP3   OH2 1829   1.051   3.712   0.692  0.2870 -0.7373  0.3923
  608TIP3    H1 1830   1.003   3.630   0.681  1.0202 -1.1051 -0.1590
  608TIP3    H2 1831   1.053   3.751   0.605  1.2648 -0.8919  0.3351
  609TIP3   OH2 1832   3.443   5.111   4.900 -0.1308 -0.2118 -0.7229
  609TIP3    H1 1833   3.514   5.064   4.857  2.5724  2.5089  0.3755
  609TIP3    H2 1834   3.482   5.145   4.980 -3.1236  0.3140  0.6649
  610TIP3   OH2 1835   1.412   5.775   2.242 -0.2540 -0.0302  0.3128
  610TIP3    H1 1836   1.324   5.773   2.281  0.1810 -0.6410  1.2826
  610TIP3    H2 1837   1.400   5.737   2.155 -0.8716 -0.5530  0.6161
  611TIP3   OH2 1838   3.825   2.087   0.283  0.3872  0.0253  0.8025
  611TIP3    H1 1839   3.761   2.022   0.313 -0.5579  1.3031  1.6392
  611TIP3    H2 1840   3.906   2.037   0.274 -0.0582 -1.0975  2.4167
  612TIP3   OH2 1841   2.570   1.252   0.786  0.4710 -0.1063  0.6610
  612TIP3    H1 1842   2.603   1.236   0.698  0.3371 -1.0729  0.7744
  612TIP3    H2 1843   2.494   1.195   0.794  1.1255 -0.8544  1.7791
  613TIP3   OH2 1844   0.433   0.098   4.181  0.0725 -0.1959 -0.0287
  613TIP3    H1 1845   0.439   0.007   4.151  0.3405 -0.0187 -0.5278
  613TIP3    H2 1846   0.342   0.122   4.167 -0.6159 -1.1222  2.3200
  614TIP3   OH2 1847   4.573   5.539   2.928  0.7744 -0.0989  0.2370
  614TIP3    H1 1848   4.592   5.492   2.847  2.3203 -2.1067  1.6508
  614TIP3    H2 1849   4.645   5.600   2.938  1.1408 -0.5697  0.5593
  615TIP3   OH2 1850   0.580   5.441   3.355  0.2438 -0.1813  0.5931
  615TIP3    H1 1851   0.617   5.380   3.290 -0.4566  0.9765 -0.9529
  615TIP3    H2 1852   0.576   5.390   3.436  0.5149 -1.9124 -0.4326
  616TIP3   OH2 1853   4.383   2.836   4.434 -0.1984 -0.2020  0.0641
  616TIP3    H1 1854   4.297   2.871   4.411 -0.0919 -0.6647 -1.0526
  616TIP3    H2 1855   4.438   2.914   4.446 -0.5062  0.0644 -0.2465
  617TIP3   OH2 1856   3.176   0.339   4.200 -0.0822 -0.4187 -0.3260
  617TIP3    H1 1857   3.199   0.333   4.293 -1.1689 -1.8261 -0.1282
  617TIP3    H2 1858   3.168   0.433   4.184  1.7940 -0.0573  0.5547
  618TIP3   OH2 1859   3.733   0.264   3.072  0.5149 -0.0978 -0.1273
  618TIP3    H1 1860   3.707   0.208   3.146 -1.4271  3.2582  1.9709
  618TIP3    H2 1861   3.814   0.305   3.101  0.4661  0.2230 -0.4408
  619TIP3   OH2 1862   0.961   3.630   4.837  0.0186  0.4431  0.0671
  619TIP3    H1 1863   0.944   3.598   4.748  2.7814 -1.4891  0.1237
  619TIP3    H2 1864   1.057   3.636   4.842 -0.0530  0.2805  2.9797
  620TIP3   OH2 1865   2.541   2.427   4.236  0.0790  0.0330 -0.2163
  620TIP3    H1 1866   2.596   2.498   4.269  0.2581 -0.1175 -0.1889
  620TIP3    H2 1867   2.478   2.409   4.306  0.1723  0.0182 -0.1363
  621TIP3   OH2 1868   5.587   0.738   1.990 -0.4135 -0.3622 -0.1609
  621TIP3    H1 1869   5.633   0.767   2.068 -0.9043  0.3064 -0.1164
  621TIP3    H2 1870   5.655   0.697   1.936 -0.1264 -1.0751  0.7256
  622TIP3   OH2 1871   5.782   0.962   1.390  0.7436  0.6071  0.4013
  622TIP3    H1 1872   5.808   1.018   1.317 -1.7219  1.2300 -0.0883
  622TIP3    H2 1873   5.748   0.883   1.347 -1.7884  1.4381  0.7318
  623TIP3   OH2 1874   0.413   1.331   1.693  0.5809 -0.3282 -0.2988
  623TIP3    H1 1875   0.366   1.413   1.678  0.4916  0.3956  3.0065
  623TIP3    H2 1876   0.344   1.264   1.696  0.4518 -0.2473 -1.1620
  624TIP3   OH2 1877   0.354   1.782   4.631 -0.1681 -0.2619  0.1782
  624TIP3    H1 1878   0.430   1.741   4.673 -1.7703 -1.5638  1.9273
  624TIP3    H2 1879   0.320   1.714   4.573 -0.6721 -0.0804  0.2627
  625TIP3   OH2 1880   5.428   0.017   0.019  0.1694 -0.4852 -0.3741
  625TIP3    H1 1881   5.425   0.019   0.115 -0.6368 -1.3206 -0.3735
  625TIP3    H2 1882   5.486   0.090  -0.004  2.1159 -1.5416  0.8151
  626TIP3   OH2 1883   1.246   3.551   1.143 -0.1688  0.1643 -0.4715
  626TIP3    H1 1884   1.178   3.596   1.194 -1.3260  0.3392 -2.0805
  626TIP3    H2 1885   1.244   3.595   1.057  1.7218 -0.1003 -0.6947
  627TIP3   OH2 1886   3.437   4.355   0.210 -0.0561 -0.0216 -0.5906
  627TIP3    H1 1887   3.399   4.307   0.137 -1.2885  0.2265 -0.1246
  627TIP3    H2 1888   3.363   4.375   0.267  0.8730 -0.1820  0.7194
  628TIP3   OH2 1889   4.762   1.476   2.024  0.4298 -0.0090 -0.0449
  628TIP3    H1 1890   4.795   1.558   1.987 -1.2957  0.7337 -0.0389
  628TIP3    H2 1891   4.728   1.501   2.110  0.4043 -0.8562  0.2046
  629TIP3   OH2 1892   0.230   0.117   1.661 -0.3040 -0.3322 -0.7714
  629TIP3    H1 1893   0.163   0.179   1.634  0.7624  1.0999 -0.2564
  629TIP3    H2 1894   0.194   0.073   1.738 -0.7898  0.1594 -0.7200
  630TIP3   OH2 1895   5.138   4.920   1.515 -0.4282 -0.0428  0.4760
  630TIP3    H1 1896   5.130   4.983   1.587  1.0004  0.2831  0.3918
  630TIP3    H2 1897   5.102   4.966   1.439  0.8366  0.8065  0.3628
  631TIP3   OH2 1898   2.503   0.584   4.774 -0.2032 -0.4082 -0.1530
  631TIP3    H1 1899   2.447   0.589   4.852 -0.0685 -2.7985  0.1966
  631TIP3    H2 1900   2.556   0.505   4.789  1.2900  0.2452 -1.7426
  632TIP3   OH2 1901   6.270   5.538   1.560  0.0264  0.3226  0.4725
  632TIP3    H1 1902   6.344   5.586   1.522 -0.9092  2.0771  0.7306
  632TIP3    H2 1903   6.261   5.574   1.648 -2.3802  1.7246 -0.2375
  633TIP3   OH2 1904   2.447   0.916   1.348  0.9748 -0.1894  0.2956
  633TIP3    H1 1905   2.434   0.920   1.443  3.4902  1.8074  0.6349
  633TIP3    H2 1906   2.463   0.823   1.331  0.4778 -0.5897  1.8020
  634TIP3   OH2 1907   2.417   4.275   4.747 -0.3968 -0.3430  0.1576
  634TIP3    H1 1908   2.362   4.352   4.733  0.0477 -0.3427 -1.9843
  634TIP3    H2 1909   2.394   4.245   4.835 -2.2114  0.9145  0.1797
  635TIP3   OH2 1910   4.947   3.943   3.952  0.5891 -0.8998  0.5868
  635TIP3    H1 1911   4.950   3.912   3.862  0.5815 -0.4218  0.4212
  635TIP3    H2 1912   5.022   4.003   3.960 -0.6892  0.8085  0.2391
  636TIP3   OH2 1913   3.476   0.130   1.230 -0.5011 -0.2681  0.8724
  636TIP3    H1 1914   3.507   0.060   1.287 -1.7071 -0.5418  1.2168
  636TIP3    H2 1915   3.401   0.168   1.277  0.1229  1.2721  0.7060
  637TIP3   OH2 1916   3.224  -0.023   3.776 -0.3734  0.3955  0.1540
  637TIP3    H1 1917   3.285  -0.039   3.848 -2.5190  0.2889  2.0394
  637TIP3    H2 1918   3.211   0.072   3.776 -0.6402  0.3605  0.1444
  638TIP3   OH2 1919   2.607   4.159   2.705  0.2227  0.3602 -0.3090
  638TIP3    H1 1920   2.579   4.119   2.623  0.5869 -0.0695 -0.2241
  638TIP3    H2 1921   2.546   4.126   2.770 -0.6211  1.3916 -0.5422
  639TIP3   OH2 1922   3.583   0.059   2.898 -0.6875  0.3757 -0.4058
  639TIP3    H1 1923   3.596   0.130   2.961  0.8604  0.2224 -0.5347
  639TIP3    H2 1924   3.643   0.078   2.827 -0.5306 -0.8575 -0.6150
  640TIP3   OH2 1925   3.993   4.070   0.253 -0.0327  0.3745 -0.2655
  640TIP3    H1 1926   3.937   3.992   0.253 -0.8573  0.9121  1.3410
  640TIP3    H2 1927   4.081   4.036   0.238 -0.0031 -1.2457  2.7685
  641TIP3   OH2 1928   5.598   2.591   3.078  0.8624 -0.2904 -0.1823
  641TIP3    H1 1929   5.652   2.624   3.006  1.4717  2.0761  1.2619
  641TIP3    H2 1930   5.662   2.559   3.142  0.4073 -0.6009  0.1179
  642TIP3   OH2 1931   3.765   0.962   3.719  0.3465  0.3861 -0.0367
  642TIP3    H1 1932   3.827   0.903   3.762  0.7624  0.3503 -0.6780
  642TIP3    H2 1933   3.713   0.905   3.663 -0.7518  0.3100  1.0155
  643TIP3   OH2 1934   4.810   1.850   3.736 -0.7306 -0.0952  0.2352
  643TIP3    H1 1935   4.863   1.773   3.718  2.3438  1.2981  2.4217
  643TIP3    H2 1936   4.817   1.903   3.656 -0.8165 -0.9934 -0.3723
  644TIP3   OH2 1937   0.607   2.991   2.103 -0.1873  0.3685  0.3473
  644TIP3    H1 1938   0.559   3.026   2.028 -0.5278 -0.0230  0.3760
  644TIP3    H2 1939   0.630   2.901   2.077  0.7381  0.6220  0.2413
  645TIP3   OH2 1940   4.064   5.144   0.919  0.3927  0.0642  0.2948
  645TIP3    H1 1941   3.982   5.142   0.870 -0.3666  2.5579  1.2647
  645TIP3    H2 1942   4.104   5.058   0.905  0.3532  0.6033 -4.7150
  646TIP3   OH2 1943   5.904   0.198   4.832 -0.5404  0.5619 -0.0085
  646TIP3    H1 1944   5.899   0.154   4.747  0.7115  0.7260 -0.1798
  646TIP3    H2 1945   5.873   0.132   4.895  0.3120 -0.2179 -0.3892
  647TIP3   OH2 1946   4.688   2.551   4.023 -0.6431 -0.0379 -0.4406
  647TIP3    H1 1947   4.753   2.545   4.093  0.7002 -2.5421 -1.7792
  647TIP3    H2 1948   4.703   2.638   3.985  0.2228  0.4075  0.8377
  648TIP3   OH2 1949   0.931   4.422   3.826 -0.0908 -0.8649  0.3340
  648TIP3    H1 1950   0.874   4.395   3.754 -0.8313  0.3797  0.4190
  648TIP3    H2 1951   0.874   4.421   3.903  0.2415 -0.5339  0.5917
  649TIP3   OH2 1952   4.587   2.794   1.116  0.5847 -0.3143 -0.1498
  649TIP3    H1 1953   4.557   2.841   1.193 -0.8163  0.9100 -1.3829
  649TIP3    H2 1954   4.652   2.851   1.076 -1.0709  0.6285 -1.6152
  650TIP3   OH2 1955   4.521   4.364   1.790 -0.1309  0.4199  0.0382
  650TIP3    H1 1956   4.569   4.313   1.725 -2.2859  0.3803 -1.6332
  650TIP3    H2 1957   4.495   4.444   1.744 -2.0929  0.1957  0.6604
  651TIP3   OH2 1958   2.859   5.902   0.413  0.2782  0.1717 -0.1172
  651TIP3    H1 1959   2.909   5.845   0.471 -0.3866 -0.3814 -0.0805
  651TIP3    H2 1960   2.805   5.842   0.361 -0.1493  0.7471 -0.3451
  652TIP3   OH2 1961   0.170   0.537   1.770 -0.4840  0.4209  0.1104
  652TIP3    H1 1962   0.192   0.563   1.860  0.2484 -0.6696  0.2654
  652TIP3    H2 1963   0.226   0.461   1.753 -0.7066  0.5373 -1.2310
  653TIP3   OH2 1964   2.413   0.795   3.717 -0.2418  0.0235  0.6961
  653TIP3    H1 1965   2.357   0.787   3.640  0.1954  0.4763  0.3289
  653TIP3    H2 1966   2.459   0.878   3.705  2.0564 -1.2835 -0.0544
  654TIP3   OH2 1967   0.568   3.299   4.810  0.3764  0.4300 -0.2976
  654TIP3    H1 1968   0.647   3.255   4.780  1.1680  2.1246 -0.8394
  654TIP3    H2 1969   0.549   3.260   4.895  0.1859 -1.9123 -1.3422
  655TIP3   OH2 1970   4.486   1.123   1.917  0.4703  0.2088  0.0594
  655TIP3    H1 1971   4.431   1.195   1.886  1.9381  1.2927 -0.1637
  655TIP3    H2 1972   4.499   1.068   1.840  0.1335  0.2419 -0.0218
  656TIP3   OH2 1973   5.916   4.086   5.117  0.2792 -0.4167 -0.9183
  656TIP3    H1 1974   5.927   4.042   5.201  0.4250 -3.1533 -2.2629
  656TIP3    H2 1975   5.842   4.146   5.130  0.8430 -0.1357  1.3438
  657TIP3   OH2 1976   4.034   0.011   1.822  0.6108 -0.3491  0.5821
  657TIP3    H1 1977   4.027  -0.048   1.747  1.2917 -0.0478  0.2774
  657TIP3    H2 1978   4.005   0.096   1.788  0.5801 -0.2909  0.7548
  658TIP3   OH2 1979   1.220   3.347   0.911 -0.1721 -0.2974  0.2876
  658TIP3    H1 1980   1.158   3.331   0.982 -0.1399 -0.3955  0.2931
  658TIP3    H2 1981   1.224   3.442   0.905  0.0806 -0.2809  0.6427
  659TIP3   OH2 1982   5.025   0.921   4.634  0.3326  0.4804 -0.0900
  659TIP3    H1 1983   5.042   0.881   4.720 -0.7159 -0.2392 -0.1949
  659TIP3    H2 1984   5.058   0.857   4.571  0.5835  0.7493 -0.2307
  660TIP3   OH2 1985   0.159   1.017   3.595 -0.7191  0.0022  0.0059
  660TIP3    H1 1986   0.225   1.009   3.527 -0.6911 -1.0611  0.1334
  660TIP3    H2 1987   0.208   1.039   3.674 -0.6725  0.5342 -0.1697
  661TIP3   OH2 1988   2.613   1.602   3.795  0.3371  0.4721 -0.4389
  661TIP3    H1 1989   2.660   1.519   3.784 -1.4582 -0.4333 -1.7237
  661TIP3    H2 1990   2.564   1.592   3.876 -1.1245 -0.4061 -1.3954
  662TIP3   OH2 1991   5.156   4.303   1.181 -0.0230 -0.4482 -0.1085
  662TIP3    H1 1992   5.084   4.361   1.158 -0.3485 -0.8432 -0.1134
  662TIP3    H2 1993   5.225   4.361   1.212 -0.7375 -0.1207  0.9589
  663TIP3   OH2 1994   0.865   2.718   3.892  0.0590  0.1512 -0.0134
  663TIP3    H1 1995   0.923   2.731   3.968 -0.7657  0.7456  0.5297
  663TIP3    H2 1996   0.777   2.719   3.929 -0.3245 -0.3809 -0.8844
  664TIP3   OH2 1997   1.048   1.787   2.633 -0.1272  0.1494 -0.5884
  664TIP3    H1 1998   1.040   1.697   2.601  1.4147 -0.1847 -0.1144
  664TIP3    H2 1999   0.960   1.823   2.625 -0.5906 -1.1288 -1.5852
  665TIP3   OH2 2000   1.453   0.387   3.494 -0.6564  0.2211  0.6206
  665TIP3    H1 2001   1.505   0.464   3.470  0.4753 -1.3829 -2.7592
  665TIP3    H2 2002   1.378   0.390   3.435 -0.0892 -1.6975 -0.2617
  666TIP3   OH2 2003   1.643   1.024   5.163  0.6078 -0.0958 -0.1731
  666TIP3    H1 2004   1.728   0.983   5.179  0.2137 -0.3222  1.5265
  666TIP3    H2 2005   1.636   1.091   5.231 -1.0000 -0.7967  0.4000
  667TIP3   OH2 2006   2.233   0.183   5.084  0.0130  0.0997 -0.2174
  667TIP3    H1 2007   2.225   0.256   5.023 -3.0117 -0.9345 -1.2190
  667TIP3    H2 2008   2.165   0.122   5.058  0.7958 -1.9600  2.1563
  668TIP3   OH2 2009   5.862   3.084   1.572 -0.0030  0.2765 -0.4007
  668TIP3    H1 2010   5.813   3.065   1.492 -1.2742  2.2824 -0.1749
  668TIP3    H2 2011   5.797   3.082   1.641 -0.3468  4.6201 -0.2893
  669TIP3   OH2 2012   5.545   2.359   4.591 -0.0225  0.2304 -0.0309
  669TIP3    H1 2013   5.529   2.400   4.675 -0.8098  0.1561 -0.1372
  669TIP3    H2 2014   5.583   2.428   4.537 -2.0298  1.0836 -0.4447
  670TIP3   OH2 2015   2.456   2.154   2.486 -0.1440 -0.5167 -0.0526
  670TIP3    H1 2016   2.463   2.071   2.532  0.3130 -0.6160 -0.2996
  670TIP3    H2 2017   2.546   2.183   2.474 -0.3096  0.2538  0.4591
  671TIP3   OH2 2018   5.628   4.116   2.025 -0.4926 -0.5692  0.1831
  671TIP3    H1 2019   5.567   4.044   2.007 -0.7189 -1.0542  2.5502
  671TIP3    H2 2020   5.572   4.193   2.034 -0.5630 -0.6622  0.5461
  672TIP3   OH2 2021   1.276   5.257   0.172  0.2968  0.1274 -0.2411
  672TIP3    H1 2022   1.282   5.338   0.121  0.4723 -0.8393 -1.8208
  672TIP3    H2 2023   1.182   5.239   0.177  0.2170  0.7088  0.6183
  673TIP3   OH2 2024   4.715   5.673   4.759 -0.0115  0.1569  0.3504
  673TIP3    H1 2025   4.647   5.622   4.715  0.8734 -1.1030  0.3511
  673TIP3    H2 2026   4.673   5.707   4.838 -0.6188 -0.7316  0.4310
  674TIP3   OH2 2027   6.358   1.934   0.918  0.0905 -0.7528 -0.7032
  674TIP3    H1 2028   6.332   2.010   0.864  0.7434 -1.6260 -2.3135
  674TIP3    H2 2029   6.361   1.969   1.007 -0.5476  0.8872 -1.2666
  675TIP3   OH2 2030   1.088   1.812   1.167 -0.0396  0.2554 -0.0150
  675TIP3    H1 2031   1.132   1.883   1.121  0.4265  1.0487  1.5664
  675TIP3    H2 2032   1.152   1.740   1.166 -0.2038  0.1080 -0.9340
  676TIP3   OH2 2033   2.287   5.121   0.873 -0.4402  0.2516 -0.2465
  676TIP3    H1 2034   2.202   5.088   0.845 -0.3735  0.7830 -1.1102
  676TIP3    H2 2035   2.274   5.144   0.965 -0.8904 -0.7617 -0.0440
  677TIP3   OH2 2036   4.634   4.984   1.116 -0.0233 -0.2133  0.3458
  677TIP3    H1 2037   4.729   4.971   1.121  0.2221  1.7221  2.8708
  677TIP3    H2 2038   4.624   5.067   1.069 -0.3142  0.4925  1.6089
  678TIP3   OH2 2039   4.051   1.981   4.219 -0.1157 -0.4076 -0.3882
  678TIP3    H1 2040   4.102   1.910   4.181 -1.9830 -2.3987  0.6618
  678TIP3    H2 2041   3.965   1.974   4.179 -0.5981  0.7302  0.3829
  679TIP3   OH2 2042   0.330   5.417   4.475  0.1673  0.1469  0.1562
  679TIP3    H1 2043   0.339   5.352   4.405 -1.1588  1.1017 -0.9399
  679TIP3    H2 2044   0.368   5.374   4.552  0.8909 -1.2525 -0.9321
  680TIP3   OH2 2045   3.185   3.247   1.460  0.6586  0.1721 -0.5558
  680TIP3    H1 2046   3.256   3.191   1.428  0.9355 -1.7483  2.9464
  680TIP3    H2 2047   3.130   3.189   1.512 -0.5638  2.6311  1.1049
  681TIP3   OH2 2048   6.033   5.304   2.260 -0.0383 -0.5760 -0.1569
  681TIP3    H1 2049   6.018   5.382   2.206 -0.4159 -1.1292 -0.8635
  681TIP3    H2 2050   6.121   5.274   2.235  0.4505  0.0707  0.7065
  682TIP3   OH2 2051   0.288   3.466   2.161 -0.2100 -0.7013  0.3775
  682TIP3    H1 2052   0.353   3.527   2.195 -0.0566 -0.8103  0.2815
  682TIP3    H2 2053   0.209   3.519   2.152  0.5702  0.1671 -2.1322
  683TIP3   OH2 2054   1.287   2.446   5.017 -0.2963  0.2182 -0.6426
  683TIP3    H1 2055   1.244   2.415   4.938 -1.3441  0.2377 -0.0939
  683TIP3    H2 2056   1.317   2.534   4.996  0.4713 -0.2103 -1.3871
  684TIP3   OH2 2057   2.885   2.718   4.974 -0.2097 -0.1396  0.3655
  684TIP3    H1 2058   2.916   2.630   4.952 -0.6019  0.0162 -0.8365
  684TIP3    H2 2059   2.929   2.776   4.912 -0.1430  0.4983  0.9906
  685TIP3   OH2 2060   4.269   5.778   2.708  0.1164 -0.2550  0.5081
  685TIP3    H1 2061   4.354   5.784   2.664 -0.0422 -1.8341 -0.0882
  685TIP3    H2 2062   4.253   5.866   2.742  0.4146  1.0021 -2.3086
  686TIP3   OH2 2063   2.805   4.773   1.038 -0.3991  0.5856  0.1542
  686TIP3    H1 2064   2.712   4.793   1.036 -0.2135  1.4731  0.0458
  686TIP3    H2 2065   2.812   4.685   1.002 -1.1058  0.8819 -0.7229
  687TIP3   OH2 2066   0.677   0.527   0.574 -0.2393  0.5871 -0.5846
  687TIP3    H1 2067   0.681   0.443   0.619 -0.0576  0.4421 -0.8702
  687TIP3    H2 2068   0.763   0.566   0.588 -1.0768  1.8056  1.6063
  688TIP3   OH2 2069   0.900   1.795   0.039  0.1375  0.2605 -0.2937
  688TIP3    H1 2070   0.960   1.783  -0.034 -1.3925  0.0896 -1.5889
  688TIP3    H2 2071   0.855   1.711   0.048 -1.2052  0.9038 -0.6202
  689TIP3   OH2 2072   3.450   1.226   0.447 -0.6717 -0.3753  0.4041
  689TIP3    H1 2073   3.545   1.232   0.436 -0.3523 -1.3816  2.1903
  689TIP3    H2 2074   3.419   1.178   0.370  0.0315  1.2707 -0.9625
  690TIP3   OH2 2075   1.512   0.080   5.206 -0.3109 -0.3894  0.0409
  690TIP3    H1 2076   1.565   0.094   5.127 -0.3383 -2.4729 -0.3982
  690TIP3    H2 2077   1.431   0.040   5.174 -0.0179 -1.9679  1.1526
  691TIP3   OH2 2078   3.332   4.643   1.771 -0.2175 -0.0582 -0.0714
  691TIP3    H1 2079   3.382   4.621   1.691 -0.5038  0.3669 -0.3720
  691TIP3    H2 2080   3.249   4.597   1.760  0.6559 -2.0724  1.1646
  692TIP3   OH2 2081   2.610   1.503   2.608  0.0604 -0.2852  0.6619
  692TIP3    H1 2082   2.697   1.491   2.568  0.6491  0.3051  1.7425
  692TIP3    H2 2083   2.570   1.574   2.557  1.0840  0.9506  1.5165
  693TIP3   OH2 2084   5.634   4.197   1.621 -0.3668 -0.1834  0.6469
  693TIP3    H1 2085   5.712   4.190   1.676 -0.0122 -0.4121  0.1242
  693TIP3    H2 2086   5.650   4.135   1.549 -0.0116  1.3695 -0.6752
  694TIP3   OH2 2087   4.371   3.245   1.814 -0.3152  0.3035  0.9111
  694TIP3    H1 2088   4.466   3.233   1.812 -0.0820  1.9784 -0.2162
  694TIP3    H2 2089   4.338   3.168   1.859  1.5081 -0.7617  0.5208
  695TIP3   OH2 2090   0.013   4.130   3.035 -0.4930 -0.4840 -0.0454
  695TIP3    H1 2091   0.057   4.101   3.115  2.4919  0.9711 -1.0192
  695TIP3    H2 2092   0.021   4.225   3.037 -2.4151 -0.2413 -1.0555
  696TIP3   OH2 2093   5.497   3.428   1.861 -0.8150 -0.2068  0.6723
  696TIP3    H1 2094   5.406   3.401   1.852 -0.4454 -1.4658  0.5712
  696TIP3    H2 2095   5.505   3.504   1.802 -0.9088 -2.2787 -2.2255
  697TIP3   OH2 2096   4.999   1.552   0.363  0.4971 -0.4054 -0.6412
  697TIP3    H1 2097   5.013   1.468   0.407 -2.0508 -0.4611  0.2141
  697TIP3    H2 2098   4.931   1.535   0.298  1.7536  0.4763 -2.2856
  698TIP3   OH2 2099   2.585   1.930   3.488  0.5366 -0.5426 -0.2491
  698TIP3    H1 2100   2.545   1.859   3.538 -2.2421 -0.2960 -1.9025
  698TIP3    H2 2101   2.642   1.885   3.425  0.9659 -1.0943  0.5096
  699TIP3   OH2 2102   0.393   4.044   0.380  0.1315 -0.3036  0.0411
  699TIP3    H1 2103   0.472   4.078   0.336 -0.6047  0.6531 -0.5829
  699TIP3    H2 2104   0.401   4.077   0.470 -0.6019  1.6890 -0.5676
  700TIP3   OH2 2105   2.015   4.533   5.155 -0.4981 -0.5301 -0.0532
  700TIP3    H1 2106   2.019   4.477   5.078  0.1120 -0.7537  0.1335
  700TIP3    H2 2107   2.060   4.613   5.129 -0.3894 -0.5624  0.0331
  701TIP3   OH2 2108   3.586   2.600   4.981 -0.1491  0.4874  0.8163
  701TIP3    H1 2109   3.532   2.657   5.036  0.1166  0.8030  0.7530
  701TIP3    H2 2110   3.638   2.661   4.928  0.2048  0.1854  0.8164
  702TIP3   OH2 2111   5.874   5.338   3.533 -0.4715 -0.2556  0.2408
  702TIP3    H1 2112   5.930   5.298   3.600 -1.0312 -0.3778  0.6491
  702TIP3    H2 2113   5.875   5.275   3.461  1.3933  0.6057 -0.5239
  703TIP3   OH2 2114   6.354   2.109   1.162 -0.2162 -0.1784  0.1804
  703TIP3    H1 2115   6.279   2.056   1.188  0.2442 -1.0177 -0.1511
  703TIP3    H2 2116   6.420   2.091   1.228  0.7691 -1.9037 -1.1819
  704TIP3   OH2 2117   3.377   5.793   1.438 -0.5264  0.0685  0.5578
  704TIP3    H1 2118   3.408   5.772   1.350 -1.3651 -0.8902  0.4748
  704TIP3    H2 2119   3.454   5.827   1.483  0.5161 -1.6466  0.1755
  705TIP3   OH2 2120   5.586   3.884   0.831 -0.4149  0.2058 -0.8115
  705TIP3    H1 2121   5.628   3.833   0.900  0.0466 -0.2449 -1.4106
  705TIP3    H2 2122   5.634   3.967   0.829 -1.1490  0.6689  0.1470
  706TIP3   OH2 2123   5.440   2.752   0.154 -0.4039 -0.2686  0.0089
  706TIP3    H1 2124   5.377   2.797   0.098 -1.5143 -2.4419 -0.6089
  706TIP3    H2 2125   5.405   2.663   0.163  1.0545 -0.7046  2.1198
  707TIP3   OH2 2126   1.349   5.779   4.228  0.0660 -0.1560  0.3629
  707TIP3    H1 2127   1.364   5.873   4.211  0.1179 -0.1969  0.1749
  707TIP3    H2 2128   1.262   5.762   4.191  0.7161 -0.5355 -1.0552
  708TIP3   OH2 2129   0.038   0.743   4.212  0.7605 -0.0670 -0.4171
  708TIP3    H1 2130   0.114   0.776   4.261  1.2967  0.1015 -1.3299
  708TIP3    H2 2131   0.024   0.808   4.143  0.4408 -0.6308 -0.8942
  709TIP3   OH2 2132   4.088   0.489   4.084 -0.1069 -0.4625  0.1561
  709TIP3    H1 2133   4.166   0.449   4.045 -0.1497  0.6300 -1.1000
  709TIP3    H2 2134   4.023   0.488   4.014 -1.0208 -0.7756  0.9978
  710TIP3   OH2 2135   4.664   2.182   4.944  0.1176 -0.5211 -0.4707
  710TIP3    H1 2136   4.735   2.149   4.888 -0.7372 -0.3354 -1.6944
  710TIP3    H2 2137   4.584   2.161   4.896 -0.7628 -1.7625  1.4060
  711TIP3   OH2 2138   1.912   5.424   1.933 -0.2732  0.3432  0.1679
  711TIP3    H1 2139   1.877   5.471   2.008  0.3478  0.2522  0.5194
  711TIP3    H2 2140   1.844   5.432   1.866 -0.4081  1.2635  0.4045
  712TIP3   OH2 2141   5.806   0.326   5.067  0.0416  0.2006  0.0632
  712TIP3    H1 2142   5.790   0.241   5.108  0.4203  0.3586  0.5539
  712TIP3    H2 2143   5.849   0.305   4.984  2.0269 -0.0560  1.0760
  713TIP3   OH2 2144   3.706   4.453   1.426  0.2332 -0.3388 -0.5259
  713TIP3    H1 2145   3.788   4.436   1.473 -0.3794  0.7558  1.0124
  713TIP3    H2 2146   3.639   4.409   1.478 -0.3740  0.2502 -0.8018
  714TIP3   OH2 2147   3.766   0.256   4.053  0.3998 -0.0134 -0.5259
  714TIP3    H1 2148   3.824   0.249   3.977 -0.1318 -1.1127 -0.8374
  714TIP3    H2 2149   3.753   0.166   4.082 -2.9801 -0.1012 -1.8677
  715TIP3   OH2 2150   5.913   3.003   0.421  0.3869 -0.0562 -0.4114
  715TIP3    H1 2151   5.849   3.066   0.387  2.6877  2.0215 -1.1024
  715TIP3    H2 2152   5.957   2.969   0.344  0.8804 -0.6311  0.1171
  716TIP3   OH2 2153   0.551   0.776   1.219 -0.4094  0.0135  0.4713
  716TIP3    H1 2154   0.529   0.869   1.221  1.0842  0.5272 -1.8535
  716TIP3    H2 2155   0.469   0.731   1.238 -1.4850  1.8013  0.3085
  717TIP3   OH2 2156   0.607   4.672   1.754  0.3839  0.3916 -0.0196
  717TIP3    H1 2157   0.656   4.723   1.688 -0.0525  1.2658  0.3114
  717TIP3    H2 2158   0.618   4.722   1.835 -0.2011  0.0491  0.2735
  718TIP3   OH2 2159   3.390   4.639   2.769  0.1936 -0.1869 -0.3426
  718TIP3    H1 2160   3.446   4.641   2.847 -0.7140  1.3511  0.3219
  718TIP3    H2 2161   3.412   4.556   2.726  1.5098 -0.5612  0.9548
  719TIP3   OH2 2162   2.625   5.894   4.521  0.2317 -0.1878 -0.3815
  719TIP3    H1 2163   2.613   5.946   4.441  1.0643  2.4857  1.1025
  719TIP3    H2 2164   2.704   5.930   4.561 -0.1523 -1.4620  1.6537
  720TIP3   OH2 2165   5.849   1.983   1.253 -0.3973 -0.2361  0.3950
  720TIP3    H1 2166   5.775   1.950   1.202 -0.9767 -0.0956  1.1118
  720TIP3    H2 2167   5.810   2.009   1.337  0.2325  1.1721  0.2818
  721TIP3   OH2 2168   5.066   0.831   3.485  0.3916 -0.3971 -0.5288
  721TIP3    H1 2169   5.012   0.846   3.407 -0.8704  0.7994  0.5285
  721TIP3    H2 2170   5.058   0.737   3.502  0.4497 -0.6237 -1.6509
  722TIP3   OH2 2171   3.712   0.519   1.375 -0.1749 -0.5261  0.4920
  722TIP3    H1 2172   3.763   0.438   1.367  1.9322  0.8472 -0.8067
  722TIP3    H2 2173   3.774   0.583   1.409 -1.0493  1.1841 -1.0052
  723TIP3   OH2 2174   0.827   4.471   3.421 -0.6365 -0.2255 -0.3362
  723TIP3    H1 2175   0.798   4.508   3.337  0.2210 -0.7117 -0.8665
  723TIP3    H2 2176   0.909   4.427   3.400  0.8328  1.5994  1.2085
  724TIP3   OH2 2177   4.382   3.852   1.016 -0.1408  0.2577 -0.1661
  724TIP3    H1 2178   4.435   3.878   0.940 -1.2646  0.4961 -0.8904
  724TIP3    H2 2179   4.401   3.919   1.081 -1.2659  1.6985 -1.2309
  725TIP3   OH2 2180   6.299   1.462   0.226  0.4408  0.3311  0.0121
  725TIP3    H1 2181   6.327   1.553   0.238  1.1713  0.0283  0.6159
  725TIP3    H2 2182   6.245   1.465   0.147  1.1961  1.1396 -0.4996
  726TIP3   OH2 2183   3.688   5.202   2.883 -0.0877  0.1290 -0.0569
  726TIP3    H1 2184   3.673   5.209   2.788 -0.8710  0.5196  0.0868
  726TIP3    H2 2185   3.780   5.178   2.891  0.0252  0.2425 -0.9152
  727TIP3   OH2 2186   2.218   3.614   1.752  0.1664 -0.4852  0.0128
  727TIP3    H1 2187   2.191   3.600   1.661  0.7766  0.2258 -0.2884
  727TIP3    H2 2188   2.262   3.699   1.751 -0.9993  0.1675  1.2374
  728TIP3   OH2 2189   2.654   0.664   1.979  0.3184  0.0648  0.1073
  728TIP3    H1 2190   2.667   0.746   2.027  0.6222 -0.5188  1.0475
  728TIP3    H2 2191   2.576   0.626   2.018  0.5842 -0.4290  0.1603
  729TIP3   OH2 2192   5.492   4.120   4.215 -0.0720  0.0737  0.7599
  729TIP3    H1 2193   5.402   4.149   4.227  0.0061  0.6162  0.1133
  729TIP3    H2 2194   5.499   4.039   4.267 -1.0277 -0.1714  0.5201
  730TIP3   OH2 2195   3.714   4.765   4.102 -0.0468  0.5680  0.6113
  730TIP3    H1 2196   3.693   4.838   4.044  0.8624  0.7026  0.4237
  730TIP3    H2 2197   3.795   4.729   4.066  0.3065  0.3884  1.5529
  731TIP3   OH2 2198   4.037   1.449   2.029  0.6958  0.3934 -0.3740
  731TIP3    H1 2199   3.995   1.463   2.114  1.9543 -0.5216  0.4392
  731TIP3    H2 2200   4.127   1.427   2.050  0.8211 -0.7456 -1.9138
  732TIP3   OH2 2201   1.822   5.774   0.772  0.2081  0.0074  0.1265
  732TIP3    H1 2202   1.736   5.737   0.753 -0.0885  0.7933 -0.0833
  732TIP3    H2 2203   1.840   5.833   0.699  0.2787  0.9473  0.8884
  733TIP3   OH2 2204   2.555   2.617   1.734 -0.2791 -0.6050 -0.5194
  733TIP3    H1 2205   2.513   2.666   1.805 -0.4695 -2.3785  0.6793
  733TIP3    H2 2206   2.538   2.668   1.655  0.2784  1.6618  0.7339
  734TIP3   OH2 2207   1.245   2.090   1.638  0.2086 -0.0885  0.3018
  734TIP3    H1 2208   1.189   2.012   1.647  1.4441 -0.8938  1.2494
  734TIP3    H2 2209   1.233   2.117   1.547 -2.6150  0.4921  0.7492
  735TIP3   OH2 2210   6.014   5.923   1.766  0.2457 -0.0011 -0.1864
  735TIP3    H1 2211   5.995   6.008   1.804 -0.5442  0.1627 -0.9094
  735TIP3    H2 2212   6.054   5.943   1.681  0.1613 -0.3388 -0.3102
  736TIP3   OH2 2213   5.246   4.826   5.085 -0.4477  0.7317 -0.4072
  736TIP3    H1 2214   5.216   4.838   5.175 -1.7551 -2.7371 -0.2641
  736TIP3    H2 2215   5.177   4.866   5.032 -1.9783 -1.0917  0.1014
  737TIP3   OH2 2216   0.146   5.134   3.229  0.0555  0.0029 -0.5350
  737TIP3    H1 2217   0.059   5.144   3.190 -0.9715 -3.0005  0.6551
  737TIP3    H2 2218   0.193   5.074   3.170  0.8376  0.5535 -0.4826
  738TIP3   OH2 2219   3.416   4.289   1.164 -0.4531 -0.4885  0.2829
  738TIP3    H1 2220   3.409   4.269   1.257 -2.8852  2.9056  1.0051
  738TIP3    H2 2221   3.507   4.316   1.152 -0.7878  2.0500  2.5044
  739TIP3   OH2 2222   0.293   5.908   4.203  0.2874 -0.2573  0.1419
  739TIP3    H1 2223   0.361   5.972   4.180  0.6236 -0.1694  1.3328
  739TIP3    H2 2224   0.278   5.921   4.297 -0.6064 -1.0178  0.1201
  740TIP3   OH2 2225   5.634   4.722   2.034  0.2429  0.5100 -0.1181
  740TIP3    H1 2226   5.609   4.814   2.024  0.4984  0.8370  1.9252
  740TIP3    H2 2227   5.719   4.716   1.991 -0.9570  0.5341 -2.7129
  741TIP3   OH2 2228   5.341   1.572   2.370  0.6115 -0.6121  0.0421
  741TIP3    H1 2229   5.302   1.657   2.390 -1.0433 -1.7887  2.3181
  741TIP3    H2 2230   5.308   1.550   2.282  0.8982  0.9621 -0.4817
  742TIP3   OH2 2231   1.289   4.240   5.164  0.6914  0.5057 -0.0932
  742TIP3    H1 2232   1.347   4.192   5.223 -0.6678 -0.9912  0.0882
  742TIP3    H2 2233   1.273   4.179   5.092 -0.9440  0.7134  0.0555
  743TIP3   OH2 2234   4.043   1.870   0.188  0.5251  0.4399 -0.3553
  743TIP3    H1 2235   3.989   1.823   0.251  1.6787  0.5739  0.7747
  743TIP3    H2 2236   4.075   1.803   0.128  0.4092  0.1240 -0.0640
  744TIP3   OH2 2237   5.931   5.587   2.726 -0.0510 -0.1708 -0.0737
  744TIP3    H1 2238   5.917   5.498   2.759 -1.7072 -0.0906 -0.4599
  744TIP3    H2 2239   5.975   5.576   2.642  0.7438 -0.5547  0.3812
  745TIP3   OH2 2240   6.262   2.997   0.481  0.2058  1.3754 -0.5661
  745TIP3    H1 2241   6.317   2.947   0.421  0.9705  2.2262 -0.5905
  745TIP3    H2 2242   6.191   2.937   0.504  0.6873  0.5500 -1.1901
  746TIP3   OH2 2243   2.352   4.396   0.581 -0.4175 -1.0666  0.0574
  746TIP3    H1 2244   2.345   4.484   0.543 -1.4763 -0.3691  1.7587
  746TIP3    H2 2245   2.446   4.376   0.576  0.0258  0.6441  0.6286
  747TIP3   OH2 2246   2.158   4.295   2.251 -0.1381  0.5297  0.2138
  747TIP3    H1 2247   2.234   4.354   2.253 -0.6941  1.3177 -0.9585
  747TIP3    H2 2248   2.083   4.352   2.234 -0.4045 -0.6683 -3.7101
  748TIP3   OH2 2249   3.106   2.532   0.468 -0.3846 -0.0374 -0.1612
  748TIP3    H1 2250   3.115   2.626   0.449  0.0543  0.6013  2.7196
  748TIP3    H2 2251   3.019   2.523   0.507  0.1304 -0.4989  0.9572
  749TIP3   OH2 2252   2.984   3.818   1.381  0.2644  0.4899 -0.3251
  749TIP3    H1 2253   2.966   3.728   1.409 -0.8911  0.8248  0.0759
  749TIP3    H2 2254   3.026   3.809   1.295 -0.2357 -0.4193 -0.4865
  750TIP3   OH2 2255   0.635   5.350   0.387 -0.1833  0.1017 -0.1278
  750TIP3    H1 2256   0.588   5.389   0.460  0.6036  2.6613 -0.9051
  750TIP3    H2 2257   0.721   5.328   0.422 -0.8393 -1.7250  0.4837
  751TIP3   OH2 2258   1.036   4.285   1.179 -0.3855 -0.2120 -0.4945
  751TIP3    H1 2259   1.038   4.205   1.232  2.7547 -0.3584 -0.6530
  751TIP3    H2 2260   1.013   4.254   1.091 -0.0208 -0.8297 -0.3779
  752TIP3   OH2 2261   5.326   5.531   2.548 -0.4626 -0.1405 -0.1668
  752TIP3    H1 2262   5.419   5.521   2.526 -0.5608  0.7919 -1.0727
  752TIP3    H2 2263   5.285   5.452   2.514 -0.3083  0.4107 -1.7089
  753TIP3   OH2 2264   1.368   0.996   5.042 -0.3606  0.0366  0.0319
  753TIP3    H1 2265   1.411   0.933   5.100  3.2731  3.2441  1.2359
  753TIP3    H2 2266   1.432   1.015   4.974 -2.2484  0.7473 -1.6608
  754TIP3   OH2 2267   0.432   2.643   4.030 -0.0994 -0.1045  0.0249
  754TIP3    H1 2268   0.369   2.714   4.044  1.3935  1.0709  1.0209
  754TIP3    H2 2269   0.392   2.567   4.072 -0.0906  1.0414  2.2207
  755TIP3   OH2 2270   4.868   2.494   0.762 -0.1789  0.1553 -0.0316
  755TIP3    H1 2271   4.808   2.423   0.739  0.9102 -0.6194 -0.5854
  755TIP3    H2 2272   4.844   2.566   0.702 -2.3223  0.8893  1.5734
  756TIP3   OH2 2273   5.808   2.917   2.115 -0.1742 -0.0199  0.6705
  756TIP3    H1 2274   5.826   2.978   2.186 -1.1694 -0.9956  1.8036
  756TIP3    H2 2275   5.845   2.834   2.145 -0.6100 -0.4458  0.0499
  757TIP3   OH2 2276   1.675   1.649   1.715  0.1550  0.0618  0.5911
  757TIP3    H1 2277   1.607   1.602   1.667 -0.3211 -0.8829  2.1316
  757TIP3    H2 2278   1.628   1.719   1.760  0.2783 -0.2426  1.2035
  758TIP3   OH2 2279   0.957   2.688   1.821  0.7332  0.1313 -0.3569
  758TIP3    H1 2280   0.892   2.690   1.752  0.8998 -0.5204 -0.5349
  758TIP3    H2 2281   0.966   2.780   1.849 -2.3534 -0.0559  1.6836
  759TIP3   OH2 2282   5.803   0.982   2.315  0.0288 -0.3205 -0.3803
  759TIP3    H1 2283   5.810   0.936   2.399  1.8409 -0.8542 -0.7722
  759TIP3    H2 2284   5.764   1.067   2.337  0.8919 -0.2672  1.0891
  760TIP3   OH2 2285   3.336   4.863   1.410  0.2158  0.0087  0.1428
  760TIP3    H1 2286   3.418   4.848   1.457 -0.0161  0.3929  0.6914
  760TIP3    H2 2287   3.293   4.933   1.460 -0.4461 -0.1981 -0.1305
  761TIP3   OH2 2288   0.659   5.572   4.476  0.3368  0.3108  0.6894
  761TIP3    H1 2289   0.603   5.640   4.438  0.8076 -0.6214 -1.8684
  761TIP3    H2 2290   0.748   5.601   4.456  0.6282  0.0592  1.6131
  762TIP3   OH2 2291   1.270   5.001   3.800  0.1749  0.4771 -0.3863
  762TIP3    H1 2292   1.188   5.041   3.771 -0.4620 -0.1041  0.5650
  762TIP3    H2 2293   1.253   4.907   3.794  0.4108  0.3486  0.8059
  763TIP3   OH2 2294   3.408   2.099   5.005  0.1766 -0.1506 -0.1852
  763TIP3    H1 2295   3.440   2.188   4.992  0.4917 -0.3560 -0.8752
  763TIP3    H2 2296   3.370   2.075   4.920  0.7006 -0.9096 -0.2155
  764TIP3   OH2 2297   4.933   1.596   4.043 -0.5201  0.5690  0.2099
  764TIP3    H1 2298   4.947   1.597   3.949  1.4462 -0.5851  0.4432
  764TIP3    H2 2299   4.880   1.519   4.060 -3.1482  2.1929 -0.1589
  765TIP3   OH2 2300   3.036   3.660   3.530  0.1260 -0.6644  0.0583
  765TIP3    H1 2301   3.103   3.634   3.593  2.1840 -2.9965 -2.7595
  765TIP3    H2 2302   3.076   3.732   3.481 -1.2306  0.7830  1.0119
  766TIP3   OH2 2303   1.188   4.500   1.266 -0.2256  0.1395 -0.2036
  766TIP3    H1 2304   1.267   4.487   1.214 -0.4002  0.9983 -0.7042
  766TIP3    H2 2305   1.124   4.439   1.229 -0.3483  0.7468 -1.0120
  767TIP3   OH2 2306   2.462   3.628   1.455  0.5475 -0.9965  0.2273
  767TIP3    H1 2307   2.530   3.681   1.497  0.7115 -1.1356  0.1427
  767TIP3    H2 2308   2.393   3.690   1.433  1.7092 -0.3601 -1.9732
  768TIP3   OH2 2309   1.797   3.272   1.802  0.1960  0.2052  0.3023
  768TIP3    H1 2310   1.799   3.222   1.884  1.0332  0.2822  0.3407
  768TIP3    H2 2311   1.881   3.251   1.759 -0.5152 -0.3711 -0.8567
  769TIP3   OH2 2312   2.236   0.925   4.086  0.4006  0.1003  0.1240
  769TIP3    H1 2313   2.166   0.951   4.025 -0.2669 -2.2376 -0.2089
  769TIP3    H2 2314   2.190   0.908   4.168  0.7378 -0.2916  0.2351
  770TIP3   OH2 2315   3.547   1.565   4.308 -0.2002  0.0279 -0.2579
  770TIP3    H1 2316   3.511   1.647   4.273  0.5884  0.7935  0.6753
  770TIP3    H2 2317   3.638   1.586   4.330 -0.0999 -1.0013  0.3605
  771TIP3   OH2 2318   2.805   3.917   2.225 -0.1857  0.1988 -0.0076
  771TIP3    H1 2319   2.856   3.885   2.150 -0.7122 -0.2413 -0.1776
  771TIP3    H2 2320   2.830   3.860   2.297  0.1231  0.4569  0.0918
  772TIP3   OH2 2321   4.330   6.007   1.869 -0.7227 -0.4388 -0.3178
  772TIP3    H1 2322   4.260   5.989   1.932 -0.7877 -0.2776 -0.3435
  772TIP3    H2 2323   4.395   5.939   1.886  0.2983  0.8877  1.4595
  773TIP3   OH2 2324   4.027   3.657   0.139  0.5450  0.4470  0.1813
  773TIP3    H1 2325   4.119   3.669   0.164 -0.0611  2.8825  1.5953
  773TIP3    H2 2326   3.991   3.598   0.205  1.1026 -0.7054 -0.5128
  774TIP3   OH2 2327   0.595   2.417   4.332 -0.3530 -0.1345 -0.2919
  774TIP3    H1 2328   0.650   2.486   4.295 -0.6088 -0.5444 -1.4503
  774TIP3    H2 2329   0.654   2.368   4.390  0.4898 -0.4623 -1.3892
  775TIP3   OH2 2330   1.308   5.018   4.960  0.4273 -0.3616 -0.4096
  775TIP3    H1 2331   1.294   4.925   4.980  0.7592 -0.3069  0.1009
  775TIP3    H2 2332   1.329   5.020   4.867  1.2585 -0.8914 -0.2398
  776TIP3   OH2 2333   1.572   0.725   2.729  0.0533  0.4773  0.4288
  776TIP3    H1 2334   1.646   0.751   2.673 -0.7780 -0.6901 -1.2868
  776TIP3    H2 2335   1.605   0.651   2.780 -0.2291 -0.7444 -1.1209
  777TIP3   OH2 2336   1.461   1.084   2.350  0.5165  0.3372 -0.1793
  777TIP3    H1 2337   1.401   1.153   2.321  1.6095  0.8798 -1.2150
  777TIP3    H2 2338   1.512   1.124   2.420  1.0357  0.5366 -0.6661
  778TIP3   OH2 2339   5.644   0.952   3.198  0.2911 -0.2574 -0.4049
  778TIP3    H1 2340   5.696   1.030   3.214 -1.2983  0.4901  1.4498
  778TIP3    H2 2341   5.611   0.926   3.284 -1.2193 -1.5240 -1.3065
  779TIP3   OH2 2342   1.106   4.504   2.312  0.1815  0.1600  0.6515
  779TIP3    H1 2343   1.098   4.495   2.217 -2.2452  0.3410  0.7766
  779TIP3    H2 2344   1.183   4.452   2.335  0.9155  0.2642 -1.4225
  780TIP3   OH2 2345   4.183   2.499   5.064 -0.4712 -0.0092  0.6924
  780TIP3    H1 2346   4.118   2.505   5.134 -1.8041  0.0301 -0.5017
  780TIP3    H2 2347   4.200   2.590   5.039 -1.8058 -0.0881 -0.6089
  781TIP3   OH2 2348   1.396   5.728   1.544  0.0422  0.4365 -0.7907
  781TIP3    H1 2349   1.302   5.712   1.532  0.0917 -0.4047 -0.2126
  781TIP3    H2 2350   1.437   5.644   1.522  0.1853 -1.1375  4.2208
  782TIP3   OH2 2351   5.374   0.473   2.302 -0.0128 -0.4330 -0.1723
  782TIP3    H1 2352   5.384   0.557   2.348 -1.5376 -0.1275 -0.3530
  782TIP3    H2 2353   5.424   0.484   2.221  0.6815 -0.0888  0.2988
  783TIP3   OH2 2354   0.074   3.127   2.775 -0.1923 -0.4874 -0.7531
  783TIP3    H1 2355   0.143   3.178   2.817  0.9218 -1.5423 -1.2361
  783TIP3    H2 2356  -0.008   3.163   2.811  0.6636 -1.0499  1.9912
  784TIP3   OH2 2357   3.070   0.830   5.150 -0.6445 -0.3340  0.0064
  784TIP3    H1 2358   3.096   0.800   5.062 -0.8436  2.0474 -0.9494
  784TIP3    H2 2359   2.981   0.799   5.161 -2.0328  2.3042 -2.2917
  785TIP3   OH2 2360   5.332   1.354   1.496  0.3087 -0.2850  0.2527
  785TIP3    H1 2361   5.407   1.333   1.439 -0.2609 -2.4202  0.1916
  785TIP3    H2 2362   5.365   1.342   1.585  0.3703 -0.0167  0.2655
  786TIP3   OH2 2363   2.727   3.706   2.745 -0.0218 -0.3571 -0.4260
  786TIP3    H1 2364   2.728   3.686   2.652 -0.2840 -0.6318 -0.3706
  786TIP3    H2 2365   2.664   3.645   2.782 -0.1756 -0.0150 -0.1202
  787TIP3   OH2 2366   0.500   3.624   3.287  0.2593  0.0872  0.1157
  787TIP3    H1 2367   0.546   3.595   3.208  0.2621  0.0565  0.1287
  787TIP3    H2 2368   0.450   3.700   3.258  1.3971  0.9820  0.4253
  788TIP3   OH2 2369   1.337   3.659   3.791  0.5997 -0.6683 -0.4188
  788TIP3    H1 2370   1.416   3.604   3.785  0.2905 -1.0628 -0.9499
  788TIP3    H2 2371   1.292   3.645   3.708  1.2567  1.5535 -1.2217
  789TIP3   OH2 2372   0.555   4.549   2.690  0.0821  0.0769 -0.0436
  789TIP3    H1 2373   0.537   4.463   2.651 -1.0389 -0.3409  1.3346
  789TIP3    H2 2374   0.505   4.550   2.771  1.8993  1.1427  1.1433
  790TIP3   OH2 2375   3.566   4.191   3.546  0.2800  0.2059  0.1107
  790TIP3    H1 2376   3.610   4.256   3.491  0.6179 -0.0940  0.0179
  790TIP3    H2 2377   3.624   4.114   3.543  0.0247 -0.0033  0.4398
  791TIP3   OH2 2378   1.065   3.440   2.358  0.3562  0.0676 -0.3661
  791TIP3    H1 2379   1.080   3.517   2.413  3.6408  1.7982 -3.2789
  791TIP3    H2 2380   0.988   3.462   2.306 -0.2314  0.2364  0.5520
  792TIP3   OH2 2381   4.488   3.351   2.162 -0.6966  0.1598  0.0063
  792TIP3    H1 2382   4.500   3.259   2.183  0.2089  0.0299 -0.9944
  792TIP3    H2 2383   4.557   3.396   2.213 -2.1012  0.4855  1.7102
  793TIP3   OH2 2384   3.868   3.683   0.788  0.0060  0.2385 -0.0118
  793TIP3    H1 2385   3.792   3.738   0.769  0.2826 -0.0268 -2.2048
  793TIP3    H2 2386   3.939   3.745   0.804 -0.4224  0.4889  0.9618
  794TIP3   OH2 2387   5.850   5.954   2.220 -0.4538  0.1889  0.4864
  794TIP3    H1 2388   5.882   6.042   2.239 -0.8254  0.4417 -0.0483
  794TIP3    H2 2389   5.755   5.963   2.217 -0.4325  0.2298 -1.6836
  795TIP3   OH2 2390   4.985   2.658   0.521 -0.3210  0.6463  0.6258
  795TIP3    H1 2391   4.923   2.711   0.572  0.9014  0.9120  1.8990
  795TIP3    H2 2392   5.069   2.704   0.530 -0.2674  1.4606 -2.7851
  796TIP3   OH2 2393   0.972   3.952   2.540 -0.1613 -0.4284  0.2646
  796TIP3    H1 2394   0.986   3.914   2.627  0.1067 -0.8664  0.0336
  796TIP3    H2 2395   1.056   3.942   2.495  0.6024  2.3303  0.8876
  797TIP3   OH2 2396   3.182   5.406   1.740 -0.0340 -0.0304 -0.3738
  797TIP3    H1 2397   3.216   5.479   1.791  0.9514  0.5140 -1.7564
  797TIP3    H2 2398   3.150   5.344   1.805  0.1818  1.1119  0.8552
  798TIP3   OH2 2399   3.770   4.595   0.496 -0.0142 -0.1750 -0.6645
  798TIP3    H1 2400   3.857   4.562   0.517 -0.8204 -0.6613  2.4570
  798TIP3    H2 2401   3.785   4.682   0.460  1.7817  0.3563  1.1380
  799TIP3   OH2 2402   1.643   4.194   2.162  0.1972  0.9203 -0.2645
  799TIP3    H1 2403   1.662   4.128   2.229 -0.2369  2.0341  0.9946
  799TIP3    H2 2404   1.600   4.145   2.092 -1.2907  0.0393  1.1867
  800TIP3   OH2 2405   3.239   1.733   2.685 -0.5333  0.3477 -0.1383
  800TIP3    H1 2406   3.270   1.804   2.741  1.1874 -0.4617  0.0011
  800TIP3    H2 2407   3.287   1.656   2.716 -1.6205 -0.6751 -0.9294
  801TIP3   OH2 2408   1.593   1.767   1.369 -0.0199 -0.1216  0.3126
  801TIP3    H1 2409   1.640   1.689   1.337  1.6513  0.3173  1.5358
  801TIP3    H2 2410   1.570   1.745   1.459 -0.1050  0.5668  0.4600
  802TIP3   OH2 2411   4.902   1.052   1.755  0.4619 -0.3937  0.4820
  802TIP3    H1 2412   4.996   1.057   1.740  0.4359 -0.7356  0.2096
  802TIP3    H2 2413   4.885   1.118   1.823  0.9463 -0.5702  0.7781
  803TIP3   OH2 2414   3.756   4.012   1.839 -0.2978  0.3147  0.1887
  803TIP3    H1 2415   3.662   4.001   1.854 -0.5355 -0.5715 -1.6546
  803TIP3    H2 2416   3.796   3.943   1.892 -0.7892 -0.2213 -0.1250
  804TIP3   OH2 2417   4.655   2.283   3.302  0.3628  0.0589 -0.3906
  804TIP3    H1 2418   4.564   2.312   3.315 -0.3572 -2.1927 -0.0196
  804TIP3    H2 2419   4.688   2.266   3.390  0.8297 -0.0382 -0.5803
  805TIP3   OH2 2420   6.380   1.836   4.078 -0.2341 -0.0698 -0.2163
  805TIP3    H1 2421   6.289   1.819   4.055 -0.1819  0.5274 -0.9047
  805TIP3    H2 2422   6.379   1.922   4.119  0.1563  0.4295 -1.2174
  806TIP3   OH2 2423   5.836   3.761   1.336 -0.0625 -0.4717 -0.0410
  806TIP3    H1 2424   5.928   3.785   1.342  0.0055 -0.4501 -1.0122
  806TIP3    H2 2425   5.837   3.669   1.310 -0.2885 -0.0508 -1.6442
  807TIP3   OH2 2426   3.845   0.222   3.549 -0.4763 -0.2115  0.0766
  807TIP3    H1 2427   3.777   0.252   3.610  1.4944  0.2745  2.1845
  807TIP3    H2 2428   3.870   0.299   3.500  0.3090  0.2409  1.1451
  808TIP3   OH2 2429   3.012   5.767   4.650 -0.4190 -0.4518 -0.6465
  808TIP3    H1 2430   3.095   5.725   4.628  0.2095  0.6189 -0.3881
  808TIP3    H2 2431   3.034   5.830   4.718 -1.4566 -0.1767 -0.5447
  809TIP3   OH2 2432   0.221   1.163   0.797 -0.3033 -0.0957 -0.1261
  809TIP3    H1 2433   0.281   1.238   0.801 -0.6493  0.2873 -1.5408
  809TIP3    H2 2434   0.275   1.091   0.764  0.3130 -0.8306  2.2695
  810TIP3   OH2 2435   0.599   0.296   4.937  0.1115 -0.3184 -0.3746
  810TIP3    H1 2436   0.626   0.217   4.889 -0.8283 -0.6513 -0.3806
  810TIP3    H2 2437   0.543   0.263   5.007 -2.8740  0.5233 -2.2119
  811TIP3   OH2 2438   4.483   4.724   1.409  0.0220 -0.8483  0.0947
  811TIP3    H1 2439   4.486   4.654   1.475  3.1944 -1.0427 -0.1038
  811TIP3    H2 2440   4.454   4.801   1.457 -0.9204 -1.6833  0.9200
  812TIP3   OH2 2441   3.930   3.140   3.165  0.2923  0.2387  0.2305
  812TIP3    H1 2442   3.887   3.220   3.133  0.5205 -0.4053 -1.8549
  812TIP3    H2 2443   3.861   3.074   3.162 -0.9819  0.9205  5.4382
  813TIP3   OH2 2444   5.121   5.872   0.575 -0.6397  0.2096  0.7499
  813TIP3    H1 2445   5.067   5.823   0.512  0.7824 -3.4081  2.0394
  813TIP3    H2 2446   5.060   5.898   0.644 -1.3369 -0.7787  0.5366
  814TIP3   OH2 2447   4.567   4.501   0.412 -0.5578  0.6372  0.3233
  814TIP3    H1 2448   4.655   4.463   0.408 -0.7994 -0.0844  1.5213
  814TIP3    H2 2449   4.509   4.433   0.377 -0.8318  0.4210  1.1802
  815TIP3   OH2 2450   0.142   3.070   2.050  0.1301  0.0025  0.0276
  815TIP3    H1 2451   0.116   3.149   2.097 -0.1761 -0.2924  0.3590
  815TIP3    H2 2452   0.060   3.025   2.031  0.3474 -0.6440  0.5653
  816TIP3   OH2 2453   4.754   4.016   2.985 -0.0818  0.3131 -0.3114
  816TIP3    H1 2454   4.715   4.029   3.072  1.3812  1.1331  0.2529
  816TIP3    H2 2455   4.792   4.101   2.962 -0.7810  0.2237 -1.9596
  817TIP3   OH2 2456   6.023   5.265   4.787 -0.2301 -0.1727 -0.2446
  817TIP3    H1 2457   6.005   5.347   4.741  0.9832  0.2584 -0.0022
  817TIP3    H2 2458   6.039   5.292   4.877  0.3364 -0.6580 -0.1981
  818TIP3   OH2 2459   3.379   3.517   4.107 -0.2087  0.1592  0.0908
  818TIP3    H1 2460   3.343   3.495   4.022  0.5708 -1.2114  0.0862
  818TIP3    H2 2461   3.409   3.608   4.098 -1.8657  0.6805 -0.4682
  819TIP3   OH2 2462   2.318  -0.003   2.771  0.2786 -0.1139 -0.1670
  819TIP3    H1 2463   2.234   0.030   2.737 -0.0843  1.8844  2.3247
  819TIP3    H2 2464   2.366   0.076   2.796  1.8873 -1.3209  0.7284
  820TIP3   OH2 2465   5.702   0.193   1.129  0.4940  0.2813  0.3606
  820TIP3    H1 2466   5.679   0.222   1.040 -0.4205  1.1915  0.8708
  820TIP3    H2 2467   5.622   0.149   1.161  0.1899  1.5192  1.3615
  821TIP3   OH2 2468   2.785   4.502   0.956  0.5936 -0.5964  0.6825
  821TIP3    H1 2469   2.707   4.458   0.924  0.2872  0.8183 -0.6329
  821TIP3    H2 2470   2.857   4.463   0.906  0.2129  0.9874 -1.2385
  822TIP3   OH2 2471   3.465   3.068   3.280  0.1941 -0.5956 -0.2834
  822TIP3    H1 2472   3.460   2.972   3.279  1.9661 -0.7372 -2.3807
  822TIP3    H2 2473   3.389   3.096   3.228  1.2533 -1.0573 -2.1747
  823TIP3   OH2 2474   3.419   1.531   0.531  0.0520  0.2437 -0.1596
  823TIP3    H1 2475   3.511   1.538   0.506  0.0227 -2.1017 -1.1952
  823TIP3    H2 2476   3.408   1.440   0.558 -1.4313  1.0925  2.4354
  824TIP3   OH2 2477   0.840   4.229   1.731  0.1352  0.1494  0.3512
  824TIP3    H1 2478   0.778   4.283   1.779 -0.0005 -0.0289  0.3787
  824TIP3    H2 2479   0.788   4.154   1.700 -0.0394  0.8173 -1.0424
  825TIP3   OH2 2480   2.350   4.028   1.237  0.1914 -0.1780  0.4399
  825TIP3    H1 2481   2.362   4.105   1.293  1.3375 -0.9329  1.2904
  825TIP3    H2 2482   2.329   4.063   1.151  2.9364  1.2162  0.2308
  826TIP3   OH2 2483   4.242   4.465   3.711 -0.6731  0.0166 -0.4635
  826TIP3    H1 2484   4.207   4.551   3.690  0.7538  1.3495  2.1649
  826TIP3    H2 2485   4.331   4.466   3.677 -0.7135 -0.5127 -0.5944
  827TIP3   OH2 2486   2.903   5.703   1.351  0.1667  0.1813  0.2712
  827TIP3    H1 2487   2.886   5.671   1.439 -1.1327  0.8900  0.3042
  827TIP3    H2 2488   2.894   5.626   1.295 -0.9335  0.0857  0.5613
  828TIP3   OH2 2489   0.836   5.961   3.719  0.4353 -0.3345  0.4285
  828TIP3    H1 2490   0.830   5.950   3.814  0.7165 -1.2847  0.3462
  828TIP3    H2 2491   0.929   5.951   3.699  0.1993 -1.6617 -0.1112
  829TIP3   OH2 2492   5.413   3.471   0.067 -0.4448  0.0738  0.8384
  829TIP3    H1 2493   5.353   3.413   0.020  0.1700  1.6990 -2.2189
  829TIP3    H2 2494   5.500   3.436   0.048 -0.1120  1.4901 -0.4493
  830TIP3   OH2 2495   5.216   0.897   3.230 -0.1614  0.6746 -0.8058
  830TIP3    H1 2496   5.130   0.859   3.215  0.0836 -1.9321  2.9039
  830TIP3    H2 2497   5.274   0.822   3.240  1.8476  2.2367  0.0833
  831TIP3   OH2 2498   4.190   3.573   1.909  0.3332 -0.0045 -0.5079
  831TIP3    H1 2499   4.200   3.662   1.942 -1.0384  0.7776 -2.0295
  831TIP3    H2 2500   4.259   3.564   1.843  0.5743 -0.1491 -0.2417
  832TIP3   OH2 2501   4.397   1.721   4.281 -0.3864  0.0125 -0.6958
  832TIP3    H1 2502   4.436   1.773   4.211  0.1008  3.8823  2.1307
  832TIP3    H2 2503   4.471   1.673   4.319 -0.1226  0.1665 -1.0080
  833TIP3   OH2 2504   5.859   5.706   4.469  0.3906  0.2327 -0.0995
  833TIP3    H1 2505   5.926   5.747   4.524 -0.3070  0.3864  0.6590
  833TIP3    H2 2506   5.827   5.778   4.413  2.3245 -0.2995 -1.9987
  834TIP3   OH2 2507   2.908   3.614   4.788 -0.2959 -0.1863 -0.1928
  834TIP3    H1 2508   2.995   3.654   4.777 -1.6841  2.5939 -2.3555
  834TIP3    H2 2509   2.920   3.551   4.859  2.6928  2.4263  1.9322
  835TIP3   OH2 2510   4.456   2.983   5.008  0.1516 -0.1025  0.3811
  835TIP3    H1 2511   4.500   3.055   4.963 -0.0801  0.6496  1.3396
  835TIP3    H2 2512   4.517   2.958   5.078 -0.6931  0.6180  1.4030
  836TIP3   OH2 2513   4.975   2.406   0.394 -0.2598 -0.4981  0.5708
  836TIP3    H1 2514   4.971   2.485   0.448  2.0495  1.2148 -1.4916
  836TIP3    H2 2515   4.884   2.377   0.386 -1.2102  1.9957  1.3779
  837TIP3   OH2 2516   4.953   2.534   3.340  0.4289 -0.1554  0.4004
  837TIP3    H1 2517   4.954   2.470   3.269  1.8333 -0.8616  1.0217
  837TIP3    H2 2518   4.930   2.617   3.298 -0.0195 -0.8007 -0.6474
  838TIP3   OH2 2519   1.144   1.129   1.190 -0.1849  0.0311  0.2363
  838TIP3    H1 2520   1.061   1.171   1.209  0.4064  1.5937 -0.4315
  838TIP3    H2 2521   1.121   1.050   1.142 -1.2583  0.9973 -0.9116
  839TIP3   OH2 2522   4.663   0.824   2.917 -0.4603 -0.4247 -0.0000
  839TIP3    H1 2523   4.666   0.841   2.823 -1.3834 -2.7431 -0.5110
  839TIP3    H2 2524   4.591   0.762   2.928 -1.2548  0.7888  2.4406
  840TIP3   OH2 2525   5.210   1.581   1.718 -0.5342 -0.1655  0.5646
  840TIP3    H1 2526   5.300   1.573   1.748 -0.0633 -0.4267 -0.8314
  840TIP3    H2 2527   5.157   1.540   1.787  0.4874 -0.8570  0.9533
  841TIP3   OH2 2528   1.015   2.739   4.115  0.5373  0.0579  0.1545
  841TIP3    H1 2529   1.032   2.808   4.178  0.0081  0.7771 -0.4798
  841TIP3    H2 2530   1.101   2.699   4.101  0.8464  0.5682  0.5440
  842TIP3   OH2 2531   0.903   1.363   4.254 -0.0873 -0.6298 -0.7686
  842TIP3    H1 2532   0.917   1.404   4.339 -0.4112 -1.2140 -0.4296
  842TIP3    H2 2533   0.991   1.340   4.224 -0.0132 -1.0075 -0.2895
  843TIP3   OH2 2534   2.002   5.305   0.673  0.6684 -0.1821  0.4829
  843TIP3    H1 2535   1.988   5.289   0.767 -0.1498 -1.8845  0.1120
  843TIP3    H2 2536   1.952   5.384   0.655  1.3755  0.5469  1.6093
  844TIP3   OH2 2537   0.913   2.115   4.771 -0.0411 -0.1343  0.1027
  844TIP3    H1 2538   0.993   2.165   4.786 -0.2909  0.1584  0.4797
  844TIP3    H2 2539   0.888   2.081   4.857 -0.3143 -0.2293 -0.0111
  845TIP3   OH2 2540   0.923   3.474   0.613 -0.5618  0.0992 -0.1509
  845TIP3    H1 2541   0.963   3.387   0.621  1.6944  0.7931 -2.4405
  845TIP3    H2 2542   0.874   3.470   0.530 -2.1968  0.4368  0.7536
  846TIP3   OH2 2543   2.583   4.348   4.420  0.2253 -0.0028 -0.0990
  846TIP3    H1 2544   2.511   4.322   4.362  0.4145 -0.1192 -0.2861
  846TIP3    H2 2545   2.598   4.440   4.399  0.4822 -0.1180 -0.4480
  847TIP3   OH2 2546   5.059   0.618   4.683  0.0692  0.2815  0.1040
  847TIP3    H1 2547   5.138   0.647   4.638  0.3883 -1.8245 -0.8020
  847TIP3    H2 2548   4.987   0.658   4.635  0.5162  0.9381 -0.0341
  848TIP3   OH2 2549   1.263   1.875   3.621  0.4052  0.0670 -0.1195
  848TIP3    H1 2550   1.198   1.925   3.671  0.2571 -0.4924  0.2486
  848TIP3    H2 2551   1.310   1.824   3.686 -0.1969 -1.1353 -0.5947
  849TIP3   OH2 2552   1.538   3.843   1.337  0.2152 -0.2762  0.3632
  849TIP3    H1 2553   1.455   3.887   1.316  1.0793  1.3054  0.0624
  849TIP3    H2 2554   1.536   3.762   1.287 -0.9982 -0.0890  0.0765
  850TIP3   OH2 2555   1.984   0.210   2.146 -0.3197  0.1888  0.0891
  850TIP3    H1 2556   2.029   0.169   2.219 -2.1199  0.4329  1.4077
  850TIP3    H2 2557   2.052   0.257   2.099  1.3618 -2.1601 -0.0005
  851TIP3   OH2 2558   5.331   2.123   0.662 -0.5674 -0.8077  0.2860
  851TIP3    H1 2559   5.339   2.050   0.723  0.8512 -0.3052  0.7362
  851TIP3    H2 2560   5.267   2.181   0.703  0.9690 -0.0684  1.7803
  852TIP3   OH2 2561   2.149   2.015   3.472 -0.2711 -0.1670 -0.3122
  852TIP3    H1 2562   2.219   1.950   3.472  2.3294  2.4307  0.1123
  852TIP3    H2 2563   2.108   2.006   3.558 -1.5154 -2.6561 -1.0800
  853TIP3   OH2 2564   0.648   0.352   1.149  0.1872  0.1664  0.1599
  853TIP3    H1 2565   0.605   0.379   1.230  2.0194 -2.0846  2.0331
  853TIP3    H2 2566   0.679   0.263   1.167  4.8398  1.2371 -1.1940
  854TIP3   OH2 2567   3.595   4.944   2.886  0.0513  0.7269 -0.0545
  854TIP3    H1 2568   3.577   4.950   2.980  1.4043  0.6006  0.2424
  854TIP3    H2 2569   3.618   5.033   2.860 -0.6240  0.8229 -0.3476
  855TIP3   OH2 2570   0.995   0.941   1.741 -0.1745 -0.3997 -0.2014
  855TIP3    H1 2571   1.047   0.917   1.664 -1.4702 -0.9395 -0.9509
  855TIP3    H2 2572   1.014   1.034   1.754  2.1599 -0.9270  0.5421
  856TIP3   OH2 2573   0.188   1.292   5.085  0.1457  0.7488  0.3331
  856TIP3    H1 2574   0.233   1.210   5.105 -0.3642  0.2707 -0.4378
  856TIP3    H2 2575   0.252   1.342   5.033 -0.4587 -0.2775 -1.4845
  857TIP3   OH2 2576   4.950   0.361   3.933 -0.9324  0.5511 -0.1191
  857TIP3    H1 2577   4.926   0.311   3.855  0.4901 -1.7540  0.8134
  857TIP3    H2 2578   4.870   0.363   3.986 -0.6526 -2.4180  0.6012
  858TIP3   OH2 2579   0.842   1.195   4.887  0.7040 -0.1524  0.2745
  858TIP3    H1 2580   0.919   1.210   4.831  0.7341 -1.1761  0.0134
  858TIP3    H2 2581   0.841   1.100   4.900 -0.4463 -0.1332  0.3817
  859TIP3   OH2 2582   5.042   2.327   1.591  0.0264  0.2007  0.7310
  859TIP3    H1 2583   5.073   2.237   1.585  1.4407  0.7358 -1.0599
  859TIP3    H2 2584   4.952   2.325   1.561  0.0156 -0.6240  0.8206
  860TIP3   OH2 2585   3.800   3.655   4.577  1.1428  0.3490 -0.4016
  860TIP3    H1 2586   3.852   3.670   4.656  0.1233  0.7664  0.2193
  860TIP3    H2 2587   3.828   3.569   4.546  0.4862 -0.5303  1.3005
  861TIP3   OH2 2588   3.615   1.612   4.950  0.9941 -0.6501  0.1628
  861TIP3    H1 2589   3.657   1.560   5.018  1.8660 -0.1277  0.0277
  861TIP3    H2 2590   3.663   1.695   4.949  0.6603 -0.4565 -0.7311
  862TIP3   OH2 2591   5.380   1.883   0.178  0.5134 -0.1317 -0.3982
  862TIP3    H1 2592   5.468   1.847   0.177  0.1972 -1.1189 -3.6552
  862TIP3    H2 2593   5.325   1.814   0.142 -1.0898  1.5226 -1.2940
  863TIP3   OH2 2594   1.921   4.094   1.121  0.1459  0.1918  0.3451
  863TIP3    H1 2595   1.844   4.054   1.161 -1.5816 -0.2817 -3.1597
  863TIP3    H2 2596   1.920   4.185   1.153 -2.4809  0.4799 -0.3672
  864TIP3   OH2 2597   1.072   3.800   0.354 -0.1050 -0.1499 -0.5159
  864TIP3    H1 2598   1.154   3.786   0.402 -0.7945 -0.5360  0.5863
  864TIP3    H2 2599   1.062   3.721   0.300 -0.6133 -0.9196  0.6661
  865TIP3   OH2 2600   1.294   4.560   1.512  0.3510 -0.4849  0.0519
  865TIP3    H1 2601   1.359   4.627   1.490 -0.1938  0.5212  1.3938
  865TIP3    H2 2602   1.240   4.552   1.432  0.4675  0.6358 -0.1573
  866TIP3   OH2 2603   0.054   3.958   2.474  1.0020  0.3114  0.2866
  866TIP3    H1 2604  -0.021   3.968   2.415 -0.5059 -0.7391  1.9431
  866TIP3    H2 2605   0.116   4.024   2.444 -0.0709  0.4557 -1.8706
  867TIP3   OH2 2606   3.701   2.527   0.373 -0.0657  0.2271 -0.6903
  867TIP3    H1 2607   3.770   2.592   0.358  0.2471 -0.1902 -1.0746
  867TIP3    H2 2608   3.747   2.450   0.405 -0.3042 -0.1983 -1.3693
  868TIP3   OH2 2609   5.508   1.671   3.338  0.1614 -0.5163  0.1672
  868TIP3    H1 2610   5.426   1.624   3.352 -0.5957  1.3215  2.6133
  868TIP3    H2 2611   5.484   1.747   3.286  0.7187 -0.9872 -0.8024
  869TIP3   OH2 2612   5.843   1.368   4.202  0.1929 -0.3847  0.0149
  869TIP3    H1 2613   5.848   1.350   4.109  0.9657 -2.2328  0.3623
  869TIP3    H2 2614   5.772   1.312   4.234 -1.3576  1.6205  0.2910
  870TIP3   OH2 2615   5.002   4.040   2.724  0.4434  0.1594  0.0369
  870TIP3    H1 2616   5.075   3.979   2.735  1.7400  1.5039 -0.6866
  870TIP3    H2 2617   5.041   4.127   2.736 -0.9087  0.9526 -0.9613
  871TIP3   OH2 2618   3.812   4.971   2.336  0.0193  0.0800  0.8505
  871TIP3    H1 2619   3.756   5.029   2.387 -0.0460 -1.4556  2.6726
  871TIP3    H2 2620   3.756   4.897   2.314  0.8459 -0.6760  1.2123
  872TIP3   OH2 2621   4.749   4.297   3.314 -0.4779 -0.0469  0.6629
  872TIP3    H1 2622   4.810   4.231   3.347 -1.4603 -0.6345  1.3220
  872TIP3    H2 2623   4.805   4.373   3.295  0.5102 -0.7011  0.8884
  873TIP3   OH2 2624   2.487   0.276   0.697 -0.8324 -0.1707 -0.3221
  873TIP3    H1 2625   2.424   0.312   0.635 -0.1947 -0.5336 -1.2057
  873TIP3    H2 2626   2.434   0.236   0.766 -1.5696  2.3737  0.6890
  874TIP3   OH2 2627   3.269   1.992   2.176 -0.5938  0.2880  0.2913
  874TIP3    H1 2628   3.209   1.929   2.215  0.3485  0.0569  1.4392
  874TIP3    H2 2629   3.269   2.066   2.236  0.5031  0.1440  0.4963
  875TIP3   OH2 2630   3.560   3.945   3.406  0.5379 -0.0363 -0.0327
  875TIP3    H1 2631   3.489   4.009   3.406  0.7248  0.1729  0.7146
  875TIP3    H2 2632   3.546   3.893   3.485  0.3709 -0.9516 -0.6411
  876TIP3   OH2 2633   2.614   1.827   3.065  0.8945  0.5692  0.5350
  876TIP3    H1 2634   2.524   1.861   3.071  1.2046  1.2545  1.7731
  876TIP3    H2 2635   2.620   1.763   3.136  1.2073  0.0746  0.0666
  877TIP3   OH2 2636   2.792   0.870   1.419  0.4335 -0.4493  0.0490
  877TIP3    H1 2637   2.724   0.918   1.466  0.0846  1.5553 -2.3065
  877TIP3    H2 2638   2.752   0.785   1.399 -0.6396 -0.0423  0.4087
  878TIP3   OH2 2639   0.687   0.068   1.201  0.1279 -0.0937  0.1255
  878TIP3    H1 2640   0.598   0.035   1.207  1.4340 -3.9033  1.2057
  878TIP3    H2 2641   0.723   0.058   1.289  1.7623  0.9987 -0.3624
  879TIP3   OH2 2642   5.906   3.211   0.599 -0.3483  0.6180 -0.1487
  879TIP3    H1 2643   5.945   3.134   0.558 -1.6597 -1.0480  1.5853
  879TIP3    H2 2644   5.824   3.224   0.551  0.5344  1.9088 -1.4051
  880TIP3   OH2 2645   4.392   5.216   4.282  0.2627 -0.1588 -0.0568
  880TIP3    H1 2646   4.306   5.258   4.281 -0.0295 -0.7488  0.2311
  880TIP3    H2 2647   4.375   5.123   4.269  0.7864 -0.3972  0.8113
  881TIP3   OH2 2648   5.792   3.530   4.633 -0.1973  0.0263  0.7232
  881TIP3    H1 2649   5.887   3.538   4.624 -0.1949 -0.6050  0.1135
  881TIP3    H2 2650   5.781   3.460   4.698 -0.2245 -1.7917 -1.1365
  882TIP3   OH2 2651   2.727   5.558   1.134 -0.2806 -0.2110  0.4064
  882TIP3    H1 2652   2.700   5.548   1.043  1.1666  0.0042 -0.0716
  882TIP3    H2 2653   2.761   5.472   1.158  1.9311  0.4274 -0.1894
  883TIP3   OH2 2654   3.643   5.653   4.040  0.2701 -0.0514  0.5857
  883TIP3    H1 2655   3.641   5.594   4.115  1.5158  0.0083  0.6804
  883TIP3    H2 2656   3.714   5.619   3.985 -2.3002 -1.7930 -1.9993
  884TIP3   OH2 2657   3.166   4.203   0.939  0.3786  0.1391 -0.0376
  884TIP3    H1 2658   3.200   4.232   1.023  1.4542 -0.1808 -0.3433
  884TIP3    H2 2659   3.192   4.111   0.934 -2.0415 -0.6487  0.4609
  885TIP3   OH2 2660   0.819   3.134   4.829  0.0721 -0.0721 -0.0701
  885TIP3    H1 2661   0.837   3.174   4.913 -0.6360  1.6844 -0.6981
  885TIP3    H2 2662   0.905   3.114   4.792  0.4070 -0.0700  0.7010
  886TIP3   OH2 2663   5.299   5.861   5.042 -0.3352 -0.1416 -0.3035
  886TIP3    H1 2664   5.217   5.906   5.061  0.0919  0.4055  0.2890
  886TIP3    H2 2665   5.274   5.772   5.021 -0.9879 -0.3137  1.1041
  887TIP3   OH2 2666   3.483   5.704   0.481 -0.2374  0.4634  0.0673
  887TIP3    H1 2667   3.575   5.679   0.470 -0.1348  0.7075  0.3616
  887TIP3    H2 2668   3.434   5.630   0.444  0.0809  0.6029 -0.6423
  888TIP3   OH2 2669   0.684   4.475   2.290 -0.1947  0.1861  0.2830
  888TIP3    H1 2670   0.724   4.387   2.286  0.4035  0.4613  0.0493
  888TIP3    H2 2671   0.739   4.529   2.233  0.4351  1.0940  1.7039
  889TIP3   OH2 2672   3.489   3.488   1.657  0.2737 -0.0907 -0.2209
  889TIP3    H1 2673   3.557   3.545   1.622 -1.7402  1.8541 -1.1931
  889TIP3    H2 2674   3.412   3.507   1.605 -1.0414 -2.3120  0.7466
  890TIP3   OH2 2675   0.504   1.766   1.669 -0.3624 -0.7799  0.1390
  890TIP3    H1 2676   0.592   1.801   1.656 -0.3443 -1.0949 -0.6461
  890TIP3    H2 2677   0.507   1.724   1.755 -0.3522  1.0194  1.0740
  891TIP3   OH2 2678   2.144   3.797   3.104 -0.1736  0.0713 -0.3972
  891TIP3    H1 2679   2.094   3.758   3.176 -1.6946  3.1831  0.4598
  891TIP3    H2 2680   2.077   3.825   3.042  0.8492  0.5116 -1.3320
  892TIP3   OH2 2681   4.036   5.808   4.311  0.3894  0.0516 -0.0870
  892TIP3    H1 2682   4.124   5.791   4.345 -0.3553 -2.7908  0.6933
  892TIP3    H2 2683   4.051   5.854   4.228  2.5485  0.3077  0.3648
  893TIP3   OH2 2684   2.010   3.920   4.241 -0.8863 -0.3401  0.5666
  893TIP3    H1 2685   2.015   3.997   4.184 -1.6476 -1.0461 -0.4724
  893TIP3    H2 2686   2.102   3.898   4.259 -0.5885 -0.8647 -1.4346
  894TIP3   OH2 2687   3.439   1.872   3.052  0.2860 -0.2743 -0.4535
  894TIP3    H1 2688   3.393   1.800   3.094 -0.7516  0.6518  0.0307
  894TIP3    H2 2689   3.484   1.831   2.977 -1.6833 -1.1502 -1.2254
  895TIP3   OH2 2690   3.459   2.631   3.604  0.0628 -0.6761 -0.2764
  895TIP3    H1 2691   3.404   2.585   3.542 -0.0576 -0.8358 -0.0489
  895TIP3    H2 2692   3.402   2.698   3.642  0.6147  0.6809 -1.6974
  896TIP3   OH2 2693   5.621   0.324   1.846 -0.0509  0.7686  0.1222
  896TIP3    H1 2694   5.564   0.368   1.909 -0.4875  1.6963 -0.8849
  896TIP3    H2 2695   5.662   0.253   1.896 -1.6237  0.4469  1.0366
  897TIP3   OH2 2696   4.870   3.015   1.789  0.0858 -0.3333  0.1772
  897TIP3    H1 2697   4.914   3.065   1.720 -0.5575 -1.0864 -0.8163
  897TIP3    H2 2698   4.929   2.942   1.807  0.1339 -0.2792  0.2391
  898TIP3   OH2 2699   3.004   5.441   4.942  0.0379 -0.3771 -0.1012
  898TIP3    H1 2700   3.015   5.398   4.857 -2.0564  2.0960 -1.7662
  898TIP3    H2 2701   3.074   5.506   4.945  0.4299 -0.8145  0.3236
  899TIP3   OH2 2702   1.671   4.816   4.056  0.1213 -0.1515  0.3786
  899TIP3    H1 2703   1.612   4.822   4.130  0.0976 -0.2995  0.3721
  899TIP3    H2 2704   1.744   4.764   4.088 -0.3061 -0.9748  0.0312
  900TIP3   OH2 2705   0.932   5.831   1.075  0.2976  0.0831 -0.5050
  900TIP3    H1 2706   1.021   5.797   1.062  0.6532  0.7796  0.0458
  900TIP3    H2 2707   0.942   5.926   1.073 -0.3867  0.1658 -0.1308
  901TIP3   OH2 2708   0.249   2.071   5.141  0.2471  0.5772  0.6219
  901TIP3    H1 2709   0.310   2.034   5.205  3.5720  2.8084 -0.9445
  901TIP3    H2 2710   0.284   2.042   5.056 -1.8098  0.7414 -0.3337
  902TIP3   OH2 2711   2.649   1.542   2.961 -0.2014  0.2480 -0.2077
  902TIP3    H1 2712   2.626   1.616   2.905 -0.4077 -0.0447 -0.5115
  902TIP3    H2 2713   2.586   1.474   2.939 -1.8512  0.8953  2.0859
  903TIP3   OH2 2714   5.268   1.069   4.626 -0.0553  0.2107 -0.2824
  903TIP3    H1 2715   5.271   1.143   4.688 -1.0903  1.1481 -1.3025
  903TIP3    H2 2716   5.178   1.036   4.632  0.2447 -0.6282 -0.2467
  904TIP3   OH2 2717   1.456   5.915   3.471  0.4124 -0.0188  0.0915
  904TIP3    H1 2718   1.378   5.922   3.417  0.2754 -0.4860  0.2222
  904TIP3    H2 2719   1.458   5.823   3.499  1.4240 -0.2164 -0.5472
  905TIP3   OH2 2720   2.803   4.534   0.541  0.1510  0.3386  0.3710
  905TIP3    H1 2721   2.839   4.603   0.596 -0.0966  0.6679  0.1261
  905TIP3    H2 2722   2.763   4.581   0.467  2.2156 -0.1863 -1.1474
  906TIP3   OH2 2723   1.289   3.532   2.689 -0.3298  0.1309 -0.3386
  906TIP3    H1 2724   1.208   3.558   2.646  0.6179  1.9385 -1.1269
  906TIP3    H2 2725   1.267   3.533   2.782 -1.1137  0.9966 -0.5133
  907TIP3   OH2 2726   2.817   0.129   1.183  0.1902  0.2132 -0.3949
  907TIP3    H1 2727   2.909   0.134   1.155  0.5910  0.4026  0.8860
  907TIP3    H2 2728   2.819   0.072   1.260 -0.5494  1.3425  0.4900
  908TIP3   OH2 2729   0.774   5.034   2.120 -0.2268 -0.1768 -0.4080
  908TIP3    H1 2730   0.698   5.004   2.170 -0.0969 -0.6926 -0.5193
  908TIP3    H2 2731   0.753   5.125   2.098  0.8732  0.9939  2.8461
  909TIP3   OH2 2732   4.290   5.451   2.535 -0.5575  0.4133 -0.0495
  909TIP3    H1 2733   4.298   5.422   2.626 -2.5813  1.7141  0.6103
  909TIP3    H2 2734   4.352   5.524   2.528 -0.5904  0.4900  0.3917
  910TIP3   OH2 2735   6.030   4.298   3.083 -0.3777 -0.2213 -0.3679
  910TIP3    H1 2736   6.044   4.365   3.016 -1.3727 -0.2417 -0.6114
  910TIP3    H2 2737   6.017   4.217   3.033  1.9462 -0.8713 -0.0618
  911TIP3   OH2 2738   0.555   0.631   2.167  0.2278 -0.5908  0.3384
  911TIP3    H1 2739   0.465   0.656   2.187 -0.0441 -0.2988 -1.1320
  911TIP3    H2 2740   0.606   0.711   2.179  0.0425 -0.3768 -0.2933
  912TIP3   OH2 2741   1.255   0.571   4.038  0.9484 -0.2414 -0.2405
  912TIP3    H1 2742   1.336   0.548   4.084  0.4186 -2.4633 -0.2996
  912TIP3    H2 2743   1.189   0.574   4.107  1.0776  1.8389 -0.1530
  913TIP3   OH2 2744   5.497   2.354   0.356 -0.1691  0.5617  0.4153
  913TIP3    H1 2745   5.413   2.386   0.390  0.8918  1.2566  2.5808
  913TIP3    H2 2746   5.487   2.259   0.352 -1.8751  0.7396 -1.8795
  914TIP3   OH2 2747   1.699   4.960   1.131  0.0484 -0.4448  0.1576
  914TIP3    H1 2748   1.643   4.886   1.152  1.5235 -2.1870 -1.6998
  914TIP3    H2 2749   1.758   4.969   1.206 -0.3599 -0.9098  0.5349
  915TIP3   OH2 2750   5.123  -0.018   4.829 -0.0669  0.4375 -0.2156
  915TIP3    H1 2751   5.082  -0.040   4.913  2.0639 -1.2947  0.4626
  915TIP3    H2 2752   5.174   0.060   4.848  0.3533  0.0916  0.0958
  916TIP3   OH2 2753   3.303   3.962   0.959  0.0281  0.3007 -0.1354
  916TIP3    H1 2754   3.386   3.970   1.005 -0.5089  0.6065  0.8003
  916TIP3    H2 2755   3.320   3.898   0.890  1.6378  1.9262 -1.3440
  917TIP3   OH2 2756   6.336   3.687   4.944  0.3963 -0.2736 -0.3494
  917TIP3    H1 2757   6.242   3.695   4.961  0.3938  0.2511 -0.6077
  917TIP3    H2 2758   6.363   3.775   4.918  1.0642 -0.2909  0.2445
  918TIP3   OH2 2759   3.448   4.979   2.189 -0.4144  0.8298 -0.2876
  918TIP3    H1 2760   3.456   4.893   2.148  2.3900  0.3362  1.0133
  918TIP3    H2 2761   3.354   4.995   2.196 -1.0932 -0.1889 -4.3468
  919TIP3   OH2 2762   5.896   5.554   5.010  0.1829  0.1253  0.1148
  919TIP3    H1 2763   5.862   5.622   5.068 -0.7690  0.3037 -0.6208
  919TIP3    H2 2764   5.985   5.583   4.988 -0.2141  1.1535 -0.2024
  920TIP3   OH2 2765   4.650   3.420   4.150  0.2296  0.0492 -0.1465
  920TIP3    H1 2766   4.662   3.497   4.205 -1.3551  0.1605  0.0853
  920TIP3    H2 2767   4.623   3.455   4.065  0.3845 -0.2234 -0.3117
  921TIP3   OH2 2768   6.224   3.742   4.156  0.1239 -0.3566 -0.3825
  921TIP3    H1 2769   6.211   3.769   4.246  1.8528 -0.2054 -0.1482
  921TIP3    H2 2770   6.188   3.653   4.152 -0.9980  0.0558  0.1354
  922TIP3   OH2 2771   3.618   0.915   0.881 -0.2511 -0.1517 -0.6584
  922TIP3    H1 2772   3.696   0.929   0.934 -0.5485 -0.0055 -0.2513
  922TIP3    H2 2773   3.580   0.834   0.915  1.3868 -1.9712 -2.9164
  923TIP3   OH2 2774   5.996   1.154   4.048  0.1785 -0.0070 -0.2942
  923TIP3    H1 2775   5.959   1.066   4.036  3.2862 -1.3916 -0.8702
  923TIP3    H2 2776   5.930   1.213   4.011 -0.8545 -2.3277 -2.5136
  924TIP3   OH2 2777   1.757   4.032   2.394 -0.6581  0.1949 -0.2768
  924TIP3    H1 2778   1.841   4.006   2.356  0.4077 -1.8716  3.0055
  924TIP3    H2 2779   1.771   4.122   2.423  1.0541 -0.5616  1.4895
  925TIP3   OH2 2780   6.192   3.207   4.271 -0.3538 -1.0902 -0.2435
  925TIP3    H1 2781   6.232   3.140   4.216  0.5843 -0.6771 -0.0831
  925TIP3    H2 2782   6.112   3.231   4.225  0.1958 -1.0602 -1.2244
  926TIP3   OH2 2783   6.238   2.247   0.225  0.6254  0.4924  0.4250
  926TIP3    H1 2784   6.186   2.277   0.300  1.5620 -1.3535  1.8845
  926TIP3    H2 2785   6.324   2.288   0.238  0.9594 -0.2829  0.6801
  927TIP3   OH2 2786   4.037   2.402   0.441  0.1626  0.0384 -0.1201
  927TIP3    H1 2787   4.091   2.357   0.376  1.3757 -0.4936  1.1931
  927TIP3    H2 2788   4.061   2.495   0.432  1.6998 -0.2407  0.7497
  928TIP3   OH2 2789   3.356   2.943   0.542  0.0048 -0.0104 -0.2532
  928TIP3    H1 2790   3.283   2.928   0.602  0.8867  0.6664  1.0400
  928TIP3    H2 2791   3.363   2.862   0.492 -0.3517 -0.8702  1.0235
  929TIP3   OH2 2792   2.068   1.737   2.798 -0.5094 -0.6862 -0.3141
  929TIP3    H1 2793   2.152   1.782   2.808 -1.2807  0.7225  0.0056
  929TIP3    H2 2794   2.023   1.751   2.881 -2.0030  0.5940 -1.2940
  930TIP3   OH2 2795   2.864   2.098   1.201 -0.2225 -0.2877  0.2983
  930TIP3    H1 2796   2.874   2.193   1.200  0.2442 -0.3267  0.6379
  930TIP3    H2 2797   2.918   2.069   1.275 -0.9033 -0.7541  0.6171
  931TIP3   OH2 2798   4.575   3.122   4.373  0.5289  0.1471  0.4804
  931TIP3    H1 2799   4.514   3.162   4.310  0.0024  0.5609  1.2425
  931TIP3    H2 2800   4.660   3.131   4.331  0.2654  0.9891  0.1000
  932TIP3   OH2 2801   5.005   2.421   2.220  0.4596  0.5209 -0.2501
  932TIP3    H1 2802   5.005   2.332   2.185  0.1847  1.0078 -1.5065
  932TIP3    H2 2803   4.953   2.472   2.158 -0.4514  1.3177  1.1059
  933TIP3   OH2 2804   6.106   2.534   4.635  0.7472 -0.3832  0.3971
  933TIP3    H1 2805   6.117   2.540   4.540  1.0699  0.2391  0.4679
  933TIP3    H2 2806   6.057   2.613   4.658 -0.8031 -1.3332  0.5517
  934TIP3   OH2 2807   2.486   0.216   4.028 -0.4099 -0.7517 -0.2194
  934TIP3    H1 2808   2.415   0.218   4.092 -1.0818 -3.1254 -0.8037
  934TIP3    H2 2809   2.517   0.306   4.024 -1.3467 -0.2425  2.3144
  935TIP3   OH2 2810   3.877   0.410   2.325  0.0527 -0.0272  0.4030
  935TIP3    H1 2811   3.828   0.329   2.311 -0.8924  0.4285  0.9704
  935TIP3    H2 2812   3.823   0.477   2.283  0.2632  0.4595  0.9057
  936TIP3   OH2 2813   2.139   2.350   4.735 -0.4203  0.3094 -0.6982
  936TIP3    H1 2814   2.062   2.323   4.785 -0.6309 -1.1416 -1.7471
  936TIP3    H2 2815   2.209   2.293   4.767  0.3118  1.7833  0.4221
  937TIP3   OH2 2816   5.629   3.887   0.227  0.0505 -0.1076 -0.2936
  937TIP3    H1 2817   5.592   3.917   0.310  0.9130  1.5169 -0.4560
  937TIP3    H2 2818   5.571   3.815   0.200  0.6644 -1.7868  2.4463
  938TIP3   OH2 2819   2.644   2.169   4.136  0.3265 -0.1994 -0.0273
  938TIP3    H1 2820   2.587   2.098   4.168  0.7689 -0.0807  1.0538
  938TIP3    H2 2821   2.585   2.243   4.124  0.1078 -0.3143  0.3100
  939TIP3   OH2 2822   6.064   0.275   3.951  0.2535  0.6952 -0.3936
  939TIP3    H1 2823   6.105   0.261   3.866 -0.4169  0.2941 -0.6567
  939TIP3    H2 2824   6.125   0.236   4.014  0.3509  0.2396 -0.7690
  940TIP3   OH2 2825   4.215   5.525   5.071 -0.7131 -0.3305  0.9309
  940TIP3    H1 2826   4.219   5.488   4.983 -1.5661  0.3048  0.6085
  940TIP3    H2 2827   4.299   5.501   5.111  0.2152  0.4137 -0.4871
  941TIP3   OH2 2828   2.409   1.949   0.859 -0.3049  0.0057  0.0434
  941TIP3    H1 2829   2.472   1.920   0.925  0.2577 -1.5909 -1.1232
  941TIP3    H2 2830   2.334   1.890   0.870 -0.5144  0.2111 -0.2704
  942TIP3   OH2 2831   4.480   4.412   4.958  0.0052  0.1995 -0.5816
  942TIP3    H1 2832   4.410   4.393   4.895  0.4231 -1.4274 -0.5970
  942TIP3    H2 2833   4.441   4.475   5.019 -1.8289 -1.3889 -0.0180
  943TIP3   OH2 2834   3.089   5.945   4.017  0.3035 -0.5441  0.4842
  943TIP3    H1 2835   3.000   5.934   3.984 -0.3834 -0.0928  2.0790
  943TIP3    H2 2836   3.120   5.855   4.033 -0.5128 -0.6718  1.4852
  944TIP3   OH2 2837   3.202   5.722   3.059 -0.8158 -0.1449  0.3981
  944TIP3    H1 2838   3.277   5.752   3.007  0.1659 -2.0666  0.5839
  944TIP3    H2 2839   3.189   5.631   3.030 -1.2229 -0.7709  2.3782
  945TIP3   OH2 2840   4.978   5.886   2.887 -0.1127 -0.0998  0.0836
  945TIP3    H1 2841   5.061   5.924   2.917  0.7882 -1.9783  0.1070
  945TIP3    H2 2842   4.984   5.887   2.792 -1.1982  2.0857 -0.0064
  946TIP3   OH2 2843   3.332   0.148   2.097  0.2237 -0.1903  0.2220
  946TIP3    H1 2844   3.256   0.191   2.060  1.3351 -0.4165 -2.5337
  946TIP3    H2 2845   3.321   0.056   2.075  2.1491  0.0192 -2.0730
  947TIP3   OH2 2846   0.667   3.148   3.749 -0.0200 -0.5194  0.1190
  947TIP3    H1 2847   0.644   3.080   3.686 -2.0742 -0.3595  0.6433
  947TIP3    H2 2848   0.635   3.229   3.710 -1.1471 -0.3904  1.2494
  948TIP3   OH2 2849   6.252   3.433   0.122 -0.1578 -0.6542 -0.0320
  948TIP3    H1 2850   6.192   3.426   0.196  1.1359 -1.3921  1.0109
  948TIP3    H2 2851   6.214   3.501   0.066 -1.0519  0.1169  1.4337
  949TIP3   OH2 2852   1.112   4.900   1.886 -0.3350 -0.4356  0.0071
  949TIP3    H1 2853   1.189   4.957   1.880  0.2098 -0.6180  3.1322
  949TIP3    H2 2854   1.147   4.811   1.875 -0.3487 -0.4298 -0.0799
  950TIP3   OH2 2855   6.338   4.297   2.515  0.1187 -0.6970 -0.0480
  950TIP3    H1 2856   6.346   4.377   2.566  0.0691  0.6915 -2.1224
  950TIP3    H2 2857   6.251   4.263   2.538  0.4181 -0.5769  1.3686
  951TIP3   OH2 2858   6.087   4.505   4.670  0.7013  0.0127 -0.3845
  951TIP3    H1 2859   6.047   4.517   4.756  0.3248 -0.2368 -0.5212
  951TIP3    H2 2860   6.161   4.565   4.669  1.2774 -0.6598  0.4784
  952TIP3   OH2 2861   6.062   5.057   4.592  0.2780  0.0511 -0.2974
  952TIP3    H1 2862   6.066   5.133   4.649  2.3301  0.3990 -0.8288
  952TIP3    H2 2863   6.139   5.065   4.535 -0.9820 -0.9373 -2.2675
  953TIP3   OH2 2864   0.774   3.889   2.082  0.3831  0.1053 -0.0388
  953TIP3    H1 2865   0.715   3.963   2.091  0.2761  0.0872 -0.5717
  953TIP3    H2 2866   0.833   3.896   2.157  1.9986  2.1979 -1.3941
  954TIP3   OH2 2867   5.847   5.824   4.826  0.6060 -0.4190  0.9731
  954TIP3    H1 2868   5.797   5.892   4.780 -0.0709 -0.0360  2.2230
  954TIP3    H2 2869   5.782   5.757   4.846  1.6134 -2.5332 -2.0481
  955TIP3   OH2 2870   1.487   4.751   1.474 -0.0570 -0.5776  0.1412
  955TIP3    H1 2871   1.462   4.837   1.507  0.4720  0.0108 -0.9385
  955TIP3    H2 2872   1.531   4.709   1.548 -1.7334 -0.5722  1.2006
  956TIP3   OH2 2873   2.536   0.881   0.655  0.1666  0.1722 -0.6046
  956TIP3    H1 2874   2.480   0.947   0.696  0.3827  1.0682 -1.7181
  956TIP3    H2 2875   2.623   0.900   0.689  0.3337  0.8703 -1.3950
  957TIP3   OH2 2876   1.301   4.208   3.274 -0.3239  0.3365 -0.6062
  957TIP3    H1 2877   1.271   4.136   3.218 -1.9476 -1.3615  2.1880
  957TIP3    H2 2878   1.325   4.278   3.213 -0.9038 -1.7183 -3.3942
  958TIP3   OH2 2879   2.077   2.599   0.926 -0.3125  0.0211  0.3866
  958TIP3    H1 2880   2.119   2.534   0.871  0.1975  0.4098  0.3081
  958TIP3    H2 2881   1.987   2.604   0.893 -1.1741 -2.5377  2.0701
  959TIP3   OH2 2882   3.995   4.411   1.840 -0.0582  0.0180  0.4482
  959TIP3    H1 2883   3.954   4.384   1.922 -0.2541  2.1880  1.1261
  959TIP3    H2 2884   4.056   4.481   1.865 -0.3955  0.9948 -1.2708
  960TIP3   OH2 2885   1.470   2.460   0.113 -0.1766 -0.3367 -0.2708
  960TIP3    H1 2886   1.396   2.413   0.152  0.0810 -0.1348  0.4984
  960TIP3    H2 2887   1.450   2.552   0.130  1.3820 -0.3397  2.1779
  961TIP3   OH2 2888   1.599   3.649   2.836 -0.3908  0.3114 -0.1198
  961TIP3    H1 2889   1.610   3.615   2.925  2.2956  0.1381 -0.4300
  961TIP3    H2 2890   1.629   3.577   2.780 -1.2584  0.7175 -1.1314
  962TIP3   OH2 2891   2.842   3.131   2.497  0.2653 -0.0097  0.3112
  962TIP3    H1 2892   2.758   3.127   2.542 -0.6252  0.8702 -1.1671
  962TIP3    H2 2893   2.823   3.178   2.415  2.0221 -0.5446 -0.4577
  963TIP3   OH2 2894   0.456   4.241   0.566  0.0800  0.0824  0.3768
  963TIP3    H1 2895   0.510   4.302   0.515  0.2455  0.4984  1.0383
  963TIP3    H2 2896   0.452   4.280   0.653 -0.1457 -0.6555  0.7038
  964TIP3   OH2 2897   2.514   0.783   3.175 -0.3792 -0.5436 -0.0946
  964TIP3    H1 2898   2.570   0.772   3.098  2.4516  0.9571  1.5651
  964TIP3    H2 2899   2.471   0.868   3.161 -1.5658 -1.2530 -0.9292
  965TIP3   OH2 2900   0.282   4.614   2.390 -0.0147  0.2552  0.5976
  965TIP3    H1 2901   0.362   4.654   2.424  0.5001  2.5309 -2.7757
  965TIP3    H2 2902   0.309   4.527   2.362  1.1335  0.7139  0.2040
  966TIP3   OH2 2903   3.609   1.506   0.986  0.0624  0.4986  0.2796
  966TIP3    H1 2904   3.682   1.447   1.008  0.0266 -0.3790 -1.6598
  966TIP3    H2 2905   3.533   1.466   1.027  0.2110 -0.3048 -0.1868
  967TIP3   OH2 2906   0.563   4.037   2.623  0.2446 -0.3785 -0.3151
  967TIP3    H1 2907   0.648   4.081   2.631 -0.3809  0.8225 -0.1309
  967TIP3    H2 2908   0.509   4.097   2.573 -1.4554  0.3043  2.1435
  968TIP3   OH2 2909   3.864   0.212   1.652  0.6014 -0.2855 -0.2547
  968TIP3    H1 2910   3.881   0.305   1.663 -0.1884 -0.0990 -0.4796
  968TIP3    H2 2911   3.802   0.190   1.722  0.8878 -0.6711 -0.1196
  969TIP3   OH2 2912   3.705   5.908   4.510 -0.0310  0.2479 -0.4409
  969TIP3    H1 2913   3.676   5.827   4.551  1.8688  0.4801  1.5571
  969TIP3    H2 2914   3.703   5.890   4.416  0.2210 -2.0631 -0.0445
  970TIP3   OH2 2915   1.738   5.654   2.775  0.5844  0.5219  0.2290
  970TIP3    H1 2916   1.815   5.604   2.800  0.9911  0.0711 -1.7773
  970TIP3    H2 2917   1.679   5.647   2.851  2.2436  0.4020  1.5599
  971TIP3   OH2 2918   2.552   5.783   4.892  0.5447  0.1759 -0.3105
  971TIP3    H1 2919   2.626   5.763   4.836  0.0772 -0.6531 -0.6528
  971TIP3    H2 2920   2.480   5.800   4.831  0.0577 -0.6413  0.0248
  972TIP3   OH2 2921   2.060   0.350   1.190 -0.2377 -0.5470 -0.5729
  972TIP3    H1 2922   2.066   0.386   1.102 -0.8456 -1.2660 -0.9213
  972TIP3    H2 2923   2.149   0.355   1.224 -0.4313  2.1874 -0.2077
  973TIP3   OH2 2924   1.308   1.582   4.974  0.7740  0.4795 -0.2361
  973TIP3    H1 2925   1.294   1.517   4.905  0.3641  0.8056 -0.4597
  973TIP3    H2 2926   1.242   1.560   5.040  1.3676 -0.0280  0.2025
  974TIP3   OH2 2927   0.588   4.137   4.154 -0.1427 -0.0078 -0.1879
  974TIP3    H1 2928   0.624   4.051   4.176 -2.0599 -0.6975  0.4697
  974TIP3    H2 2929   0.624   4.157   4.068  0.4733 -1.4029 -0.2851
  975TIP3   OH2 2930   2.001   3.685   4.866  0.0480  0.2621  0.3613
  975TIP3    H1 2931   2.058   3.621   4.906  0.9479  0.9746  0.2462
  975TIP3    H2 2932   1.936   3.633   4.818  0.2269 -0.5561  0.9977
  976TIP3   OH2 2933   4.977   1.819   0.207  0.3887  0.0673 -0.1406
  976TIP3    H1 2934   5.056   1.771   0.181  1.0396  0.1152  1.6125
  976TIP3    H2 2935   4.975   1.812   0.303 -1.1957  0.9267 -0.0745
  977TIP3   OH2 2936   3.870   3.609   3.504  0.1585  0.5683 -0.2809
  977TIP3    H1 2937   3.927   3.686   3.498  1.2867 -0.0308  1.5383
  977TIP3    H2 2938   3.895   3.554   3.430 -0.5690  1.8726 -1.5175
  978TIP3   OH2 2939   2.765   1.487   4.639 -0.0838  0.1609  0.1575
  978TIP3    H1 2940   2.704   1.559   4.653  0.9252  1.1814 -0.5359
  978TIP3    H2 2941   2.851   1.523   4.660  0.4925 -0.6956 -0.6446
  979TIP3   OH2 2942   2.109   1.706   1.933 -0.2224  0.1097 -0.8352
  979TIP3    H1 2943   2.203   1.722   1.933 -0.0448 -0.6239 -2.8961
  979TIP3    H2 2944   2.080   1.733   1.846 -2.0373  0.8343 -0.0480
  980TIP3   OH2 2945   0.982   5.375   2.886 -0.1230 -0.1482  0.5207
  980TIP3    H1 2946   0.915   5.384   2.954 -0.0418 -0.0510  0.5893
  980TIP3    H2 2947   1.039   5.451   2.898 -1.1390  0.8525 -0.8303
  981TIP3   OH2 2948   3.342   3.694   3.294  0.3192 -0.2582 -0.0891
  981TIP3    H1 2949   3.337   3.610   3.247  0.7125  0.6101 -1.7822
  981TIP3    H2 2950   3.413   3.742   3.250  2.8558 -0.4961  3.3800
  982TIP3   OH2 2951   6.268   5.641   2.393 -0.0152 -0.0429 -0.0042
  982TIP3    H1 2952   6.359   5.621   2.412 -0.1245 -0.7337 -0.1987
  982TIP3    H2 2953   6.220   5.610   2.471 -0.5344 -3.4022 -1.4840
  983TIP3   OH2 2954   0.289   2.073   4.484 -0.4479  0.1334 -0.6146
  983TIP3    H1 2955   0.288   2.012   4.557  2.1736 -0.2081 -0.7596
  983TIP3    H2 2956   0.208   2.123   4.493 -1.0367 -1.0707  1.4647
  984TIP3   OH2 2957   0.080   1.683   1.161  0.1555  0.3278 -0.3775
  984TIP3    H1 2958   0.118   1.759   1.205 -0.2422 -0.2660  1.0689
  984TIP3    H2 2959  -0.012   1.685   1.185  0.1833 -0.7164 -0.1076
  985TIP3   OH2 2960   6.181   1.985   0.269  0.2729 -0.4336 -0.3433
  985TIP3    H1 2961   6.102   1.979   0.217 -1.0102 -0.2531  1.4772
  985TIP3    H2 2962   6.216   2.073   0.252 -0.5248 -0.1158 -0.3581
  986TIP3   OH2 2963   2.709   0.727   2.953  0.5443 -0.3063 -0.5820
  986TIP3    H1 2964   2.739   0.818   2.947  0.8077 -0.3623 -0.0936
  986TIP3    H2 2965   2.645   0.719   2.882  0.1652  0.3993 -0.3337
  987TIP3   OH2 2966   5.962   4.292   0.692  0.0118  0.1110 -0.3402
  987TIP3    H1 2967   5.960   4.196   0.696 -0.9890  0.1429  0.2936
  987TIP3    H2 2968   6.008   4.312   0.611  1.3289 -0.8940  0.1334
  988TIP3   OH2 2969   1.868   5.206   5.163  0.5169 -0.5347  0.5355
  988TIP3    H1 2970   1.885   5.204   5.257 -0.0157 -0.2895  0.6458
  988TIP3    H2 2971   1.882   5.116   5.134  1.3907 -0.4656  0.7107
  989TIP3   OH2 2972   3.929   3.431   1.853 -0.7081 -0.2121  0.2096
  989TIP3    H1 2973   4.016   3.466   1.874 -0.8461  0.9972 -1.0983
  989TIP3    H2 2974   3.939   3.336   1.860  0.4064 -0.0412  1.1977
  990TIP3   OH2 2975   3.304   5.215   3.782 -0.7315 -0.2405  0.1892
  990TIP3    H1 2976   3.255   5.213   3.865 -0.4647  0.3192  0.3622
  990TIP3    H2 2977   3.236   5.211   3.714 -0.9908  0.0279  0.4280
  991TIP3   OH2 2978   5.975   4.820   4.734 -0.4074 -0.2143 -0.0347
  991TIP3    H1 2979   5.939   4.889   4.677 -1.0472 -1.1136 -0.7413
  991TIP3    H2 2980   5.939   4.840   4.821 -0.0197  0.7387 -0.0735
  992TIP3   OH2 2981   2.755   3.994   1.418  0.1988 -0.3635  0.0020
  992TIP3    H1 2982   2.814   3.927   1.383  0.7239  0.0662  0.0512
  992TIP3    H2 2983   2.810   4.071   1.429 -0.2041 -0.1679  0.7527
  993TIP3   OH2 2984   4.318   3.330   2.905  0.0589  0.0302 -0.2260
  993TIP3    H1 2985   4.250   3.280   2.949  1.2593 -1.5627 -0.0835
  993TIP3    H2 2986   4.394   3.271   2.902  0.7169  0.8547 -2.4475
  994TIP3   OH2 2987   1.167   4.038   4.700 -0.1534  0.7691  0.1151
  994TIP3    H1 2988   1.078   4.028   4.667  0.5844 -2.0538 -1.3757
  994TIP3    H2 2989   1.202   4.113   4.651 -0.7221 -0.1222 -1.7409
  995TIP3   OH2 2990   3.934   5.208   2.221  0.4415  0.4148 -0.4121
  995TIP3    H1 2991   3.877   5.153   2.274  1.2222  0.0909  0.1185
  995TIP3    H2 2992   3.960   5.153   2.147 -1.3528  1.1522 -1.6588
  996TIP3   OH2 2993   3.796   4.471   2.327 -0.4484 -0.3064  0.0706
  996TIP3    H1 2994   3.810   4.390   2.375  0.5581 -0.5330 -0.5624
  996TIP3    H2 2995   3.828   4.452   2.238 -0.4462  0.6946 -0.1601
  997TIP3   OH2 2996   4.066   4.375   3.905  0.0387  0.5449 -0.3724
  997TIP3    H1 2997   4.059   4.304   3.970  0.0961  0.5012 -0.4138
  997TIP3    H2 2998   3.994   4.359   3.844 -1.0140  1.4992  0.5696
  998TIP3   OH2 2999   5.134   3.699   2.394  0.0274  0.2785 -0.1600
  998TIP3    H1 3000   5.209   3.661   2.440 -0.5146 -1.6591 -0.7772
  998TIP3    H2 3001   5.096   3.626   2.346 -0.7432  1.7598 -1.9352
  999TIP3   OH2 3002   2.026   5.986   2.301 -0.1645 -0.3575  0.0874
  999TIP3    H1 3003   1.963   6.052   2.273  0.5934  1.4561  2.4122
  999TIP3    H2 3004   1.974   5.923   2.352 -0.7698 -1.3274 -1.6167
 1000TIP3   OH2 3005   4.850   3.669   1.354 -0.1945 -0.2204 -0.0921
 1000TIP3    H1 3006   4.921   3.652   1.417 -0.5658 -1.6145 -0.0112
 1000TIP3    H2 3007   4.872   3.617   1.277 -0.6187  0.1292 -0.4598
 1001TIP3   OH2 3008   2.881   4.237   1.366 -0.1944  0.0223  0.3513
 1001TIP3    H1 3009   2.840   4.320   1.338  0.1404  0.0942  0.0581
 1001TIP3    H2 3010   2.947   4.220   1.299 -0.6109 -0.7575  0.1288
 1002TIP3   OH2 3011   0.213   2.582   3.843  0.0797  0.0490  1.0523
 1002TIP3    H1 3012   0.264   2.505   3.867 -0.9016 -0.7197  0.7174
 1002TIP3    H2 3013   0.122   2.556   3.857 -0.2272  1.5796  2.1877
 1003TIP3   OH2 3014   2.594   5.508   0.591 -0.1411 -0.3326 -0.3013
 1003TIP3    H1 3015   2.556   5.424   0.616 -0.4087 -0.3877 -0.8765
 1003TIP3    H2 3016   2.524   5.552   0.543  0.8152 -0.8529 -2.2915
 1004TIP3   OH2 3017   5.596   2.011   3.669 -0.0933  0.6362 -0.3457
 1004TIP3    H1 3018   5.685   2.045   3.677  0.5685 -1.4320  2.3177
 1004TIP3    H2 3019   5.540   2.089   3.679  1.3866  1.5647  1.2116
 1005TIP3   OH2 3020   5.286   5.834   0.033 -0.6071 -0.1776 -0.3710
 1005TIP3    H1 3021   5.357   5.841   0.097 -0.5164  0.6741 -0.5525
 1005TIP3    H2 3022   5.271   5.740   0.024  0.1016 -0.3439  0.1075
 1006TIP3   OH2 3023   0.633   0.868   3.087  0.4828  0.0965 -0.3256
 1006TIP3    H1 3024   0.597   0.956   3.082  0.3263  0.0260 -0.4495
 1006TIP3    H2 3025   0.674   0.854   3.002 -2.3913 -1.1935 -1.6281
 1007TIP3   OH2 3026   2.684   2.148   3.613 -0.2887 -0.3363 -0.5643
 1007TIP3    H1 3027   2.696   2.217   3.547 -1.2545  1.5396  1.0999
 1007TIP3    H2 3028   2.647   2.074   3.565 -0.5660  0.8054 -2.1884
 1008TIP3   OH2 3029   5.061   5.082   2.199 -0.2193 -0.0321 -0.0509
 1008TIP3    H1 3030   5.111   5.164   2.204  1.2152 -0.9488  3.1667
 1008TIP3    H2 3031   4.975   5.104   2.236 -0.1865  0.2182 -0.1210
 1009TIP3   OH2 3032   6.057   4.822   0.982  0.3765  0.4991 -0.4248
 1009TIP3    H1 3033   6.078   4.782   0.897  0.1737 -0.0858 -0.2093
 1009TIP3    H2 3034   5.963   4.808   0.992  0.1923  1.5405 -0.5914
 1010TIP3   OH2 3035   1.197   0.380   1.025  0.4447 -0.2400 -0.7990
 1010TIP3    H1 3036   1.251   0.410   1.097  0.0633  1.6656 -1.2452
 1010TIP3    H2 3037   1.108   0.402   1.051  0.1051 -1.2892 -1.0374
 1011TIP3   OH2 3038   3.900   1.742   0.398 -0.4963 -0.1652  0.2643
 1011TIP3    H1 3039   3.881   1.818   0.454 -0.9239  0.2545 -0.4372
 1011TIP3    H2 3040   3.980   1.704   0.435  0.9558  1.8585 -0.6031
 1012TIP3   OH2 3041   3.579   5.542   3.507  0.0529  0.4656  0.3399
 1012TIP3    H1 3042   3.562   5.473   3.571 -0.1460  1.0796  0.9528
 1012TIP3    H2 3043   3.544   5.621   3.547 -0.2417  0.8293 -0.6045
 1013TIP3   OH2 3044   1.824   3.002   0.720 -0.5835 -0.4285  0.0275
 1013TIP3    H1 3045   1.772   2.925   0.742  0.3239 -1.1193 -0.1879
 1013TIP3    H2 3046   1.842   2.994   0.627 -1.7948  0.8795 -0.3574
 1014TIP3   OH2 3047   5.914   2.960   3.708 -0.3360  0.6180 -0.4437
 1014TIP3    H1 3048   5.828   2.994   3.682 -0.2188  0.9595 -0.3861
 1014TIP3    H2 3049   5.940   2.902   3.637  0.2628  2.0194 -1.3944
 1015TIP3   OH2 3050   4.549   5.348   0.718  0.2962 -0.2275  0.3274
 1015TIP3    H1 3051   4.580   5.278   0.661 -0.5019  0.0663 -0.4957
 1015TIP3    H2 3052   4.620   5.413   0.718  0.9609 -0.9353  0.9468
 1016TIP3   OH2 3053   6.025   5.145   0.230  0.2325  0.3043  0.0159
 1016TIP3    H1 3054   6.114   5.177   0.220  0.7781 -1.2738 -0.5473
 1016TIP3    H2 3055   6.035   5.051   0.248 -1.3420 -0.8466 -4.0125
 1017TIP3   OH2 3056   5.799   4.079   2.633  0.7267  0.0185  0.2307
 1017TIP3    H1 3057   5.824   4.158   2.585 -0.1462 -0.2508 -0.6897
 1017TIP3    H2 3058   5.710   4.096   2.663  1.6914  0.7497  3.0352
 1018TIP3   OH2 3059   3.219   5.009   4.633  0.0350 -0.2608 -1.0668
 1018TIP3    H1 3060   3.204   5.088   4.580 -0.5623  0.0260 -0.4887
 1018TIP3    H2 3061   3.299   4.971   4.597  0.0667  0.3482 -1.6676
 1019TIP3   OH2 3062   3.138   3.685   3.035 -0.1448  0.2525 -0.3014
 1019TIP3    H1 3063   3.057   3.633   3.032 -0.2238  0.2982  0.6247
 1019TIP3    H2 3064   3.208   3.621   3.026 -0.2810  0.1987 -0.9992
 1020TIP3   OH2 3065   1.568   3.514   2.296  0.3629  0.9892  0.5748
 1020TIP3    H1 3066   1.526   3.517   2.210 -0.1526  1.0461  0.8286
 1020TIP3    H2 3067   1.558   3.423   2.324 -0.3639  1.2012  1.0175
 1021TIP3   OH2 3068   3.303   4.219   2.229  0.4458 -0.1710 -0.2976
 1021TIP3    H1 3069   3.322   4.243   2.319  1.3460  0.2622 -0.5863
 1021TIP3    H2 3070   3.357   4.278   2.177 -1.5712  1.0039 -1.1969
 1022TIP3   OH2 3071   0.602   3.396   3.656 -0.3981  0.2595 -0.0839
 1022TIP3    H1 3072   0.559   3.482   3.656  0.2707  0.6065  1.1543
 1022TIP3    H2 3073   0.565   3.352   3.580 -2.0074  1.0154  0.2165
 1023TIP3   OH2 3074   3.837   3.440   2.561  0.1378  0.2630  0.1471
 1023TIP3    H1 3075   3.814   3.453   2.470  0.0629 -1.5196 -0.1188
 1023TIP3    H2 3076   3.890   3.360   2.561  0.2957  0.3410  1.6385
 1024TIP3   OH2 3077   5.880   0.575   0.855  0.2523 -0.3081 -0.2748
 1024TIP3    H1 3078   5.874   0.624   0.773  0.2983 -1.3749 -0.9209
 1024TIP3    H2 3079   5.960   0.523   0.847  1.2724  0.9418  1.2181
 1025TIP3   OH2 3080   5.737   5.528   3.758 -0.3854  0.3531 -0.3132
 1025TIP3    H1 3081   5.800   5.463   3.726 -2.3852 -2.6386  1.3743
 1025TIP3    H2 3082   5.656   5.508   3.711 -1.4314  0.6411  1.2859
 1026TIP3   OH2 3083   3.426   0.169   4.111  0.5790 -0.6499  0.0121
 1026TIP3    H1 3084   3.382   0.188   4.193  0.7168  0.1917 -0.0915
 1026TIP3    H2 3085   3.512   0.135   4.137  0.9775  0.4756  0.2410
 1027TIP3   OH2 3086   5.294   1.835   2.474 -0.3700  0.3573  0.1669
 1027TIP3    H1 3087   5.311   1.801   2.562 -1.0143  1.4428  0.7305
 1027TIP3    H2 3088   5.377   1.873   2.447 -0.4063  0.8285  0.6887
 1028TIP3   OH2 3089   1.795   1.882   3.934 -0.1400 -0.4708 -0.7446
 1028TIP3    H1 3090   1.742   1.954   3.900  0.7339  0.0436 -1.0433
 1028TIP3    H2 3091   1.878   1.889   3.887  0.8867 -0.1315  1.0166
 1029TIP3   OH2 3092   2.280   3.118   3.052 -0.3868  0.1172  0.1942
 1029TIP3    H1 3093   2.266   3.034   3.007 -0.8393 -1.6081  3.2682
 1029TIP3    H2 3094   2.374   3.134   3.042 -0.5230 -0.0221 -1.5763
 1030TIP3   OH2 3095   4.146   4.307   2.853 -0.1814  0.2674  0.5663
 1030TIP3    H1 3096   4.054   4.300   2.879 -0.3745  0.6757  0.0044
 1030TIP3    H2 3097   4.192   4.324   2.935 -0.5360 -0.5001  0.9339
 1031TIP3   OH2 3098   2.448   4.058   0.508  0.2525  0.3244  0.3241
 1031TIP3    H1 3099   2.433   4.150   0.487  2.0596  0.3510 -1.0223
 1031TIP3    H2 3100   2.400   4.010   0.440 -0.8685  0.2328  1.1503
 1032TIP3   OH2 3101   4.048   2.814   2.992  0.1211  0.2366  0.3330
 1032TIP3    H1 3102   3.976   2.872   3.018 -0.5179 -0.2445 -0.3343
 1032TIP3    H2 3103   4.087   2.787   3.075 -2.7375 -2.3816  1.0026
 1033TIP3   OH2 3104   3.847   5.644   2.609  0.4260  0.2366 -0.0078
 1033TIP3    H1 3105   3.906   5.584   2.563  1.1189 -0.0018  1.1397
 1033TIP3    H2 3106   3.858   5.728   2.564  1.7050  0.2109  0.2094
 1034TIP3   OH2 3107   0.841   4.058   0.268  0.2522 -0.2477  0.5457
 1034TIP3    H1 3108   0.763   4.041   0.215  1.5952 -1.2414 -1.2026
 1034TIP3    H2 3109   0.878   3.971   0.284  1.4280  0.2598  0.6656
 1035TIP3   OH2 3110   2.015   3.913   1.794 -0.1630 -0.2725  0.1664
 1035TIP3    H1 3111   2.032   3.865   1.713  0.6134  0.3527 -0.0558
 1035TIP3    H2 3112   1.937   3.872   1.831 -0.8382 -0.2283 -1.1653
 1036TIP3   OH2 3113   0.270   2.046   0.685  0.6017 -0.1988  0.4830
 1036TIP3    H1 3114   0.227   1.963   0.707 -0.7168  0.5235  0.7339
 1036TIP3    H2 3115   0.285   2.041   0.591 -1.1858  0.0090  0.1434
 1037TIP3   OH2 3116   6.021   0.827   1.424  0.3114 -0.0312 -0.2982
 1037TIP3    H1 3117   6.095   0.887   1.418  0.3611 -0.0298  0.2573
 1037TIP3    H2 3118   5.944   0.883   1.427  0.4536  0.1738  2.5202
 1038TIP3   OH2 3119   3.553   4.347   5.178 -0.0789 -0.4900 -0.3730
 1038TIP3    H1 3120   3.486   4.415   5.194 -0.4504 -0.5424 -1.5875
 1038TIP3    H2 3121   3.503   4.268   5.160  0.3209 -0.6732 -0.6988
 1039TIP3   OH2 3122   2.080   1.408   0.704 -0.1957  0.6720 -0.9951
 1039TIP3    H1 3123   2.055   1.385   0.793  0.3351 -0.8566 -1.2199
 1039TIP3    H2 3124   2.024   1.483   0.683 -0.2190  1.1682  0.6596
 1040TIP3   OH2 3125   1.370   0.826   1.315  0.0937  0.1853 -1.1163
 1040TIP3    H1 3126   1.416   0.884   1.255 -0.5204 -0.4395 -2.2259
 1040TIP3    H2 3127   1.355   0.746   1.265 -0.8108 -0.2041 -0.2674
 1041TIP3   OH2 3128   1.868   1.081   3.269 -0.6163 -0.0516 -0.0818
 1041TIP3    H1 3129   1.848   0.997   3.229  0.5399  0.1783 -1.2050
 1041TIP3    H2 3130   1.961   1.096   3.249 -0.1271  0.3764  2.1579
 1042TIP3   OH2 3131   4.206   2.770   3.592  0.0452  0.4474 -0.6664
 1042TIP3    H1 3132   4.174   2.769   3.682 -0.0441 -0.4408 -0.6947
 1042TIP3    H2 3133   4.175   2.852   3.555 -3.0393 -0.7296 -0.9958
 1043TIP3   OH2 3134   4.684   1.693   4.233  0.1594 -0.0334  0.6272
 1043TIP3    H1 3135   4.646   1.690   4.145 -0.4278 -0.2800  0.8878
 1043TIP3    H2 3136   4.679   1.602   4.264 -1.2556  0.3443  1.5962
 1044TIP3   OH2 3137   2.242   1.494   2.828  0.3637  0.8907 -0.1207
 1044TIP3    H1 3138   2.157   1.536   2.815  0.4273  0.7668 -1.0243
 1044TIP3    H2 3139   2.302   1.565   2.850  0.1349  1.0535 -0.0267
 1045TIP3   OH2 3140   0.714   0.695   4.157 -0.3889  0.8932 -0.0636
 1045TIP3    H1 3141   0.696   0.750   4.234  0.3829  0.2974  0.5598
 1045TIP3    H2 3142   0.781   0.742   4.109 -0.2334  0.8338  0.0960
 1046TIP3   OH2 3143   5.058   0.867   1.970  0.2119 -0.3389 -0.5094
 1046TIP3    H1 3144   5.114   0.928   1.923  0.5653  0.0152  0.3509
 1046TIP3    H2 3145   4.983   0.854   1.912 -1.1436  2.8974  0.3044
 1047TIP3   OH2 3146   0.325   2.282   3.733  0.4263 -0.1306  0.4414
 1047TIP3    H1 3147   0.229   2.279   3.726  0.3474 -0.1033  1.3484
 1047TIP3    H2 3148   0.349   2.364   3.691 -0.1313  0.7860  1.8509
 1048TIP3   OH2 3149   5.564   3.213   0.609 -0.5139 -0.0467 -0.1023
 1048TIP3    H1 3150   5.595   3.139   0.662 -0.0625 -2.0791 -2.9573
 1048TIP3    H2 3151   5.532   3.277   0.673  0.3494 -2.1120  2.5790
 1049TIP3   OH2 3152   2.675   0.457   0.781  0.5510 -0.3246  0.1056
 1049TIP3    H1 3153   2.643   0.370   0.757  1.1597 -0.6439  0.4174
 1049TIP3    H2 3154   2.601   0.515   0.763 -0.0821 -0.9886  0.4811
 1050TIP3   OH2 3155   5.379   2.539   3.565  0.2370 -0.4869 -0.5216
 1050TIP3    H1 3156   5.341   2.468   3.617 -1.5967  1.1924  0.5458
 1050TIP3    H2 3157   5.385   2.503   3.477  1.8229 -2.8292  0.4112
 1051TIP3   OH2 3158   5.772   1.068   1.741  0.1162  0.0913 -0.1224
 1051TIP3    H1 3159   5.712   1.008   1.698  0.9044  0.3674 -1.7258
 1051TIP3    H2 3160   5.841   1.012   1.777 -0.4941 -0.1412  0.6868
 1052TIP3   OH2 3161   0.922   1.308   2.661 -0.5311 -0.0200  0.0212
 1052TIP3    H1 3162   0.836   1.292   2.621 -0.8718  2.1189 -0.2192
 1052TIP3    H2 3163   0.961   1.376   2.607 -0.3161  1.8260  2.3454
 1053TIP3   OH2 3164   0.964   2.334   1.200 -0.5368 -0.4493  0.0707
 1053TIP3    H1 3165   0.908   2.394   1.150 -0.9707 -1.5876 -0.8558
 1053TIP3    H2 3166   0.979   2.261   1.141  2.4253  0.0357  0.0476
 1054TIP3   OH2 3167   5.746   3.155   2.636  0.4558  0.5858  0.2044
 1054TIP3    H1 3168   5.658   3.161   2.674  0.9774  1.6149  1.3155
 1054TIP3    H2 3169   5.760   3.241   2.595  0.9101  0.3896 -0.0560
 1055TIP3   OH2 3170   6.311   2.340   0.990  0.1925 -0.4210  0.3694
 1055TIP3    H1 3171   6.338   2.285   1.063  2.3915 -0.0710 -0.0820
 1055TIP3    H2 3172   6.382   2.330   0.926 -1.5103 -0.4972 -1.6168
 1056TIP3   OH2 3173   0.319   3.840   3.614 -0.3821 -0.6927 -0.5063
 1056TIP3    H1 3174   0.408   3.855   3.648 -0.8353 -0.7478  0.7481
 1056TIP3    H2 3175   0.262   3.880   3.680 -1.2790 -0.2711 -1.5258
 1057TIP3   OH2 3176   5.102   1.849   1.783  0.6001  0.0600  0.0256
 1057TIP3    H1 3177   5.030   1.864   1.723  0.4915 -0.4415  0.0236
 1057TIP3    H2 3178   5.147   1.771   1.748  0.6010 -0.1716  0.5259
 1058TIP3   OH2 3179   1.777   0.807   3.464 -0.4446  0.3764  0.5721
 1058TIP3    H1 3180   1.847   0.781   3.404 -1.1191 -0.2085  0.0256
 1058TIP3    H2 3181   1.820   0.813   3.549  0.4403  0.8000  0.1145
 1059TIP3   OH2 3182   2.693   1.558   5.012 -0.3385 -0.2309 -0.1441
 1059TIP3    H1 3183   2.629   1.577   5.081 -0.5903  1.8217 -0.8960
 1059TIP3    H2 3184   2.642   1.555   4.932  0.1815 -1.0194 -0.4582
 1060TIP3   OH2 3185   5.192   3.130   5.018 -0.7797  0.1664  0.2939
 1060TIP3    H1 3186   5.251   3.191   5.063  0.0337  0.1430 -0.6825
 1060TIP3    H2 3187   5.121   3.185   4.986  0.2278  0.7603 -1.0652
 1061TIP3   OH2 3188   5.516   1.104   4.496 -0.2852 -0.1384  0.3676
 1061TIP3    H1 3189   5.590   1.073   4.547 -0.4032 -2.1451 -0.5863
 1061TIP3    H2 3190   5.440   1.093   4.553 -0.5116 -2.9900 -0.3353
 1062TIP3   OH2 3191   3.254   4.498   1.135  0.1146  0.2071 -0.3425
 1062TIP3    H1 3192   3.315   4.426   1.146  1.0153  0.9328 -0.5115
 1062TIP3    H2 3193   3.222   4.489   1.045  0.7786  0.4420 -0.6054
 1063TIP3   OH2 3194   4.594   4.051   3.193 -0.3018 -0.5346  0.5538
 1063TIP3    H1 3195   4.503   4.050   3.162 -0.8366 -1.3222  2.0564
 1063TIP3    H2 3196   4.591   4.099   3.276  1.1029  1.6108 -0.5394
 1064TIP3   OH2 3197   3.230   2.668   0.089 -0.1583 -0.1652  0.3944
 1064TIP3    H1 3198   3.239   2.761   0.106 -0.7217 -0.2095  0.9598
 1064TIP3    H2 3199   3.275   2.625   0.162  0.7278 -0.3389 -0.2387
 1065TIP3   OH2 3200   5.970   2.864   2.895 -0.0138 -0.1980 -0.0777
 1065TIP3    H1 3201   6.009   2.803   2.958  0.0057 -1.8342 -1.5618
 1065TIP3    H2 3202   5.877   2.841   2.892  0.3976 -2.0022 -2.4494
 1066TIP3   OH2 3203   0.945   4.398   0.759  1.1834 -0.2241  0.1491
 1066TIP3    H1 3204   0.987   4.392   0.673 -0.4698 -0.6581 -0.6567
 1066TIP3    H2 3205   0.992   4.335   0.813  0.1333 -2.4345 -1.3815
 1067TIP3   OH2 3206   3.609   0.259   3.741 -0.0563 -0.1850  0.1268
 1067TIP3    H1 3207   3.639   0.170   3.762  0.8919  0.7531  3.2100
 1067TIP3    H2 3208   3.533   0.272   3.798 -0.1844  1.0090 -0.2967
 1068TIP3   OH2 3209   2.487   5.337   3.401  0.4860  0.2724 -0.5046
 1068TIP3    H1 3210   2.423   5.408   3.406  0.3555  0.1488 -0.4258
 1068TIP3    H2 3211   2.503   5.328   3.307 -1.0597 -0.9759 -0.6949
 1069TIP3   OH2 3212   1.491   0.633   3.657 -0.6371 -0.2153  0.2763
 1069TIP3    H1 3213   1.482   0.692   3.732  0.2025 -0.2683  0.4319
 1069TIP3    H2 3214   1.438   0.672   3.588 -0.2642  0.6049  0.4482
 1070TIP3   OH2 3215   0.262   5.589   0.065 -0.2835 -0.5036 -0.3476
 1070TIP3    H1 3216   0.254   5.513   0.007  0.6761 -1.6723  0.9663
 1070TIP3    H2 3217   0.195   5.574   0.133  0.3098 -0.5055  0.2499
 1071TIP3   OH2 3218   4.170   4.990   4.343 -0.1649  0.6385 -0.0264
 1071TIP3    H1 3219   4.174   5.004   4.437 -0.7162 -0.1778  0.1221
 1071TIP3    H2 3220   4.255   4.952   4.321 -0.1795  0.4740  0.2019
 1072TIP3   OH2 3221   3.042   3.140   0.573 -0.2773  0.1131  0.3817
 1072TIP3    H1 3222   3.006   3.211   0.519 -1.2766  0.1790  1.1077
 1072TIP3    H2 3223   3.118   3.179   0.616 -0.2423  0.4459  0.0250
 1073TIP3   OH2 3224   3.426   0.936   2.227  0.2788  0.1930 -0.7655
 1073TIP3    H1 3225   3.489   0.891   2.283 -1.1091 -1.2368 -0.2875
 1073TIP3    H2 3226   3.480   0.981   2.162  1.8908  1.1032  1.0921
 1074TIP3   OH2 3227   3.858   1.539   4.354  0.0991 -0.7816  0.1667
 1074TIP3    H1 3228   3.864   1.585   4.270  2.7041  1.9204  1.6259
 1074TIP3    H2 3229   3.932   1.479   4.353  0.1414 -0.7370  0.5088
 1075TIP3   OH2 3230   0.958   3.368   3.416 -0.1444  0.1890 -0.2916
 1075TIP3    H1 3231   0.923   3.290   3.458 -0.1910  0.7945  0.8349
 1075TIP3    H2 3232   0.922   3.441   3.467  0.2007  0.9385 -1.0841
 1076TIP3   OH2 3233   4.714   0.752   4.895  0.2255  0.0384 -0.0254
 1076TIP3    H1 3234   4.678   0.790   4.815 -1.2923 -1.4300 -0.0932
 1076TIP3    H2 3235   4.641   0.703   4.933  0.6928  1.2513  2.6423
 1077TIP3   OH2 3236   1.847   3.748   2.211 -0.2737  0.2053 -0.2194
 1077TIP3    H1 3237   1.873   3.687   2.281 -1.0320  0.4961  0.3236
 1077TIP3    H2 3238   1.929   3.768   2.166 -0.0262 -1.3250 -0.4986
 1078TIP3   OH2 3239   5.454   5.350   3.885  0.4449 -0.1139 -0.4522
 1078TIP3    H1 3240   5.397   5.275   3.865  0.8029 -0.2837 -0.8624
 1078TIP3    H2 3241   5.402   5.405   3.943 -0.1351 -0.2722 -0.8108
 1079TIP3   OH2 3242   4.032   5.206   2.697  0.7855  0.3891 -0.0778
 1079TIP3    H1 3243   3.951   5.221   2.648  1.1368 -1.6127 -1.3641
 1079TIP3    H2 3244   4.038   5.282   2.756 -2.4317  0.2003  0.6855
 1080TIP3   OH2 3245   2.811   2.581   3.040 -0.0753 -0.7812 -0.2364
 1080TIP3    H1 3246   2.880   2.550   2.982  1.0447  0.2737  0.4693
 1080TIP3    H2 3247   2.793   2.670   3.009 -0.4689 -0.7256  0.1506
 1081TIP3   OH2 3248   1.190   5.558   3.990  0.1073 -0.4273 -0.0857
 1081TIP3    H1 3249   1.263   5.519   4.037  0.3180 -0.5291 -0.4924
 1081TIP3    H2 3250   1.229   5.590   3.908  0.5273  2.9289  1.2398
 1082TIP3   OH2 3251   1.950   4.702   0.104 -0.4228  0.0520  0.4063
 1082TIP3    H1 3252   1.977   4.770   0.043 -0.2072 -0.5686 -0.1964
 1082TIP3    H2 3253   2.027   4.685   0.157  0.0262 -0.8479 -0.5040
 1083TIP3   OH2 3254   1.538   3.256   2.392 -0.8107  0.2233  0.2891
 1083TIP3    H1 3255   1.607   3.216   2.338 -0.0645  3.7716 -1.6754
 1083TIP3    H2 3256   1.458   3.239   2.344 -0.6070  0.4365 -0.1306
 1084TIP3   OH2 3257   5.615   4.370   4.220  0.4690 -0.2734  0.0765
 1084TIP3    H1 3258   5.578   4.282   4.218 -1.4167  0.3800  2.0907
 1084TIP3    H2 3259   5.628   4.389   4.313 -1.2269  2.3308 -0.0977
 1085TIP3   OH2 3260   2.106   3.506   1.224 -0.2382 -0.0420 -0.5096
 1085TIP3    H1 3261   2.062   3.484   1.141 -3.0439  0.7546  0.6209
 1085TIP3    H2 3262   2.186   3.550   1.197  0.5498 -2.5826 -2.7499
 1086TIP3   OH2 3263   0.180   1.206   0.360  0.0924 -0.5062 -0.0056
 1086TIP3    H1 3264   0.099   1.246   0.389 -0.2031 -0.0061 -1.4353
 1086TIP3    H2 3265   0.192   1.131   0.418 -0.3172  0.5584  1.5170
 1087TIP3   OH2 3266   4.884   0.497   0.408 -0.4467 -0.5176  0.1187
 1087TIP3    H1 3267   4.828   0.485   0.484 -0.1528  0.2886  0.4781
 1087TIP3    H2 3268   4.844   0.569   0.360  0.0919 -0.1492  0.2129
 1088TIP3   OH2 3269   4.244   2.918   5.190 -0.2814  0.1452  0.2142
 1088TIP3    H1 3270   4.291   2.850   5.143 -0.7192  0.8945 -1.4081
 1088TIP3    H2 3271   4.274   3.000   5.149  0.0140  0.9243  1.9044
 1089TIP3   OH2 3272   5.192   4.309   1.625  0.3242 -0.1655  0.2224
 1089TIP3    H1 3273   5.277   4.347   1.647  0.7794 -0.9691 -0.1074
 1089TIP3    H2 3274   5.168   4.257   1.702 -0.4760  1.0453  0.8280
 1090TIP3   OH2 3275   1.647   2.364   4.648 -0.2358  0.3265 -0.2716
 1090TIP3    H1 3276   1.704   2.364   4.571  1.7373  0.0664  1.1231
 1090TIP3    H2 3277   1.567   2.408   4.619  1.3854  2.4446 -1.8103
 1091TIP3   OH2 3278   0.519   1.454   4.478 -0.0584  0.0017 -0.3041
 1091TIP3    H1 3279   0.486   1.364   4.477 -1.3481  0.4512 -1.3136
 1091TIP3    H2 3280   0.581   1.456   4.551 -2.1094 -1.0012  1.5856
 1092TIP3   OH2 3281   1.030   0.061   3.511  0.0198 -0.1982 -0.3810
 1092TIP3    H1 3282   1.038   0.044   3.417  2.4821  2.0650 -0.7320
 1092TIP3    H2 3283   1.000   0.152   3.516 -0.3800 -0.3847  1.0315
 1093TIP3   OH2 3284   3.831   4.846   2.936  0.4527  0.9008  0.5100
 1093TIP3    H1 3285   3.743   4.883   2.937  0.2915  0.5145  0.7886
 1093TIP3    H2 3286   3.838   4.799   3.019 -0.2181 -1.6833 -0.7706
 1094TIP3   OH2 3287   0.341   5.614   5.124 -0.2258  0.0473 -0.1283
 1094TIP3    H1 3288   0.294   5.695   5.144 -0.2633  0.2457 -0.9960
 1094TIP3    H2 3289   0.334   5.604   5.029 -1.1437 -1.5450  0.0657
 1095TIP3   OH2 3290   5.621   2.881   2.542  0.7894 -0.4221  0.2714
 1095TIP3    H1 3291   5.645   2.853   2.453 -3.8029 -1.3678 -0.9550
 1095TIP3    H2 3292   5.605   2.975   2.533  1.1274 -0.3612  0.3064
 1096TIP3   OH2 3293   1.193   0.891   4.094 -0.3605  0.0392  0.2362
 1096TIP3    H1 3294   1.217   0.983   4.096 -0.8530  0.1677  1.4728
 1096TIP3    H2 3295   1.226   0.856   4.177 -1.0183 -0.6659  0.2116
 1097TIP3   OH2 3296   1.903   4.421   0.822 -0.0135  0.7607 -0.2442
 1097TIP3    H1 3297   1.866   4.505   0.850  0.4213 -0.0388  3.2348
 1097TIP3    H2 3298   1.998   4.434   0.827  0.0931  0.5071 -1.3378
 1098TIP3   OH2 3299   2.466   5.822   2.413  0.7687  0.3358  0.1339
 1098TIP3    H1 3300   2.426   5.866   2.488  1.9444  0.2132  0.8572
 1098TIP3    H2 3301   2.441   5.877   2.338  0.4353  1.0431  0.7416
 1099TIP3   OH2 3302   4.724   0.125   2.904 -0.6272  0.3801 -0.3112
 1099TIP3    H1 3303   4.746   0.076   2.983 -1.4246  2.4434  1.3023
 1099TIP3    H2 3304   4.769   0.079   2.834  0.7362 -1.1221  1.4370
 1100TIP3   OH2 3305   3.061   2.982   3.387  0.3125 -0.6022  0.7244
 1100TIP3    H1 3306   3.151   2.975   3.419  0.1807  1.0920  1.5930
 1100TIP3    H2 3307   3.009   2.931   3.448  0.5023 -0.2715  1.1673
 1101TIP3   OH2 3308   5.685   2.159   4.721  0.0937 -0.2651 -0.7698
 1101TIP3    H1 3309   5.739   2.224   4.765 -0.8122  0.0170 -0.0390
 1101TIP3    H2 3310   5.639   2.209   4.653  1.4404 -0.6861 -2.0360
 1102TIP3   OH2 3311   0.365   4.039   1.526  0.4359 -0.4010  0.2028
 1102TIP3    H1 3312   0.271   4.049   1.516  0.4999 -0.6001 -0.6880
 1102TIP3    H2 3313   0.393   4.118   1.571 -0.1156 -0.1889  0.1738
 1103TIP3   OH2 3314   1.680   2.829   0.874  0.1108 -1.1115 -0.0631
 1103TIP3    H1 3315   1.585   2.815   0.866  0.3556 -2.0573 -1.8810
 1103TIP3    H2 3316   1.700   2.808   0.965 -1.5953  0.3098  0.6977
 1104TIP3   OH2 3317   3.104   5.793   1.546 -0.3185  0.3147  0.1770
 1104TIP3    H1 3318   3.178   5.781   1.487 -0.0251  0.5753  0.4896
 1104TIP3    H2 3319   3.064   5.706   1.552 -1.1833  0.5536 -1.4766
 1105TIP3   OH2 3320   1.158   4.666   4.619 -0.0029 -0.0312 -0.8469
 1105TIP3    H1 3321   1.129   4.703   4.702  0.8479  1.7440 -1.2981
 1105TIP3    H2 3322   1.232   4.610   4.643  0.4285  0.7060 -0.4419
 1106TIP3   OH2 3323   6.088   3.484   4.096 -0.1481 -0.0512 -0.0113
 1106TIP3    H1 3324   6.077   3.442   4.011  1.3282  2.5583 -1.6522
 1106TIP3    H2 3325   6.175   3.458   4.125  0.0046  0.3089 -0.1274
 1107TIP3   OH2 3326   5.740   3.470   1.636 -0.4051  0.5513 -0.2498
 1107TIP3    H1 3327   5.759   3.453   1.728  0.4660 -2.0880 -0.8317
 1107TIP3    H2 3328   5.811   3.526   1.606 -0.2844  0.8019  0.4873
 1108TIP3   OH2 3329   5.628   2.697   3.485 -0.0235  0.3746 -0.5371
 1108TIP3    H1 3330   5.538   2.667   3.493  0.6182 -1.3810  0.6204
 1108TIP3    H2 3331   5.653   2.721   3.574  0.3598  1.8512 -1.0090
 1109TIP3   OH2 3332   1.935   5.933   4.588  0.0892  0.1086 -0.5959
 1109TIP3    H1 3333   2.005   5.989   4.554  1.8240 -2.2598 -1.1319
 1109TIP3    H2 3334   1.908   5.880   4.512 -1.4410  0.1044 -0.0875
 1110TIP3   OH2 3335   5.014   1.255   2.786 -0.4291  0.4669  0.0215
 1110TIP3    H1 3336   5.107   1.258   2.807 -0.5775 -1.0094  1.0343
 1110TIP3    H2 3337   5.011   1.238   2.691  0.2948  1.8116 -0.2632
 1111TIP3   OH2 3338   6.347   3.063   4.088  0.5194 -0.3467 -0.1998
 1111TIP3    H1 3339   6.316   2.973   4.081 -2.0929  0.5105 -0.8030
 1111TIP3    H2 3340   6.341   3.098   3.999  1.8770  0.3284 -0.0487
 1112TIP3   OH2 3341   4.527   2.955   1.341  0.2619  0.6358  0.3035
 1112TIP3    H1 3342   4.606   2.949   1.395 -0.1874  3.3300  1.4475
 1112TIP3    H2 3343   4.455   2.946   1.404 -0.3139  0.6764 -0.3458
 1113TIP3   OH2 3344   5.638   4.281   3.700 -0.5409 -0.6329  0.2470
 1113TIP3    H1 3345   5.586   4.360   3.715  0.9700  0.3114  0.7324
 1113TIP3    H2 3346   5.632   4.233   3.783  1.7769  0.9794  1.4494
 1114TIP3   OH2 3347   3.572   2.466   0.126  0.0657  0.0035 -0.0328
 1114TIP3    H1 3348   3.574   2.372   0.106 -2.0548 -0.3084  0.8566
 1114TIP3    H2 3349   3.577   2.469   0.222  0.8917  0.8675 -0.0935
 1115TIP3   OH2 3350   4.670   0.391   2.942 -0.1579  0.5022  0.8038
 1115TIP3    H1 3351   4.683   0.297   2.929 -2.9687  0.1051  0.2235
 1115TIP3    H2 3352   4.717   0.432   2.870  0.8704 -0.4536  0.9032
 1116TIP3   OH2 3353   4.115   5.258   4.261 -0.1825  0.0322 -0.6763
 1116TIP3    H1 3354   4.084   5.179   4.305  0.9330  0.0565  0.1769
 1116TIP3    H2 3355   4.053   5.271   4.189 -0.4155 -1.5892 -0.8033
 1117TIP3   OH2 3356   5.931   4.288   0.990 -0.3256 -0.2351 -0.0611
 1117TIP3    H1 3357   5.914   4.268   0.898 -0.2737 -1.4101  0.1686
 1117TIP3    H2 3358   5.910   4.207   1.036 -1.6186  0.7422  1.1310
 1118TIP3   OH2 3359   0.399   4.815   2.662 -0.2518  0.2288 -0.1246
 1118TIP3    H1 3360   0.381   4.907   2.641  2.0231  1.2831  2.0362
 1118TIP3    H2 3361   0.453   4.783   2.590 -0.1866  0.9086 -0.3778
 1119TIP3   OH2 3362   2.118   1.557   3.603  0.3691  0.2185 -0.1619
 1119TIP3    H1 3363   2.086   1.483   3.552  3.0392 -1.3714  0.2616
 1119TIP3    H2 3364   2.079   1.544   3.690 -0.2508  0.1129 -0.4474
 1120TIP3   OH2 3365   1.681   2.471   1.250 -0.0152  0.3492  0.5792
 1120TIP3    H1 3366   1.731   2.480   1.331 -0.6205  0.8946  0.8963
 1120TIP3    H2 3367   1.605   2.417   1.274  0.6294 -0.8590 -0.0032
 1121TIP3   OH2 3368   5.854   2.371   4.834 -0.0477 -0.2946  0.2498
 1121TIP3    H1 3369   5.946   2.367   4.811  0.2487 -1.0451  1.4433
 1121TIP3    H2 3370   5.849   2.331   4.921 -1.3040  0.9782  0.8106
 1122TIP3   OH2 3371   3.232   0.575   1.637 -0.3010  0.5197 -0.7161
 1122TIP3    H1 3372   3.168   0.608   1.574  0.0712 -0.2674 -1.5299
 1122TIP3    H2 3373   3.287   0.516   1.586 -0.4268 -0.6876  0.4857
 1123TIP3   OH2 3374   0.819   5.027   0.784  0.2617  0.2552  0.0091
 1123TIP3    H1 3375   0.756   5.007   0.853 -0.7737  0.5050 -0.8388
 1123TIP3    H2 3376   0.874   4.949   0.779 -0.7150 -0.4583 -0.0162
 1124TIP3   OH2 3377   4.444   5.446   1.329 -0.1524  0.2025 -0.1192
 1124TIP3    H1 3378   4.446   5.448   1.233  0.8586 -2.1862 -0.2137
 1124TIP3    H2 3379   4.517   5.502   1.355  0.0055  0.3029 -0.7531
 1125TIP3   OH2 3380   3.149   1.443   1.839 -0.4810 -0.0551 -0.1194
 1125TIP3    H1 3381   3.070   1.390   1.851 -0.5207  0.5243  3.2370
 1125TIP3    H2 3382   3.221   1.381   1.850 -0.5393  0.1966  2.2580
 1126TIP3   OH2 3383   4.396   3.618   4.576 -0.1635 -0.4184 -0.1602
 1126TIP3    H1 3384   4.349   3.621   4.659 -1.3491 -0.1381 -0.8207
 1126TIP3    H2 3385   4.459   3.690   4.581 -1.5580  0.8364 -0.2638
 1127TIP3   OH2 3386   2.432   0.443   3.450  0.4014 -0.1667 -0.5133
 1127TIP3    H1 3387   2.473   0.471   3.532 -0.8312 -0.3673  0.1956
 1127TIP3    H2 3388   2.471   0.500   3.383  0.7569  0.6141  0.3374
 1128TIP3   OH2 3389   6.123   5.496   1.234 -0.0983 -0.2901  0.7952
 1128TIP3    H1 3390   6.147   5.403   1.232  0.6506 -0.1554  2.1082
 1128TIP3    H2 3391   6.070   5.505   1.314 -0.8942  0.2600  0.2228
 1129TIP3   OH2 3392   3.885   3.096   5.055 -0.0479  0.7690  0.1779
 1129TIP3    H1 3393   3.942   3.064   4.985  0.5192 -0.9179  1.3453
 1129TIP3    H2 3394   3.802   3.049   5.042 -0.3891  1.4363 -0.1117
 1130TIP3   OH2 3395   5.422   5.192   1.108 -0.3119 -0.4250  0.2051
 1130TIP3    H1 3396   5.377   5.273   1.081  0.9830  0.0530 -0.5719
 1130TIP3    H2 3397   5.351   5.129   1.120 -1.3353  0.7492  0.5965
 1131TIP3   OH2 3398   2.851   5.532   2.207 -0.3569 -0.6731  0.0739
 1131TIP3    H1 3399   2.860   5.574   2.122  0.5920 -1.1543 -0.0796
 1131TIP3    H2 3400   2.775   5.574   2.247  0.0582  0.5967 -0.4063
 1132TIP3   OH2 3401   2.884   1.178   2.524 -0.1105 -0.0281  0.2132
 1132TIP3    H1 3402   2.795   1.210   2.535  0.4199  1.6846 -0.2777
 1132TIP3    H2 3403   2.901   1.185   2.430  1.0432  1.1072  0.4783
 1133TIP3   OH2 3404   5.865   3.917   2.417 -0.4309 -0.4008 -0.1168
 1133TIP3    H1 3405   5.835   3.960   2.497 -1.3651 -0.0830 -0.6295
 1133TIP3    H2 3406   5.787   3.878   2.379  0.4134 -2.8885  0.4907
 1134TIP3   OH2 3407   3.742   1.349   1.420  0.1920  0.7193  0.3151
 1134TIP3    H1 3408   3.753   1.261   1.457 -0.5458  0.2680 -0.4908
 1134TIP3    H2 3409   3.711   1.402   1.493  0.4147  0.2528  0.7545
 1135TIP3   OH2 3410   4.816   4.656   1.584 -0.0194  0.0005 -0.5109
 1135TIP3    H1 3411   4.780   4.647   1.495  3.4124  1.6378 -2.2723
 1135TIP3    H2 3412   4.783   4.741   1.614  0.2106  0.2553 -0.9704
 1136TIP3   OH2 3413   2.344   4.649   0.492  0.3148 -0.0406 -0.5976
 1136TIP3    H1 3414   2.390   4.709   0.433 -0.1789  0.3739 -0.5663
 1136TIP3    H2 3415   2.252   4.655   0.465  0.2907 -0.9802 -0.7704
 1137TIP3   OH2 3416   0.812   1.781   1.003  0.0564  0.0392 -0.4472
 1137TIP3    H1 3417   0.755   1.843   0.957  0.5316 -0.1308 -1.2710
 1137TIP3    H2 3418   0.897   1.825   1.006  0.0702 -0.0191  0.1418
 1138TIP3   OH2 3419   2.166   2.301   1.894  0.0807  0.0155 -0.2018
 1138TIP3    H1 3420   2.253   2.336   1.918  0.0063  0.1112 -0.0692
 1138TIP3    H2 3421   2.138   2.354   1.820  0.3974 -0.4075 -0.6368
 1139TIP3   OH2 3422   0.966   1.542   4.826  0.0331 -0.1542  0.1336
 1139TIP3    H1 3423   0.988   1.635   4.828  1.1565 -0.4099  0.6017
 1139TIP3    H2 3424   0.911   1.528   4.904 -0.8979  0.2827 -0.4364
 1140TIP3   OH2 3425   1.515   1.201   3.331  0.4708  0.6782  0.7246
 1140TIP3    H1 3426   1.522   1.116   3.375 -1.8136  0.6693  1.1693
 1140TIP3    H2 3427   1.428   1.201   3.293  0.7996  2.4575 -0.1211
 1141TIP3   OH2 3428   5.940   2.005   0.146  0.2180 -0.5176 -0.2790
 1141TIP3    H1 3429   5.901   2.018   0.060  1.2492 -1.8744 -0.9730
 1141TIP3    H2 3430   5.882   2.054   0.205 -0.6871  0.1715 -1.6729
 1142TIP3   OH2 3431   0.059   3.262   0.989  0.6760  0.6255  0.3435
 1142TIP3    H1 3432   0.061   3.293   0.899 -0.1338  1.7647  0.7053
 1142TIP3    H2 3433   0.118   3.186   0.989 -0.2975 -0.1817 -1.4213
 1143TIP3   OH2 3434   5.482   4.710   3.397 -0.0852  0.0027  0.4489
 1143TIP3    H1 3435   5.502   4.741   3.485 -1.7525 -0.5174  1.0469
 1143TIP3    H2 3436   5.411   4.766   3.367 -2.4357 -2.3973  1.1487
 1144TIP3   OH2 3437   1.787   3.048   1.945 -0.4794 -0.2218 -0.2166
 1144TIP3    H1 3438   1.785   3.004   1.860  1.1369 -1.4833  0.3500
 1144TIP3    H2 3439   1.848   2.997   1.997 -0.4490  1.2751  1.3095
 1145TIP3   OH2 3440   3.290  -0.003   3.482  0.0683 -0.7536 -0.0682
 1145TIP3    H1 3441   3.306   0.080   3.437 -0.5987 -1.2048 -1.1961
 1145TIP3    H2 3442   3.271   0.021   3.572  0.7225  0.2439 -0.1772
 1146TIP3   OH2 3443   3.378   3.471   3.142  0.1145  0.7284  0.5127
 1146TIP3    H1 3444   3.301   3.419   3.119  0.5540 -0.0464  0.7665
 1146TIP3    H2 3445   3.452   3.420   3.111  0.5482  1.3572  0.4790
 1147TIP3   OH2 3446   2.968   4.822   3.815 -0.2490 -0.5269  0.6200
 1147TIP3    H1 3447   2.923   4.852   3.894  0.2485  1.6533  0.1698
 1147TIP3    H2 3448   3.039   4.766   3.848 -1.3399 -1.4188  1.5374
 1148TIP3   OH2 3449   3.863   5.639   1.901 -0.2108 -0.0220 -0.3158
 1148TIP3    H1 3450   3.939   5.698   1.907 -0.7663  0.5909  1.4335
 1148TIP3    H2 3451   3.823   5.660   1.817 -0.7059  2.6071  0.4608
 1149TIP3   OH2 3452   3.540   0.987   1.847  0.1828 -0.5490  0.2438
 1149TIP3    H1 3453   3.503   0.901   1.825  1.0371 -1.3309  1.7268
 1149TIP3    H2 3454   3.634   0.977   1.832  0.4251 -0.2396  1.4886
 1150TIP3   OH2 3455   0.029   1.493   3.244  0.0095  0.0945  0.5047
 1150TIP3    H1 3456  -0.056   1.536   3.234 -0.5212 -0.9469  0.4904
 1150TIP3    H2 3457   0.092   1.566   3.242 -0.6966  0.7495 -1.5629
 1151TIP3   OH2 3458   2.567   4.214  -0.001 -0.4627 -0.0103  0.2797
 1151TIP3    H1 3459   2.557   4.220   0.094  0.0681 -2.1215  0.5216
 1151TIP3    H2 3460   2.629   4.282  -0.024  0.4229 -0.3260  1.6483
 1152TIP3   OH2 3461   3.329   1.714   4.023  0.2660  0.0566 -0.4233
 1152TIP3    H1 3462   3.317   1.758   4.107  0.9070 -0.3669 -0.1000
 1152TIP3    H2 3463   3.292   1.627   4.036  1.1094 -0.2936 -0.3087
 1153TIP3   OH2 3464   5.722   4.418   1.263  0.7133 -0.8584  0.0774
 1153TIP3    H1 3465   5.799   4.368   1.290  0.4511 -0.3915  1.8467
 1153TIP3    H2 3466   5.680   4.443   1.345 -1.7196 -1.6687 -0.8240
 1154TIP3   OH2 3467   6.116   2.475   4.256  0.1691  0.0467  0.0614
 1154TIP3    H1 3468   6.167   2.537   4.308 -0.3191  0.0041  0.5986
 1154TIP3    H2 3469   6.086   2.526   4.181  1.2428 -0.0034 -0.4180
 1155TIP3   OH2 3470   3.094   1.858   4.954  0.7853 -0.0932  0.1072
 1155TIP3    H1 3471   3.000   1.863   4.967  0.6495  1.2373 -1.1137
 1155TIP3    H2 3472   3.121   1.781   5.003 -1.0904 -1.1209 -0.3695
 1156TIP3   OH2 3473   5.563   5.059   3.403 -0.4044  0.3502  0.4417
 1156TIP3    H1 3474   5.581   5.153   3.407 -0.7111  0.4092  0.4691
 1156TIP3    H2 3475   5.584   5.027   3.490 -0.1688  0.3692  0.3930
 1157TIP3   OH2 3476   4.575   2.003   3.302 -0.0544  0.2608  0.2205
 1157TIP3    H1 3477   4.595   2.075   3.362  1.1177 -0.6914  0.9960
 1157TIP3    H2 3478   4.497   2.034   3.254  0.4179  2.0378  0.5168
 1158TIP3   OH2 3479   0.058   1.283   4.342  0.1784  0.0929  0.6173
 1158TIP3    H1 3480  -0.004   1.353   4.326  0.1185 -0.0601  0.1479
 1158TIP3    H2 3481   0.097   1.266   4.256  0.4138 -0.2365  0.7870
 1159TIP3   OH2 3482   1.910   2.945   4.863 -0.7906  0.8301  0.6194
 1159TIP3    H1 3483   1.904   3.013   4.796 -2.3537 -0.0776 -0.2276
 1159TIP3    H2 3484   1.997   2.908   4.852 -1.0991  0.5134 -1.1618
 1160TIP3   OH2 3485   0.877   0.627   0.903 -0.4627  0.0530 -0.9596
 1160TIP3    H1 3486   0.865   0.640   0.997  0.0821  0.2118 -0.9067
 1160TIP3    H2 3487   0.789   0.613   0.869 -0.4923 -1.9866 -0.1471
 1161TIP3   OH2 3488   4.786   5.197   0.630 -0.2540  0.0106 -0.4888
 1161TIP3    H1 3489   4.874   5.161   0.623  0.7088  2.1296 -0.1133
 1161TIP3    H2 3490   4.737   5.133   0.681  1.2278 -0.9483 -0.2216
 1162TIP3   OH2 3491   3.637   1.890   5.033 -0.1572 -0.1723  0.0515
 1162TIP3    H1 3492   3.580   1.854   5.100 -1.0432  0.7193 -0.2036
 1162TIP3    H2 3493   3.596   1.973   5.008  1.0254  0.2884 -0.4358
 1163TIP3   OH2 3494   0.216   0.483   4.057  0.3624 -0.4028  0.1613
 1163TIP3    H1 3495   0.311   0.477   4.054  0.3867 -0.6150  1.1776
 1163TIP3    H2 3496   0.189   0.480   3.965  1.2896 -0.9828 -0.1034
 1164TIP3   OH2 3497   2.275   1.610   3.169  0.1669  0.1379  0.2982
 1164TIP3    H1 3498   2.317   1.683   3.215  2.0243 -0.8982  0.3181
 1164TIP3    H2 3499   2.199   1.650   3.126  1.0819  2.0640  0.3729
 1165TIP3   OH2 3500   5.873   0.235   3.110 -0.6840 -0.1532 -0.0684
 1165TIP3    H1 3501   5.853   0.329   3.107 -0.1791 -0.0463 -0.3789
 1165TIP3    H2 3502   5.889   0.211   3.019  0.5720 -0.2127  0.1423
 1166TIP3   OH2 3503   4.506   5.738   2.601 -0.1546  0.0249  0.2916
 1166TIP3    H1 3504   4.562   5.681   2.548  0.0175 -0.9607  1.5142
 1166TIP3    H2 3505   4.562   5.767   2.673  0.2600  3.0104 -1.0446
 1167TIP3   OH2 3506   4.654   3.148   1.860 -0.0956  0.0654 -0.5047
 1167TIP3    H1 3507   4.746   3.119   1.859 -0.2412 -0.6892  1.7515
 1167TIP3    H2 3508   4.604   3.068   1.844 -0.4003 -0.3857  2.2238
 1168TIP3   OH2 3509   5.991   2.314   2.470 -0.5149  0.0919 -0.0012
 1168TIP3    H1 3510   6.044   2.393   2.469  0.0214 -0.2471  0.6963
 1168TIP3    H2 3511   6.048   2.247   2.508 -1.1385 -0.5024 -0.0829
 1169TIP3   OH2 3512   6.198   1.941   2.172 -0.2570 -0.2342  0.0170
 1169TIP3    H1 3513   6.240   1.933   2.086  0.2610 -0.7325  0.3141
 1169TIP3    H2 3514   6.258   1.995   2.223 -0.3283 -0.3471  0.2188
 1170TIP3   OH2 3515   4.779   3.309   3.277  0.3160  0.7530  0.2025
 1170TIP3    H1 3516   4.704   3.297   3.218  0.2319 -0.4872  0.5324
 1170TIP3    H2 3517   4.740   3.327   3.362  0.3605 -0.2709  0.4555
 1171TIP3   OH2 3518   3.931   1.679   3.035 -0.5660 -0.2734  0.6384
 1171TIP3    H1 3519   3.941   1.598   2.985 -1.1003 -0.2854  0.5437
 1171TIP3    H2 3520   3.885   1.653   3.115 -1.4237  0.0531  0.2621
 1172TIP3   OH2 3521   5.674   5.869   2.450  0.7295  0.0817 -0.0327
 1172TIP3    H1 3522   5.746   5.811   2.472  0.2840 -0.4074  0.1557
 1172TIP3    H2 3523   5.599   5.835   2.500  0.5382  1.0072  0.3361
 1173TIP3   OH2 3524   3.952   1.399   0.430 -0.2921  0.4539 -0.0831
 1173TIP3    H1 3525   3.934   1.448   0.510  1.6400  2.2295 -0.6536
 1173TIP3    H2 3526   4.040   1.426   0.405 -0.1875 -1.3614 -1.8964
 1174TIP3   OH2 3527   0.430   3.241   2.055  0.0596 -0.4375  0.5317
 1174TIP3    H1 3528   0.370   3.312   2.080  2.8124  2.0062  0.7946
 1174TIP3    H2 3529   0.402   3.217   1.966 -1.3183  0.5485  0.6527
 1175TIP3   OH2 3530   4.221   3.841   4.206 -0.0508  0.1029  0.0988
 1175TIP3    H1 3531   4.246   3.839   4.299 -0.9106  1.5664  0.3991
 1175TIP3    H2 3532   4.274   3.773   4.165  1.1436  0.1627  1.4751
 1176TIP3   OH2 3533   2.019   4.790   2.116 -0.0035  0.2630  0.3836
 1176TIP3    H1 3534   2.027   4.744   2.033 -0.5961  0.0999  0.4127
 1176TIP3    H2 3535   1.931   4.769   2.147 -0.5146  1.8641  0.1144
 1177TIP3   OH2 3536   6.309   0.674   1.951  0.6326  0.6462  0.2051
 1177TIP3    H1 3537   6.231   0.622   1.931  1.5953 -0.5627 -0.5798
 1177TIP3    H2 3538   6.292   0.759   1.910  0.4235 -0.1570 -1.4717
 1178TIP3   OH2 3539   5.672   3.544   2.366 -0.0868 -0.2133  0.1337
 1178TIP3    H1 3540   5.633   3.630   2.383 -0.0304 -0.1070 -0.2865
 1178TIP3    H2 3541   5.725   3.526   2.445 -1.1070 -0.4357  0.7881
 1179TIP3   OH2 3542   4.694   5.061   2.510  0.5375 -0.0901 -0.6084
 1179TIP3    H1 3543   4.632   5.004   2.463  0.4571 -1.0548  0.5967
 1179TIP3    H2 3544   4.727   5.006   2.581  0.6060  1.3203  0.4997
 1180TIP3   OH2 3545   0.609   5.571   0.140  0.0650 -0.1051  0.0473
 1180TIP3    H1 3546   0.677   5.584   0.206 -0.0058 -0.4062  0.1803
 1180TIP3    H2 3547   0.598   5.476   0.135 -0.1094 -0.0733 -0.2161
 1181TIP3   OH2 3548   3.222   4.707   5.026  0.1233  0.5060 -0.3011
 1181TIP3    H1 3549   3.260   4.643   4.966 -1.2734 -0.7820  0.1363
 1181TIP3    H2 3550   3.214   4.787   4.973  1.5385  0.2345 -0.9679
 1182TIP3   OH2 3551   2.138   2.012   1.197  0.1167  0.6774 -0.0049
 1182TIP3    H1 3552   2.156   2.060   1.116 -0.8634 -0.0831 -0.6920
 1182TIP3    H2 3553   2.110   1.925   1.168 -0.3512  0.4227  1.1552
 1183TIP3   OH2 3554   4.226   1.273   2.940  0.3789  0.5610  0.0056
 1183TIP3    H1 3555   4.189   1.184   2.946 -2.5069  1.6720  0.5029
 1183TIP3    H2 3556   4.316   1.259   2.911 -0.4321 -2.4677 -1.5816
 1184TIP3   OH2 3557   2.112   3.971   0.954  0.5788  0.4346  0.4961
 1184TIP3    H1 3558   2.063   4.010   1.026  0.7536  0.4840  0.5871
 1184TIP3    H2 3559   2.079   3.881   0.950 -0.4541  0.8201 -0.2693
 1185TIP3   OH2 3560   2.625   4.604   4.310 -0.3003  0.1859  0.2790
 1185TIP3    H1 3561   2.668   4.569   4.232 -0.7631 -0.9902  0.5427
 1185TIP3    H2 3562   2.693   4.658   4.352  0.4982 -0.5580 -0.0246
 1186TIP3   OH2 3563   5.013   2.299   4.647  0.3864 -0.2728  0.2120
 1186TIP3    H1 3564   4.943   2.330   4.590 -0.9024  1.5474  2.5704
 1186TIP3    H2 3565   5.038   2.376   4.698  3.2629 -1.1815  0.3731
 1187TIP3   OH2 3566   2.029   1.071   2.539 -0.0153 -0.0144  0.0249
 1187TIP3    H1 3567   1.984   1.032   2.614 -0.0274  0.1514  0.1043
 1187TIP3    H2 3568   2.070   1.150   2.574 -0.7209  0.5140 -0.3193
 1188TIP3   OH2 3569   3.481   5.079   4.339 -0.3663  0.1485 -0.1720
 1188TIP3    H1 3570   3.441   5.021   4.274 -0.6471  1.3466 -1.0996
 1188TIP3    H2 3571   3.558   5.032   4.370 -1.1372 -1.1415 -0.1598
 1189TIP3   OH2 3572   3.189   1.686   1.166  0.2996  0.1877 -0.3883
 1189TIP3    H1 3573   3.178   1.726   1.080 -0.5154 -0.4750 -0.6111
 1189TIP3    H2 3574   3.188   1.760   1.227 -0.0030  0.6029 -0.8823
 1190TIP3   OH2 3575   0.153   2.097   1.996 -0.6384  0.4138 -0.5393
 1190TIP3    H1 3576   0.191   2.180   2.025 -2.0695  1.5445 -1.7627
 1190TIP3    H2 3577   0.102   2.119   1.919 -1.2249 -1.5949 -0.7916
 1191TIP3   OH2 3578   0.178   1.311   3.469 -0.5263 -0.2688  0.2348
 1191TIP3    H1 3579   0.110   1.369   3.434 -0.6344 -1.4278 -1.6140
 1191TIP3    H2 3580   0.145   1.285   3.555 -1.1471  1.2370  0.4839
 1192TIP3   OH2 3581   1.871   5.063  -0.001 -0.3829 -0.3736  0.3348
 1192TIP3    H1 3582   1.832   5.037   0.082 -1.9046  0.1101 -0.1902
 1192TIP3    H2 3583   1.818   5.137  -0.031  1.1108  0.4764 -0.3239
 1193TIP3   OH2 3584   0.321   2.300   0.556  0.0481  0.4264 -0.0426
 1193TIP3    H1 3585   0.370   2.253   0.489 -1.3677  0.2369 -0.9871
 1193TIP3    H2 3586   0.309   2.236   0.627  2.0666  0.8060  0.7195
 1194TIP3   OH2 3587   4.769   1.750   2.119 -0.8788  0.6142 -0.1749
 1194TIP3    H1 3588   4.700   1.815   2.134  0.5654  2.5575 -1.4475
 1194TIP3    H2 3589   4.766   1.733   2.025 -0.1859  0.0683 -0.0989
 1195TIP3   OH2 3590   1.616   3.851   2.098 -0.3093  0.2999 -0.2113
 1195TIP3    H1 3591   1.704   3.824   2.125 -0.8632 -0.9564  0.4677
 1195TIP3    H2 3592   1.564   3.846   2.179 -0.7928  2.0059 -0.3932
 1196TIP3   OH2 3593   0.207   5.091   4.656 -0.7731 -0.2310  0.0420
 1196TIP3    H1 3594   0.170   5.061   4.739  0.0963 -0.6722  0.2847
 1196TIP3    H2 3595   0.252   5.013   4.621 -0.0952  0.2796 -0.2446
 1197TIP3   OH2 3596   0.887   0.285   3.145  0.0003 -0.2387 -0.1159
 1197TIP3    H1 3597   0.808   0.237   3.171 -1.5615  1.8621 -0.7016
 1197TIP3    H2 3598   0.891   0.358   3.207  1.4346 -0.2411 -0.1878
 1198TIP3   OH2 3599   0.734   2.872   2.484  1.0591  0.1918  0.2404
 1198TIP3    H1 3600   0.752   2.855   2.576  0.4756  0.2154  0.3578
 1198TIP3    H2 3601   0.647   2.911   2.483  1.0915  0.2541 -0.3149
 1199TIP3   OH2 3602   5.357   3.336   5.068  0.2860 -0.0598  0.3042
 1199TIP3    H1 3603   5.401   3.263   5.025 -0.8118  0.0504 -1.0865
 1199TIP3    H2 3604   5.393   3.414   5.025 -0.6776  0.0619 -0.3133
 1200TIP3   OH2 3605   0.486   2.781   0.257  0.0057 -0.0367 -0.1845
 1200TIP3    H1 3606   0.567   2.825   0.282  0.8898 -1.0405 -1.1793
 1200TIP3    H2 3607   0.448   2.752   0.340  1.7216 -1.3192  0.2299
 1201TIP3   OH2 3608   6.148   3.459   3.709 -0.4826 -0.0077  0.4080
 1201TIP3    H1 3609   6.188   3.546   3.714  0.2963 -0.3763  0.7866
 1201TIP3    H2 3610   6.056   3.473   3.731 -0.1313  0.5555  1.5780
 1202TIP3   OH2 3611   3.646   3.598   4.884  0.4501  0.2036  0.5692
 1202TIP3    H1 3612   3.597   3.544   4.822 -1.2301 -0.7384  2.6117
 1202TIP3    H2 3613   3.738   3.583   4.862 -0.0355 -1.9655 -0.1868
 1203TIP3   OH2 3614   5.410   0.212   4.080 -0.2208 -0.1945  0.1422
 1203TIP3    H1 3615   5.468   0.264   4.025  0.2467 -0.2297  0.5921
 1203TIP3    H2 3616   5.353   0.166   4.018 -0.5694  0.7495 -0.2686
 1204TIP3   OH2 3617   4.231   4.072   2.790  0.1811 -0.1859 -0.3044
 1204TIP3    H1 3618   4.214   4.153   2.837  1.8372 -0.0857  0.1852
 1204TIP3    H2 3619   4.148   4.050   2.749 -0.5784  1.1768  0.4417
 1205TIP3   OH2 3620   4.510   5.095   1.337  0.3435 -0.4564 -0.2236
 1205TIP3    H1 3621   4.541   5.064   1.252  2.2283  2.7585 -0.8737
 1205TIP3    H2 3622   4.479   5.184   1.321 -1.1387 -0.4592  2.1223
 1206TIP3   OH2 3623   4.838   5.704   3.094 -0.4203 -0.2965  0.1259
 1206TIP3    H1 3624   4.838   5.653   3.175 -0.7469  3.4995  2.8204
 1206TIP3    H2 3625   4.930   5.709   3.068 -0.1564 -0.6192  0.9738
 1207TIP3   OH2 3626   5.078   0.344   2.754  0.1122  0.1248  0.1526
 1207TIP3    H1 3627   5.160   0.389   2.738  0.2946 -0.1121  0.4028
 1207TIP3    H2 3628   5.074   0.335   2.850  0.2557 -0.7063  0.0891
 1208TIP3   OH2 3629   0.565   2.831   1.367 -0.0458  0.1520  0.0114
 1208TIP3    H1 3630   0.534   2.758   1.421  0.5575  0.0801  0.2782
 1208TIP3    H2 3631   0.486   2.875   1.337 -0.4281 -0.8087 -0.4222
 1209TIP3   OH2 3632   1.218   3.480   3.110  0.4445 -0.1522  0.9311
 1209TIP3    H1 3633   1.156   3.542   3.149  0.7032  0.4064  0.4737
 1209TIP3    H2 3634   1.292   3.479   3.170  0.6223  0.3131  0.7222
 1210TIP3   OH2 3635   3.222   1.401   2.409  0.2971 -0.0588  0.7170
 1210TIP3    H1 3636   3.223   1.305   2.416 -1.6944 -0.1538  0.1545
 1210TIP3    H2 3637   3.305   1.428   2.449  1.3222 -2.0553  0.1055
 1211TIP3   OH2 3638   1.635   1.607   4.268  0.3081 -0.3263 -0.1781
 1211TIP3    H1 3639   1.665   1.598   4.358 -1.7182 -0.3735  0.5515
 1211TIP3    H2 3640   1.669   1.692   4.240  2.3352 -1.0264  0.0161
 1212TIP3   OH2 3641   2.145   4.184   3.778  0.0552  0.2020 -0.3183
 1212TIP3    H1 3642   2.199   4.105   3.774 -1.3802 -0.9262  1.2981
 1212TIP3    H2 3643   2.123   4.202   3.687  1.9611 -0.1211 -0.8851
 1213TIP3   OH2 3644   0.994   5.947   4.366  0.2358 -0.1819  0.3726
 1213TIP3    H1 3645   1.085   5.927   4.389  0.0710 -0.0563  1.1699
 1213TIP3    H2 3646   0.998   5.975   4.275  1.1659  0.8440  0.6957
 1214TIP3   OH2 3647   1.298   0.624   2.653 -0.1145 -0.5116 -0.1163
 1214TIP3    H1 3648   1.304   0.617   2.558  1.4964 -2.5776  0.0634
 1214TIP3    H2 3649   1.375   0.674   2.679 -1.7199  2.0477  0.0180
 1215TIP3   OH2 3650   0.683   5.844   2.838 -0.1783 -0.0485 -0.4107
 1215TIP3    H1 3651   0.641   5.922   2.873  0.4831  0.2549 -0.2868
 1215TIP3    H2 3652   0.756   5.827   2.898 -0.6380 -1.0745 -0.1190
 1216TIP3   OH2 3653   5.704   4.899   1.713  0.3421 -0.4621  0.5301
 1216TIP3    H1 3654   5.675   4.986   1.685 -0.6050 -0.8073  0.3894
 1216TIP3    H2 3655   5.790   4.888   1.673  0.2226  0.1847  0.0821
 1217TIP3   OH2 3656   1.194   5.942   2.857  0.4431 -0.0260  0.2515
 1217TIP3    H1 3657   1.277   5.951   2.904  0.0446  1.7836  0.6835
 1217TIP3    H2 3658   1.129   5.922   2.925  0.4471 -1.0730 -0.0372
 1218TIP3   OH2 3659   1.163   4.393   3.667 -0.3822 -0.2786  0.1227
 1218TIP3    H1 3660   1.141   4.456   3.598 -1.8622 -0.4499  0.3868
 1218TIP3    H2 3661   1.085   4.391   3.722 -0.8256 -3.1079 -0.4601
 1219TIP3   OH2 3662   3.878   5.891   4.754  0.0422 -0.0159 -0.0887
 1219TIP3    H1 3663   3.812   5.886   4.823  1.2040  1.3601  1.2028
 1219TIP3    H2 3664   3.828   5.900   4.673 -1.3651 -1.7508  0.5265
 1220TIP3   OH2 3665   6.059   4.958   3.953 -0.0683 -0.0742  0.1895
 1220TIP3    H1 3666   6.089   4.930   4.040  0.7199  0.2661  0.0418
 1220TIP3    H2 3667   6.078   5.052   3.950 -0.6717  0.0412 -0.1201
 1221TIP3   OH2 3668   5.691   4.792   2.650 -0.0696 -0.3236 -0.2113
 1221TIP3    H1 3669   5.602   4.790   2.685 -0.5623 -1.9282 -1.4557
 1221TIP3    H2 3670   5.743   4.740   2.711  0.6993  2.7434  2.0099
 1222TIP3   OH2 3671   4.372   3.793   3.836  0.5256  0.5849  0.3471
 1222TIP3    H1 3672   4.372   3.779   3.931 -0.0857  1.3273  0.4672
 1222TIP3    H2 3673   4.283   3.774   3.809  1.0337 -1.0050 -0.3167
 1223TIP3   OH2 3674   5.993   0.156   3.534 -0.2386  0.3063 -0.5114
 1223TIP3    H1 3675   5.912   0.163   3.585  0.0868  1.6050 -0.1371
 1223TIP3    H2 3676   6.063   0.161   3.600  0.1959 -2.3780 -0.6342
 1224TIP3   OH2 3677   1.276   2.973   3.173  0.1979 -0.0948 -0.1297
 1224TIP3    H1 3678   1.266   3.047   3.232 -0.2485  1.4588 -2.0424
 1224TIP3    H2 3679   1.187   2.938   3.164  0.3398 -0.6248  0.4370
 1225TIP3   OH2 3680   0.259   0.911   1.008  0.4233  0.2244 -0.0664
 1225TIP3    H1 3681   0.236   0.886   0.919  2.3217 -0.4534 -0.4062
 1225TIP3    H2 3682   0.175   0.908   1.056 -0.5134 -0.0369 -1.6556
 1226TIP3   OH2 3683   5.172   3.040   1.482 -0.9166 -0.2831 -0.4019
 1226TIP3    H1 3684   5.097   3.096   1.504 -0.6484  0.2461 -0.8236
 1226TIP3    H2 3685   5.215   3.085   1.410  0.1796 -0.2459  0.2622
 1227TIP3   OH2 3686   0.092   0.550   3.797 -0.1771  0.5630 -0.1573
 1227TIP3    H1 3687   0.061   0.635   3.829  0.5765  0.9782 -0.5027
 1227TIP3    H2 3688   0.177   0.569   3.758  0.2445 -0.4480  0.2359
 1228TIP3   OH2 3689   2.802   2.410   1.484  0.1654 -0.3078  0.2837
 1228TIP3    H1 3690   2.846   2.354   1.548  0.4737  1.5777  1.8160
 1228TIP3    H2 3691   2.737   2.353   1.443  1.7913 -2.3030  0.2826
 1229TIP3   OH2 3692   2.970   5.584   2.823 -0.2658 -0.0270 -0.1392
 1229TIP3    H1 3693   3.033   5.638   2.776 -0.5850  1.3609  0.9860
 1229TIP3    H2 3694   3.023   5.532   2.883 -0.1080  0.4079  0.0993
 1230TIP3   OH2 3695   2.308   2.742   2.708  0.8225  0.1459 -0.3559
 1230TIP3    H1 3696   2.379   2.677   2.709  0.2474 -0.4993 -0.7742
 1230TIP3    H2 3697   2.343   2.813   2.654  1.0186 -0.3256 -0.8623
 1231TIP3   OH2 3698   3.789   1.367   2.392 -0.2689 -0.2336  1.0399
 1231TIP3    H1 3699   3.714   1.308   2.385  0.5602 -1.3305  1.1393
 1231TIP3    H2 3700   3.751   1.451   2.418 -1.3654 -1.0263  2.1133
 1232TIP3   OH2 3701   4.060   5.476   1.760 -0.0089  0.2321 -0.0006
 1232TIP3    H1 3702   3.987   5.473   1.822  0.1786  1.2267  0.2961
 1232TIP3    H2 3703   4.131   5.519   1.808  0.2302  0.7786 -0.8116
 1233TIP3   OH2 3704   4.708   0.596   0.224 -0.1232 -0.5754 -0.3709
 1233TIP3    H1 3705   4.780   0.546   0.186  2.3761  1.0911  1.8618
 1233TIP3    H2 3706   4.686   0.660   0.156  2.7719  0.9704  0.0263
 1234TIP3   OH2 3707   5.326   5.894   4.227  0.6550 -0.4713 -0.6477
 1234TIP3    H1 3708   5.306   5.971   4.173  2.5064  1.6730  1.4944
 1234TIP3    H2 3709   5.389   5.845   4.174  0.2944  0.0537 -1.5984
 1235TIP3   OH2 3710   1.272   5.338   4.909 -0.1568  0.0700  0.3242
 1235TIP3    H1 3711   1.256   5.316   5.001  2.3281  0.1333  0.8576
 1235TIP3    H2 3712   1.322   5.264   4.875  0.9752  1.0650 -0.2715
 1236TIP3   OH2 3713   4.494   2.938   1.772  0.8775  0.5727  0.2052
 1236TIP3    H1 3714   4.431   2.903   1.709  1.3691  0.4972 -0.2439
 1236TIP3    H2 3715   4.446   2.940   1.855 -0.5497  2.7904 -0.5706
 1237TIP3   OH2 3716   5.997   1.207   2.715  0.4580  0.3914 -0.0720
 1237TIP3    H1 3717   6.086   1.188   2.684  0.3377 -3.4925  1.3934
 1237TIP3    H2 3718   6.007   1.223   2.809 -0.2894  1.5333 -0.1619
 1238TIP3   OH2 3719   0.984   0.393   0.546 -0.7798 -0.0125 -0.1445
 1238TIP3    H1 3720   0.892   0.369   0.538 -0.8774 -0.0731  1.0011
 1238TIP3    H2 3721   1.030   0.327   0.495 -1.3870  0.1836 -0.9614
 1239TIP3   OH2 3722   5.244   1.266   0.184 -0.3172 -0.0472  0.3007
 1239TIP3    H1 3723   5.217   1.263   0.092  1.5966 -0.4655 -0.2857
 1239TIP3    H2 3724   5.180   1.211   0.229 -0.9073 -0.3566 -0.8653
 1240TIP3   OH2 3725   4.937   4.891   2.486 -0.0406  0.2263  0.0368
 1240TIP3    H1 3726   4.914   4.892   2.393  0.2010  0.2929 -0.0225
 1240TIP3    H2 3727   4.889   4.816   2.521  0.0400  0.0665 -0.1858
 1241TIP3   OH2 3728   3.223   5.538   0.404  0.3951  0.9360 -0.0568
 1241TIP3    H1 3729   3.131   5.513   0.394  0.5304  0.0992  0.6812
 1241TIP3    H2 3730   3.272   5.459   0.382  0.8416  0.5498  2.0612
 1242TIP3   OH2 3731   4.186   2.910   0.819  0.1025  0.4422 -0.2019
 1242TIP3    H1 3732   4.120   2.842   0.808  0.9115 -0.4579  0.3737
 1242TIP3    H2 3733   4.141   2.978   0.870 -0.4198 -0.1087  0.0899
 1243TIP3   OH2 3734   2.961   4.862   0.410 -0.1774  0.3785  0.1390
 1243TIP3    H1 3735   2.976   4.887   0.502  1.5148  2.2446 -0.5714
 1243TIP3    H2 3736   3.004   4.931   0.359 -1.2956 -0.4745 -2.0841
 1244TIP3   OH2 3737   4.325   2.945   0.260  1.2210  0.0734  0.3713
 1244TIP3    H1 3738   4.255   2.919   0.320  2.2347 -2.0159  0.7194
 1244TIP3    H2 3739   4.336   2.870   0.202  2.1913  0.9559 -0.6409
 1245TIP3   OH2 3740   0.148   1.384   2.028 -0.1163  0.5151 -0.1949
 1245TIP3    H1 3741   0.182   1.472   2.015 -0.8297  1.2223  2.1857
 1245TIP3    H2 3742   0.092   1.391   2.106  0.3049 -2.1471  0.4475
 1246TIP3   OH2 3743   0.567   2.952   0.886 -0.0649 -0.1214  0.0256
 1246TIP3    H1 3744   0.584   2.879   0.945 -1.3540 -0.5367 -0.1069
 1246TIP3    H2 3745   0.645   3.007   0.894 -0.3683  0.0630  2.4424
 1247TIP3   OH2 3746   4.013   3.251   4.287 -0.7376  0.4518  0.2114
 1247TIP3    H1 3747   3.955   3.178   4.269  0.0379 -0.6697  2.0379
 1247TIP3    H2 3748   3.961   3.311   4.340 -1.3821  1.3097 -1.3083
 1248TIP3   OH2 3749   5.981   2.464   3.485 -0.3049  0.4934 -0.0062
 1248TIP3    H1 3750   5.974   2.368   3.479  0.8943  0.4791 -1.6492
 1248TIP3    H2 3751   6.036   2.489   3.412 -1.4298  2.5801 -0.2134
 1249TIP3   OH2 3752   4.863   3.774   1.808 -0.5241 -0.3021 -0.0177
 1249TIP3    H1 3753   4.897   3.701   1.860 -1.1491 -1.7109 -1.4895
 1249TIP3    H2 3754   4.941   3.822   1.781 -0.0383 -0.8841  0.3150
 1250TIP3   OH2 3755   5.850   4.539   0.352 -0.2243 -0.2257 -0.4401
 1250TIP3    H1 3756   5.874   4.632   0.349  0.6990 -0.4156  0.3793
 1250TIP3    H2 3757   5.912   4.497   0.292 -0.4345 -0.3521 -0.5689
 1251TIP3   OH2 3758   2.974   3.830   2.755 -0.1628  0.0268  0.1075
 1251TIP3    H1 3759   3.014   3.743   2.753  0.6828  0.4015  0.0962
 1251TIP3    H2 3760   2.883   3.815   2.733 -0.1831 -0.9400  0.7736
 1252TIP3   OH2 3761   3.835   1.510   4.039 -0.1918 -0.3256  0.4133
 1252TIP3    H1 3762   3.755   1.502   3.987  0.4047  0.6040 -0.6757
 1252TIP3    H2 3763   3.858   1.420   4.062  1.8818 -1.3947 -4.5948
 1253TIP3   OH2 3764   5.210   1.449   2.584 -0.1211 -0.0630 -0.3347
 1253TIP3    H1 3765   5.121   1.483   2.585 -0.0710  0.0783 -0.6049
 1253TIP3    H2 3766   5.241   1.464   2.495  0.4613  0.6509 -0.0255
 1254TIP3   OH2 3767   4.570   2.919   4.149  0.8358  0.1779  0.2234
 1254TIP3    H1 3768   4.598   2.881   4.232  0.1074  1.2090  0.9651
 1254TIP3    H2 3769   4.523   2.998   4.174 -0.3538 -0.0640 -1.1111
 1255TIP3   OH2 3770   4.324   5.349   4.897  0.1714 -0.2357 -0.1094
 1255TIP3    H1 3771   4.313   5.298   4.977  0.1522 -1.3626 -0.8057
 1255TIP3    H2 3772   4.418   5.364   4.892  0.2368 -0.6223 -0.1325
 1256TIP3   OH2 3773   2.726   3.650   4.013 -0.1641 -0.0430 -0.1300
 1256TIP3    H1 3774   2.650   3.593   4.001 -0.7310  0.3871  1.1622
 1256TIP3    H2 3775   2.688   3.738   4.023  0.6654  0.5304 -1.6867
 1257TIP3   OH2 3776   0.822   4.595   1.043 -0.7363 -0.0715 -0.1058
 1257TIP3    H1 3777   0.915   4.611   1.032 -0.5948 -1.0698 -0.4822
 1257TIP3    H2 3778   0.791   4.570   0.956 -1.4099  0.4753 -0.0374
 1258TIP3   OH2 3779   3.642   0.464   1.008  0.0111  0.2207  0.0475
 1258TIP3    H1 3780   3.674   0.413   0.934  0.6436 -1.6381  1.5434
 1258TIP3    H2 3781   3.584   0.529   0.968  1.6017  0.3727 -2.2315
 1259TIP3   OH2 3782   3.630   0.516   2.446 -0.1412  0.8643  0.2473
 1259TIP3    H1 3783   3.627   0.531   2.352  2.0812  0.6749  0.0833
 1259TIP3    H2 3784   3.633   0.604   2.485  1.0488  0.9613 -0.0175
 1260TIP3   OH2 3785   4.060   1.898   5.200  0.0210 -0.0648  0.2778
 1260TIP3    H1 3786   4.155   1.910   5.206 -0.0121  0.2942  0.1236
 1260TIP3    H2 3787   4.038   1.923   5.110  0.0403 -2.0781 -0.3396
 1261TIP3   OH2 3788   1.195   2.343   0.223 -0.0874  0.4750 -0.4098
 1261TIP3    H1 3789   1.112   2.382   0.252 -1.0436 -1.8949  0.3045
 1261TIP3    H2 3790   1.252   2.348   0.300  0.0886  1.1509 -0.5750
 1262TIP3   OH2 3791   1.080   4.193   0.857  0.2331 -0.5738 -0.2834
 1262TIP3    H1 3792   1.155   4.152   0.815  1.4655 -1.2006  2.3182
 1262TIP3    H2 3793   1.019   4.120   0.873 -0.3062 -0.3112 -1.1272
 1263TIP3   OH2 3794   3.898   4.419   0.822 -0.1340  0.0729 -0.0934
 1263TIP3    H1 3795   3.907   4.403   0.728  0.5322  0.9066 -0.1826
 1263TIP3    H2 3796   3.900   4.332   0.861  3.3960 -0.2153 -0.5540
 1264TIP3   OH2 3797   5.084   4.261   0.493 -0.0759  0.0757 -0.1564
 1264TIP3    H1 3798   5.110   4.191   0.552 -0.3583 -0.9282 -1.1833
 1264TIP3    H2 3799   5.166   4.291   0.453  0.1717  1.0636  1.0286
 1265TIP3   OH2 3800   2.805   3.331   1.321 -0.0306  0.3892  0.3505
 1265TIP3    H1 3801   2.835   3.255   1.271 -0.2940  0.6862 -0.2647
 1265TIP3    H2 3802   2.710   3.322   1.324 -0.0150  0.3788  0.7878
 1266TIP3   OH2 3803   0.578   4.338   3.967  0.3002  0.5546 -0.3118
 1266TIP3    H1 3804   0.576   4.415   3.910 -1.3707  0.8339  0.0886
 1266TIP3    H2 3805   0.487   4.311   3.974  0.6782 -0.4981  0.8696
 1267TIP3   OH2 3806   3.336   4.927   2.774  0.0004  0.2218 -0.5047
 1267TIP3    H1 3807   3.297   4.891   2.853  0.8557  1.0478  0.3228
 1267TIP3    H2 3808   3.428   4.941   2.796  0.2747  0.3934 -1.6721
 1268TIP3   OH2 3809   0.893   4.685   3.956 -0.1485  0.1114  0.3226
 1268TIP3    H1 3810   0.873   4.642   3.873  3.7429 -0.8132 -0.3417
 1268TIP3    H2 3811   0.814   4.675   4.009 -1.1345 -3.5901 -1.5625
 1269TIP3   OH2 3812   2.986   1.226   5.165  0.1995  0.1129 -0.1296
 1269TIP3    H1 3813   3.078   1.199   5.165 -0.2830 -1.8359  2.0202
 1269TIP3    H2 3814   2.945   1.170   5.099  0.5450  1.0584 -1.1672
 1270TIP3   OH2 3815   0.424   0.059   1.874  0.0607  0.0482  0.0112
 1270TIP3    H1 3816   0.364   0.099   1.811 -1.1083  1.1909  1.7501
 1270TIP3    H2 3817   0.450  -0.024   1.834  0.0522  1.1100 -2.3233
 1271TIP3   OH2 3818   2.502   2.797   1.530  0.3974 -0.2241  0.3075
 1271TIP3    H1 3819   2.476   2.771   1.441  3.0119  0.5993 -0.7949
 1271TIP3    H2 3820   2.458   2.881   1.544  0.7659  0.1550 -0.6672
 1272TIP3   OH2 3821   3.482   1.093   5.178  0.3720  0.1691  0.4544
 1272TIP3    H1 3822   3.446   1.038   5.247 -0.3890  0.1009  0.0128
 1272TIP3    H2 3823   3.551   1.039   5.138  1.7118  0.6881  1.9700
 1273TIP3   OH2 3824   5.207   2.107   4.600  0.2008 -0.2323  0.6368
 1273TIP3    H1 3825   5.268   2.135   4.531 -0.4878 -1.4864 -0.5388
 1273TIP3    H2 3826   5.135   2.169   4.596  1.0020  0.7903  1.5031
 1274TIP3   OH2 3827   3.379   0.474   3.791 -0.5265  0.2946  0.4214
 1274TIP3    H1 3828   3.339   0.540   3.848  0.6100 -0.2432  1.8896
 1274TIP3    H2 3829   3.369   0.510   3.703 -1.1373  1.7832  1.0617
 1275TIP3   OH2 3830   0.372   2.479   2.762  0.2786 -0.0841  0.2276
 1275TIP3    H1 3831   0.345   2.569   2.740 -0.7141 -0.2342  0.7813
 1275TIP3    H2 3832   0.436   2.490   2.833  0.4773  0.2070  0.0046
 1276TIP3   OH2 3833   2.683   2.785   2.778 -0.6061  0.2523  0.1937
 1276TIP3    H1 3834   2.615   2.766   2.842 -1.3988  0.8988 -0.4302
 1276TIP3    H2 3835   2.673   2.878   2.759  2.4145  1.1968  2.3164
 1277TIP3   OH2 3836   3.529   1.546   2.028 -0.3718 -0.4952  0.2546
 1277TIP3    H1 3837   3.547   1.580   2.116  1.9198 -0.9791  0.0142
 1277TIP3    H2 3838   3.455   1.599   1.997  0.6133  1.6780  1.3766
 1278TIP3   OH2 3839   4.496   3.392   3.161 -0.0460  0.5053 -0.1170
 1278TIP3    H1 3840   4.556   3.454   3.120  0.0884  0.6299  0.2689
 1278TIP3    H2 3841   4.467   3.336   3.089  0.0185  0.8615 -0.4247
 1279TIP3   OH2 3842   0.644   0.201   3.235 -0.6133  0.4903 -0.7239
 1279TIP3    H1 3843   0.577   0.270   3.240 -0.3745  0.6904 -0.2480
 1279TIP3    H2 3844   0.599   0.128   3.191 -0.9646  0.8301 -0.9428
 1280TIP3   OH2 3845   2.193   0.347   4.854 -0.1062 -0.1804  0.2267
 1280TIP3    H1 3846   2.247   0.280   4.812  0.6133  0.7303 -0.3343
 1280TIP3    H2 3847   2.118   0.358   4.795 -0.3616 -0.6567  0.4510
 1281TIP3   OH2 3848   2.716   5.206   0.812 -0.4790 -0.4939  0.5766
 1281TIP3    H1 3849   2.797   5.255   0.803 -0.7133 -0.1524  0.3301
 1281TIP3    H2 3850   2.659   5.239   0.743 -0.8342 -0.7241  0.7520
 1282TIP3   OH2 3851   2.331   1.170   0.112 -0.0793  0.0910  0.0627
 1282TIP3    H1 3852   2.294   1.101   0.057 -3.1709  1.4672  0.2287
 1282TIP3    H2 3853   2.401   1.209   0.059  0.1296 -1.5928 -0.9617
 1283TIP3   OH2 3854   0.363   3.749   0.623 -0.0725  0.2329 -0.5128
 1283TIP3    H1 3855   0.368   3.702   0.540  0.4171  2.5787 -1.8916
 1283TIP3    H2 3856   0.455   3.763   0.648 -0.1732  1.4477 -0.7575
 1284TIP3   OH2 3857   4.877   4.567   1.845  0.7427  0.1940  0.0401
 1284TIP3    H1 3858   4.961   4.612   1.851  0.3411  0.9667  0.0178
 1284TIP3    H2 3859   4.842   4.592   1.760  1.5117 -1.9976 -0.9816
 1285TIP3   OH2 3860   4.915   1.417   3.398  0.3531  0.0767  0.0377
 1285TIP3    H1 3861   4.907   1.438   3.306  3.2715  1.2876 -0.0439
 1285TIP3    H2 3862   4.997   1.367   3.404  0.1721 -0.0666  1.9365
 1286TIP3   OH2 3863   4.233   1.625   1.268  0.1080  0.0410 -0.0210
 1286TIP3    H1 3864   4.233   1.686   1.194 -1.0794 -1.0637 -0.9908
 1286TIP3    H2 3865   4.142   1.624   1.298  0.0072 -1.5210 -0.2896
 1287TIP3   OH2 3866   3.170   0.725   3.592  0.3116 -0.2980  0.2796
 1287TIP3    H1 3867   3.210   0.787   3.652 -1.6913  3.4518 -1.8452
 1287TIP3    H2 3868   3.091   0.695   3.637  0.5290 -0.1618  0.7560
 1288TIP3   OH2 3869   3.105   4.042   2.229 -0.6219  0.2450 -0.5568
 1288TIP3    H1 3870   3.181   4.096   2.209 -1.3498  1.5414  0.0084
 1288TIP3    H2 3871   3.093   3.987   2.152  1.4404 -0.6845 -0.2680
 1289TIP3   OH2 3872   0.431   5.964   1.253  0.2514 -0.4953  0.3850
 1289TIP3    H1 3873   0.364   5.948   1.186  0.0729  0.1030  0.4164
 1289TIP3    H2 3874   0.493   6.024   1.211  0.3716 -0.4619  0.6104
 1290TIP3   OH2 3875   2.014   5.263   3.723  0.2882 -0.0568 -0.2979
 1290TIP3    H1 3876   2.093   5.257   3.670 -0.4675 -1.4875 -1.3106
 1290TIP3    H2 3877   1.981   5.351   3.707  1.0285  0.1359 -0.8014
 1291TIP3   OH2 3878   2.067   3.003   3.668  0.3060 -0.0901 -0.0586
 1291TIP3    H1 3879   2.007   2.972   3.735  0.0121  0.6003  0.0047
 1291TIP3    H2 3880   2.030   2.972   3.585 -0.6316  1.0695 -0.1000
 1292TIP3   OH2 3881   1.517   5.541   2.381  0.1166 -0.0617  0.0034
 1292TIP3    H1 3882   1.435   5.575   2.418  0.3903 -0.2825  0.8396
 1292TIP3    H2 3883   1.555   5.617   2.336 -0.4676  0.0831 -0.2624
 1293TIP3   OH2 3884   0.050   1.974   3.814 -0.5250  0.1327 -0.0799
 1293TIP3    H1 3885   0.052   1.922   3.895 -0.7790  0.4068  0.1043
 1293TIP3    H2 3886   0.003   1.919   3.751  1.1380 -0.8192 -0.5659
 1294TIP3   OH2 3887   5.105   0.297   0.147  0.1971  0.2556 -0.0594
 1294TIP3    H1 3888   5.191   0.333   0.169  0.8869 -1.3320 -0.0004
 1294TIP3    H2 3889   5.059   0.289   0.230 -0.5548  2.3123 -0.2175
 1295TIP3   OH2 3890   4.581   2.681   3.591 -0.1295  0.1569  0.0209
 1295TIP3    H1 3891   4.598   2.773   3.567 -0.3821  0.3282  0.4910
 1295TIP3    H2 3892   4.535   2.686   3.675 -0.3356 -0.3944 -0.0545
 1296TIP3   OH2 3893   0.174   4.082   0.914 -0.3545  0.3739  0.1858
 1296TIP3    H1 3894   0.140   4.131   0.989 -0.0556  0.5384  0.2178
 1296TIP3    H2 3895   0.269   4.089   0.923 -0.2772 -1.2700  0.8913
 1297TIP3   OH2 3896   2.944   1.286   1.867 -0.0829 -0.2272 -0.1919
 1297TIP3    H1 3897   2.897   1.239   1.937 -0.7021  2.0595  1.0538
 1297TIP3    H2 3898   2.898   1.262   1.787 -1.6814 -0.1652  0.6672
 1298TIP3   OH2 3899   0.497   0.374   4.117 -0.1455 -0.0246 -0.5519
 1298TIP3    H1 3900   0.567   0.420   4.164  0.8616 -0.0656 -1.9488
 1298TIP3    H2 3901   0.485   0.292   4.166  0.0138  0.4687  0.3301
 1299TIP3   OH2 3902   3.406   5.907   5.090  0.0674 -0.3240 -0.1627
 1299TIP3    H1 3903   3.409   5.817   5.055  0.2378 -0.2715 -0.2821
 1299TIP3    H2 3904   3.346   5.901   5.164  1.5702 -0.9628  1.0550
 1300TIP3   OH2 3905   2.218   2.274   2.453  0.1296 -0.2547 -0.0869
 1300TIP3    H1 3906   2.307   2.240   2.452 -0.4718 -1.9018  0.4284
 1300TIP3    H2 3907   2.162   2.197   2.446 -1.2640  0.8103 -1.3822
 1301TIP3   OH2 3908   3.392   0.667   3.413 -0.2990 -0.0369  0.3767
 1301TIP3    H1 3909   3.376   0.596   3.351  0.3611 -0.1030  0.2656
 1301TIP3    H2 3910   3.306   0.702   3.433 -0.5258  0.0092 -0.6159
 1302TIP3   OH2 3911   6.170   0.082   4.461  0.6373  0.4274  0.2872
 1302TIP3    H1 3912   6.208   0.017   4.521 -2.3168 -0.5968  1.2198
 1302TIP3    H2 3913   6.119   0.030   4.399  1.1588  1.6810 -1.2520
 1303TIP3   OH2 3914   3.161   2.721   2.172  0.1007 -0.1896  0.1426
 1303TIP3    H1 3915   3.075   2.725   2.215  0.1158 -0.0590  0.1616
 1303TIP3    H2 3916   3.220   2.765   2.232  0.2358 -0.5189  0.2538
 1304TIP3   OH2 3917   1.419   1.041   4.458  0.2330 -0.1432  0.0790
 1304TIP3    H1 3918   1.430   1.035   4.553 -0.3629  1.8010  0.3311
 1304TIP3    H2 3919   1.481   1.110   4.432 -0.4349  0.1480 -0.7655
 1305TIP3   OH2 3920   3.419   5.935   0.859  0.1270 -0.0819  0.5988
 1305TIP3    H1 3921   3.402   5.859   0.805 -0.6726  1.1809 -0.9978
 1305TIP3    H2 3922   3.345   5.993   0.844 -0.2472  0.2595  3.2412
 1306TIP3   OH2 3923   2.420   5.469   1.049  0.0454  0.1230  0.3528
 1306TIP3    H1 3924   2.353   5.449   0.984  0.3470 -1.3194  0.4368
 1306TIP3    H2 3925   2.500   5.483   0.998  0.0010  0.3095  0.3356
 1307TIP3   OH2 3926   2.883   3.115   2.048 -0.2789  0.5139  0.1701
 1307TIP3    H1 3927   2.879   3.151   1.959  1.3455  0.4784  0.0478
 1307TIP3    H2 3928   2.808   3.055   2.052 -0.7759  1.0160 -0.9332
 1308TIP3   OH2 3929   2.778   1.726   3.550  0.4356 -0.2668 -0.0127
 1308TIP3    H1 3930   2.810   1.811   3.578  1.4898 -1.2905  2.1526
 1308TIP3    H2 3931   2.750   1.683   3.631  0.0992 -2.0331 -1.0088
 1309TIP3   OH2 3932   1.403   2.054   3.962  0.3059 -0.2057 -0.4147
 1309TIP3    H1 3933   1.393   1.964   3.932  0.2322 -0.1489 -0.5638
 1309TIP3    H2 3934   1.497   2.073   3.953  0.3563 -0.3431 -0.1655
 1310TIP3   OH2 3935   1.511   5.176   1.147 -0.7733 -0.0116 -0.2299
 1310TIP3    H1 3936   1.593   5.130   1.130 -0.5731 -0.1879  1.0625
 1310TIP3    H2 3937   1.448   5.107   1.168 -0.4848  0.2273  1.6628
 1311TIP3   OH2 3938   0.473   3.569   2.819 -0.6192 -0.6355 -0.1050
 1311TIP3    H1 3939   0.466   3.574   2.723  0.6449 -0.3080 -0.1968
 1311TIP3    H2 3940   0.420   3.642   2.850 -1.4380 -1.0298 -0.5231
 1312TIP3   OH2 3941   3.117   4.526   1.363  0.4160 -0.2486  0.2757
 1312TIP3    H1 3942   3.163   4.525   1.279  0.0168  4.4112 -0.2713
 1312TIP3    H2 3943   3.024   4.532   1.339  0.3375  1.8198  0.9009
 1313TIP3   OH2 3944   2.826   3.828   3.464 -0.5428 -0.4696 -0.0900
 1313TIP3    H1 3945   2.849   3.921   3.459 -0.6658 -0.0894  3.4196
 1313TIP3    H2 3946   2.904   3.782   3.433  0.4391  0.8181  0.3694
 1314TIP3   OH2 3947   4.194   2.212   0.620  0.0381  0.2837  0.0328
 1314TIP3    H1 3948   4.142   2.253   0.551  0.3173  0.9333  0.1970
 1314TIP3    H2 3949   4.283   2.243   0.604  0.2299 -0.1418  0.2571
 1315TIP3   OH2 3950   1.809   0.793   1.128  0.2686  0.8348  0.4122
 1315TIP3    H1 3951   1.807   0.716   1.186  0.0426  1.2414  0.9544
 1315TIP3    H2 3952   1.721   0.830   1.135  0.1826  0.7911 -0.3393
 1316TIP3   OH2 3953   5.723   2.121   0.798 -0.2706 -0.1056 -0.1010
 1316TIP3    H1 3954   5.797   2.116   0.737 -0.0369 -0.8276  0.2302
 1316TIP3    H2 3955   5.675   2.039   0.786  1.6539 -1.9070  3.0020
 1317TIP3   OH2 3956   4.228   2.751   2.100 -0.2488  0.4079 -0.3851
 1317TIP3    H1 3957   4.179   2.699   2.036  1.0201  0.4942 -1.4710
 1317TIP3    H2 3958   4.202   2.715   2.185 -2.7350  0.9517 -0.8359
 1318TIP3   OH2 3959   5.419   1.292   1.786 -0.2913 -0.7164 -0.0593
 1318TIP3    H1 3960   5.407   1.353   1.859 -1.4393 -0.7215 -0.2187
 1318TIP3    H2 3961   5.496   1.241   1.810 -0.0058  0.0090  0.6331
 1319TIP3   OH2 3962   0.496   0.976   2.138  0.2134 -0.1802 -0.2029
 1319TIP3    H1 3963   0.504   0.933   2.053  1.0617 -2.7617  1.0919
 1319TIP3    H2 3964   0.576   1.028   2.146 -0.1742  0.6225 -1.2072
 1320TIP3   OH2 3965   2.811   5.030   0.212  0.2678  0.5221 -0.4847
 1320TIP3    H1 3966   2.835   5.112   0.169 -1.0946  1.4366  0.3934
 1320TIP3    H2 3967   2.814   5.051   0.306 -0.8757 -0.1746 -0.2692
 1321TIP3   OH2 3968   5.905   4.793   5.062  0.1509  0.4414 -0.3909
 1321TIP3    H1 3969   5.913   4.838   5.147  0.8431  2.2509 -1.3693
 1321TIP3    H2 3970   5.810   4.786   5.048  0.0252  0.0845  0.5205
 1322TIP3   OH2 3971   1.480   3.342   2.712  0.0595 -0.3229  0.2105
 1322TIP3    H1 3972   1.422   3.412   2.682 -1.4868 -0.4656  2.6480
 1322TIP3    H2 3973   1.453   3.325   2.802  2.2815 -2.1327  0.6194
 1323TIP3   OH2 3974   5.109   3.875   4.368 -0.0643 -0.0958 -0.0403
 1323TIP3    H1 3975   5.024   3.902   4.334 -0.0465 -0.8487 -0.7053
 1323TIP3    H2 3976   5.103   3.780   4.376  1.1219 -0.3193 -1.2971
 1324TIP3   OH2 3977   1.436   4.636   0.860 -0.2012 -0.0055  0.2029
 1324TIP3    H1 3978   1.374   4.646   0.787  0.4157 -0.0525 -0.3360
 1324TIP3    H2 3979   1.419   4.712   0.916  0.0304  0.6134 -0.5390
 1325TIP3   OH2 3980   3.073   0.902   3.425  0.1045  0.4349  0.1969
 1325TIP3    H1 3981   3.014   0.836   3.388 -1.3706  1.1476  1.1933
 1325TIP3    H2 3982   3.134   0.851   3.478 -0.5074 -0.2110  0.3029
 1326TIP3   OH2 3983   6.025   0.931   4.597  0.2722 -0.1641  0.2911
 1326TIP3    H1 3984   6.041   0.837   4.591  3.1327  0.2438  0.1623
 1326TIP3    H2 3985   5.993   0.945   4.687 -1.3209 -1.3371 -0.0535
 1327TIP3   OH2 3986   4.851   4.618   3.777 -0.4178 -0.9596  0.1702
 1327TIP3    H1 3987   4.911   4.622   3.852  1.0100  0.7144 -0.9812
 1327TIP3    H2 3988   4.848   4.525   3.755  1.1102 -1.1985  0.7904
 1328TIP3   OH2 3989   5.838   4.109   3.560 -0.5105  0.0340 -0.3271
 1328TIP3    H1 3990   5.784   4.131   3.636 -0.3461  0.8541 -0.4365
 1328TIP3    H2 3991   5.823   4.181   3.499  0.8333  0.3640 -0.2860
 1329TIP3   OH2 3992   1.124   4.456   5.169 -0.3762  0.2500 -0.1369
 1329TIP3    H1 3993   1.081   4.461   5.084 -0.2490  1.0570 -0.1600
 1329TIP3    H2 3994   1.181   4.379   5.163 -0.2093  0.4308 -0.8506
 1330TIP3   OH2 3995   5.216   1.629   4.114 -0.5888  0.0548  0.3753
 1330TIP3    H1 3996   5.249   1.567   4.049  0.3998 -1.4410  2.2223
 1330TIP3    H2 3997   5.121   1.615   4.114 -0.5718 -0.1383 -0.5135
 1331TIP3   OH2 3998   5.899   0.714   3.676 -0.3347  0.3687 -0.3184
 1331TIP3    H1 3999   5.927   0.763   3.599 -0.2875 -0.0345 -0.5603
 1331TIP3    H2 4000   5.974   0.659   3.698 -1.3142 -1.6467 -1.7125
 1332TIP3   OH2 4001   2.225   3.631   0.048 -0.9448  0.3495  0.2683
 1332TIP3    H1 4002   2.200   3.711   0.094  1.7862  0.3488  2.0009
 1332TIP3    H2 4003   2.154   3.569   0.066 -1.4438  1.3401  1.8634
 1333TIP3   OH2 4004   0.104   0.818   3.859  0.2394 -0.3048 -0.6613
 1333TIP3    H1 4005   0.186   0.839   3.904 -0.6853 -2.1507  2.2200
 1333TIP3    H2 4006   0.036   0.857   3.914 -0.9241 -1.6341 -1.0842
 1334TIP3   OH2 4007   5.729   2.784   1.818 -0.2700 -0.0717  0.0654
 1334TIP3    H1 4008   5.704   2.874   1.798  1.5824  0.4759 -0.0602
 1334TIP3    H2 4009   5.684   2.763   1.899 -1.2123  0.7417 -0.2348
 1335TIP3   OH2 4010   2.008   1.849   0.508 -0.0919 -0.1180  0.3726
 1335TIP3    H1 4011   2.060   1.777   0.473  1.0665  0.9554 -0.1549
 1335TIP3    H2 4012   2.067   1.924   0.511 -1.1015  0.6853  1.4705
 1336TIP3   OH2 4013   1.760   1.820   2.001 -0.2693 -0.2910 -0.3442
 1336TIP3    H1 4014   1.781   1.733   2.034  2.5657 -0.2464 -1.6639
 1336TIP3    H2 4015   1.812   1.879   2.056  1.0479  0.1386 -1.9668
 1337TIP3   OH2 4016   2.316   4.108   4.938  0.2825 -0.0891 -0.5925
 1337TIP3    H1 4017   2.235   4.073   4.900  0.4631  0.8520 -1.9028
 1337TIP3    H2 4018   2.377   4.034   4.936 -0.8515 -1.2089  1.6166
 1338TIP3   OH2 4019   3.375   5.696   0.741  0.4730 -0.3757 -0.1999
 1338TIP3    H1 4020   3.291   5.664   0.774  0.3783 -0.1654 -0.2334
 1338TIP3    H2 4021   3.374   5.674   0.648 -0.5428  1.6500 -0.7242
 1339TIP3   OH2 4022   5.994   5.754   0.594 -0.4453  0.6251  0.5386
 1339TIP3    H1 4023   6.038   5.672   0.615 -0.6186  0.3376 -0.1911
 1339TIP3    H2 4024   5.933   5.768   0.667  2.0662  1.9683  2.5542
 1340TIP3   OH2 4025   2.038   0.929   1.111  0.0856  0.0141 -0.8283
 1340TIP3    H1 4026   2.060   0.921   1.204 -0.8016  0.6619 -0.5424
 1340TIP3    H2 4027   1.953   0.884   1.103  0.3620 -0.4171 -1.4162
 1341TIP3   OH2 4028   0.240   2.826   4.084  0.7424 -0.0835  0.4825
 1341TIP3    H1 4029   0.248   2.838   4.178  0.0264 -0.3362  0.5824
 1341TIP3    H2 4030   0.152   2.790   4.072  0.9766 -0.4237 -0.2446
 1342TIP3   OH2 4031   4.781   2.613   2.875 -0.2034  0.0576  0.3046
 1342TIP3    H1 4032   4.712   2.666   2.915  0.1698  0.4222  0.4662
 1342TIP3    H2 4033   4.812   2.557   2.947  1.5163  1.7654  0.9719
 1343TIP3   OH2 4034   2.794   0.480   3.589 -0.2718 -0.4493 -0.1155
 1343TIP3    H1 4035   2.804   0.388   3.611 -0.1734 -1.7963 -4.7468
 1343TIP3    H2 4036   2.702   0.500   3.611 -0.8885 -2.2975 -0.8229
 1344TIP3   OH2 4037   4.876   4.828   1.113 -0.8248 -0.0045 -0.5363
 1344TIP3    H1 4038   4.832   4.850   1.031  1.2132  0.7600 -1.4885
 1344TIP3    H2 4039   4.953   4.777   1.087 -0.6118 -0.5197  0.9793
 1345TIP3   OH2 4040   5.712   2.263   1.040  0.3377 -0.2980 -0.3071
 1345TIP3    H1 4041   5.673   2.229   0.959  0.2573  1.4589 -1.0437
 1345TIP3    H2 4042   5.653   2.333   1.068  1.1074  0.0495  0.5081
 1346TIP3   OH2 4043   5.295   4.339   0.324  0.3196  0.3309  0.1042
 1346TIP3    H1 4044   5.385   4.317   0.349 -0.0734  0.5997  1.9074
 1346TIP3    H2 4045   5.304   4.403   0.253  1.5573  0.5695  0.4606
 1347TIP3   OH2 4046   0.613   5.964   3.147 -0.2046  0.3363 -0.3085
 1347TIP3    H1 4047   0.622   6.001   3.234 -0.3279  1.6294 -0.8249
 1347TIP3    H2 4048   0.703   5.939   3.123 -0.0207  0.8422 -0.1712
 1348TIP3   OH2 4049   3.535   5.456   2.534  0.0929  0.8275  0.0564
 1348TIP3    H1 4050   3.587   5.407   2.470 -0.0069  0.0162  0.5711
 1348TIP3    H2 4051   3.460   5.488   2.484  0.2860  0.6571 -0.3494
 1349TIP3   OH2 4052   2.685   0.399   0.457  0.3130 -0.2940 -0.2215
 1349TIP3    H1 4053   2.656   0.443   0.538  1.2006  2.1372 -1.1363
 1349TIP3    H2 4054   2.614   0.338   0.437 -1.7399  1.7335  0.3885
 1350TIP3   OH2 4055   5.129   1.889   3.111 -0.2231  0.8055  0.1444
 1350TIP3    H1 4056   5.154   1.974   3.074 -0.1889  0.7075 -0.0625
 1350TIP3    H2 4057   5.055   1.860   3.057 -1.4680  1.5507  1.3736
 1351TIP3   OH2 4058   5.403   2.855   4.369 -0.6534 -0.4201 -0.2051
 1351TIP3    H1 4059   5.494   2.861   4.397 -0.8459  2.3847  0.0934
 1351TIP3    H2 4060   5.408   2.829   4.277  0.5956  1.4082 -0.7065
 1352TIP3   OH2 4061   5.810   1.984   2.545  1.0939  0.1337  0.1082
 1352TIP3    H1 4062   5.858   1.934   2.478 -2.2166 -0.2583 -2.2549
 1352TIP3    H2 4063   5.794   2.069   2.504 -1.2616 -0.2170  0.1529
 1353TIP3   OH2 4064   5.634   4.471   2.192 -0.5157 -0.1930  0.0964
 1353TIP3    H1 4065   5.630   4.562   2.163 -0.3988 -0.7000 -1.6228
 1353TIP3    H2 4066   5.726   4.448   2.188 -0.7195 -0.8657 -1.1225
 1354TIP3   OH2 4067   4.788   3.650   0.710 -0.0330  0.2137 -0.8358
 1354TIP3    H1 4068   4.713   3.619   0.660 -0.1829  0.0075 -0.4868
 1354TIP3    H2 4069   4.790   3.595   0.788 -1.0128  1.7845  0.3715
 1355TIP3   OH2 4070   0.326   0.866   1.849  0.4952  0.1954 -0.0827
 1355TIP3    H1 4071   0.392   0.905   1.792 -0.7134  1.1740 -0.8484
 1355TIP3    H2 4072   0.246   0.865   1.797 -0.5497  0.7570  1.4423
 1356TIP3   OH2 4073   2.642   2.823   5.196 -0.8913 -0.1374 -0.5284
 1356TIP3    H1 4074   2.695   2.901   5.179 -0.5115 -0.2973 -0.0706
 1356TIP3    H2 4075   2.703   2.750   5.192 -0.6319 -0.1455  2.1115
 1357TIP3   OH2 4076   0.822   4.268   3.610 -0.3094  0.3825  0.0393
 1357TIP3    H1 4077   0.833   4.177   3.581 -1.8115  0.0008  0.5710
 1357TIP3    H2 4078   0.795   4.315   3.531 -1.3969 -0.0404  0.1351
 1358TIP3   OH2 4079   2.403   3.337   1.590 -0.0349  0.6499 -0.9306
 1358TIP3    H1 4080   2.491   3.364   1.618  0.1245 -1.1465  0.4600
 1358TIP3    H2 4081   2.345   3.404   1.626  0.6824  1.6431 -1.5293
 1359TIP3   OH2 4082   1.239   1.266   4.462 -0.2981  0.1292 -0.7644
 1359TIP3    H1 4083   1.146   1.242   4.462 -0.7179  1.5966  0.2008
 1359TIP3    H2 4084   1.285   1.182   4.459 -1.6512 -0.8969  2.4767
 1360TIP3   OH2 4085   2.560   5.659   4.249 -0.5575  0.0176 -0.1432
 1360TIP3    H1 4086   2.494   5.656   4.181 -0.8067  0.9465  0.0516
 1360TIP3    H2 4087   2.641   5.684   4.204 -0.2194 -1.4751 -0.4460
 1361TIP3   OH2 4088   1.120   2.568   0.525 -0.3529 -0.1511  0.0746
 1361TIP3    H1 4089   1.153   2.650   0.489  0.7213 -0.4294  0.3986
 1361TIP3    H2 4090   1.123   2.581   0.620  1.7135 -1.2352  0.2141
 1362TIP3   OH2 4091   0.134   1.107   2.514  0.5171 -0.5208 -0.2020
 1362TIP3    H1 4092   0.170   1.135   2.429  0.9968  1.2170  0.5391
 1362TIP3    H2 4093   0.178   1.162   2.578 -1.9356  0.2488  0.9414
 1363TIP3   OH2 4094   5.839   2.289   3.967  0.0818  0.2195  0.4553
 1363TIP3    H1 4095   5.754   2.266   3.931  0.7513 -0.5194 -0.6923
 1363TIP3    H2 4096   5.835   2.385   3.978 -1.6224  0.0050  2.4207
 1364TIP3   OH2 4097   3.271   1.902   3.821  0.5037  0.3672 -0.2943
 1364TIP3    H1 4098   3.284   1.868   3.910  1.9989  0.4409 -0.4658
 1364TIP3    H2 4099   3.251   1.825   3.769 -1.1791  0.4090  0.2091
 1365TIP3   OH2 4100   4.103   4.416   0.196  0.1963  0.1905 -0.7857
 1365TIP3    H1 4101   4.019   4.460   0.182 -0.8095 -1.1713  0.6023
 1365TIP3    H2 4102   4.102   4.344   0.133 -0.1259 -0.3786 -0.1473
 1366TIP3   OH2 4103   4.655   4.514   1.008 -0.1135  0.1750  0.1541
 1366TIP3    H1 4104   4.577   4.461   0.994 -0.2032  0.6076 -1.0830
 1366TIP3    H2 4105   4.624   4.594   1.049 -0.4801  0.7816 -1.2649
 1367TIP3   OH2 4106   2.722   2.748   0.488  0.3917  0.3848  0.0262
 1367TIP3    H1 4107   2.721   2.842   0.505 -0.9833  0.4567 -0.3867
 1367TIP3    H2 4108   2.685   2.709   0.566 -0.8728  0.3399 -0.5748
 1368TIP3   OH2 4109   1.526   5.408   0.950 -0.3579 -0.1809  0.1152
 1368TIP3    H1 4110   1.500   5.334   1.005 -1.3405 -0.3156 -0.4950
 1368TIP3    H2 4111   1.511   5.377   0.860 -1.6381  1.0425 -0.1252
 1369TIP3   OH2 4112   5.639   2.042   3.954  0.9511 -0.3888 -0.1573
 1369TIP3    H1 4113   5.633   1.972   3.888 -0.1077 -1.7978  1.3243
 1369TIP3    H2 4114   5.554   2.085   3.950  0.3317 -1.3888  1.1485
 1370TIP3   OH2 4115   5.375   4.187   1.388 -0.2898 -0.7156 -0.1290
 1370TIP3    H1 4116   5.442   4.253   1.407 -0.1646 -0.5881 -0.9829
 1370TIP3    H2 4117   5.295   4.223   1.426 -0.3315  0.1794 -1.0243
 1371TIP3   OH2 4118   3.148   5.368   2.656 -0.0977 -0.3630  0.0129
 1371TIP3    H1 4119   3.062   5.380   2.615 -0.4447 -3.1268 -0.2794
 1371TIP3    H2 4120   3.140   5.410   2.742 -1.6482 -0.3353 -0.1181
 1372TIP3   OH2 4121  -0.011   2.091   3.195 -0.4486 -0.2872 -0.0663
 1372TIP3    H1 4122   0.061   2.041   3.158  0.2491  0.3121  0.4368
 1372TIP3    H2 4123   0.012   2.183   3.177 -1.0159 -0.0881  0.2122
 1373TIP3   OH2 4124   4.927   1.495   2.525 -0.2330  0.3543  0.2664
 1373TIP3    H1 4125   4.927   1.562   2.456  0.1187  0.5698  0.4718
 1373TIP3    H2 4126   4.905   1.542   2.605  0.7496  0.3764  0.5420
 1374TIP3   OH2 4127   4.334   0.584   3.743  0.1414  0.4563 -0.0924
 1374TIP3    H1 4128   4.351   0.508   3.688 -0.1456 -1.1339  1.8751
 1374TIP3    H2 4129   4.393   0.652   3.711  0.2768 -0.5294 -2.0335
 1375TIP3   OH2 4130   0.783   3.804   3.729 -0.0874  0.0542  0.1731
 1375TIP3    H1 4131   0.860   3.771   3.776 -1.2592 -0.6813  1.6547
 1375TIP3    H2 4132   0.761   3.885   3.775 -0.4431  0.0436  0.0186
 1376TIP3   OH2 4133   1.270   1.226   5.163  0.9230  0.4374  0.3338
 1376TIP3    H1 4134   1.276   1.160   5.094 -0.8786 -0.2052  0.7333
 1376TIP3    H2 4135   1.181   1.261   5.155  1.0041  1.0309  1.7174
 1377TIP3   OH2 4136   3.986   0.125   0.770 -0.9397 -0.2485 -0.4619
 1377TIP3    H1 4137   4.074   0.092   0.752 -0.0880  1.6798 -0.1099
 1377TIP3    H2 4138   3.948   0.142   0.684 -0.6674 -0.3495 -0.6017
 1378TIP3   OH2 4139   3.588   4.485   2.568 -0.1859  0.7695  0.2951
 1378TIP3    H1 4140   3.638   4.544   2.625  0.1434  1.6109 -0.8042
 1378TIP3    H2 4141   3.609   4.515   2.479 -0.7790 -0.4065 -0.2714
 1379TIP3   OH2 4142   0.091   5.722   5.010 -0.0379 -0.1421  0.0848
 1379TIP3    H1 4143   0.053   5.768   4.935  0.9134  1.7257  0.6612
 1379TIP3    H2 4144   0.105   5.632   4.980 -0.5614  0.3215 -1.6485
 1380TIP3   OH2 4145   4.215   3.279   4.953 -0.0703 -0.3502 -0.0227
 1380TIP3    H1 4146   4.239   3.257   5.043 -2.0596  0.4775  0.7550
 1380TIP3    H2 4147   4.298   3.304   4.912  0.6885  0.5603  1.9601
 1381TIP3   OH2 4148   3.083   2.401   1.914 -0.0804  0.2719  0.2175
 1381TIP3    H1 4149   3.120   2.313   1.920  0.0965  0.2685 -0.8481
 1381TIP3    H2 4150   3.156   2.460   1.934  0.0802  0.2068 -0.1681
 1382TIP3   OH2 4151   5.931   2.901   5.152  0.1410 -0.1455  0.0388
 1382TIP3    H1 4152   5.928   2.813   5.114 -0.0947 -0.0105 -0.2631
 1382TIP3    H2 4153   5.840   2.929   5.156  0.2178  0.1120  0.0681
 1383TIP3   OH2 4154   5.481   1.588   1.787 -0.1931 -0.0027 -0.3277
 1383TIP3    H1 4155   5.507   1.672   1.825 -2.1312  0.8939 -0.8733
 1383TIP3    H2 4156   5.538   1.579   1.710  0.0132  0.8392 -0.2887
 1384TIP3   OH2 4157   2.528   4.576   0.057 -0.5531  0.2404  0.1158
 1384TIP3    H1 4158   2.613   4.582   0.100 -0.0895 -0.2538 -0.7008
 1384TIP3    H2 4159   2.466   4.562   0.128 -0.0047  1.0067  0.7567
 1385TIP3   OH2 4160   2.430   3.522   3.630  0.2423  0.7092 -0.7522
 1385TIP3    H1 4161   2.469   3.448   3.583 -0.7829  0.0329 -0.5633
 1385TIP3    H2 4162   2.395   3.484   3.710  0.1629  1.4982 -0.4050
 1386TIP3   OH2 4163   5.987   5.986   5.002  0.3311  0.2219 -0.3105
 1386TIP3    H1 4164   5.953   6.060   4.953  0.9984  0.3724 -0.5569
 1386TIP3    H2 4165   5.934   5.911   4.974  0.0646  0.4935 -0.5222
 1387TIP3   OH2 4166   3.628   2.982   5.057 -0.0519  0.0634 -0.1527
 1387TIP3    H1 4167   3.605   2.890   5.072  0.2895  0.0380  0.2331
 1387TIP3    H2 4168   3.582   3.030   5.126  1.1426 -0.0018  0.7113
 1388TIP3   OH2 4169   1.995   4.813   0.908  0.4938  0.5065  0.3694
 1388TIP3    H1 4170   1.952   4.753   0.969 -0.2807 -0.1121 -0.7460
 1388TIP3    H2 4171   2.058   4.758   0.861  0.1678  0.6889 -0.2819
 1389TIP3   OH2 4172   5.350   1.735   2.725 -0.3019  0.9808 -0.5693
 1389TIP3    H1 4173   5.419   1.754   2.788  0.1795  1.7160 -1.3008
 1389TIP3    H2 4174   5.304   1.660   2.762  1.1367  0.2126 -0.2698
 1390TIP3   OH2 4175   5.010   4.601   4.010  0.2261  0.2177 -0.3168
 1390TIP3    H1 4176   5.091   4.642   4.040  0.4350  0.5289 -1.2607
 1390TIP3    H2 4177   4.947   4.617   4.081  0.5047  1.5220 -0.3316
 1391TIP3   OH2 4178   0.826   3.023   0.790 -0.1232  0.3864  0.2831
 1391TIP3    H1 4179   0.850   3.098   0.843  1.6125  0.7001 -0.8691
 1391TIP3    H2 4180   0.908   2.977   0.774 -0.6816 -0.0903 -1.5074
 1392TIP3   OH2 4181   6.306   1.125   0.011 -0.7867  0.0866 -0.3036
 1392TIP3    H1 4182   6.320   1.039  -0.030 -1.5584  0.7876 -2.1138
 1392TIP3    H2 4183   6.394   1.157   0.030 -0.5055 -1.8502  2.1220
 1393TIP3   OH2 4184   0.568   4.593   3.799 -0.1102  1.0345  0.7784
 1393TIP3    H1 4185   0.477   4.592   3.768 -0.1639 -2.3094  0.7553
 1393TIP3    H2 4186   0.620   4.614   3.722 -0.7510  1.3112  0.4147
 1394TIP3   OH2 4187   3.267   1.936   2.846 -0.4724 -0.0283 -0.1804
 1394TIP3    H1 4188   3.314   1.939   2.929 -0.9220  2.1381  0.0446
 1394TIP3    H2 4189   3.197   2.001   2.855 -0.1028  0.7923 -2.4783
 1395TIP3   OH2 4190   5.076   3.804   1.496  0.0222  0.3243 -0.1276
 1395TIP3    H1 4191   5.130   3.866   1.448  0.6003 -0.1570 -0.1087
 1395TIP3    H2 4192   5.029   3.858   1.560  0.8949  0.6872  0.2252
 1396TIP3   OH2 4193   6.285   4.867   5.028  0.4488  0.6657 -0.0650
 1396TIP3    H1 4194   6.271   4.788   5.080 -0.0246 -0.6431 -2.0756
 1396TIP3    H2 4195   6.210   4.923   5.049 -0.7535 -0.6417 -0.7099
 1397TIP3   OH2 4196   2.145   3.598   0.619 -0.0707 -0.2095 -1.1866
 1397TIP3    H1 4197   2.178   3.688   0.617  0.0453 -0.2593 -1.8297
 1397TIP3    H2 4198   2.051   3.607   0.634  0.2780 -0.0888  1.5145
 1398TIP3   OH2 4199   2.723   5.646   3.768 -0.0087 -0.3294  0.0679
 1398TIP3    H1 4200   2.653   5.698   3.730  0.0488 -0.4599 -0.2241
 1398TIP3    H2 4201   2.716   5.561   3.725  0.5061 -0.2528 -0.1827
 1399TIP3   OH2 4202   2.300   3.926   0.326 -0.3207  0.4785  0.4425
 1399TIP3    H1 4203   2.231   3.888   0.380  0.7745 -1.4692  0.5688
 1399TIP3    H2 4204   2.258   3.943   0.241 -0.5217 -2.7764 -0.2290
 1400TIP3   OH2 4205   5.478   5.038   4.984  0.6238 -0.0231 -0.6663
 1400TIP3    H1 4206   5.444   5.127   4.974 -0.8774 -0.4070  0.5201
 1400TIP3    H2 4207   5.407   4.990   5.026  2.3894 -1.0594  1.4051
 1401TIP3   OH2 4208   1.820   5.946   5.130 -0.1560  0.3561  0.2034
 1401TIP3    H1 4209   1.841   5.922   5.039 -0.3760  0.2638  0.1776
 1401TIP3    H2 4210   1.903   5.978   5.166  0.2396 -0.7965  0.3532
 1402TIP3   OH2 4211   4.916   3.759   2.652 -0.2476  0.2211  0.0138
 1402TIP3    H1 4212   4.905   3.849   2.682  1.2650 -0.3045  2.3878
 1402TIP3    H2 4213   4.999   3.730   2.691 -0.9782 -2.4082 -0.1458
 1403TIP3   OH2 4214   5.675   1.523   2.712 -0.4074  0.3818  0.2755
 1403TIP3    H1 4215   5.697   1.565   2.795  1.6448 -1.7130  0.9213
 1403TIP3    H2 4216   5.592   1.478   2.729  0.2704 -0.5016  1.4551
 1404TIP3   OH2 4217   3.765   4.800   2.027 -0.4466 -0.1363 -0.0883
 1404TIP3    H1 4218   3.703   4.754   2.082 -0.6831 -0.4577 -0.6153
 1404TIP3    H2 4219   3.849   4.759   2.045 -0.5179 -0.2162  0.0590
 1405TIP3   OH2 4220   0.081   1.642   2.317  0.0452 -0.6618  0.2420
 1405TIP3    H1 4221   0.075   1.717   2.376 -0.6858 -1.5836  1.3838
 1405TIP3    H2 4222   0.175   1.627   2.307  0.1880 -0.0570  0.5923
 1406TIP3   OH2 4223   4.369   2.295   3.373 -0.2057 -0.2122  0.3102
 1406TIP3    H1 4224   4.367   2.273   3.466 -0.7307 -2.8257 -0.2221
 1406TIP3    H2 4225   4.299   2.242   3.334 -0.9137  1.8200 -1.4234
 1407TIP3   OH2 4226   3.415   1.646   1.358 -0.1142 -0.2570 -0.3160
 1407TIP3    H1 4227   3.373   1.624   1.275  2.0852 -2.9935 -0.8533
 1407TIP3    H2 4228   3.405   1.567   1.411  0.1259  0.7913  1.3552
 1408TIP3   OH2 4229   2.596   4.446   3.624  0.1558 -0.2113 -0.3130
 1408TIP3    H1 4230   2.535   4.470   3.694  1.4998  0.2248  0.7535
 1408TIP3    H2 4231   2.554   4.477   3.544 -0.6946  0.7269  0.4667
 1409TIP3   OH2 4232   5.604   1.939   1.099  0.2506 -0.5541  0.2476
 1409TIP3    H1 4233   5.529   1.882   1.118 -0.9692  0.8513 -0.1085
 1409TIP3    H2 4234   5.582   2.022   1.142  2.8634 -0.8487  2.4036
 1410TIP3   OH2 4235   2.254   1.126   2.144  0.0259 -0.2818 -0.6679
 1410TIP3    H1 4236   2.185   1.166   2.197 -0.0464  0.3807 -1.2526
 1410TIP3    H2 4237   2.207   1.086   2.070  0.3298  1.2126 -1.7252
 1411TIP3   OH2 4238   4.082   5.118   0.577  0.4289  0.7199 -0.2339
 1411TIP3    H1 4239   4.018   5.111   0.648  0.8382 -0.0529  0.0639
 1411TIP3    H2 4240   4.120   5.205   0.589 -1.2688  1.6136 -1.0352
 1412TIP3   OH2 4241   4.934   5.612   0.105 -0.9765  0.2726  0.2315
 1412TIP3    H1 4242   4.901   5.530   0.143 -1.1391  0.4222  0.4097
 1412TIP3    H2 4243   5.021   5.589   0.072 -1.1535 -0.0614 -0.0184
 1413TIP3   OH2 4244   4.963   3.750   5.086  0.1623 -0.1476  0.2818
 1413TIP3    H1 4245   5.044   3.801   5.093 -0.2602  0.7704 -1.2053
 1413TIP3    H2 4246   4.990   3.660   5.102  1.2325  0.3029  1.1502
 1414TIP3   OH2 4247   4.400   0.713   0.903 -0.1074 -0.0617 -0.0661
 1414TIP3    H1 4248   4.331   0.680   0.959 -0.6444  0.9330 -0.1311
 1414TIP3    H2 4249   4.388   0.667   0.820  0.6692 -1.5105  0.5736
 1415TIP3   OH2 4250   1.497   1.009   1.726  0.5013  0.2713  0.7935
 1415TIP3    H1 4251   1.509   1.050   1.640 -0.9815  0.2605  0.5516
 1415TIP3    H2 4252   1.474   1.081   1.784  0.4983  0.1381  0.9575
 1416TIP3   OH2 4253   0.544   3.643   3.556  0.3241 -0.5836  0.2085
 1416TIP3    H1 4254   0.583   3.731   3.551  0.7348 -0.8138 -1.0515
 1416TIP3    H2 4255   0.513   3.626   3.467  0.0584 -1.6280  0.4949
 1417TIP3   OH2 4256   1.436   3.534   0.376  0.3878 -0.3821 -0.2811
 1417TIP3    H1 4257   1.414   3.453   0.423  0.2628 -0.7820 -1.0212
 1417TIP3    H2 4258   1.458   3.506   0.288 -1.9280  0.5650 -1.2619
 1418TIP3   OH2 4259   5.380   5.915   1.101 -0.1272  0.0456 -0.1508
 1418TIP3    H1 4260   5.378   5.971   1.179  1.5474 -3.0669  2.4066
 1418TIP3    H2 4261   5.332   5.836   1.127  0.7882 -1.2652 -2.1636
 1419TIP3   OH2 4262   5.135   3.501   0.617  0.7191  0.4359  0.4174
 1419TIP3    H1 4263   5.220   3.518   0.577  0.7346  1.0629  0.7023
 1419TIP3    H2 4264   5.148   3.421   0.668  0.4172 -0.9713 -1.6213
 1420TIP3   OH2 4265   5.548   5.635   0.550 -0.1380 -0.1218  0.0462
 1420TIP3    H1 4266   5.496   5.711   0.575 -0.3023 -0.2215  0.0087
 1420TIP3    H2 4267   5.563   5.587   0.631  0.8341  0.4828  0.2476
 1421TIP3   OH2 4268   4.633   3.942   0.545  0.2903  0.4323  0.2506
 1421TIP3    H1 4269   4.642   3.868   0.486 -0.3373 -0.3658  1.1225
 1421TIP3    H2 4270   4.655   4.018   0.492  1.8544 -0.4471 -0.4071
 1422TIP3   OH2 4271   2.752   4.712   0.341 -0.6185 -0.4240  0.1141
 1422TIP3    H1 4272   2.805   4.661   0.279  1.3629 -0.2054  1.5600
 1422TIP3    H2 4273   2.814   4.770   0.384 -2.4740  1.6842  0.1043
 1423TIP3   OH2 4274   1.618   5.538   3.010 -0.6277 -0.0528 -0.0037
 1423TIP3    H1 4275   1.588   5.450   3.037 -3.6648  0.6593 -0.6903
 1423TIP3    H2 4276   1.668   5.570   3.085 -1.5705 -1.4367  1.2759
 1424TIP3   OH2 4277   3.900   0.857   3.981  0.1951 -0.0254 -0.1399
 1424TIP3    H1 4278   3.960   0.907   4.037 -0.1295  2.4135 -1.8241
 1424TIP3    H2 4279   3.956   0.795   3.936  0.6288 -1.2489  1.9265
 1425TIP3   OH2 4280   5.251   1.650   0.372 -0.4883  0.4192 -0.1125
 1425TIP3    H1 4281   5.244   1.744   0.388  0.4877  0.2932  1.3243
 1425TIP3    H2 4282   5.166   1.624   0.338 -0.4755  1.9682 -1.4030
 1426TIP3   OH2 4283   2.037   3.265   1.651 -0.4597  0.4820 -1.1088
 1426TIP3    H1 4284   2.073   3.332   1.593 -1.4260  0.7996 -1.3679
 1426TIP3    H2 4285   1.993   3.204   1.592  1.4383 -1.0821 -0.9872
 1427TIP3   OH2 4286   0.902   2.816   1.350 -0.1548 -0.0082 -0.2359
 1427TIP3    H1 4287   0.854   2.744   1.308 -0.0726 -0.8252  1.0272
 1427TIP3    H2 4288   0.994   2.799   1.329 -0.1552 -0.1383 -0.1315
 1428TIP3   OH2 4289   2.047   3.242   4.906 -0.4534 -0.2596  0.2498
 1428TIP3    H1 4290   1.974   3.227   4.965 -0.7908  0.1674 -0.0535
 1428TIP3    H2 4291   2.105   3.302   4.954 -1.4297  1.2551 -0.3885
 1429TIP3   OH2 4292   3.176   0.467   2.090 -0.4296  0.6747 -0.4384
 1429TIP3    H1 4293   3.146   0.546   2.045  0.7065  2.4382  1.7184
 1429TIP3    H2 4294   3.194   0.495   2.180 -0.8483 -2.2597  0.6921
 1430TIP3   OH2 4295   1.922   0.186   0.078 -0.0715  0.0020  0.0442
 1430TIP3    H1 4296   1.893   0.135   0.003  0.7746  1.8513 -1.6467
 1430TIP3    H2 4297   1.845   0.238   0.102 -0.0783  0.0780 -0.1402
 1431TIP3   OH2 4298   3.934   2.068   3.991 -0.7681 -0.1335  0.0931
 1431TIP3    H1 4299   3.902   2.074   3.902  0.1817 -0.8306 -0.3216
 1431TIP3    H2 4300   4.018   2.114   3.990 -0.6123 -0.3947  0.5494
 1432TIP3   OH2 4301   0.745   3.060   2.841  0.4514  0.4821 -0.7448
 1432TIP3    H1 4302   0.812   3.112   2.796  0.3821  0.9236 -0.3542
 1432TIP3    H2 4303   0.671   3.120   2.851  1.3489  1.3028  2.2233
 1433TIP3   OH2 4304   2.138   1.325   2.613  0.4910 -0.2447  0.2124
 1433TIP3    H1 4305   2.173   1.368   2.534 -1.9590  1.1043 -0.2265
 1433TIP3    H2 4306   2.189   1.363   2.684  1.0989  0.3583 -0.5208
 1434TIP3   OH2 4307   1.650   3.253   3.197  0.4215  0.3016  0.2581
 1434TIP3    H1 4308   1.676   3.213   3.280 -0.5427  0.8549  0.8523
 1434TIP3    H2 4309   1.644   3.180   3.136  2.8883  0.0974  0.1721
 1435TIP3   OH2 4310   1.730   3.452   2.637 -0.1809 -0.1690 -0.0146
 1435TIP3    H1 4311   1.763   3.408   2.715 -0.6648  1.3627  1.1007
 1435TIP3    H2 4312   1.650   3.404   2.615 -1.7595  1.1673  2.3097
 1436TIP3   OH2 4313   4.497   2.721   2.020 -0.3921  0.7542 -0.3318
 1436TIP3    H1 4314   4.564   2.727   2.088  0.2166  0.7040 -0.9121
 1436TIP3    H2 4315   4.415   2.742   2.065 -0.1487 -0.2687  0.6227
 1437TIP3   OH2 4316   5.694   0.271   1.572 -0.0504  0.3732 -0.2172
 1437TIP3    H1 4317   5.785   0.240   1.568 -0.5306 -0.9838 -2.3722
 1437TIP3    H2 4318   5.674   0.274   1.666  1.4764 -1.6146  0.2446
 1438TIP3   OH2 4319   3.130   0.621   3.954 -0.4577  0.0957  0.6667
 1438TIP3    H1 4320   3.184   0.643   4.030  0.9686 -1.0788  0.0348
 1438TIP3    H2 4321   3.049   0.670   3.967  0.7858  1.9962  1.5913
 1439TIP3   OH2 4322   2.624   1.051   2.386 -1.0049  0.8470  0.4288
 1439TIP3    H1 4323   2.650   1.131   2.431  0.5379 -0.5261  2.1440
 1439TIP3    H2 4324   2.605   0.989   2.457 -0.7250 -0.7341 -0.8264
 1440TIP3   OH2 4325   0.048   4.941   0.626 -0.2835 -0.0318 -0.6143
 1440TIP3    H1 4326  -0.047   4.945   0.611 -0.6875 -1.8164  1.0830
 1440TIP3    H2 4327   0.084   4.916   0.540 -1.2812  1.0475 -1.3755
 1441TIP3   OH2 4328   5.983   1.401   4.954  0.0595 -0.3467 -0.5376
 1441TIP3    H1 4329   6.022   1.329   4.904  2.0334 -1.7835  2.7580
 1441TIP3    H2 4330   6.048   1.472   4.948  2.1422 -1.7620  2.6258
 1442TIP3   OH2 4331   3.509   4.825   3.868  0.5548 -0.0676  0.6188
 1442TIP3    H1 4332   3.529   4.732   3.883  1.4075  0.1687  0.9550
 1442TIP3    H2 4333   3.542   4.843   3.780 -2.4147 -0.8602 -0.8142
 1443TIP3   OH2 4334   2.299   3.145   2.657 -0.4166 -0.2307  0.8786
 1443TIP3    H1 4335   2.308   3.240   2.665  0.3672 -0.3349  1.3407
 1443TIP3    H2 4336   2.207   3.131   2.635 -0.3801  0.6753  0.1029
 1444TIP3   OH2 4337   4.886   4.010   1.251  0.1026 -0.9854  0.3637
 1444TIP3    H1 4338   4.905   4.034   1.342  0.2917  1.1508 -0.1701
 1444TIP3    H2 4339   4.815   4.069   1.225  0.7645 -0.7918 -1.1606
 1445TIP3   OH2 4340   2.356   5.940   2.857  0.1202  0.3729  0.3186
 1445TIP3    H1 4341   2.446   5.965   2.875 -0.0682 -0.7020  3.2947
 1445TIP3    H2 4342   2.303   6.010   2.895 -0.3044 -0.0046  0.4420
 1446TIP3   OH2 4343   1.954   1.428   1.360 -0.4327 -0.0051 -0.2933
 1446TIP3    H1 4344   1.866   1.451   1.330  0.1211  1.7553 -0.7001
 1446TIP3    H2 4345   1.988   1.508   1.399  0.8149 -0.8006  0.3359
 1447TIP3   OH2 4346   5.863   3.816   4.376 -0.2268 -0.7658  0.0005
 1447TIP3    H1 4347   5.797   3.798   4.442 -0.2939 -0.8913 -0.0993
 1447TIP3    H2 4348   5.863   3.738   4.320 -0.7923 -0.3027 -0.6687
 1448TIP3   OH2 4349   3.197   0.042   4.612  0.2285  0.6595  0.1837
 1448TIP3    H1 4350   3.272   0.015   4.664 -0.8539  0.1414  1.5481
 1448TIP3    H2 4351   3.122   0.030   4.671 -0.8338  1.9354 -0.8451
 1449TIP3   OH2 4352   4.497   0.208   2.100 -0.1309  0.2855  0.1427
 1449TIP3    H1 4353   4.554   0.282   2.119 -0.4431  0.7502 -0.6547
 1449TIP3    H2 4354   4.428   0.246   2.045 -0.0244 -0.6963 -0.6822
 1450TIP3   OH2 4355   1.134   3.893   1.192  0.1197 -0.0901 -0.2206
 1450TIP3    H1 4356   1.125   3.818   1.251  0.1137 -0.0436 -0.1628
 1450TIP3    H2 4357   1.074   3.959   1.227  0.1361 -0.0525 -0.2628
 1451TIP3   OH2 4358   4.664   3.029   3.150  0.1794  0.1015  0.1218
 1451TIP3    H1 4359   4.619   3.032   3.234 -0.3323  0.6096 -0.1678
 1451TIP3    H2 4360   4.751   3.066   3.168  1.1976 -2.5204  1.0883
 1452TIP3   OH2 4361   3.654   3.264   3.362 -0.2469 -0.0399  0.1740
 1452TIP3    H1 4362   3.600   3.193   3.326 -1.2411  0.4310  0.7056
 1452TIP3    H2 4363   3.659   3.328   3.292  1.0005 -0.7956 -0.4594
 1453TIP3   OH2 4364   2.796   3.991   5.033 -0.0995  0.1821 -0.0878
 1453TIP3    H1 4365   2.752   3.938   4.966  0.3467  0.3787 -0.5410
 1453TIP3    H2 4366   2.767   3.953   5.116  0.0941 -0.6820 -0.4042
 1454TIP3   OH2 4367   5.864   1.822   4.068  0.6287  0.6871  0.2538
 1454TIP3    H1 4368   5.872   1.769   4.148 -0.4923  2.5700  1.6980
 1454TIP3    H2 4369   5.772   1.816   4.045  0.5188  1.8415  0.3476
 1455TIP3   OH2 4370   4.952   2.844   3.478 -0.5409  0.1020 -0.5881
 1455TIP3    H1 4371   4.938   2.938   3.484 -0.4596  0.4456 -3.9626
 1455TIP3    H2 4372   4.962   2.827   3.384  0.6018 -3.1220 -0.0073
 1456TIP3   OH2 4373   1.542   0.061   0.688  0.0586 -0.1949  0.8307
 1456TIP3    H1 4374   1.453   0.038   0.659 -0.5697  1.1261  1.6121
 1456TIP3    H2 4375   1.536   0.154   0.712  2.3665  0.8306 -1.9094
 1457TIP3   OH2 4376   2.599   4.138   0.780  0.1939 -0.1454  0.1081
 1457TIP3    H1 4377   2.526   4.129   0.719 -0.8885  0.4734  1.2656
 1457TIP3    H2 4378   2.626   4.048   0.799  0.2889 -0.3503 -0.9701
 1458TIP3   OH2 4379   3.867   5.488   4.835 -0.9283  0.0059 -0.2019
 1458TIP3    H1 4380   3.887   5.474   4.742  1.7043 -1.9853  0.5635
 1458TIP3    H2 4381   3.819   5.410   4.862  0.2634 -0.4656  0.6004
 1459TIP3   OH2 4382   5.846   1.233   5.153  0.3672 -0.3676  0.6594
 1459TIP3    H1 4383   5.888   1.287   5.086 -1.1568 -1.5351 -1.3528
 1459TIP3    H2 4384   5.903   1.157   5.163 -1.0787 -1.9973 -2.1335
 1460TIP3   OH2 4385   3.408   1.947   3.602  0.2978 -0.3507 -0.8301
 1460TIP3    H1 4386   3.347   1.946   3.676 -0.5498  0.0977 -1.4919
 1460TIP3    H2 4387   3.371   2.012   3.542  1.5895  0.1222 -1.1394
 1461TIP3   OH2 4388   3.682   4.046   4.995  0.0162  0.3804 -0.1676
 1461TIP3    H1 4389   3.736   4.112   4.951  1.0493 -0.0491  0.4244
 1461TIP3    H2 4390   3.640   3.998   4.923  0.1881  0.9116 -0.6296
 1462TIP3   OH2 4391   2.029   5.045   3.471  0.1488 -0.5160  0.3039
 1462TIP3    H1 4392   1.951   5.085   3.433  1.5075 -1.2737 -3.7372
 1462TIP3    H2 4393   2.101   5.080   3.419  2.1885 -2.2878  1.7807
 1463TIP3   OH2 4394   3.832   3.386   4.491 -0.4304 -0.1159  0.4756
 1463TIP3    H1 4395   3.901   3.336   4.535  0.7434 -0.2336 -1.3795
 1463TIP3    H2 4396   3.751   3.342   4.515  0.3487 -1.3856  0.8837
 1464TIP3   OH2 4397   4.053   4.229   0.006  0.1520  0.3910  0.4181
 1464TIP3    H1 4398   4.018   4.170   0.073 -0.2244 -2.5117 -2.1000
 1464TIP3    H2 4399   3.980   4.244  -0.054  1.0512  1.0740 -0.5495
 1465TIP3   OH2 4400   4.280   3.186   4.296  0.3681 -0.0334  0.0591
 1465TIP3    H1 4401   4.190   3.200   4.326  0.1975  0.4641 -0.6551
 1465TIP3    H2 4402   4.333   3.241   4.353  0.1509  0.1355  0.1003
 1466TIP3   OH2 4403   0.147   4.547   0.969 -0.7305  0.7304 -0.5137
 1466TIP3    H1 4404   0.206   4.515   0.901 -1.9824  1.8393 -2.1837
 1466TIP3    H2 4405   0.205   4.590   1.032  0.3838  0.4579 -1.3154
 1467TIP3   OH2 4406   5.569   2.370   3.774 -0.4203 -0.7988 -0.6904
 1467TIP3    H1 4407   5.501   2.307   3.801 -1.4775 -0.5619 -2.6005
 1467TIP3    H2 4408   5.595   2.340   3.687  0.6568  0.1513 -0.7084
 1468TIP3   OH2 4409   5.494   1.448   2.068  0.1842  0.3248  0.2163
 1468TIP3    H1 4410   5.554   1.377   2.087  0.1925  0.3274  0.2008
 1468TIP3    H2 4411   5.550   1.524   2.049  0.3518 -0.4797 -3.2788
 1469TIP3   OH2 4412   5.805   1.191   3.218  0.2187  0.6209 -0.0800
 1469TIP3    H1 4413   5.872   1.227   3.277  0.5151 -0.2285  0.1153
 1469TIP3    H2 4414   5.802   1.253   3.145  0.5124  1.1905  0.3803
 1470TIP3   OH2 4415   1.436   1.514   4.477 -0.1477  0.4454  0.0619
 1470TIP3    H1 4416   1.360   1.456   4.470  0.1768 -0.0132  0.2893
 1470TIP3    H2 4417   1.463   1.528   4.386  0.0133 -0.0934  0.0198
 1471TIP3   OH2 4418   5.072   5.338   2.477 -0.4650 -0.4450 -0.1336
 1471TIP3    H1 4419   5.129   5.327   2.402 -0.7026  0.0704 -0.3990
 1471TIP3    H2 4420   4.988   5.300   2.449 -0.4524 -0.5761  0.0030
 1472TIP3   OH2 4421   0.622   4.416   0.420 -0.1708 -0.0576 -0.8026
 1472TIP3    H1 4422   0.615   4.418   0.324 -2.4279  1.4423 -0.6743
 1472TIP3    H2 4423   0.697   4.471   0.440 -0.8074  1.1898 -1.6854
 1473TIP3   OH2 4424   5.812   4.616   4.259 -0.1423 -0.2935  0.4233
 1473TIP3    H1 4425   5.874   4.573   4.318 -1.0385 -0.7957  1.0341
 1473TIP3    H2 4426   5.819   4.569   4.176  0.7316  0.0577  0.2941
 1474TIP3   OH2 4427   0.572   0.448   3.035  0.4100 -0.1715  0.2872
 1474TIP3    H1 4428   0.667   0.457   3.029  0.2493  1.0615 -1.0680
 1474TIP3    H2 4429   0.545   0.517   3.095  0.2873  0.1404 -0.1235
 1475TIP3   OH2 4430   4.883   3.134   3.466  0.8503 -0.2648 -0.2311
 1475TIP3    H1 4431   4.857   3.165   3.379  0.8394 -0.6835 -0.3797
 1475TIP3    H2 4432   4.843   3.196   3.527  1.0338  0.1546 -0.5317
 1476TIP3   OH2 4433   4.988   1.333   4.265 -0.2336 -0.1482  0.5386
 1476TIP3    H1 4434   4.919   1.328   4.199  1.4842  0.2013 -1.3741
 1476TIP3    H2 4435   5.067   1.305   4.219  1.4575  2.2352  1.7881
 1477TIP3   OH2 4436   4.916   3.872   0.833  0.1406 -0.6644  0.3013
 1477TIP3    H1 4437   4.996   3.833   0.799  0.6438  0.3068  0.3547
 1477TIP3    H2 4438   4.845   3.821   0.792  0.7692 -1.3592  0.0567
 1478TIP3   OH2 4439   1.425   0.685   0.967  0.4451  0.5082  0.2324
 1478TIP3    H1 4440   1.507   0.638   0.984  0.4215  0.5757  0.5349
 1478TIP3    H2 4441   1.373   0.673   1.047  1.2142  2.7096  1.1400
 1479TIP3   OH2 4442   3.040   5.232   1.110 -0.1825  0.5079 -0.1314
 1479TIP3    H1 4443   3.090   5.217   1.030  1.1687  4.0439 -0.1525
 1479TIP3    H2 4444   3.098   5.202   1.180 -0.2368 -0.1299 -0.3525
 1480TIP3   OH2 4445   4.248   2.260   0.298 -0.1259 -0.4234  0.6862
 1480TIP3    H1 4446   4.294   2.342   0.279 -1.6828  0.2119 -0.5427
 1480TIP3    H2 4447   4.255   2.209   0.217 -0.7369 -0.7264  0.8213
 1481TIP3   OH2 4448   2.938   4.539   3.988 -0.3023 -0.6691  0.6631
 1481TIP3    H1 4449   2.904   4.628   3.991  1.7422  0.2274 -0.3611
 1481TIP3    H2 4450   2.872   4.486   4.032 -2.6888  0.9755 -0.7405
 1482TIP3   OH2 4451   3.136   3.333   3.573  0.5042  0.2128 -0.6756
 1482TIP3    H1 4452   3.067   3.302   3.515 -0.3216  1.1949 -0.2407
 1482TIP3    H2 4453   3.203   3.264   3.569 -1.6019 -2.0961  0.9187
 1483TIP3   OH2 4454   6.218   2.711   0.886  0.1361 -0.2820 -0.4600
 1483TIP3    H1 4455   6.236   2.803   0.868 -0.4557 -0.3074 -1.2128
 1483TIP3    H2 4456   6.226   2.703   0.981 -1.7427  0.9934 -0.1390
 1484TIP3   OH2 4457   4.651   3.426   1.709  0.0740  0.2396 -0.1935
 1484TIP3    H1 4458   4.655   3.330   1.710 -0.3575  0.2192  0.6098
 1484TIP3    H2 4459   4.696   3.451   1.629  2.2172 -0.5468  0.6748
 1485TIP3   OH2 4460   3.066   4.782   4.257 -0.4327 -0.2108 -0.0896
 1485TIP3    H1 4461   3.099   4.694   4.275 -1.8934 -0.4988  1.3939
 1485TIP3    H2 4462   2.999   4.770   4.190  0.7331  0.0784 -1.3679
 1486TIP3   OH2 4463   5.051   3.228   2.142 -0.0334  0.5138  0.1105
 1486TIP3    H1 4464   5.135   3.184   2.131 -0.2574  0.3146 -0.9491
 1486TIP3    H2 4465   4.990   3.158   2.167 -0.1446  0.4168 -0.4123
 1487TIP3   OH2 4466   2.482   5.293   4.467 -0.0544 -0.1011 -0.3734
 1487TIP3    H1 4467   2.576   5.273   4.467  0.1266  0.5566  1.2495
 1487TIP3    H2 4468   2.442   5.221   4.419  1.3152 -0.1717 -1.4680
 1488TIP3   OH2 4469   6.047   0.643   4.549 -0.3368  0.1760 -0.0381
 1488TIP3    H1 4470   6.044   0.577   4.479 -1.9229 -0.2647  0.4206
 1488TIP3    H2 4471   5.987   0.611   4.616  1.5542  0.3164  1.8253
 1489TIP3   OH2 4472   0.192   3.253   2.294 -0.4557 -0.0863  0.2295
 1489TIP3    H1 4473   0.244   3.331   2.275 -1.8172  1.4672  2.4099
 1489TIP3    H2 4474   0.241   3.181   2.254  1.2182  1.7628 -1.2692
 1490TIP3   OH2 4475   5.691   4.603   4.761  0.1290  0.0063 -0.1675
 1490TIP3    H1 4476   5.598   4.587   4.750 -0.1444  0.5154  1.1332
 1490TIP3    H2 4477   5.713   4.669   4.695 -0.1199 -1.0557 -1.3413
 1491TIP3   OH2 4478   1.869   2.561   1.428  0.0818 -0.3688 -0.0841
 1491TIP3    H1 4479   1.920   2.593   1.353 -0.3462 -0.6295 -0.4918
 1491TIP3    H2 4480   1.830   2.640   1.465 -1.5481 -0.4242 -1.5155
 1492TIP3   OH2 4481   3.709   2.599   1.253  0.4171 -0.8935  0.1822
 1492TIP3    H1 4482   3.748   2.681   1.283 -1.1458  0.2076 -0.6281
 1492TIP3    H2 4483   3.720   2.538   1.326  0.7197  0.3573  1.1978
 1493TIP3   OH2 4484   4.020   5.483   2.499  0.2207 -0.2924 -0.1239
 1493TIP3    H1 4485   4.047   5.462   2.410 -0.1646  2.0252 -0.8486
 1493TIP3    H2 4486   4.102   5.482   2.549  0.7757  0.5389 -0.9819
 1494TIP3   OH2 4487   3.244   0.803   0.904  0.0213  0.4045 -0.0897
 1494TIP3    H1 4488   3.316   0.741   0.914 -0.1303  0.3604  0.8020
 1494TIP3    H2 4489   3.260   0.870   0.972 -0.3784  0.7862 -0.3658
 1495TIP3   OH2 4490   4.372   4.417   3.000  0.5142  0.3488 -0.1410
 1495TIP3    H1 4491   4.333   4.407   3.086 -0.7576 -0.0711 -0.7442
 1495TIP3    H2 4492   4.460   4.380   3.008 -0.6848 -2.6741  0.1817
 1496TIP3   OH2 4493   1.693   1.362   3.441  0.3591  0.1662 -0.0700
 1496TIP3    H1 4494   1.725   1.272   3.447  0.1444  0.1555  1.2274
 1496TIP3    H2 4495   1.600   1.353   3.419  0.4252  0.0864 -0.3190
 1497TIP3   OH2 4496   1.849   1.012   2.075  0.3072 -0.1540 -0.4499
 1497TIP3    H1 4497   1.856   1.008   1.980  0.9524 -0.2934 -0.4048
 1497TIP3    H2 4498   1.921   0.956   2.106  1.2130  1.2910  0.1364
 1498TIP3   OH2 4499   6.182   0.338   4.848 -1.0634 -0.5898  0.2858
 1498TIP3    H1 4500   6.200   0.370   4.759 -0.4861 -1.0341  0.2377
 1498TIP3    H2 4501   6.095   0.298   4.841 -0.6774 -1.3596 -0.2896
 1499TIP3   OH2 4502  -0.003   2.953   2.589 -0.1698 -0.0438 -0.3751
 1499TIP3    H1 4503   0.044   2.875   2.618 -0.0024 -0.0838 -0.7411
 1499TIP3    H2 4504   0.034   3.024   2.641  1.3284  0.1572 -1.6280
 1500TIP3   OH2 4505   1.214   3.031   3.652  0.1312 -0.0293 -0.0102
 1500TIP3    H1 4506   1.290   2.977   3.631 -0.2490 -0.8246  0.6251
 1500TIP3    H2 4507   1.173   2.987   3.726 -0.2683  1.0562  0.4348
 1501TIP3   OH2 4508   2.881   1.024   3.649  0.4101  0.1244 -0.3217
 1501TIP3    H1 4509   2.966   1.066   3.664  1.0063 -0.0405 -2.7856
 1501TIP3    H2 4510   2.898   0.930   3.660 -0.1305  0.2288  1.8110
 1502TIP3   OH2 4511   1.123   2.016   3.374 -0.2741 -0.2291  0.3207
 1502TIP3    H1 4512   1.162   1.962   3.442 -0.9474 -1.9456 -0.5800
 1502TIP3    H2 4513   1.030   2.018   3.396 -0.5541 -1.0965 -0.6964
 1503TIP3   OH2 4514   4.165   0.544   4.964 -0.3188  0.5760 -0.3288
 1503TIP3    H1 4515   4.219   0.616   4.995  0.7867  0.2482 -1.4323
 1503TIP3    H2 4516   4.226   0.483   4.922 -1.7399  1.6039 -4.3679
 1504TIP3   OH2 4517   0.063   2.759   3.257  0.0929 -0.2541 -0.0864
 1504TIP3    H1 4518   0.128   2.805   3.310 -2.9706  4.3040  0.3332
 1504TIP3    H2 4519  -0.010   2.743   3.317 -0.5856 -2.0383 -1.3018
 1505TIP3   OH2 4520   1.449   2.197   4.738 -0.3318  0.1823 -0.1387
 1505TIP3    H1 4521   1.529   2.246   4.719 -1.5293  2.2084 -0.1243
 1505TIP3    H2 4522   1.378   2.257   4.718 -1.8949 -1.6015 -0.2404
 1506TIP3   OH2 4523   6.367   3.984   4.864 -0.4994 -0.1594 -0.0964
 1506TIP3    H1 4524   6.350   3.940   4.780  0.1178  0.3099 -0.4790
 1506TIP3    H2 4525   6.282   4.019   4.890 -0.7507 -0.5386 -0.3946
 1507TIP3   OH2 4526   4.389   5.449   2.193 -0.1247  0.4492 -0.0571
 1507TIP3    H1 4527   4.332   5.520   2.224  1.3405  1.5872  0.1529
 1507TIP3    H2 4528   4.401   5.392   2.269  0.0336  0.9090  0.2671
 1508TIP3   OH2 4529   3.951   0.369   5.012 -0.4670 -0.0276  0.3034
 1508TIP3    H1 4530   3.881   0.384   4.948  0.9381  0.1895 -1.2467
 1508TIP3    H2 4531   4.025   0.419   4.979  0.9524 -1.5542  1.0077
 1509TIP3   OH2 4532   0.667   3.868   4.676  0.5567  0.3133  0.0903
 1509TIP3    H1 4533   0.751   3.864   4.631  1.1574  0.9276  1.1065
 1509TIP3    H2 4534   0.602   3.875   4.606  1.5329  2.4469 -0.6927
 1510TIP3   OH2 4535   4.627   2.932   0.423 -0.6487 -0.4466  0.2164
 1510TIP3    H1 4536   4.586   2.865   0.368 -0.2238  0.0634 -0.7586
 1510TIP3    H2 4537   4.556   2.964   0.479 -1.5839  0.2789 -1.2982
 1511TIP3   OH2 4538   4.397   0.185   4.057  0.0792  0.2228 -0.0077
 1511TIP3    H1 4539   4.446   0.151   3.982 -0.1666 -1.8003  0.6938
 1511TIP3    H2 4540   4.373   0.274   4.031 -0.6306 -0.6330 -2.6575
 1512TIP3   OH2 4541   1.821   1.110   0.081  0.8465  0.3681 -0.3661
 1512TIP3    H1 4542   1.763   1.099   0.156  1.7071  0.8689  0.3918
 1512TIP3    H2 4543   1.909   1.112   0.119  1.2464  1.3473 -1.3135
 1513TIP3   OH2 4544   4.474   4.880   0.671  0.3558 -0.6258 -0.8191
 1513TIP3    H1 4545   4.447   4.789   0.685 -0.2577 -0.4222 -0.6190
 1513TIP3    H2 4546   4.396   4.923   0.637  0.4547 -0.0395 -0.3342
 1514TIP3   OH2 4547   2.771   2.878   1.572 -0.3275  0.0064 -0.1124
 1514TIP3    H1 4548   2.816   2.809   1.523 -1.5653 -0.5280 -0.5451
 1514TIP3    H2 4549   2.682   2.846   1.582 -0.4961  0.8013  1.1771
 1515TIP3   OH2 4550   4.055   1.945   3.621 -0.2259  0.0084  0.5962
 1515TIP3    H1 4551   4.058   2.040   3.623 -0.3806  0.0938 -1.3367
 1515TIP3    H2 4552   3.967   1.925   3.589  0.1626 -0.7357 -0.0499
 1516TIP3   OH2 4553   5.939   2.578   2.968 -0.2660  0.0567 -0.3918
 1516TIP3    H1 4554   5.872   2.513   2.986 -0.5002  0.3729 -0.1042
 1516TIP3    H2 4555   5.901   2.634   2.899  0.4657 -0.9070 -1.6284
 1517TIP3   OH2 4556   6.278   0.844   3.319  0.0077 -0.1510 -0.5615
 1517TIP3    H1 4557   6.232   0.923   3.289  1.4770  0.4824 -1.2937
 1517TIP3    H2 4558   6.269   0.846   3.414 -0.9162  0.2847 -0.6416
 1518TIP3   OH2 4559   1.723   5.866   3.625 -0.2014  0.2500 -0.0387
 1518TIP3    H1 4560   1.728   5.788   3.571 -0.2221 -0.0789  0.4282
 1518TIP3    H2 4561   1.811   5.904   3.620  0.1642 -0.4637  0.6960
 1519TIP3   OH2 4562   4.423   3.926   2.589  0.0452 -0.1315 -0.3834
 1519TIP3    H1 4563   4.368   3.967   2.657 -0.0819  1.5378 -1.4276
 1519TIP3    H2 4564   4.376   3.942   2.507  0.7296 -1.1522 -0.9917
 1520TIP3   OH2 4565   1.567   4.114   3.542  0.0223 -0.2543  0.1190
 1520TIP3    H1 4566   1.642   4.120   3.602  0.1985  1.2709 -0.2028
 1520TIP3    H2 4567   1.496   4.159   3.588 -0.5849 -1.2916  0.2247
 1521TIP3   OH2 4568   6.299  -0.001   0.373  0.0021 -0.4390 -0.2865
 1521TIP3    H1 4569   6.370  -0.032   0.316 -1.1016 -2.2067 -0.8039
 1521TIP3    H2 4570   6.255   0.067   0.321 -0.4771 -1.4452 -1.2632
 1522TIP3   OH2 4571   3.429   0.579   2.763  0.8046 -0.4153  0.0313
 1522TIP3    H1 4572   3.474   0.596   2.680  0.3954 -1.7241 -0.4793
 1522TIP3    H2 4573   3.354   0.526   2.739  0.6724 -0.8070  1.2467
 1523TIP3   OH2 4574   0.237   0.270   3.708 -0.1542 -0.2256 -0.4147
 1523TIP3    H1 4575   0.315   0.216   3.718  0.9043  1.2124 -0.4859
 1523TIP3    H2 4576   0.270   0.352   3.671 -2.0223 -0.3558 -2.5540
 1524TIP3   OH2 4577   2.636   3.998   3.566  0.1037 -0.0862 -0.2829
 1524TIP3    H1 4578   2.658   3.938   3.494 -0.0397 -0.8020  0.2515
 1524TIP3    H2 4579   2.572   4.058   3.529  0.4189 -0.1314 -0.8997
 1525TIP3   OH2 4580   3.998   4.636   4.641 -0.1971  0.2741 -0.2824
 1525TIP3    H1 4581   4.030   4.549   4.617  1.0986  0.9834 -1.2716
 1525TIP3    H2 4582   4.053   4.662   4.715 -2.2503 -0.7174  1.6987
 1526TIP3   OH2 4583   5.101   4.716   1.908 -0.3187 -0.1380 -0.4442
 1526TIP3    H1 4584   5.059   4.802   1.917 -0.2005 -0.0972 -0.2492
 1526TIP3    H2 4585   5.192   4.732   1.934  0.5430  0.3705 -3.4188
 1527TIP3   OH2 4586   1.905   3.477   4.557 -0.9015  0.3145 -0.4399
 1527TIP3    H1 4587   1.840   3.543   4.581 -0.9933  0.8737 -2.1037
 1527TIP3    H2 4588   1.858   3.394   4.562 -1.1817  0.5047  0.2619
 1528TIP3   OH2 4589   3.143   5.128   0.381  0.2812 -0.0006  0.1560
 1528TIP3    H1 4590   3.059   5.167   0.402  0.4369  0.7396 -0.5248
 1528TIP3    H2 4591   3.191   5.197   0.335  1.7821  0.0492  1.6824
 1529TIP3   OH2 4592   5.112   3.487   4.660  0.0872  0.0562  0.0869
 1529TIP3    H1 4593   5.077   3.436   4.732  2.8068 -1.6387  0.3771
 1529TIP3    H2 4594   5.188   3.533   4.698  0.0591  1.1495 -1.1161
 1530TIP3   OH2 4595   3.225   2.244   1.457  0.5726 -0.0192 -0.4545
 1530TIP3    H1 4596   3.136   2.246   1.492  1.0648  0.0291  0.8347
 1530TIP3    H2 4597   3.254   2.335   1.461  1.2367 -0.2725  0.6141
 1531TIP3   OH2 4598   3.383   3.118   0.854  0.8441 -0.4223 -0.1769
 1531TIP3    H1 4599   3.407   3.033   0.818  0.0525 -0.8460  0.2679
 1531TIP3    H2 4600   3.335   3.098   0.934  1.6587  0.4762  0.5710
 1532TIP3   OH2 4601   3.010   1.929   4.307  0.1731  0.1734  0.4896
 1532TIP3    H1 4602   2.986   1.844   4.344  0.7348  0.0680  0.6234
 1532TIP3    H2 4603   2.932   1.958   4.261 -0.2381 -0.1106  1.0027
 1533TIP3   OH2 4604   2.677   2.898   2.137 -0.1655 -0.4016  0.0258
 1533TIP3    H1 4605   2.703   2.884   2.228 -1.0249 -0.6428  0.2452
 1533TIP3    H2 4606   2.606   2.962   2.142  0.1962  0.0484 -0.5310
 1534TIP3   OH2 4607   4.529   4.723   1.119 -0.3289  0.2055 -0.0950
 1534TIP3    H1 4608   4.559   4.814   1.118 -0.9041  0.4004 -0.4858
 1534TIP3    H2 4609   4.498   4.709   1.208 -0.5968  0.5215 -0.1356
 1535TIP3   OH2 4610   0.670   3.075   3.315 -0.7008  0.3851  0.2262
 1535TIP3    H1 4611   0.624   3.119   3.387 -1.0004  0.2322  0.1333
 1535TIP3    H2 4612   0.694   3.146   3.255 -1.3971  0.4019 -0.0414
 1536TIP3   OH2 4613   4.025   0.418   4.364 -0.2701 -0.2228 -0.6862
 1536TIP3    H1 4614   4.118   0.429   4.385 -0.0257  0.0043 -1.8248
 1536TIP3    H2 4615   4.018   0.441   4.271 -1.4072 -0.5811 -0.7102
 1537TIP3   OH2 4616   3.142   5.105   2.683 -0.2079 -0.0783  0.0838
 1537TIP3    H1 4617   3.145   5.198   2.705 -0.9183 -0.5096  2.2501
 1537TIP3    H2 4618   3.217   5.067   2.730  0.3213 -0.5601 -1.1103
 1538TIP3   OH2 4619   0.543   1.957   3.096 -0.6482 -0.7654  0.4813
 1538TIP3    H1 4620   0.499   2.010   3.030  0.5594  0.6487  0.7593
 1538TIP3    H2 4621   0.602   1.901   3.046 -2.1169 -2.0953  0.1668
 1539TIP3   OH2 4622   2.050   2.668   2.697  0.1792  0.3540  0.1077
 1539TIP3    H1 4623   2.140   2.699   2.689 -0.2755  2.1527  1.3370
 1539TIP3    H2 4624   2.052   2.609   2.772  0.1882  1.1652  0.7677
 1540TIP3   OH2 4625   0.550   3.882   0.120  0.0978  0.2186 -0.0407
 1540TIP3    H1 4626   0.591   3.965   0.093 -1.5637  1.1927  0.2955
 1540TIP3    H2 4627   0.599   3.855   0.197 -1.5620  2.8632  2.1148
 1541TIP3   OH2 4628   2.728   5.035   3.546 -0.1129 -0.0863  0.4481
 1541TIP3    H1 4629   2.695   4.969   3.608 -0.1554  1.0411  1.6630
 1541TIP3    H2 4630   2.793   5.085   3.597 -0.6649  1.3267 -0.1965
 1542TIP3   OH2 4631   4.950   4.750   0.163  0.3969 -0.6542  0.8262
 1542TIP3    H1 4632   4.939   4.844   0.180 -0.5490 -0.5457 -0.1920
 1542TIP3    H2 4633   4.948   4.709   0.249 -0.2702  0.1756  1.2201
 1543TIP3   OH2 4634   0.837   5.575   3.146  0.5151 -0.0386  0.1640
 1543TIP3    H1 4635   0.890   5.642   3.103 -0.6802 -0.1163 -1.5617
 1543TIP3    H2 4636   0.747   5.605   3.134 -0.0453 -1.8581 -0.5703
 1544TIP3   OH2 4637   4.678   2.050   5.206 -0.0002 -0.4483 -0.1152
 1544TIP3    H1 4638   4.602   2.101   5.236 -0.2800 -1.3117  0.6995
 1544TIP3    H2 4639   4.684   2.069   5.112 -0.9269  0.0050 -0.0953
 1545TIP3   OH2 4640   3.170   5.462   2.971  0.0040 -0.2276  0.1870
 1545TIP3    H1 4641   3.264   5.446   2.962  0.9240  2.7161  2.8403
 1545TIP3    H2 4642   3.139   5.391   3.027  1.3213  0.4070  1.7783
 1546TIP3   OH2 4643   5.443   3.462   0.768 -0.1897 -0.0003  0.1205
 1546TIP3    H1 4644   5.366   3.411   0.794 -1.5037  2.4610  1.5466
 1546TIP3    H2 4645   5.409   3.524   0.703  0.5023  1.2532  0.9109
 1547TIP3   OH2 4646   5.845   3.326   1.857  0.0157  0.0546  0.0659
 1547TIP3    H1 4647   5.887   3.245   1.827 -0.8255 -0.1240 -0.6748
 1547TIP3    H2 4648   5.770   3.296   1.909 -1.2562  0.3058 -1.5494
 1548TIP3   OH2 4649   0.727   0.944   0.701  0.3168 -0.4137  0.2834
 1548TIP3    H1 4650   0.661   0.932   0.769  0.8346 -1.1601  0.6711
 1548TIP3    H2 4651   0.757   1.034   0.712 -2.2831  0.7666 -1.4239
 1549TIP3   OH2 4652   2.104   3.490   1.514  0.3597 -0.1561  0.1602
 1549TIP3    H1 4653   2.143   3.457   1.434  1.0794  0.7828  0.0971
 1549TIP3    H2 4654   2.018   3.522   1.488 -0.0920 -1.3706  0.1070
 1550TIP3   OH2 4655   0.513   0.205   3.660  0.3381 -0.3060  0.5912
 1550TIP3    H1 4656   0.546   0.222   3.748 -0.6930 -2.1532  1.4016
 1550TIP3    H2 4657   0.591   0.185   3.608  0.8094 -1.6606  1.7329
 1551TIP3   OH2 4658   4.378   2.738   4.041 -0.2366  0.5201 -0.1386
 1551TIP3    H1 4659   4.317   2.808   4.065 -0.4038  0.1891  0.4259
 1551TIP3    H2 4660   4.465   2.777   4.052 -0.3268  0.5879  0.3469
 1552TIP3   OH2 4661   4.633   5.921   0.392 -0.2803 -0.4096  0.4189
 1552TIP3    H1 4662   4.587   5.956   0.468 -2.3793  1.7844 -1.7136
 1552TIP3    H2 4663   4.626   5.989   0.325 -0.3340 -2.9909 -2.4253
 1553TIP3   OH2 4664   1.054   1.698   3.462  0.0335 -0.1065 -0.6273
 1553TIP3    H1 4665   1.134   1.668   3.419 -0.5353 -1.3919 -0.8379
 1553TIP3    H2 4666   1.057   1.659   3.549 -0.0959  0.2966 -0.4415
 1554TIP3   OH2 4667   4.002   4.698   4.371  0.5269 -0.6624 -0.1468
 1554TIP3    H1 4668   4.031   4.653   4.450 -0.4827 -1.2961 -0.1239
 1554TIP3    H2 4669   3.907   4.695   4.375  0.3816  1.8636  0.0657
 1555TIP3   OH2 4670   2.267   3.640   1.019 -0.5605 -0.3702 -0.1837
 1555TIP3    H1 4671   2.177   3.660   0.994 -0.5153 -0.0511 -0.0904
 1555TIP3    H2 4672   2.295   3.574   0.955 -0.7747 -0.2819 -0.3702
 1556TIP3   OH2 4673   4.547   2.704   2.611  0.4644  0.5307 -0.3693
 1556TIP3    H1 4674   4.622   2.757   2.639 -1.0782  2.2265  0.8441
 1556TIP3    H2 4675   4.505   2.677   2.693 -0.0858 -0.6650 -1.0204
 1557TIP3   OH2 4676   5.135   4.352   4.395  0.4403 -0.4118 -0.2965
 1557TIP3    H1 4677   5.046   4.388   4.386 -0.4803 -2.0824  1.3499
 1557TIP3    H2 4678   5.190   4.428   4.413 -1.1372  0.4153  1.3774
 1558TIP3   OH2 4679   5.676   1.895   4.809 -0.0180  0.3827 -0.1549
 1558TIP3    H1 4680   5.759   1.860   4.841  0.7469 -0.3935 -2.7605
 1558TIP3    H2 4681   5.691   1.989   4.802 -0.1605  0.5577  1.5003
 1559TIP3   OH2 4682   3.685   4.112   4.232 -0.0415  0.5082 -0.2055
 1559TIP3    H1 4683   3.629   4.035   4.228 -0.3931  0.4213  3.1633
 1559TIP3    H2 4684   3.627   4.185   4.207 -0.3232 -0.0536 -1.2437
 1560TIP3   OH2 4685   4.347   1.782   0.550  0.7466 -0.5877 -0.2213
 1560TIP3    H1 4686   4.338   1.850   0.616  2.6825 -1.4692  1.0137
 1560TIP3    H2 4687   4.402   1.715   0.590  1.2939 -1.5609 -2.4184
 1561TIP3   OH2 4688   3.605   0.403   4.230  0.0129 -0.2789 -0.2062
 1561TIP3    H1 4689   3.533   0.380   4.170 -0.2924  0.4154 -0.1229
 1561TIP3    H2 4690   3.684   0.378   4.183 -0.2434 -0.1300 -0.7307
 1562TIP3   OH2 4691   0.308   4.264   4.045  0.2260  0.6568 -0.0028
 1562TIP3    H1 4692   0.297   4.358   4.057 -0.6369  0.6944 -0.8836
 1562TIP3    H2 4693   0.330   4.230   4.131 -0.1485  1.5767  0.4606
 1563TIP3   OH2 4694   5.479   1.405   0.242  0.7934 -0.3375  0.5933
 1563TIP3    H1 4695   5.448   1.490   0.211  1.6689  0.1508  1.0290
 1563TIP3    H2 4696   5.412   1.344   0.213  1.5265  0.0554 -2.3341
 1564TIP3   OH2 4697   2.624   2.726   4.071  0.7907  0.1639  0.3932
 1564TIP3    H1 4698   2.644   2.654   4.131  2.3082 -0.3460 -0.6758
 1564TIP3    H2 4699   2.534   2.709   4.043  1.0841 -1.2956  0.2313
 1565TIP3   OH2 4700   1.118   2.739   3.520  0.0402 -0.3972 -1.0607
 1565TIP3    H1 4701   1.178   2.686   3.573  0.2727  0.5368 -0.3714
 1565TIP3    H2 4702   1.167   2.819   3.502 -1.4140  0.9166  0.5621
 1566TIP3   OH2 4703   3.118   0.733   4.887  0.4425  0.3948 -0.1927
 1566TIP3    H1 4704   3.069   0.682   4.823  0.2464 -0.2317  0.4429
 1566TIP3    H2 4705   3.204   0.692   4.890 -0.4908 -1.6414  2.2160
 1567TIP3   OH2 4706   5.944   0.916   2.957  0.0516  0.0265  0.0141
 1567TIP3    H1 4707   6.031   0.956   2.957 -0.5193  1.3182 -0.7708
 1567TIP3    H2 4708   5.937   0.876   3.044  1.7765 -0.9280 -0.2388
 1568TIP3   OH2 4709   2.581   4.190   1.564 -0.4438 -0.1014 -0.0905
 1568TIP3    H1 4710   2.642   4.118   1.549 -0.3349 -0.1819  0.6789
 1568TIP3    H2 4711   2.580   4.201   1.659 -0.0688  1.2498 -0.2191
 1569TIP3   OH2 4712   0.051   2.932   1.653  0.0045 -0.4008 -0.0044
 1569TIP3    H1 4713   0.011   2.918   1.739 -2.1468  1.7734 -0.5518
 1569TIP3    H2 4714   0.016   2.861   1.599  0.5762 -1.1905  0.6309
 1570TIP3   OH2 4715   2.377   5.642   4.032 -0.0685  0.1707 -0.2393
 1570TIP3    H1 4716   2.375   5.549   4.052  1.1500  0.1076 -0.3327
 1570TIP3    H2 4717   2.318   5.651   3.957  0.6434 -0.7275 -0.9383
 1571TIP3   OH2 4718   4.640   2.651   1.519 -0.1441  0.4395  0.5922
 1571TIP3    H1 4719   4.553   2.660   1.557 -0.3399  1.9000 -0.1356
 1571TIP3    H2 4720   4.681   2.737   1.532  0.7011  0.1841 -0.2457
 1572TIP3   OH2 4721   4.351   0.227   4.690 -0.1307 -0.3094 -0.3206
 1572TIP3    H1 4722   4.407   0.153   4.714 -0.2058 -0.3588 -0.2986
 1572TIP3    H2 4723   4.265   0.205   4.725 -0.0573 -0.0191  0.0546
 1573TIP3   OH2 4724   5.375   2.454   2.109 -0.2481 -0.0691  0.0107
 1573TIP3    H1 4725   5.356   2.395   2.036 -1.4503  0.4304 -0.0930
 1573TIP3    H2 4726   5.307   2.435   2.173 -0.4604  0.9682  0.1086
 1574TIP3   OH2 4727   5.852   3.158   3.974  0.0474 -0.3229 -0.3009
 1574TIP3    H1 4728   5.834   3.064   3.964  0.4681 -0.3144 -1.2449
 1574TIP3    H2 4729   5.840   3.194   3.887 -0.6338  0.6107  0.1566
 1575TIP3   OH2 4730   1.671   1.967   0.199  0.5422  0.4110  0.4521
 1575TIP3    H1 4731   1.580   1.970   0.228  0.1811 -1.6074 -0.3378
 1575TIP3    H2 4732   1.720   1.937   0.276  0.3885  0.3989  0.5444
 1576TIP3   OH2 4733   0.176   5.746   1.557  0.2138  0.2875  0.0628
 1576TIP3    H1 4734   0.257   5.708   1.590  0.3290 -0.5148 -1.1094
 1576TIP3    H2 4735   0.182   5.738   1.462  0.0764  2.9013 -0.2552
 1577TIP3   OH2 4736   1.092   0.151   1.265  0.5579  0.0089 -0.5850
 1577TIP3    H1 4737   1.044   0.120   1.342  1.2389 -0.2595 -0.2607
 1577TIP3    H2 4738   1.045   0.230   1.237  0.1251 -0.0666 -0.0840
 1578TIP3   OH2 4739   1.255   0.193   4.305 -0.5324  0.1979  0.1387
 1578TIP3    H1 4740   1.170   0.192   4.262 -0.3492  4.0806 -0.6849
 1578TIP3    H2 4741   1.317   0.215   4.235  0.2851  2.9180  1.5662
 1579TIP3   OH2 4742   0.917   0.860   5.212  0.2945 -0.0469 -0.1891
 1579TIP3    H1 4743   1.004   0.869   5.174 -0.2433 -0.4842 -1.6131
 1579TIP3    H2 4744   0.874   0.794   5.158 -0.7491 -0.2165  0.8075
 1580TIP3   OH2 4745   0.456   1.052   1.177  0.2272 -0.2598 -0.0016
 1580TIP3    H1 4746   0.378   1.011   1.139 -1.5742  2.2664  0.6422
 1580TIP3    H2 4747   0.480   1.120   1.114 -0.1384  1.0904  1.2350
 1581TIP3   OH2 4748   6.211   3.963   0.938 -0.1778  1.2262  0.2938
 1581TIP3    H1 4749   6.207   4.047   0.984  0.8776  1.6274 -0.3186
 1581TIP3    H2 4750   6.287   3.919   0.976 -0.9514  0.3667  0.8860
 1582TIP3   OH2 4751   5.181   1.752   1.276 -0.2010 -0.0923  0.0211
 1582TIP3    H1 4752   5.158   1.671   1.320 -0.0978 -0.0880  0.0840
 1582TIP3    H2 4753   5.268   1.736   1.239 -0.6488 -0.3956 -0.9274
 1583TIP3   OH2 4754   1.892   5.043   1.818  0.4257 -0.0253  1.1044
 1583TIP3    H1 4755   1.979   5.004   1.809  0.0217 -0.6053 -0.5145
 1583TIP3    H2 4756   1.893   5.119   1.760 -0.0920  0.0623  1.2055
 1584TIP3   OH2 4757   3.052   3.026   0.049  0.1561 -0.0073 -0.3548
 1584TIP3    H1 4758   3.065   3.033   0.144 -1.4989 -1.1297  0.0091
 1584TIP3    H2 4759   3.076   3.112   0.015  1.5003  0.1826  0.9812
 1585TIP3   OH2 4760   1.572   4.476   3.434  0.1653  0.2568 -0.6011
 1585TIP3    H1 4761   1.650   4.421   3.428 -0.0360 -0.2156  0.7253
 1585TIP3    H2 4762   1.535   4.475   3.346  1.5360  0.3242 -1.1989
 1586TIP3   OH2 4763   2.925   0.443   1.151  0.2873  0.0743 -0.2591
 1586TIP3    H1 4764   3.000   0.387   1.170  0.3586  0.5134  0.8559
 1586TIP3    H2 4765   2.863   0.425   1.223 -0.5199 -0.0064 -0.9576
 1587TIP3   OH2 4766   5.196   4.136   4.542  0.0646 -0.0010  0.0624
 1587TIP3    H1 4767   5.163   4.209   4.491 -1.7515 -1.4462 -0.9838
 1587TIP3    H2 4768   5.202   4.064   4.479  0.2328 -1.1752  1.3737
 1588TIP3   OH2 4769   0.230   2.662   2.635  0.1342  0.0382 -0.4126
 1588TIP3    H1 4770   0.193   2.601   2.570  0.6998 -1.0806  0.2848
 1588TIP3    H2 4771   0.167   2.660   2.707  0.7051 -0.6115  0.0851
 1589TIP3   OH2 4772   3.318   2.858   2.960 -0.2735  0.0128 -0.1106
 1589TIP3    H1 4773   3.251   2.851   3.028  0.0955  0.9766  0.3602
 1589TIP3    H2 4774   3.293   2.935   2.909  0.5988  0.5203  0.2157
 1590TIP3   OH2 4775   4.107   4.688   4.880 -0.2326  0.0557 -0.7107
 1590TIP3    H1 4776   4.023   4.728   4.902  0.8808  1.4970  1.2307
 1590TIP3    H2 4777   4.116   4.616   4.942  0.4206  0.6029 -0.1486
 1591TIP3   OH2 4778   6.124   0.902   4.267 -0.2973  0.5455  0.5858
 1591TIP3    H1 4779   6.177   0.954   4.328 -0.4713  1.4493 -0.0175
 1591TIP3    H2 4780   6.035   0.910   4.301 -0.1412 -0.5287  1.2905
 1592TIP3   OH2 4781   2.405   2.398   3.516 -0.2276 -0.3407  0.0246
 1592TIP3    H1 4782   2.406   2.334   3.587  3.3999  0.9862  1.4420
 1592TIP3    H2 4783   2.433   2.350   3.439 -0.8849 -1.1130  0.2551
 1593TIP3   OH2 4784   0.150   0.288   4.229 -0.4861 -0.1489  0.5582
 1593TIP3    H1 4785   0.189   0.363   4.183  1.8810 -1.3321  0.4979
 1593TIP3    H2 4786   0.100   0.242   4.161 -1.4895  1.0055  0.4686
 1594TIP3   OH2 4787   6.246   2.045   2.895 -0.1299  0.3204  0.3428
 1594TIP3    H1 4788   6.186   2.097   2.948  0.3451  1.2443 -0.0015
 1594TIP3    H2 4789   6.299   2.109   2.848  1.2814 -0.4581  0.8016
 1595TIP3   OH2 4790   0.010   3.278   3.262  0.2671  0.1445  0.1092
 1595TIP3    H1 4791   0.029   3.292   3.355  0.6727 -1.5397  0.3086
 1595TIP3    H2 4792   0.044   3.357   3.219  1.2142  0.3921  1.2573
 1596TIP3   OH2 4793   3.657   2.170   4.788  0.6129 -0.0106  0.4520
 1596TIP3    H1 4794   3.689   2.170   4.878  1.0483  1.2031  0.3291
 1596TIP3    H2 4795   3.572   2.214   4.792  0.1682 -0.8656  0.4120
 1597TIP3   OH2 4796   3.917   5.428   0.634 -0.1271 -0.2819  0.1475
 1597TIP3    H1 4797   3.991   5.386   0.590 -0.7048  0.3229 -1.4669
 1597TIP3    H2 4798   3.953   5.509   0.669  0.4970 -1.0854  1.4343
 1598TIP3   OH2 4799   1.382   0.504   1.734  0.6451  0.0518 -0.1724
 1598TIP3    H1 4800   1.403   0.575   1.794  2.4177 -0.0059 -0.6940
 1598TIP3    H2 4801   1.293   0.524   1.704  0.2811  0.8567  1.3221
 1599TIP3   OH2 4802   4.587   1.357   1.223 -0.0503  0.2895  0.8159
 1599TIP3    H1 4803   4.537   1.392   1.297 -0.5646  2.5818 -0.5357
 1599TIP3    H2 4804   4.665   1.413   1.219  0.9931 -1.1111  0.8286
 1600TIP3   OH2 4805   3.152   4.517   3.324  0.0777 -0.1025 -0.3963
 1600TIP3    H1 4806   3.099   4.491   3.399  0.8436 -0.2331  0.1110
 1600TIP3    H2 4807   3.205   4.590   3.356  0.3868 -0.1398 -0.8171
 1601TIP3   OH2 4808   0.435   4.628   0.037 -0.0115  0.0677  0.0911
 1601TIP3    H1 4809   0.374   4.700   0.052 -0.6033 -0.1237 -1.2525
 1601TIP3    H2 4810   0.497   4.661  -0.027 -0.2759 -0.5970 -0.5272
 1602TIP3   OH2 4811   2.634   0.919   2.121  0.4915 -0.2932  0.1177
 1602TIP3    H1 4812   2.545   0.889   2.101  0.3582 -0.0006  0.2769
 1602TIP3    H2 4813   2.627   0.960   2.207  1.2370 -2.3255  1.2136
 1603TIP3   OH2 4814   0.894   3.167   1.966 -0.1585  0.0981 -0.2937
 1603TIP3    H1 4815   0.967   3.228   1.975 -0.1680  0.2781 -1.2982
 1603TIP3    H2 4816   0.935   3.081   1.961 -0.1291  0.0314  0.8556
 1604TIP3   OH2 4817   1.256   0.403   3.720 -0.3354  0.1704  0.3484
 1604TIP3    H1 4818   1.345   0.369   3.721 -0.5666 -0.4687 -0.1224
 1604TIP3    H2 4819   1.260   0.478   3.660 -0.2956 -0.3720 -0.3289
 1605TIP3   OH2 4820   2.874   0.349   2.334 -0.3677 -0.1747 -0.4305
 1605TIP3    H1 4821   2.852   0.426   2.388  1.2378  1.1151 -1.5013
 1605TIP3    H2 4822   2.823   0.360   2.254  1.6228  1.1229 -1.5871
 1606TIP3   OH2 4823   1.251   1.016   0.658 -0.1786  0.2665  0.6940
 1606TIP3    H1 4824   1.210   0.948   0.712  0.6895 -0.6779  0.1972
 1606TIP3    H2 4825   1.245   0.982   0.569  2.2416 -0.2347  0.6544
 1607TIP3   OH2 4826   4.980   4.956   1.968  0.1087 -0.3335  0.1344
 1607TIP3    H1 4827   4.911   5.004   1.922  0.8771  0.1341 -0.5624
 1607TIP3    H2 4828   5.017   5.019   2.029  1.3949  0.1414 -1.0715
 1608TIP3   OH2 4829   1.359   4.433   4.973  0.3632 -0.1675  0.0819
 1608TIP3    H1 4830   1.449   4.410   4.997  0.5933  1.1933  0.6320
 1608TIP3    H2 4831   1.304   4.378   5.028  0.8875  1.6214  2.5576
 1609TIP3   OH2 4832   4.307   3.837   1.602 -0.5483 -0.5843  0.6328
 1609TIP3    H1 4833   4.250   3.805   1.532 -0.8493  2.6454 -0.8092
 1609TIP3    H2 4834   4.253   3.831   1.681 -1.2591 -1.6266  0.0925
 1610TIP3   OH2 4835   0.543   4.148   4.584  0.5887 -0.2352 -0.4430
 1610TIP3    H1 4836   0.545   4.214   4.515  0.5859 -0.0980 -0.3120
 1610TIP3    H2 4837   0.627   4.158   4.629  0.5088 -0.1898 -0.3017
 1611TIP3   OH2 4838   3.515   2.843   2.576  0.3776  0.3088  0.0511
 1611TIP3    H1 4839   3.606   2.819   2.555  0.8287  0.5537  1.6166
 1611TIP3    H2 4840   3.513   2.938   2.569  0.5730  0.4084  1.1736
 1612TIP3   OH2 4841   6.008   0.439   4.353 -0.4575 -0.0168  0.0695
 1612TIP3    H1 4842   6.041   0.523   4.319 -2.5635  1.6074  1.7420
 1612TIP3    H2 4843   5.931   0.421   4.299 -0.3979 -0.5374  0.1580
 1613TIP3   OH2 4844   0.250   4.673   4.974  0.1470  0.0604 -0.1486
 1613TIP3    H1 4845   0.323   4.728   5.004  1.1742 -1.1692 -0.3479
 1613TIP3    H2 4846   0.219   4.716   4.894  1.2631  0.0813 -0.5826
 1614TIP3   OH2 4847   5.767   1.569   3.785  0.5082 -0.4025  0.4712
 1614TIP3    H1 4848   5.739   1.630   3.717 -0.6061 -1.2181  0.1738
 1614TIP3    H2 4849   5.719   1.596   3.863  1.1796  0.0354  0.7436
 1615TIP3   OH2 4850   6.139   5.383   2.964 -0.6347  0.0492  0.4678
 1615TIP3    H1 4851   6.106   5.327   2.894  1.9584 -0.3825 -0.5286
 1615TIP3    H2 4852   6.063   5.400   3.019 -2.1704 -1.9156 -0.8993
 1616TIP3   OH2 4853   3.198   5.257   1.509 -0.2864 -0.3020  0.2355
 1616TIP3    H1 4854   3.225   5.308   1.585  0.8296 -1.1467  0.4298
 1616TIP3    H2 4855   3.166   5.174   1.545 -1.1376 -0.1473 -0.1377
 1617TIP3   OH2 4856   4.238   0.037   2.024  0.4903 -0.2249 -0.2904
 1617TIP3    H1 4857   4.198   0.061   2.108 -0.9616 -0.8413 -0.7914
 1617TIP3    H2 4858   4.166   0.034   1.962  1.2631 -1.6578 -1.1653
 1618TIP3   OH2 4859   4.453   3.424   0.831 -0.6680  0.1082  0.1378
 1618TIP3    H1 4860   4.505   3.490   0.878  0.2163 -1.4748  1.4612
 1618TIP3    H2 4861   4.502   3.408   0.750  0.2786 -0.4650  0.8048
 1619TIP3   OH2 4862   3.232   3.407   3.904 -0.5366 -0.3112 -0.0899
 1619TIP3    H1 4863   3.265   3.317   3.898 -0.7347 -0.5019  1.3458
 1619TIP3    H2 4864   3.147   3.399   3.947 -1.5179  0.3913 -1.8028
 1620TIP3   OH2 4865   0.924   5.624   3.499 -0.2429  0.0576 -0.0429
 1620TIP3    H1 4866   0.894   5.569   3.426  0.5011 -0.8735  0.3354
 1620TIP3    H2 4867   0.898   5.713   3.474 -3.0110 -0.6134  0.1102
 1621TIP3   OH2 4868   0.214   4.784   0.101 -0.4668  0.0781 -0.5467
 1621TIP3    H1 4869   0.150   4.855   0.109 -2.1294 -1.4248  0.1000
 1621TIP3    H2 4870   0.166   4.705   0.125  1.6444 -1.1452 -0.0934
 1622TIP3   OH2 4871   0.948   4.514   4.959  0.0607  0.3572 -0.4284
 1622TIP3    H1 4872   0.866   4.496   5.004  0.5592  0.5925  0.6311
 1622TIP3    H2 4873   0.945   4.461   4.880 -0.2941 -1.1124  0.5269
 1623TIP3   OH2 4874   2.151   5.615   0.696  0.5515 -0.1990  0.8030
 1623TIP3    H1 4875   2.148   5.612   0.601  1.7408  1.7804  0.6502
 1623TIP3    H2 4876   2.062   5.640   0.722  0.5156  0.4181  0.1194
 1624TIP3   OH2 4877   3.759   0.683   0.375 -0.5894 -0.1745 -0.2941
 1624TIP3    H1 4878   3.827   0.651   0.316  0.8088  0.8574  0.6969
 1624TIP3    H2 4879   3.791   0.662   0.463 -1.2847  0.7821  0.2071
 1625TIP3   OH2 4880   3.989   1.962   4.930 -0.7631 -0.0538 -0.9354
 1625TIP3    H1 4881   3.912   2.000   4.972  0.0120  0.9711 -0.3974
 1625TIP3    H2 4882   4.019   2.030   4.869  0.3535  0.0412 -0.3212
 1626TIP3   OH2 4883   3.100   4.626   0.443  0.3049 -0.2072  0.6676
 1626TIP3    H1 4884   3.047   4.687   0.393  1.4669 -0.5652 -1.0617
 1626TIP3    H2 4885   3.128   4.676   0.520  1.1485  1.4362 -0.6470
 1627TIP3   OH2 4886   4.595   4.213   0.131 -0.1133 -0.2184  0.3433
 1627TIP3    H1 4887   4.647   4.235   0.053 -0.8263 -0.7186 -0.2867
 1627TIP3    H2 4888   4.505   4.205   0.098 -0.5137  0.1197  1.3277
 1628TIP3   OH2 4889   5.919   4.374   2.144  0.0900 -0.1081  0.1274
 1628TIP3    H1 4890   5.971   4.294   2.149 -0.4514 -0.4815 -0.0834
 1628TIP3    H2 4891   5.912   4.405   2.234  1.8240  0.7085  0.0091
 1629TIP3   OH2 4892   4.784   2.805   0.624 -0.2962  0.2682  0.4741
 1629TIP3    H1 4893   4.778   2.885   0.572  1.4379 -0.7373 -1.4549
 1629TIP3    H2 4894   4.693   2.774   0.632 -1.0050  2.3988  1.3471
 1630TIP3   OH2 4895   0.688   3.428   1.554 -0.2929  0.9864  0.2794
 1630TIP3    H1 4896   0.766   3.393   1.512 -0.9697 -0.5779  0.2543
 1630TIP3    H2 4897   0.708   3.425   1.648 -0.3069  0.6072  0.2716
 1631TIP3   OH2 4898   2.113   2.789   3.302 -0.6047 -0.0989  0.5327
 1631TIP3    H1 4899   2.190   2.749   3.342 -0.5211  0.1592  0.6321
 1631TIP3    H2 4900   2.138   2.880   3.285 -1.1513  0.2157  1.3311
 1632TIP3   OH2 4901   5.591   5.421   0.732  0.7444  0.2947  0.2342
 1632TIP3    H1 4902   5.660   5.388   0.790  1.3525 -1.7116 -1.5003
 1632TIP3    H2 4903   5.530   5.348   0.723  0.3077  0.7890 -1.1099
 1633TIP3   OH2 4904   0.135   4.415   4.986 -0.4308 -0.1627 -0.2634
 1633TIP3    H1 4905   0.098   4.420   5.074  0.6796 -1.2387  0.2946
 1633TIP3    H2 4906   0.179   4.499   4.974  0.6015 -0.5298  0.7812
 1634TIP3   OH2 4907   0.643   5.902   2.071  0.2766  0.3596  0.0833
 1634TIP3    H1 4908   0.708   5.937   2.132 -0.2705  2.4755 -0.4510
 1634TIP3    H2 4909   0.693   5.879   1.993  0.6919 -0.3277  0.5458
 1635TIP3   OH2 4910   3.898   4.265   2.917  0.0601 -0.1652 -0.1019
 1635TIP3    H1 4911   3.876   4.198   2.982  0.3644 -0.8658 -0.6948
 1635TIP3    H2 4912   3.816   4.280   2.870 -0.6978  1.8308  1.7015
 1636TIP3   OH2 4913   0.700   4.110   0.883  0.2054  0.2777  0.3012
 1636TIP3    H1 4914   0.628   4.052   0.857  1.0607 -0.3056 -0.9204
 1636TIP3    H2 4915   0.667   4.198   0.865  0.8312 -0.0620 -3.4607
 1637TIP3   OH2 4916   2.453   5.084   1.603  0.1255  0.4433 -0.2174
 1637TIP3    H1 4917   2.487   5.173   1.600  0.2109  0.4756  1.2868
 1637TIP3    H2 4918   2.509   5.038   1.665  0.5784 -0.9079 -1.5493
 1638TIP3   OH2 4919   6.266   1.096   2.650  0.2469 -0.0989  0.0161
 1638TIP3    H1 4920   6.347   1.111   2.601  0.0933 -2.1639 -0.9534
 1638TIP3    H2 4921   6.278   1.010   2.692 -0.0014  1.1560  2.9231
 1639TIP3   OH2 4922   1.736   0.361   3.236 -0.3770  0.3549  0.3751
 1639TIP3    H1 4923   1.759   0.357   3.328 -1.5114  1.5006  0.7517
 1639TIP3    H2 4924   1.814   0.332   3.189  0.1721 -0.3470  1.6915
 1640TIP3   OH2 4925   0.940   1.060   0.811  0.2025 -0.1110  0.3171
 1640TIP3    H1 4926   0.933   1.130   0.877  0.8142  0.6713 -0.4216
 1640TIP3    H2 4927   0.958   0.981   0.862  1.2109  0.5719  1.0612
 1641TIP3   OH2 4928   6.160   3.906  -0.008 -0.4121 -0.0205  0.3601
 1641TIP3    H1 4929   6.077   3.885   0.034 -2.0427 -1.3169 -3.0715
 1641TIP3    H2 4930   6.210   3.825  -0.007 -0.3383  0.0191  0.1390
 1642TIP3   OH2 4931   3.106   3.188   2.161 -0.5391 -0.1664 -0.9123
 1642TIP3    H1 4932   3.023   3.176   2.115 -2.5542  2.8445  1.4667
 1642TIP3    H2 4933   3.105   3.123   2.231 -0.8548 -0.2330 -0.9799
 1643TIP3   OH2 4934   4.198   3.437   4.148  0.2568  0.0493 -0.2510
 1643TIP3    H1 4935   4.182   3.433   4.054 -0.6950 -1.0622 -0.0717
 1643TIP3    H2 4936   4.149   3.363   4.184  1.1798  0.0273  1.0471
 1644TIP3   OH2 4937   5.134   0.471   2.111  0.0107 -0.4561 -0.1947
 1644TIP3    H1 4938   5.177   0.523   2.044 -1.2334 -0.5938 -1.1304
 1644TIP3    H2 4939   5.206   0.431   2.160  1.0386  2.3268  0.7631
 1645TIP3   OH2 4940   5.185   0.866   2.208 -0.1907  0.3134 -0.1130
 1645TIP3    H1 4941   5.252   0.933   2.217  0.2034 -0.2801  1.6672
 1645TIP3    H2 4942   5.142   0.887   2.125  2.1048  0.7619 -1.2754
 1646TIP3   OH2 4943   3.703   1.310   4.314  0.3130 -0.1182  0.5591
 1646TIP3    H1 4944   3.609   1.303   4.331  0.3890 -0.9820  0.6699
 1646TIP3    H2 4945   3.725   1.399   4.339 -0.1267 -0.4571  2.2957
 1647TIP3   OH2 4946   3.456   5.049   1.792 -0.2416  0.4830 -0.6575
 1647TIP3    H1 4947   3.538   5.000   1.799  0.2583  1.2727 -0.9682
 1647TIP3    H2 4948   3.406   5.000   1.726 -1.2781 -1.7254  1.6162
 1648TIP3   OH2 4949   2.230   5.280   5.127 -0.2270 -0.4972 -0.7947
 1648TIP3    H1 4950   2.317   5.298   5.092  1.1823 -4.8378 -0.0760
 1648TIP3    H2 4951   2.180   5.360   5.109  2.6327  0.6482 -5.1731
 1649TIP3   OH2 4952   3.009   3.647   4.048 -0.8795 -0.2047 -0.3312
 1649TIP3    H1 4953   2.923   3.658   4.008 -1.3784 -0.8868  0.5211
 1649TIP3    H2 4954   3.031   3.555   4.033 -0.5091 -0.1515 -0.1259
 1650TIP3   OH2 4955   4.910   0.405   2.459 -0.0127 -0.0703  0.1692
 1650TIP3    H1 4956   4.861   0.478   2.495  1.3420  0.8788  0.1811
 1650TIP3    H2 4957   4.902   0.336   2.524 -0.7981  0.2858  0.4567
 1651TIP3   OH2 4958   1.861   1.700   4.828  0.7461  0.1720 -0.2015
 1651TIP3    H1 4959   1.913   1.758   4.772  1.1560  0.4954  0.4953
 1651TIP3    H2 4960   1.840   1.753   4.905 -0.6656  0.0503 -0.4904
 1652TIP3   OH2 4961   4.568   5.178   3.501  0.3861  0.1788 -0.4800
 1652TIP3    H1 4962   4.573   5.182   3.405 -1.1195 -0.1921 -0.5998
 1652TIP3    H2 4963   4.603   5.092   3.523 -1.0927 -0.5560 -0.8856
 1653TIP3   OH2 4964   2.608   5.165   4.177  0.2439  0.5019 -0.1395
 1653TIP3    H1 4965   2.653   5.185   4.259  0.7979 -2.2138  0.3216
 1653TIP3    H2 4966   2.525   5.126   4.204 -0.1412  0.7773 -0.8979
 1654TIP3   OH2 4967   2.553   5.239   0.264  0.1129  0.5154 -0.0462
 1654TIP3    H1 4968   2.458   5.250   0.268  0.0053  0.4382 -1.6405
 1654TIP3    H2 4969   2.576   5.260   0.173  1.4203 -1.0028 -0.1224
 1655TIP3   OH2 4970   3.161   1.848   1.459 -0.4643 -0.2356  0.4564
 1655TIP3    H1 4971   3.154   1.772   1.516  0.8517  0.0334  1.0080
 1655TIP3    H2 4972   3.071   1.880   1.450 -1.0088 -1.7456  0.3511
 1656TIP3   OH2 4973   5.766   2.963   3.040  0.3750 -0.5792 -0.2055
 1656TIP3    H1 4974   5.725   2.951   3.126  0.2655  0.8956 -0.0103
 1656TIP3    H2 4975   5.694   2.991   2.983  0.7218  0.0268 -0.3621
 1657TIP3   OH2 4976   5.692   4.865   3.228  0.4287  0.2853  0.2380
 1657TIP3    H1 4977   5.655   4.941   3.273 -0.7115 -0.5526  0.7432
 1657TIP3    H2 4978   5.716   4.805   3.299 -0.3200 -0.5631 -0.2131
 1658TIP3   OH2 4979   3.582   5.511   0.206  0.3098 -0.1095 -0.1663
 1658TIP3    H1 4980   3.636   5.470   0.274  0.2885  0.8744  0.4550
 1658TIP3    H2 4981   3.613   5.601   0.201 -0.7327  0.2454 -0.3841
 1659TIP3   OH2 4982   6.227   4.759   4.754 -0.0495  0.0801 -0.0388
 1659TIP3    H1 4983   6.135   4.785   4.748  0.1314  1.1346  1.2230
 1659TIP3    H2 4984   6.258   4.799   4.835  2.1451  1.7219 -1.5593
 1660TIP3   OH2 4985   3.366   0.949   0.330 -0.6737 -0.1442 -0.0485
 1660TIP3    H1 4986   3.383   0.863   0.368 -0.1244  0.0547  0.1693
 1660TIP3    H2 4987   3.415   0.949   0.248 -1.3976 -0.3630 -0.4906
 1661TIP3   OH2 4988   3.711   4.350   1.168  0.5260  0.1347 -0.0839
 1661TIP3    H1 4989   3.751   4.396   1.241 -0.3892 -0.7301  0.9916
 1661TIP3    H2 4990   3.778   4.288   1.139  0.3650 -0.5918  1.0384
 1662TIP3   OH2 4991   1.746   4.234   3.717 -0.3874 -0.5881  0.4402
 1662TIP3    H1 4992   1.685   4.278   3.776  1.4262  0.1682  1.8496
 1662TIP3    H2 4993   1.814   4.299   3.699  0.0911 -1.4297 -0.9815
 1663TIP3   OH2 4994   3.371   5.646   3.936  0.3064 -0.6980 -0.5951
 1663TIP3    H1 4995   3.446   5.643   3.995  0.2700 -1.2229 -0.5737
 1663TIP3    H2 4996   3.295   5.658   3.993  0.4010  0.1941 -0.6420
 1664TIP3   OH2 4997   0.455   4.788   2.157 -0.4061 -0.2078 -0.0511
 1664TIP3    H1 4998   0.366   4.820   2.141 -0.4421  0.3014  1.0618
 1664TIP3    H2 4999   0.506   4.866   2.175 -0.0702 -0.6095  0.7977
 1665TIP3   OH2 5000   2.186   5.351   0.462  0.7058 -0.2294 -0.5588
 1665TIP3    H1 5001   2.110   5.369   0.517 -0.1222 -0.7418 -1.4997
 1665TIP3    H2 5002   2.212   5.262   0.485  1.0012 -0.0745 -0.2774
 1666TIP3   OH2 5003   4.690   1.264   2.544 -0.0391  0.2153  0.0506
 1666TIP3    H1 5004   4.774   1.310   2.547  0.8734 -1.3681  0.1775
 1666TIP3    H2 5005   4.642   1.296   2.620  0.9167  0.3340  0.6208
 1667TIP3   OH2 5006   0.407   3.666   0.371 -0.0836  1.1704  0.3584
 1667TIP3    H1 5007   0.419   3.660   0.276  0.9957  0.5447  0.5114
 1667TIP3    H2 5008   0.406   3.575   0.401 -0.4692  1.3619  0.9382
 1668TIP3   OH2 5009   4.513   1.563   3.279 -0.3051 -0.0848 -0.3044
 1668TIP3    H1 5010   4.431   1.577   3.232  1.2518  2.6063 -2.5104
 1668TIP3    H2 5011   4.570   1.519   3.217  0.2072 -1.2403  0.9381
 1669TIP3   OH2 5012   3.964   4.113   0.535 -0.0793 -0.0660  0.1324
 1669TIP3    H1 5013   3.977   4.079   0.447 -0.1859 -0.5402  0.2979
 1669TIP3    H2 5014   3.972   4.208   0.526  0.6830 -0.1603 -0.2569
 1670TIP3   OH2 5015   4.097   0.842   1.262  0.1538  0.1258  0.3038
 1670TIP3    H1 5016   4.048   0.805   1.336 -0.6157 -0.9261 -0.7079
 1670TIP3    H2 5017   4.093   0.774   1.195  2.5595  0.2393 -0.0091
 1671TIP3   OH2 5018   4.328   6.014   4.116  0.0116 -0.1309 -0.4173
 1671TIP3    H1 5019   4.335   5.949   4.186  0.9534  0.1589 -0.2263
 1671TIP3    H2 5020   4.391   5.985   4.050  1.9391  1.5981  0.5260
 1672TIP3   OH2 5021   2.528   5.818   1.729 -0.1971  0.3115 -0.1877
 1672TIP3    H1 5022   2.497   5.811   1.638  2.0044  2.3177 -1.1834
 1672TIP3    H2 5023   2.453   5.791   1.782 -1.7886 -0.2357 -2.5687
 1673TIP3   OH2 5024   6.346   0.482   1.233 -0.2609  0.6621  0.0393
 1673TIP3    H1 5025   6.255   0.453   1.223 -0.2695  1.0851 -1.2113
 1673TIP3    H2 5026   6.342   0.547   1.303 -0.8702  0.5121  0.1590
 1674TIP3   OH2 5027   3.221   3.551   3.677 -1.0761  0.2354  0.2743
 1674TIP3    H1 5028   3.232   3.510   3.763 -0.0583  0.3626  0.2217
 1674TIP3    H2 5029   3.195   3.479   3.620 -1.8864  0.1737  0.7033
 1675TIP3   OH2 5030   5.098   0.426   4.445 -0.6009  0.1318  0.6469
 1675TIP3    H1 5031   5.053   0.478   4.512 -0.8203  0.8997 -0.0874
 1675TIP3    H2 5032   5.040   0.431   4.369  0.5935  0.9329 -0.2314
 1676TIP3   OH2 5033   3.490   4.417   4.471 -0.5810  0.0365  0.0397
 1676TIP3    H1 5034   3.503   4.511   4.476 -1.6866  0.1671  0.8945
 1676TIP3    H2 5035   3.438   4.396   4.549  0.5014 -1.4252  0.4158
 1677TIP3   OH2 5036   2.429   2.755   4.578  0.0563 -0.1975  0.3797
 1677TIP3    H1 5037   2.508   2.808   4.564  1.3289 -2.7128 -3.3580
 1677TIP3    H2 5038   2.444   2.713   4.663  2.3662  0.0379  0.1571
 1678TIP3   OH2 5039   2.374   1.043   0.793 -0.3986 -0.5287  0.2384
 1678TIP3    H1 5040   2.289   1.073   0.763 -0.3206 -1.0569 -0.5346
 1678TIP3    H2 5041   2.354   0.978   0.861 -0.6037 -0.4317  0.2715
 1679TIP3   OH2 5042   0.369   0.365   1.842  0.1197  0.2330 -0.2112
 1679TIP3    H1 5043   0.362   0.415   1.923  0.3005  3.1108 -1.8117
 1679TIP3    H2 5044   0.445   0.309   1.855  0.5727  1.1462  1.3715
 1680TIP3   OH2 5045   3.011   4.690   2.459 -0.0113  0.6437  0.3774
 1680TIP3    H1 5046   2.990   4.750   2.529 -2.0028 -0.0054  0.3955
 1680TIP3    H2 5047   3.101   4.661   2.478 -0.2799  0.9522  2.2852
 1681TIP3   OH2 5048   5.785   4.572   3.991 -0.0927  0.4057 -0.0840
 1681TIP3    H1 5049   5.698   4.535   4.004  0.3764 -0.8578 -0.4147
 1681TIP3    H2 5050   5.774   4.632   3.918 -0.8491  0.8784  0.3985
 1682TIP3   OH2 5051   1.421   0.669   0.418  0.7267 -0.2182  0.0608
 1682TIP3    H1 5052   1.448   0.613   0.490 -0.9515  1.2241  1.9443
 1682TIP3    H2 5053   1.501   0.688   0.371  1.6604 -2.3666  0.6557
 1683TIP3   OH2 5054   0.614   3.681   0.689 -0.0243 -0.2086 -0.0133
 1683TIP3    H1 5055   0.659   3.671   0.773 -1.2743  0.3014  0.7441
 1683TIP3    H2 5056   0.620   3.594   0.648 -0.6695 -0.8741  1.2651
 1684TIP3   OH2 5057   4.205   1.711   2.796  0.2290 -0.0300 -0.8255
 1684TIP3    H1 5058   4.271   1.643   2.799 -1.7813 -2.0619  0.7069
 1684TIP3    H2 5059   4.253   1.791   2.774  3.1893 -1.3298  0.4817
 1685TIP3   OH2 5060   3.223   2.854   1.163  0.0373  0.0597 -0.0217
 1685TIP3    H1 5061   3.170   2.794   1.110 -0.0522  0.7355 -0.7180
 1685TIP3    H2 5062   3.163   2.885   1.231 -0.3337  0.4412 -0.5113
 1686TIP3   OH2 5063   1.255   1.565   0.021  0.0237  0.0534  0.6928
 1686TIP3    H1 5064   1.205   1.625  -0.035 -0.4975  1.7639  2.8481
 1686TIP3    H2 5065   1.192   1.501   0.051  0.2241 -0.6414 -0.2970
 1687TIP3   OH2 5066   3.854   5.622   3.886 -0.1692  0.0320  0.2177
 1687TIP3    H1 5067   3.862   5.672   3.804 -2.6923  2.4665  1.2728
 1687TIP3    H2 5068   3.838   5.532   3.857 -1.8448  0.9475 -2.0681
 1688TIP3   OH2 5069   5.542   0.394   4.988 -0.2891 -0.2217  0.2385
 1688TIP3    H1 5070   5.519   0.382   4.895  0.8729 -0.5475 -0.0267
 1688TIP3    H2 5071   5.638   0.404   4.988 -0.4991  2.8198  1.1139
 1689TIP3   OH2 5072   1.488   1.476   1.581  0.5022 -0.1452 -0.2356
 1689TIP3    H1 5073   1.433   1.404   1.549 -0.2308  1.3333 -2.5818
 1689TIP3    H2 5074   1.449   1.500   1.665  0.4469 -2.0988  0.3558
 1690TIP3   OH2 5075   0.457   2.887   4.517 -0.6275  0.2132  0.1805
 1690TIP3    H1 5076   0.399   2.878   4.592 -0.4917  0.1178  0.2756
 1690TIP3    H2 5077   0.506   2.805   4.515  0.8010  0.9854  1.2002
 1691TIP3   OH2 5078   0.605   3.575   4.211 -0.7773  0.0991 -0.0684
 1691TIP3    H1 5079   0.631   3.532   4.130 -2.1003  2.9460 -2.1878
 1691TIP3    H2 5080   0.568   3.505   4.265  3.7062 -2.6702 -0.0570
 1692TIP3   OH2 5081   2.903   3.216   3.070  0.7307  0.7651 -0.2691
 1692TIP3    H1 5082   2.886   3.124   3.049 -2.7360  1.1642  0.2527
 1692TIP3    H2 5083   2.869   3.264   2.994  1.7519  1.6976 -0.1667
 1693TIP3   OH2 5084   0.239   0.163   2.128 -0.3727  0.1418 -0.3822
 1693TIP3    H1 5085   0.298   0.229   2.091 -0.4482 -0.9547 -2.6034
 1693TIP3    H2 5086   0.298   0.095   2.161 -0.3469  0.4207  0.1622
 1694TIP3   OH2 5087   3.586   4.303   3.188  0.5262  0.0846  0.3489
 1694TIP3    H1 5088   3.650   4.265   3.128  0.2067  0.1798 -0.0515
 1694TIP3    H2 5089   3.627   4.295   3.274  0.5543 -0.9698  0.2471
 1695TIP3   OH2 5090   6.109   2.561   2.453  0.4073  0.1501 -0.1550
 1695TIP3    H1 5091   6.185   2.546   2.509  0.3313 -0.2229 -0.1444
 1695TIP3    H2 5092   6.122   2.648   2.416  1.2798 -0.2612 -0.8474
 1696TIP3   OH2 5093   6.033   4.274   0.050  0.2947  0.4072 -0.0074
 1696TIP3    H1 5094   6.096   4.235  -0.010  1.1047  2.8565 -0.8712
 1696TIP3    H2 5095   6.036   4.218   0.128  1.3910 -1.1707 -1.1275
 1697TIP3   OH2 5096   5.886   3.919   0.104  0.3036  1.0094 -0.2455
 1697TIP3    H1 5097   5.862   3.931   0.012 -0.2876  0.2716 -0.2010
 1697TIP3    H2 5098   5.804   3.896   0.147  0.7077  0.6288  0.3341
 1698TIP3   OH2 5099   1.456   5.318   0.682  0.6250  0.0687 -0.4281
 1698TIP3    H1 5100   1.362   5.336   0.684  1.0216  2.3925 -0.1533
 1698TIP3    H2 5101   1.478   5.313   0.589  0.0301 -1.9346 -0.5018
 1699TIP3   OH2 5102   2.281   0.961   2.500 -0.4401 -0.0831  0.0979
 1699TIP3    H1 5103   2.247   0.871   2.502  0.9399 -0.6374 -0.1928
 1699TIP3    H2 5104   2.205   1.015   2.479 -1.6393 -1.0035  1.8273
 1700TIP3   OH2 5105   3.113   3.004   4.040 -0.2497  0.0769  0.2781
 1700TIP3    H1 5106   3.138   3.053   3.962 -0.7430 -1.0344 -0.6013
 1700TIP3    H2 5107   3.130   2.913   4.019 -1.9388 -0.4178  0.8210
 1701TIP3   OH2 5108   5.513   0.016   2.593 -0.0294  0.8900 -0.4870
 1701TIP3    H1 5109   5.422   0.020   2.623 -0.0890  0.8826 -0.6610
 1701TIP3    H2 5110   5.519   0.085   2.527 -0.2970  0.0026 -1.4799
 1702TIP3   OH2 5111   1.279   2.535   2.680 -0.1794 -1.0419  0.1894
 1702TIP3    H1 5112   1.270   2.628   2.702 -0.8351 -0.5783 -1.7987
 1702TIP3    H2 5113   1.373   2.521   2.668 -0.2307  0.0646 -2.0103
 1703TIP3   OH2 5114   0.849   3.321   0.289  0.0540 -0.4111  0.5337
 1703TIP3    H1 5115   0.933   3.280   0.310  1.2264  0.7814 -1.5355
 1703TIP3    H2 5116   0.837   3.307   0.195 -1.8683 -0.1450  0.6813
 1704TIP3   OH2 5117   3.654   5.610   1.415  0.0569  0.4372 -0.2697
 1704TIP3    H1 5118   3.710   5.549   1.368  1.9730  1.2563  0.8239
 1704TIP3    H2 5119   3.630   5.676   1.349  1.5275  0.7978 -0.4884
 1705TIP3   OH2 5120   5.099   2.781   2.763  0.4055  0.0185  0.3285
 1705TIP3    H1 5121   5.029   2.742   2.711  0.5866  1.4928 -1.1316
 1705TIP3    H2 5122   5.112   2.868   2.724  1.6811  0.5584  1.8347
 1706TIP3   OH2 5123   6.268   2.638   0.133  0.4007 -0.0094  0.4100
 1706TIP3    H1 5124   6.219   2.603   0.059 -1.0037  0.8774  0.8683
 1706TIP3    H2 5125   6.351   2.590   0.133  0.0052 -0.7327 -1.1041
 1707TIP3   OH2 5126   4.253   3.986   3.245  0.4788  0.4154 -0.1488
 1707TIP3    H1 5127   4.245   3.891   3.234  2.0163  0.3904 -1.4536
 1707TIP3    H2 5128   4.290   3.996   3.333 -0.1647 -0.1492  0.2011
 1708TIP3   OH2 5129   2.789   2.445   3.759  0.0429 -0.3820  0.2316
 1708TIP3    H1 5130   2.798   2.376   3.826  1.1892 -1.6576 -1.1732
 1708TIP3    H2 5131   2.801   2.399   3.676 -0.6053  1.3026 -0.8295
 1709TIP3   OH2 5132   0.042   3.664   3.609  0.3581 -0.3985  0.0638
 1709TIP3    H1 5133   0.084   3.657   3.695 -0.9403 -1.1858  0.6717
 1709TIP3    H2 5134  -0.042   3.706   3.628  0.1760 -0.3403 -0.8606
 1710TIP3   OH2 5135   2.048   0.969   4.284  0.1254 -0.3240  0.3241
 1710TIP3    H1 5136   2.020   0.964   4.375  1.3969  1.1103  0.8180
 1710TIP3    H2 5137   2.019   1.055   4.254 -3.4270 -2.0297 -1.7870
 1711TIP3   OH2 5138   6.096   2.434   2.161 -0.2061  0.0290  0.8041
 1711TIP3    H1 5139   6.086   2.425   2.255 -0.0827 -0.6121  0.7624
 1711TIP3    H2 5140   6.075   2.347   2.126  0.3148  0.0969  0.2953
 1712TIP3   OH2 5141   3.645   5.898   3.902 -0.3692  0.4680 -0.8066
 1712TIP3    H1 5142   3.562   5.927   3.941  0.0517  0.2624  0.2986
 1712TIP3    H2 5143   3.660   5.812   3.941  0.0498  0.2226 -1.4975
 1713TIP3   OH2 5144   0.644   5.715   3.656 -0.2462  0.2664  0.4375
 1713TIP3    H1 5145   0.725   5.673   3.627  0.0500  1.1984 -0.1426
 1713TIP3    H2 5146   0.667   5.808   3.664 -0.7762  0.2957  2.0688
 1714TIP3   OH2 5147   5.809   5.019   4.097 -0.6058  0.2894  0.4993
 1714TIP3    H1 5148   5.728   5.033   4.146 -0.3779  1.8191  0.4788
 1714TIP3    H2 5149   5.879   5.028   4.162 -0.4320 -0.8839  0.4890
 1715TIP3   OH2 5150   0.395   5.286   4.763  0.0204 -0.1840  0.4145
 1715TIP3    H1 5151   0.320   5.233   4.735 -0.0945  0.8722 -1.4658
 1715TIP3    H2 5152   0.470   5.228   4.752 -0.3651 -0.7933  0.9298
 1716TIP3   OH2 5153   0.361   0.794   2.267 -0.1894 -0.0860  0.2757
 1716TIP3    H1 5154   0.353   0.804   2.362  1.7606 -0.8142  0.5740
 1716TIP3    H2 5155   0.374   0.883   2.234  0.8269  0.0189  0.9152
 1717TIP3   OH2 5156   1.939   1.712   3.023  0.3232  0.1726 -0.1162
 1717TIP3    H1 5157   1.973   1.751   3.104 -0.6002 -0.5302  0.6354
 1717TIP3    H2 5158   1.845   1.728   3.027  0.4147  1.3022 -1.7215
 1718TIP3   OH2 5159   0.835   2.124   2.841 -0.2296  0.0741  0.3402
 1718TIP3    H1 5160   0.795   2.040   2.862 -0.2080  0.0284  0.1952
 1718TIP3    H2 5161   0.814   2.139   2.749 -0.5521  0.3990  0.4602
 1719TIP3   OH2 5162   1.648   5.225   2.756  0.0823  0.1226  0.1035
 1719TIP3    H1 5163   1.624   5.286   2.686 -0.4486 -0.8288 -0.5741
 1719TIP3    H2 5164   1.636   5.274   2.837 -1.1564  0.6647 -0.3837
 1720TIP3   OH2 5165   3.137   2.101   1.939 -0.1235 -0.4208 -0.2866
 1720TIP3    H1 5166   3.172   2.048   2.011 -1.5127 -0.7362  0.1918
 1720TIP3    H2 5167   3.087   2.039   1.886  0.2013 -0.0289 -1.0596
 1721TIP3   OH2 5168   5.095   4.646   3.356 -0.1378 -0.0691  0.0790
 1721TIP3    H1 5169   5.080   4.552   3.355 -1.4513  0.1173 -0.3202
 1721TIP3    H2 5170   5.008   4.684   3.373  0.4693  1.0541  0.7908
 1722TIP3   OH2 5171   5.084   1.205   1.525 -0.0950  0.2293 -0.0351
 1722TIP3    H1 5172   5.086   1.165   1.438 -1.3580 -2.3045  1.0068
 1722TIP3    H2 5173   5.160   1.263   1.527  0.4838 -0.3639 -2.4915
 1723TIP3   OH2 5174   5.857   0.783   1.049  0.1198  0.1741 -0.1367
 1723TIP3    H1 5175   5.787   0.847   1.061  0.7603  1.2380 -1.8627
 1723TIP3    H2 5176   5.848   0.753   0.959  0.6448 -1.2175  0.2469
 1724TIP3   OH2 5177   0.808   3.079   1.296  0.1104  0.3562  0.4290
 1724TIP3    H1 5178   0.795   3.100   1.203 -0.1467 -1.4926  0.0066
 1724TIP3    H2 5179   0.794   2.985   1.301  0.5484  0.3589  2.2913
 1725TIP3   OH2 5180   2.332   4.259   1.468  0.0374  0.4445  0.5176
 1725TIP3    H1 5181   2.425   4.261   1.489  0.0737  2.4281  0.3709
 1725TIP3    H2 5182   2.321   4.328   1.402 -1.4501 -0.1460  0.1048
 1726TIP3   OH2 5183   4.006   1.741   0.996  0.5196 -0.5131  0.1425
 1726TIP3    H1 5184   4.020   1.720   0.904 -1.2667  1.4252 -0.6550
 1726TIP3    H2 5185   4.093   1.766   1.029  1.1184 -0.8779 -1.1099
 1727TIP3   OH2 5186   0.868   1.948   3.237  0.7380 -0.0057 -0.2052
 1727TIP3    H1 5187   0.843   1.885   3.304  0.6947 -0.5246 -0.7053
 1727TIP3    H2 5188   0.811   2.024   3.253 -0.7702 -0.9259 -0.9471
 1728TIP3   OH2 5189   1.485   3.067   1.409  0.5362 -0.1808 -0.1654
 1728TIP3    H1 5190   1.562   3.037   1.361  0.5454 -1.2806  0.5122
 1728TIP3    H2 5191   1.467   3.154   1.373  2.6950  0.5427  0.3530
 1729TIP3   OH2 5192   3.525   1.056   0.100  0.6683 -0.2519 -0.4468
 1729TIP3    H1 5193   3.620   1.064   0.108  0.7110  0.7532 -1.6106
 1729TIP3    H2 5194   3.496   1.144   0.076 -0.5621 -0.5535 -0.1121
 1730TIP3   OH2 5195   4.767   0.569   1.722  0.7550  0.4127  0.2969
 1730TIP3    H1 5196   4.739   0.478   1.718  1.0351  0.3471 -0.2795
 1730TIP3    H2 5197   4.703   0.616   1.669 -0.2313  0.7844  1.7404
 1731TIP3   OH2 5198   0.692   4.729   1.467  0.4988 -0.6918 -0.0787
 1731TIP3    H1 5199   0.657   4.801   1.415 -0.5009 -1.6652 -0.7972
 1731TIP3    H2 5200   0.782   4.718   1.437  0.6639  0.2583  0.0540
 1732TIP3   OH2 5201   3.715   2.021   2.867 -1.0182 -0.4837  0.3995
 1732TIP3    H1 5202   3.793   1.969   2.848 -0.9575  0.5698 -2.7706
 1732TIP3    H2 5203   3.744   2.082   2.935  0.2896 -1.4178  0.7388
 1733TIP3   OH2 5204   1.641   2.968   4.178 -0.1286  0.3712  0.0769
 1733TIP3    H1 5205   1.638   3.063   4.162  0.1085  0.8975  2.7030
 1733TIP3    H2 5206   1.563   2.934   4.135 -1.3557  2.0913  0.8272
 1734TIP3   OH2 5207   4.925   4.277   0.190 -0.4406  0.9123  0.1236
 1734TIP3    H1 5208   4.907   4.184   0.199 -2.5997  1.1739 -0.8383
 1734TIP3    H2 5209   4.998   4.281   0.129 -0.2591 -0.1503  0.2496
 1735TIP3   OH2 5210   6.226   0.333   4.567  0.5266 -0.0776  0.1700
 1735TIP3    H1 5211   6.240   0.246   4.530 -1.1319 -0.4670  0.3559
 1735TIP3    H2 5212   6.219   0.391   4.491 -1.7871 -0.6978 -0.1584
 1736TIP3   OH2 5213   1.992   4.584   2.790  0.2411 -0.4281 -0.3539
 1736TIP3    H1 5214   2.035   4.669   2.795  2.4300 -1.5358  1.8145
 1736TIP3    H2 5215   2.034   4.540   2.716 -0.1774 -0.0032 -0.8492
 1737TIP3   OH2 5216   4.072   5.961   4.078  0.4549  0.1547 -0.0184
 1737TIP3    H1 5217   4.085   5.872   4.043 -0.2853 -0.2468  0.7087
 1737TIP3    H2 5218   4.150   6.009   4.050  0.9569 -0.7770 -0.2537
 1738TIP3   OH2 5219   2.435   0.720   3.989 -0.6518 -0.4191  0.4382
 1738TIP3    H1 5220   2.365   0.780   4.016 -0.1201  0.9520 -1.0697
 1738TIP3    H2 5221   2.449   0.739   3.897 -1.7060 -4.2051 -0.6690
 1739TIP3   OH2 5222   4.653   1.582   1.589  0.4013  0.4319 -0.1303
 1739TIP3    H1 5223   4.709   1.505   1.588  2.4316  1.8074 -1.3922
 1739TIP3    H2 5224   4.691   1.640   1.522 -1.1768  2.4199  0.5790
 1740TIP3   OH2 5225   5.687   5.597   3.032  0.2776 -0.1337  0.6771
 1740TIP3    H1 5226   5.704   5.606   3.126  0.5582 -0.3689  0.6491
 1740TIP3    H2 5227   5.688   5.502   3.017 -1.1795 -0.1743  0.7028
 1741TIP3   OH2 5228   2.645   0.090   1.502  0.2139  0.6570 -0.1966
 1741TIP3    H1 5229   2.601   0.174   1.511 -0.9977  0.0538 -0.2881
 1741TIP3    H2 5230   2.611   0.054   1.420  1.8200  0.6989 -0.9231
 1742TIP3   OH2 5231   5.736   4.120   0.831 -0.5274 -0.5098  0.3352
 1742TIP3    H1 5232   5.701   4.177   0.899  1.6692  1.1556  0.1926
 1742TIP3    H2 5233   5.721   4.168   0.749 -1.6441 -1.7227 -0.2007
 1743TIP3   OH2 5234   6.280   5.908   2.174  0.2152 -0.0409  0.1123
 1743TIP3    H1 5235   6.281   5.995   2.133  1.1688 -0.3629 -0.5730
 1743TIP3    H2 5236   6.313   5.923   2.263 -0.7118  0.4599  0.3963
 1744TIP3   OH2 5237   0.053   4.456   4.725  0.3834 -0.0806  0.2752
 1744TIP3    H1 5238   0.048   4.444   4.820 -1.5612  1.4959  0.4380
 1744TIP3    H2 5239   0.094   4.542   4.714 -2.5404  1.4060 -0.0844
 1745TIP3   OH2 5240   1.679   5.906   1.086 -0.1793 -0.0450  0.6495
 1745TIP3    H1 5241   1.682   5.933   0.995 -0.2276  1.6876  1.1292
 1745TIP3    H2 5242   1.638   5.819   1.084 -1.0722  0.3778 -0.8844
 1746TIP3   OH2 5243   2.070   4.225   0.192  0.1233 -0.1916 -0.2105
 1746TIP3    H1 5244   2.113   4.156   0.141  0.1169  0.8555 -1.7231
 1746TIP3    H2 5245   1.977   4.211   0.175  0.0901 -0.1765 -0.0356
 1747TIP3   OH2 5246   5.934   1.722   3.443  0.6638  0.1446  0.4420
 1747TIP3    H1 5247   5.851   1.714   3.492  0.7437 -1.8858  0.3237
 1747TIP3    H2 5248   5.996   1.758   3.507 -0.0016  0.4991  0.9028
 1748TIP3   OH2 5249   3.887   5.572   4.367 -0.1445  0.3100 -0.3817
 1748TIP3    H1 5250   3.862   5.546   4.278  0.1470 -0.7718 -0.1575
 1748TIP3    H2 5251   3.944   5.648   4.354  2.6874 -1.8149 -1.3898
 1749TIP3   OH2 5252   0.926   5.926   2.667  0.3758  0.7844  0.0610
 1749TIP3    H1 5253   1.008   5.907   2.711  1.1395  0.4304 -1.4532
 1749TIP3    H2 5254   0.858   5.900   2.730  1.3932 -1.9509  0.1822
 1750TIP3   OH2 5255   1.685   3.665   0.428  0.1999  0.0584 -0.0276
 1750TIP3    H1 5256   1.598   3.640   0.460 -0.6383  1.7402 -0.8493
 1750TIP3    H2 5257   1.739   3.588   0.442 -1.1671 -0.6923  1.4594
 1751TIP3   OH2 5258   1.472   0.241   1.806  0.2190 -0.1710 -0.3016
 1751TIP3    H1 5259   1.480   0.233   1.901  0.3135  1.0626 -0.1886
 1751TIP3    H2 5260   1.441   0.331   1.792  0.6694 -0.1734 -1.4547
 1752TIP3   OH2 5261   4.591   3.589   0.545  0.2912  0.2689  0.1658
 1752TIP3    H1 5262   4.509   3.620   0.583  0.2990  1.0665 -0.4363
 1752TIP3    H2 5263   4.578   3.598   0.450  1.0946  0.4683  0.0668
 1753TIP3   OH2 5264   0.151   5.983   3.345 -0.2352 -0.4446 -0.4912
 1753TIP3    H1 5265   0.161   5.888   3.359  1.3111 -0.6075 -2.3421
 1753TIP3    H2 5266   0.212   6.022   3.408 -0.4434 -0.6880 -0.1305
 1754TIP3   OH2 5267   2.999   0.300   0.601 -0.1713 -0.4143 -0.2510
 1754TIP3    H1 5268   2.938   0.243   0.648  1.2739 -1.6655  0.1854
 1754TIP3    H2 5269   2.949   0.330   0.525 -1.3504 -1.3424  0.1218
 1755TIP3   OH2 5270   3.597   2.717   0.026 -0.0717 -0.1771  0.0207
 1755TIP3    H1 5271   3.553   2.771   0.092 -0.6801 -0.7923  0.1278
 1755TIP3    H2 5272   3.591   2.628   0.060 -1.9644 -0.7541 -1.6932
 1756TIP3   OH2 5273   2.429   2.102   1.241  0.1739  0.4017 -0.0999
 1756TIP3    H1 5274   2.505   2.063   1.197  1.2603  0.9506  1.2199
 1756TIP3    H2 5275   2.373   2.027   1.263  0.8607 -0.1272 -0.1233
 1757TIP3   OH2 5276   1.279   4.075   4.971  0.7002 -0.0179  0.4244
 1757TIP3    H1 5277   1.370   4.058   4.996  1.5550 -0.2619 -2.5079
 1757TIP3    H2 5278   1.275   4.052   4.878 -2.0045  1.3635  0.1108
 1758TIP3   OH2 5279   2.962   2.318   0.975  0.1096 -0.1675  0.4909
 1758TIP3    H1 5280   2.911   2.397   0.956  0.7432  0.1809  0.1912
 1758TIP3    H2 5281   2.903   2.246   0.954 -0.3250  0.2300  0.3318
 1759TIP3   OH2 5282   3.670   0.020   4.177  0.2937  0.0078 -0.0871
 1759TIP3    H1 5283   3.752  -0.017   4.145  0.8575  0.4619  0.7906
 1759TIP3    H2 5284   3.675   0.010   4.272 -1.3526 -1.3562 -0.0948
 1760TIP3   OH2 5285   0.623   1.742   3.985 -0.6416 -0.1862  0.1075
 1760TIP3    H1 5286   0.560   1.693   3.931 -1.5276  0.3598  0.6113
 1760TIP3    H2 5287   0.569   1.805   4.034  0.2375 -0.0710  0.9716
 1761TIP3   OH2 5288   5.812   0.806   5.121 -0.0975 -0.0048 -0.2340
 1761TIP3    H1 5289   5.748   0.876   5.107  1.8879  1.9590  0.0389
 1761TIP3    H2 5290   5.819   0.798   5.217 -0.6455 -0.9402 -0.2567
 1762TIP3   OH2 5291   5.213   5.542   2.797  0.2762 -0.3961  0.2273
 1762TIP3    H1 5292   5.231   5.529   2.704 -0.2079 -0.7175  0.1744
 1762TIP3    H2 5293   5.279   5.490   2.843  0.7567  0.0714  0.0714
 1763TIP3   OH2 5294   3.763   2.481   3.118  0.3063  0.0700  0.5026
 1763TIP3    H1 5295   3.711   2.542   3.066 -0.9051 -0.8440  0.6158
 1763TIP3    H2 5296   3.802   2.536   3.187  0.8138  1.0364 -0.5249
 1764TIP3   OH2 5297   4.409   5.379   3.590  0.1845  0.5240  0.5254
 1764TIP3    H1 5298   4.407   5.355   3.683 -0.7400  0.3359  0.4631
 1764TIP3    H2 5299   4.476   5.323   3.552  1.1839  1.2039  1.2413
 1765TIP3   OH2 5300   5.984   4.462   4.408 -0.2713  0.6522 -0.1881
 1765TIP3    H1 5301   6.026   4.474   4.494 -0.9901  0.5113  0.1888
 1765TIP3    H2 5302   6.019   4.378   4.377 -0.0344  0.6845 -0.0133
 1766TIP3   OH2 5303   1.805   2.452   5.202 -0.1037  0.1990  0.6841
 1766TIP3    H1 5304   1.880   2.395   5.184 -0.1767  0.8307 -2.0743
 1766TIP3    H2 5305   1.729   2.401   5.176 -0.6663 -0.1831  2.8432
 1767TIP3   OH2 5306   0.318   0.076   4.910  1.0853 -0.9084 -0.3794
 1767TIP3    H1 5307   0.268   0.037   4.981  1.2639 -2.1007 -0.8859
 1767TIP3    H2 5308   0.309   0.015   4.837  2.8456 -0.9193 -0.6396
 1768TIP3   OH2 5309   4.459   2.248   1.204  0.2098 -0.6171  0.4051
 1768TIP3    H1 5310   4.410   2.324   1.234  0.0634 -0.6137  0.1576
 1768TIP3    H2 5311   4.509   2.279   1.129 -1.4017 -1.2396 -0.9872
 1769TIP3   OH2 5312   1.487   4.110   1.639  0.2381 -0.5602  0.1233
 1769TIP3    H1 5313   1.537   4.173   1.692  1.4674 -1.4846  0.1151
 1769TIP3    H2 5314   1.495   4.142   1.550  2.0518 -1.4247 -0.0724
 1770TIP3   OH2 5315   4.457   4.587   3.986  0.2534 -0.0015 -0.1292
 1770TIP3    H1 5316   4.532   4.582   4.045  1.4176  1.3108 -1.4103
 1770TIP3    H2 5317   4.439   4.681   3.977 -0.9438 -0.2527 -0.5977
 1771TIP3   OH2 5318   4.737   0.681   1.278 -0.3204 -0.4317 -0.5023
 1771TIP3    H1 5319   4.831   0.697   1.266 -0.3454 -0.7478 -1.1738
 1771TIP3    H2 5320   4.699   0.694   1.191 -1.1313  1.1813  0.0426
 1772TIP3   OH2 5321   3.347   4.736   0.711 -0.2851  0.3402 -0.0457
 1772TIP3    H1 5322   3.365   4.642   0.721  1.4593  0.4655 -1.5225
 1772TIP3    H2 5323   3.385   4.776   0.789  1.8707  0.1005 -0.9081
 1773TIP3   OH2 5324   1.991   5.068   2.351 -0.6009 -0.3361  0.2871
 1773TIP3    H1 5325   1.944   4.999   2.397 -2.6205  0.0684 -1.0356
 1773TIP3    H2 5326   1.930   5.097   2.283  1.3749  0.6347 -1.1692
 1774TIP3   OH2 5327   1.366   1.465   2.614  0.4411  0.4412 -0.0881
 1774TIP3    H1 5328   1.416   1.536   2.655  1.7461  0.9605 -2.3764
 1774TIP3    H2 5329   1.411   1.385   2.640  0.1264  0.5750  0.9298
 1775TIP3   OH2 5330   5.720   4.972   3.623 -0.4519  0.4003 -0.8781
 1775TIP3    H1 5331   5.687   4.882   3.624 -0.7542  0.5023  0.3409
 1775TIP3    H2 5332   5.815   4.963   3.630 -0.3636  0.1578 -2.1649
 1776TIP3   OH2 5333   5.159   5.025   2.606  0.1688  0.2391  0.2295
 1776TIP3    H1 5334   5.224   5.039   2.537  0.6506 -2.6615 -0.0519
 1776TIP3    H2 5335   5.086   4.983   2.561 -1.4016  2.2338  0.7864
 1777TIP3   OH2 5336   4.540   3.185   2.950 -0.3464  0.0909  0.1292
 1777TIP3    H1 5337   4.622   3.207   2.907 -1.2124  1.5745 -0.8646
 1777TIP3    H2 5338   4.561   3.110   3.006  1.8869  1.0773  0.6880
 1778TIP3   OH2 5339   1.961   5.924   3.855 -0.6860  0.5519  0.1023
 1778TIP3    H1 5340   1.955   5.933   3.760 -1.8419  0.5344  0.1586
 1778TIP3    H2 5341   2.010   5.844   3.869 -2.1768 -0.5068 -0.5097
 1779TIP3   OH2 5342   4.586   3.778   4.445  0.2286  0.2551 -0.3749
 1779TIP3    H1 5343   4.520   3.813   4.386  0.1739 -0.0463 -0.4937
 1779TIP3    H2 5344   4.643   3.726   4.389  1.0134  1.1279 -0.4068
 1780TIP3   OH2 5345   5.345   4.669   0.321 -0.1941  0.3321 -0.4928
 1780TIP3    H1 5346   5.428   4.632   0.351  0.8670  1.6591 -1.6477
 1780TIP3    H2 5347   5.329   4.627   0.236 -0.8630 -0.0952 -0.1720
 1781TIP3   OH2 5348   2.228   4.718   2.786 -0.3811  0.5147  0.2454
 1781TIP3    H1 5349   2.171   4.767   2.727 -0.1237 -0.3126 -0.7331
 1781TIP3    H2 5350   2.313   4.763   2.779 -0.1775  0.0209 -0.5509
 1782TIP3   OH2 5351   0.126   3.920   0.691  0.1940  0.3968 -0.2787
 1782TIP3    H1 5352   0.215   3.888   0.705  0.7745  0.7748 -2.5995
 1782TIP3    H2 5353   0.124   4.004   0.737  0.4920 -0.3226  1.1018
 1783TIP3   OH2 5354   1.598   5.186   1.731  0.1955 -0.5320 -0.0652
 1783TIP3    H1 5355   1.527   5.198   1.669  1.2544 -0.0045 -1.2247
 1783TIP3    H2 5356   1.610   5.272   1.771  0.7055 -0.4032 -0.4798
 1784TIP3   OH2 5357   6.070   3.673   5.052 -0.4124  0.1233 -0.0313
 1784TIP3    H1 5358   6.026   3.755   5.030 -0.8031  0.1383  0.7831
 1784TIP3    H2 5359   6.010   3.630   5.113 -0.4751 -1.0237 -0.8658
 1785TIP3   OH2 5360   0.430   2.783   3.210  0.1977 -0.2027  0.1410
 1785TIP3    H1 5361   0.378   2.856   3.177  0.3032  0.5453  1.5470
 1785TIP3    H2 5362   0.513   2.789   3.164  0.3042  0.7434  0.4386
 1786TIP3   OH2 5363   0.676   5.000   4.194 -0.1964 -0.4805  0.1564
 1786TIP3    H1 5364   0.769   4.976   4.194  0.3049  1.3429 -0.7475
 1786TIP3    H2 5365   0.637   4.944   4.127  0.2950 -1.0245  0.3102
 1787TIP3   OH2 5366   2.162   4.806   1.448 -0.1151  0.1148 -0.0653
 1787TIP3    H1 5367   2.232   4.762   1.496 -1.3630 -0.8589  0.9065
 1787TIP3    H2 5368   2.138   4.880   1.503 -2.0925 -1.4540  1.2907
 1788TIP3   OH2 5369   1.666   5.532   3.985  0.5183 -0.4519  0.5769
 1788TIP3    H1 5370   1.611   5.598   3.944  0.0922  0.6376  2.7135
 1788TIP3    H2 5371   1.673   5.462   3.920  0.0214  1.1715 -1.3222
 1789TIP3   OH2 5372   1.507   5.197   4.693  0.4919 -0.2114  0.2368
 1789TIP3    H1 5373   1.566   5.227   4.624 -0.5234  0.4684 -0.3677
 1789TIP3    H2 5374   1.440   5.265   4.698  0.1913 -0.5764  1.4557
 1790TIP3   OH2 5375   0.478   1.713   3.255 -0.1264 -0.6838 -0.8007
 1790TIP3    H1 5376   0.490   1.804   3.231  0.1178 -0.5458 -0.1764
 1790TIP3    H2 5377   0.385   1.706   3.277 -0.2986 -0.7569 -1.5353
 1791TIP3   OH2 5378   1.135   0.513   2.969  0.4779 -0.5988 -0.2983
 1791TIP3    H1 5379   1.207   0.567   3.004  0.9710 -0.2682 -1.7347
 1791TIP3    H2 5380   1.148   0.428   3.010 -0.1806  0.2522  1.8544
 1792TIP3   OH2 5381   1.466   4.033   1.996 -0.6210  0.1435 -0.1899
 1792TIP3    H1 5382   1.518   3.961   2.031  0.1771  0.5269 -0.5662
 1792TIP3    H2 5383   1.458   4.014   1.902 -0.7554  0.3317 -0.2188
 1793TIP3   OH2 5384   6.133   3.235   0.951 -0.4102  0.9251 -0.0554
 1793TIP3    H1 5385   6.225   3.212   0.963 -1.1345 -1.2360  1.9844
 1793TIP3    H2 5386   6.136   3.317   0.902  2.6146  1.3694  0.6372
 1794TIP3   OH2 5387   4.860   2.105   4.764  0.2419 -0.1814  0.3919
 1794TIP3    H1 5388   4.921   2.159   4.713 -1.3536  0.7023 -0.6807
 1794TIP3    H2 5389   4.909   2.027   4.786  1.6722  0.3688 -0.6924
 1795TIP3   OH2 5390   5.913   3.185   3.384  0.1486  0.3582  0.0767
 1795TIP3    H1 5391   5.997   3.161   3.422  1.4430  3.1161 -0.7096
 1795TIP3    H2 5392   5.924   3.170   3.290 -0.5535 -0.0692  0.0559
 1796TIP3   OH2 5393   3.542   1.253   4.861 -0.4832 -0.3713  0.6148
 1796TIP3    H1 5394   3.490   1.282   4.936 -0.8649 -1.3537  0.7393
 1796TIP3    H2 5395   3.629   1.290   4.877 -0.8058  0.2018  1.0654
 1797TIP3   OH2 5396   1.727   1.294   2.116 -0.4317 -0.1331 -0.0346
 1797TIP3    H1 5397   1.717   1.287   2.211  1.6192  3.9199  0.6643
 1797TIP3    H2 5398   1.772   1.213   2.091 -2.2413 -1.9408  2.1327
 1798TIP3   OH2 5399   6.383   2.140   4.799  0.3014 -0.0459 -0.3420
 1798TIP3    H1 5400   6.361   2.049   4.780 -0.6437 -0.3215  1.7523
 1798TIP3    H2 5401   6.307   2.190   4.768  0.9276  0.0961 -1.7205
 1799TIP3   OH2 5402   5.852   3.620   4.163 -0.7932  0.2167  0.7234
 1799TIP3    H1 5403   5.791   3.561   4.119 -0.8488  1.0296 -0.3449
 1799TIP3    H2 5404   5.935   3.573   4.164 -0.5420  0.5324 -1.1736
 1800TIP3   OH2 5405   6.314   5.298   2.599 -0.2997 -0.2060 -0.2119
 1800TIP3    H1 5406   6.389   5.250   2.564  1.4959  0.4536  2.4149
 1800TIP3    H2 5407   6.352   5.378   2.636 -2.4444  0.5875  0.4233
 1801TIP3   OH2 5408   1.272   1.607   1.201  0.6196 -0.1248  0.2894
 1801TIP3    H1 5409   1.272   1.520   1.163 -1.1955  1.0154 -2.6512
 1801TIP3    H2 5410   1.219   1.599   1.280 -0.4844 -1.4920 -0.5541
 1802TIP3   OH2 5411   6.013   2.594   3.224 -0.5226  0.8519 -0.5367
 1802TIP3    H1 5412   5.974   2.580   3.138 -0.5616 -1.4338 -0.2141
 1802TIP3    H2 5413   6.104   2.618   3.205 -0.9981  2.1757 -1.2232
 1803TIP3   OH2 5414   3.739   4.341   4.607 -0.2653  0.3449  0.0370
 1803TIP3    H1 5415   3.658   4.380   4.572 -0.6404  1.2269  1.8100
 1803TIP3    H2 5416   3.720   4.323   4.699  1.1349 -0.6907  0.1602
 1804TIP3   OH2 5417   0.692   5.171   3.474  0.0937 -0.1199 -0.2086
 1804TIP3    H1 5418   0.774   5.218   3.489  0.4155 -0.6771 -0.1732
 1804TIP3    H2 5419   0.691   5.152   3.380 -0.0354 -0.0444 -0.2234
 1805TIP3   OH2 5420   3.338   1.219   3.817  0.6190 -0.3373  0.2499
 1805TIP3    H1 5421   3.321   1.301   3.864 -0.8324 -0.5272  0.0848
 1805TIP3    H2 5422   3.372   1.247   3.732  0.6123  0.0832  0.3835
 1806TIP3   OH2 5423   4.391   1.619   0.170  0.3639 -0.3299  0.1180
 1806TIP3    H1 5424   4.454   1.566   0.219  0.8235 -0.2655 -0.3961
 1806TIP3    H2 5425   4.367   1.690   0.230  0.3359 -0.6783  0.5249
 1807TIP3   OH2 5426   0.296   1.282   2.648 -0.8377  0.4092 -0.1426
 1807TIP3    H1 5427   0.363   1.225   2.686 -1.4204 -0.8331 -0.9007
 1807TIP3    H2 5428   0.252   1.321   2.723  0.6857  1.2145  0.3690
 1808TIP3   OH2 5429   4.140   1.727   4.161 -0.1175 -0.7357  0.1507
 1808TIP3    H1 5430   4.131   1.690   4.073 -0.6068 -1.6773  0.5863
 1808TIP3    H2 5431   4.234   1.720   4.181 -0.1171 -1.2123 -0.0051
 1809TIP3   OH2 5432   3.263   5.315   0.230  0.1780 -0.4278 -0.2514
 1809TIP3    H1 5433   3.299   5.249   0.171 -0.9561 -0.4392 -0.9505
 1809TIP3    H2 5434   3.258   5.394   0.176 -1.3773 -0.5782 -0.3559
 1810TIP3   OH2 5435   3.258   3.896   1.520  0.1864  0.0901 -0.1196
 1810TIP3    H1 5436   3.296   3.880   1.433 -0.0417  0.5830 -0.3187
 1810TIP3    H2 5437   3.164   3.899   1.504  0.1526  0.3249  0.1225
 1811TIP3   OH2 5438   5.386   3.020   0.775 -0.2110 -0.3024 -0.2994
 1811TIP3    H1 5439   5.421   2.953   0.717  1.6837  0.9758 -0.7260
 1811TIP3    H2 5440   5.324   3.068   0.722 -2.0381 -1.9920  0.1767
 1812TIP3   OH2 5441   0.118   5.182   4.271 -0.1532 -0.0498 -0.2872
 1812TIP3    H1 5442   0.119   5.111   4.206 -0.5293  0.2301 -0.6044
 1812TIP3    H2 5443   0.078   5.256   4.225 -0.1055  0.2560  0.1580
 1813TIP3   OH2 5444   4.717   3.801   4.758 -0.0323 -0.1834 -0.2581
 1813TIP3    H1 5445   4.729   3.722   4.706 -0.5065  0.2892 -1.1208
 1813TIP3    H2 5446   4.799   3.850   4.747 -0.0893 -0.1356 -0.4878
 1814TIP3   OH2 5447   4.612   4.770   0.277  0.6706  0.0273 -0.0251
 1814TIP3    H1 5448   4.614   4.694   0.335  0.6923 -0.1154 -0.2087
 1814TIP3    H2 5449   4.649   4.737   0.195 -0.9742 -0.2663 -0.6910
 1815TIP3   OH2 5450   0.061   1.192   3.984  0.0884  0.6803  0.1453
 1815TIP3    H1 5451   0.081   1.204   3.891 -0.9230  0.9166 -0.0591
 1815TIP3    H2 5452   0.134   1.140   4.018 -0.4502 -1.0816 -1.2070
 1816TIP3   OH2 5453   5.724   1.504   1.592  0.2296  0.0926 -0.1301
 1816TIP3    H1 5454   5.774   1.439   1.641 -1.8307 -0.3192  1.5550
 1816TIP3    H2 5455   5.663   1.453   1.539 -1.3380  0.5729  1.1319
 1817TIP3   OH2 5456   1.671   1.505   4.853  0.3138  0.4050  0.0304
 1817TIP3    H1 5457   1.612   1.580   4.854  0.0076  0.1677  0.5886
 1817TIP3    H2 5458   1.744   1.532   4.798  0.0603  0.9995 -0.0188
 1818TIP3   OH2 5459   4.937   3.365   4.312  0.7604  0.2329 -0.6397
 1818TIP3    H1 5460   4.887   3.283   4.306  0.0240  0.7035 -1.1699
 1818TIP3    H2 5461   4.986   3.369   4.229  0.7115  0.3755 -0.6628
 1819TIP3   OH2 5462   2.359   4.743   1.642 -0.0941  0.6764 -0.4336
 1819TIP3    H1 5463   2.442   4.777   1.610 -0.5099  1.4589 -0.7249
 1819TIP3    H2 5464   2.381   4.699   1.724  0.2011  3.6619  1.2493
 1820TIP3   OH2 5465   1.579   1.185   2.587  0.3922 -0.0730 -0.1877
 1820TIP3    H1 5466   1.612   1.242   2.656  1.2259 -0.6308 -0.1109
 1820TIP3    H2 5467   1.535   1.114   2.633  1.5985 -0.8452 -0.1765
 1821TIP3   OH2 5468   2.650   4.915   0.771 -0.3478 -0.0308 -0.5838
 1821TIP3    H1 5469   2.559   4.888   0.776 -0.4773  0.4922  0.1315
 1821TIP3    H2 5470   2.656   4.989   0.832  0.5832 -0.1494 -0.5135
 1822TIP3   OH2 5471   5.762   4.520   0.634  0.0108 -0.3874 -0.4280
 1822TIP3    H1 5472   5.829   4.451   0.641 -1.7939 -2.3541 -1.4195
 1822TIP3    H2 5473   5.757   4.538   0.540 -0.3357  0.2669 -0.2854
 1823TIP3   OH2 5474   3.382   3.079   2.507 -0.6102  0.0724  1.0416
 1823TIP3    H1 5475   3.330   3.017   2.457  0.2734  0.1947 -0.0769
 1823TIP3    H2 5476   3.337   3.087   2.591 -2.9620  0.9748 -0.2283
 1824TIP3   OH2 5477   5.626   0.644   3.177  0.1309  0.3315  0.1018
 1824TIP3    H1 5478   5.671   0.627   3.259  0.3101  0.0119 -0.0618
 1824TIP3    H2 5479   5.535   0.659   3.201  0.3996  1.4250  0.4849
 1825TIP3   OH2 5480   3.112   0.970   1.879  0.1154  0.2360  1.0570
 1825TIP3    H1 5481   3.072   0.965   1.792  0.6203  1.1676  0.7646
 1825TIP3    H2 5482   3.181   1.035   1.870  1.8046 -1.3887  1.5187
 1826TIP3   OH2 5483   3.470   0.789   3.842 -0.6922 -0.2149  0.2441
 1826TIP3    H1 5484   3.421   0.847   3.784 -1.3266 -3.4649 -2.7609
 1826TIP3    H2 5485   3.506   0.848   3.909 -1.5458  3.5381 -2.2714
 1827TIP3   OH2 5486   1.161   0.037   1.904  0.1869  0.2314  0.0434
 1827TIP3    H1 5487   1.182   0.126   1.931  1.1443 -0.2212  0.8562
 1827TIP3    H2 5488   1.145  -0.010   1.986  0.4256 -0.5147 -0.3255
 1828TIP3   OH2 5489   4.078   4.960   2.305 -0.2173  0.0451 -0.2365
 1828TIP3    H1 5490   4.071   4.865   2.304  0.0292  0.0132 -2.2502
 1828TIP3    H2 5491   3.988   4.991   2.313 -0.3303 -0.3388  0.0070
 1829TIP3   OH2 5492   3.516   0.772   4.272  0.0673 -0.4273 -0.1487
 1829TIP3    H1 5493   3.573   0.732   4.207 -0.4205 -0.6303 -0.4615
 1829TIP3    H2 5494   3.427   0.752   4.241 -0.1707 -0.3247  0.4551
 1830TIP3   OH2 5495   5.858   3.331   3.066 -0.0874  0.2238 -0.4683
 1830TIP3    H1 5496   5.941   3.352   3.110 -0.5044 -0.0939  0.4917
 1830TIP3    H2 5497   5.870   3.241   3.035 -0.1269  0.1102 -0.1661
 1831TIP3   OH2 5498   2.264   4.039   2.285  0.0442 -0.1065 -0.6764
 1831TIP3    H1 5499   2.216   3.984   2.224 -3.8600 -1.0075  2.7122
 1831TIP3    H2 5500   2.223   4.125   2.278  0.4704  0.1387 -0.2794
 1832TIP3   OH2 5501   4.433   0.366   0.153  0.1611 -0.5370  0.3441
 1832TIP3    H1 5502   4.448   0.445   0.101 -0.9664 -0.6924 -0.2476
 1832TIP3    H2 5503   4.443   0.294   0.090 -1.3837 -0.7199  0.2600
 1833TIP3   OH2 5504   4.695   3.453   2.372  0.0943 -0.3365 -0.0496
 1833TIP3    H1 5505   4.621   3.469   2.431  0.2736 -0.6752  0.2693
 1833TIP3    H2 5506   4.742   3.536   2.370 -0.1218 -0.2116 -0.0119
 1834TIP3   OH2 5507   3.113   1.946   0.932  0.3983  0.0801 -0.0773
 1834TIP3    H1 5508   3.036   1.899   0.964 -1.4420  2.0999 -1.2742
 1834TIP3    H2 5509   3.135   2.008   1.002 -0.8920  1.4424 -0.8100
 1835TIP3   OH2 5510   4.311   5.435   0.214  0.0357  0.1862 -0.1487
 1835TIP3    H1 5511   4.252   5.430   0.289  1.1239  1.5817  0.8724
 1835TIP3    H2 5512   4.354   5.350   0.211 -0.5329 -0.1244  0.3669
 1836TIP3   OH2 5513   1.828   2.814   2.746 -0.0639  0.7992  0.3185
 1836TIP3    H1 5514   1.910   2.781   2.710  1.5021  2.8181  1.7519
 1836TIP3    H2 5515   1.796   2.875   2.680  0.1469  0.7803  0.1955
 1837TIP3   OH2 5516   4.351   3.653   4.064 -0.3648  0.1089 -0.1140
 1837TIP3    H1 5517   4.435   3.657   4.111  0.0368 -2.1671 -0.5204
 1837TIP3    H2 5518   4.305   3.579   4.104 -1.2305 -0.0820 -1.4115
 1838TIP3   OH2 5519   4.508   4.983   3.267 -0.5110 -0.2442  0.0159
 1838TIP3    H1 5520   4.449   5.059   3.267  0.6379  0.6863 -0.4632
 1838TIP3    H2 5521   4.593   5.020   3.291 -0.5122 -1.9148  3.1631
 1839TIP3   OH2 5522   1.029   4.632   3.201  0.0197  0.5758  0.5060
 1839TIP3    H1 5523   0.938   4.637   3.172  0.0026  0.5633  0.5577
 1839TIP3    H2 5524   1.078   4.609   3.122 -0.5211 -4.0917  1.2260
 1840TIP3   OH2 5525   3.530   4.188   3.853 -0.7526 -0.2358  0.0476
 1840TIP3    H1 5526   3.593   4.127   3.891 -1.7324 -1.4887 -0.2640
 1840TIP3    H2 5527   3.559   4.275   3.883 -0.0517 -0.9499  1.5675
 1841TIP3   OH2 5528   5.196   4.079   0.675 -0.3939  0.4247  0.2461
 1841TIP3    H1 5529   5.189   4.091   0.770 -0.7304  1.9509  0.0463
 1841TIP3    H2 5530   5.287   4.100   0.654 -0.7147  1.7211  0.0427
 1842TIP3   OH2 5531   0.120   5.943   3.990  0.6292 -0.1230  0.3124
 1842TIP3    H1 5532   0.186   5.938   4.060 -0.1048  1.5720  1.1899
 1842TIP3    H2 5533   0.148   5.877   3.926  3.4097  0.7711  0.4575
 1843TIP3   OH2 5534   3.788   5.179   4.163 -0.8842 -0.1005  0.3434
 1843TIP3    H1 5535   3.802   5.146   4.252 -3.0235 -0.0496  0.7458
 1843TIP3    H2 5536   3.733   5.113   4.121 -0.4696  0.2195 -0.7309
 1844TIP3   OH2 5537   6.151   1.795   3.012  0.0286  0.1119  0.3220
 1844TIP3    H1 5538   6.152   1.881   2.969 -0.0672 -0.5020 -0.9392
 1844TIP3    H2 5539   6.241   1.782   3.042  1.0756 -0.9902 -2.9357
 1845TIP3   OH2 5540   6.239   5.138   0.471  0.3631  0.4245  0.2126
 1845TIP3    H1 5541   6.219   5.203   0.539  1.4555 -1.3112  2.3078
 1845TIP3    H2 5542   6.181   5.064   0.491 -0.1677  0.3102 -1.5442
 1846TIP3   OH2 5543   3.067   0.975   2.155 -0.3114 -0.1939  0.5503
 1846TIP3    H1 5544   3.047   1.064   2.185 -0.4192 -0.3114  0.8334
 1846TIP3    H2 5545   3.089   0.985   2.063 -1.5570 -0.0454  0.2553
 1847TIP3   OH2 5546   2.538   0.350   4.462 -0.2125 -0.2288 -0.3042
 1847TIP3    H1 5547   2.611   0.412   4.469  0.7118 -1.0644 -1.9784
 1847TIP3    H2 5548   2.509   0.337   4.553  0.9212  1.0559  0.2710
 1848TIP3   OH2 5549   3.723   0.907   2.297 -0.7929  0.3257 -0.0957
 1848TIP3    H1 5550   3.814   0.890   2.272 -0.4359  0.0469  1.3362
 1848TIP3    H2 5551   3.696   0.980   2.241  0.0905 -0.0168 -0.9921
 1849TIP3   OH2 5552   3.855   2.645   2.847 -0.6551 -0.2054 -0.6662
 1849TIP3    H1 5553   3.903   2.562   2.845  1.1608  0.7705 -0.4895
 1849TIP3    H2 5554   3.904   2.699   2.910 -2.4355  0.6424  0.0577
 1850TIP3   OH2 5555   4.914   0.292   1.480  0.2117  0.1336  0.3401
 1850TIP3    H1 5556   5.002   0.301   1.443  0.2872  1.4373  0.7715
 1850TIP3    H2 5557   4.915   0.347   1.558 -0.7670 -0.4274  0.7608
 1851TIP3   OH2 5558   1.716   2.117   2.739 -0.0376  0.4154  0.0802
 1851TIP3    H1 5559   1.623   2.139   2.735 -0.2373 -0.6152 -1.6250
 1851TIP3    H2 5560   1.719   2.022   2.739  1.0438  0.4232 -1.1577
 1852TIP3   OH2 5561   1.777   1.624   0.198 -0.0049 -0.0729 -0.7982
 1852TIP3    H1 5562   1.794   1.685   0.269 -1.0445  0.1158 -0.6905
 1852TIP3    H2 5563   1.700   1.575   0.227  0.4985 -1.0714 -1.1176
 1853TIP3   OH2 5564   4.639   0.540   3.896 -0.4836  0.1256 -0.5295
 1853TIP3    H1 5565   4.617   0.521   3.804 -4.1529  0.3943  0.1245
 1853TIP3    H2 5566   4.688   0.463   3.925  1.0364  0.1676 -2.7330
 1854TIP3   OH2 5567   4.918   2.487   1.108  0.3292  0.3003  0.4079
 1854TIP3    H1 5568   4.940   2.565   1.057 -1.8397  0.3145 -0.6012
 1854TIP3    H2 5569   4.907   2.520   1.197  2.7115  0.5220  0.6864
 1855TIP3   OH2 5570   5.287   5.947   3.276  0.0729  0.0561  0.0660
 1855TIP3    H1 5571   5.341   5.988   3.208  1.5065 -0.8761  0.5878
 1855TIP3    H2 5572   5.347   5.887   3.321 -1.5309 -1.3672  0.3901
 1856TIP3   OH2 5573   3.345   1.696   4.985 -0.4674 -0.3116 -0.5166
 1856TIP3    H1 5574   3.374   1.734   5.068  0.5278 -1.5172 -0.2791
 1856TIP3    H2 5575   3.423   1.652   4.950 -0.8965  0.0846 -2.0464
 1857TIP3   OH2 5576   4.510   1.793   3.471 -0.2115 -0.0173 -0.4603
 1857TIP3    H1 5577   4.534   1.726   3.407 -1.4664 -1.5129  0.5621
 1857TIP3    H2 5578   4.521   1.876   3.425 -3.1742 -1.0526 -3.4056
 1858TIP3   OH2 5579   1.661   5.251   0.410  0.6314  0.1488  0.1923
 1858TIP3    H1 5580   1.671   5.342   0.384  1.5430 -0.1072 -0.3968
 1858TIP3    H2 5581   1.571   5.229   0.383  1.3179  0.0661 -2.3233
 1859TIP3   OH2 5582   5.588   4.775   1.378  0.2452 -0.1016 -0.3109
 1859TIP3    H1 5583   5.508   4.820   1.353  1.5918  1.2924 -2.4255
 1859TIP3    H2 5584   5.630   4.751   1.296  1.8705 -1.0586  0.7210
 1860TIP3   OH2 5585   4.773   0.068   1.331 -0.0436  0.1972 -0.3616
 1860TIP3    H1 5586   4.822   0.145   1.360  0.3031  0.1804 -0.9014
 1860TIP3    H2 5587   4.763   0.015   1.411  1.8469 -0.3728 -0.4604
 1861TIP3   OH2 5588   5.065   4.194   1.863 -0.7345  0.1729  0.2288
 1861TIP3    H1 5589   5.115   4.267   1.898 -0.4778  0.3591 -0.5176
 1861TIP3    H2 5590   4.974   4.224   1.863 -0.5943  0.6246 -0.3826
 1862TIP3   OH2 5591   0.212   4.780   3.285  0.3530 -0.0079  0.4152
 1862TIP3    H1 5592   0.293   4.786   3.336 -0.0059  0.8782  0.8947
 1862TIP3    H2 5593   0.231   4.828   3.205  1.3936 -2.5425 -1.0080
 1863TIP3   OH2 5594   1.339   4.395   2.419 -0.5929  0.3318 -0.1914
 1863TIP3    H1 5595   1.338   4.299   2.421  0.4545  0.3219  1.2511
 1863TIP3    H2 5596   1.408   4.417   2.355 -0.3636  0.1165 -0.0197
 1864TIP3   OH2 5597   0.213   1.145   1.675  0.5158 -0.3963 -0.1135
 1864TIP3    H1 5598   0.126   1.149   1.634  0.6297  1.0012 -0.2749
 1864TIP3    H2 5599   0.274   1.141   1.601  0.6165 -0.8427 -0.0097
 1865TIP3   OH2 5600   1.366   1.567   1.817 -0.1862  1.0160  0.2054
 1865TIP3    H1 5601   1.438   1.538   1.873 -0.6035 -1.8629 -0.6264
 1865TIP3    H2 5602   1.356   1.660   1.838  3.0784  1.2908  1.0860
 1866TIP3   OH2 5603   1.905   2.773   0.091  0.3272  0.2507  0.0142
 1866TIP3    H1 5604   1.907   2.712   0.017  0.2821 -0.1187  0.3206
 1866TIP3    H2 5605   1.830   2.831   0.071 -0.1194 -0.2826  0.1180
 1867TIP3   OH2 5606   2.777   0.601   1.753 -0.0849  0.5722  0.0557
 1867TIP3    H1 5607   2.731   0.639   1.828 -0.1916 -1.0435  0.8520
 1867TIP3    H2 5608   2.867   0.631   1.762 -0.3218  1.2240  0.2537
 1868TIP3   OH2 5609   1.506   1.925   2.486 -0.3765 -0.0122  0.4349
 1868TIP3    H1 5610   1.569   1.902   2.554  0.5860  0.3612 -0.3072
 1868TIP3    H2 5611   1.426   1.879   2.510  0.7850 -2.2500  0.2516
 1869TIP3   OH2 5612   2.657   1.301   1.263 -0.2329  0.1831 -0.2033
 1869TIP3    H1 5613   2.582   1.358   1.245 -0.0432  0.6369  0.3860
 1869TIP3    H2 5614   2.691   1.278   1.177 -1.2638 -0.3282 -0.4935
 1870TIP3   OH2 5615   6.061   4.615   3.985  0.0305  0.0133 -0.5082
 1870TIP3    H1 5616   5.968   4.634   3.992  0.4417  1.5562  1.7123
 1870TIP3    H2 5617   6.075   4.596   3.892 -2.4258 -0.0430 -0.9268
 1871TIP3   OH2 5618   2.907   2.810   1.042 -0.2652 -0.1151 -0.0611
 1871TIP3    H1 5619   2.935   2.880   0.984  0.7607 -0.0725  0.4600
 1871TIP3    H2 5620   2.981   2.749   1.044 -0.3035 -0.1550  1.1181
 1872TIP3   OH2 5621   1.041   1.211   1.757 -0.2202  0.4637  0.2287
 1872TIP3    H1 5622   1.051   1.266   1.835 -0.9067 -0.3453  0.9156
 1872TIP3    H2 5623   0.992   1.265   1.696  0.0089  0.9817  0.4960
 1873TIP3   OH2 5624   4.552   4.827   4.569 -0.2871  0.3336 -0.5173
 1873TIP3    H1 5625   4.519   4.767   4.501 -1.5888  0.1126  0.2803
 1873TIP3    H2 5626   4.558   4.912   4.525  0.0916 -0.0529 -1.2374
 1874TIP3   OH2 5627   3.540   3.142   4.839  0.0063  0.5082 -0.1075
 1874TIP3    H1 5628   3.573   3.103   4.920  0.2592 -0.6006 -0.7179
 1874TIP3    H2 5629   3.505   3.227   4.865  0.9536  0.5749  0.9963
 1875TIP3   OH2 5630   2.946   2.124   3.388  0.5143  0.5129  0.1419
 1875TIP3    H1 5631   2.951   2.167   3.303  1.5634 -1.3247 -0.7867
 1875TIP3    H2 5632   2.868   2.068   3.382  0.4207  0.6007  0.5090
 1876TIP3   OH2 5633   2.665   0.953   1.765 -0.2687 -0.2895 -0.3317
 1876TIP3    H1 5634   2.732   0.922   1.825  0.6665  0.9442 -0.7004
 1876TIP3    H2 5635   2.630   0.873   1.725  0.4389 -0.9978  0.4201
 1877TIP3   OH2 5636   3.225   4.407   3.067 -0.8623  0.1314  0.0370
 1877TIP3    H1 5637   3.158   4.340   3.055 -0.2255 -0.4880 -0.1070
 1877TIP3    H2 5638   3.203   4.448   3.151 -1.8108  0.3984 -0.3310
 1878TIP3   OH2 5639   2.825   4.790   0.044  0.3824 -0.3015 -0.3302
 1878TIP3    H1 5640   2.833   4.864   0.104 -1.0915 -0.0934 -0.3525
 1878TIP3    H2 5641   2.868   4.819  -0.036  0.6984  0.1328 -0.0092
 1879TIP3   OH2 5642   3.676   5.439   4.201 -0.1624 -0.2511 -0.6524
 1879TIP3    H1 5643   3.586   5.410   4.189 -0.5128 -0.2634  1.5636
 1879TIP3    H2 5644   3.723   5.360   4.231  0.0678  0.2206  0.2879
 1880TIP3   OH2 5645   1.015   5.245   0.088  0.0994  0.1278  0.4337
 1880TIP3    H1 5646   0.985   5.163   0.047  0.8527  0.2108 -0.3069
 1880TIP3    H2 5647   0.989   5.313   0.026 -1.3328  0.5712  1.4629
 1881TIP3   OH2 5648   0.146   1.848   2.526 -0.5001 -0.1970 -0.0769
 1881TIP3    H1 5649   0.087   1.815   2.593 -0.4379 -1.2021 -0.5042
 1881TIP3    H2 5650   0.228   1.801   2.540 -0.2883  0.0581 -0.4519
 1882TIP3   OH2 5651   3.627   4.985   4.694  0.0453 -0.5487 -0.1805
 1882TIP3    H1 5652   3.659   5.072   4.716  2.2313 -1.0705 -1.0458
 1882TIP3    H2 5653   3.633   4.980   4.599 -0.6362 -1.4241 -0.1925
 1883TIP3   OH2 5654   3.955   5.701   3.023 -0.3281 -0.4133 -0.2508
 1883TIP3    H1 5655   3.959   5.736   3.112  0.8016 -1.1454  0.0109
 1883TIP3    H2 5656   3.871   5.657   3.018 -0.2616 -0.6561  0.5772
 1884TIP3   OH2 5657   0.727   2.802   2.775 -0.0926 -0.1504 -0.5086
 1884TIP3    H1 5658   0.729   2.895   2.753 -1.7525 -0.7285 -3.6086
 1884TIP3    H2 5659   0.655   2.794   2.839  1.3867  0.8669  1.4034
 1885TIP3   OH2 5660   1.837   4.562   1.864 -0.4600  0.0681 -0.0167
 1885TIP3    H1 5661   1.867   4.498   1.928  0.1630  0.2858 -0.0909
 1885TIP3    H2 5662   1.822   4.642   1.915  0.4137  0.3560 -0.1974
 1886TIP3   OH2 5663   5.919   4.521   2.505 -0.1483  0.1998  0.9159
 1886TIP3    H1 5664   5.917   4.568   2.588  0.3364  0.8363  0.5764
 1886TIP3    H2 5665   6.000   4.549   2.463 -0.3428 -0.1849  0.2698
 1887TIP3   OH2 5666   4.385   3.535   1.728 -0.0843  0.3069 -0.0498
 1887TIP3    H1 5667   4.457   3.499   1.779  1.1210  0.8806 -1.2846
 1887TIP3    H2 5668   4.413   3.526   1.637 -1.9455 -0.2262 -0.6272
 1888TIP3   OH2 5669   0.308   2.400   4.121  0.3983 -0.6123  0.3464
 1888TIP3    H1 5670   0.218   2.422   4.145  0.5746  0.2730  0.2180
 1888TIP3    H2 5671   0.336   2.338   4.188 -1.8732 -4.7855 -2.1405
 1889TIP3   OH2 5672   1.820   3.375   1.316 -0.5601 -0.6402 -0.6474
 1889TIP3    H1 5673   1.887   3.416   1.262 -0.4217 -1.1187 -0.8420
 1889TIP3    H2 5674   1.797   3.442   1.381 -0.4150 -0.2189 -1.0240
 1890TIP3   OH2 5675   3.091   1.651   2.455  0.7029 -0.2274 -0.0424
 1890TIP3    H1 5676   3.136   1.707   2.518 -0.4318 -1.7787  2.2715
 1890TIP3    H2 5677   3.141   1.570   2.453  2.5040  0.7639 -3.5923
 1891TIP3   OH2 5678   1.785   3.612   4.092  0.2246  0.1635 -0.6625
 1891TIP3    H1 5679   1.700   3.568   4.090  0.2994  0.0033 -0.3569
 1891TIP3    H2 5680   1.817   3.599   4.181  0.6594  0.0572 -0.8317
 1892TIP3   OH2 5681   2.599   3.170   3.037 -0.2716  0.1350 -0.3999
 1892TIP3    H1 5682   2.624   3.150   3.127 -0.3636  0.0840 -0.3855
 1892TIP3    H2 5683   2.618   3.263   3.027  2.5354 -0.4279 -1.2333
 1893TIP3   OH2 5684   0.758   0.417   3.690  0.0946  0.4782  0.6185
 1893TIP3    H1 5685   0.731   0.426   3.781 -1.7521  1.7583 -0.0084
 1893TIP3    H2 5686   0.702   0.347   3.655  2.2093 -1.4877  0.9217
 1894TIP3   OH2 5687   0.671   4.018   1.627  0.2483  0.4226 -0.4047
 1894TIP3    H1 5688   0.610   4.085   1.595  0.3959  0.1618 -1.2603
 1894TIP3    H2 5689   0.617   3.962   1.682 -0.5610 -0.4047 -1.9735
 1895TIP3   OH2 5690   2.250   2.592   0.442 -0.1610 -0.5473 -0.1340
 1895TIP3    H1 5691   2.300   2.671   0.420 -0.1740 -0.1676  1.1241
 1895TIP3    H2 5692   2.182   2.588   0.374 -1.1020  1.4056  0.5874
 1896TIP3   OH2 5693   0.748   5.465   2.545  0.6554  0.1811  0.3308
 1896TIP3    H1 5694   0.732   5.372   2.560  1.4903 -0.1189 -0.5365
 1896TIP3    H2 5695   0.661   5.503   2.536  0.1718 -1.3361 -3.8444
 1897TIP3   OH2 5696   0.467   3.126   5.050 -0.1412  0.0155 -0.1245
 1897TIP3    H1 5697   0.408   3.185   5.098 -0.9464 -1.2193  0.4627
 1897TIP3    H2 5698   0.445   3.039   5.083  2.9793 -0.4105  1.1673
 1898TIP3   OH2 5699   4.212   1.324   0.017  0.2070 -0.7888  0.4003
 1898TIP3    H1 5700   4.237   1.239  -0.019  0.3085 -0.1501 -1.0936
 1898TIP3    H2 5701   4.116   1.323   0.017  0.2033 -0.5606 -0.4662
 1899TIP3   OH2 5702   3.688   3.425   4.244  0.2020 -0.8000  0.2355
 1899TIP3    H1 5703   3.773   3.440   4.287 -0.8017  0.7861  1.8232
 1899TIP3    H2 5704   3.710   3.415   4.151  2.1447 -0.7423  0.6284
 1900TIP3   OH2 5705   4.637   1.307   0.525 -0.4238 -0.3029  0.1437
 1900TIP3    H1 5706   4.681   1.383   0.562 -3.5241  1.6839  0.0936
 1900TIP3    H2 5707   4.600   1.261   0.600 -2.3427  0.8430 -0.0367
 1901TIP3   OH2 5708   3.992   2.797   5.158 -0.1620  0.6317 -0.0543
 1901TIP3    H1 5709   3.921   2.823   5.217 -0.5606 -1.3191  0.4044
 1901TIP3    H2 5710   4.060   2.862   5.172 -0.6119  0.7498  1.8864
 1902TIP3   OH2 5711   1.099   4.319   4.339  0.1932  0.0260 -0.2402
 1902TIP3    H1 5712   1.048   4.388   4.382 -0.9814 -0.9654 -0.0021
 1902TIP3    H2 5713   1.131   4.360   4.258  1.3805  1.5228  0.9176
 1903TIP3   OH2 5714   3.786   3.946   1.555  0.1888  0.0907 -0.7015
 1903TIP3    H1 5715   3.813   3.970   1.644  1.7790  1.5322 -1.5123
 1903TIP3    H2 5716   3.692   3.930   1.562  0.1945  0.6251  1.1537
 1904TIP3   OH2 5717   1.233   3.853   2.378 -0.0423  0.0655 -0.1008
 1904TIP3    H1 5718   1.323   3.858   2.345 -0.0980 -0.0985 -0.2785
 1904TIP3    H2 5719   1.186   3.801   2.313 -0.2185 -0.0244  0.0974
 1905TIP3   OH2 5720   2.209   4.732   5.120  0.3739  0.0140 -0.3048
 1905TIP3    H1 5721   2.188   4.824   5.101  0.5326  0.2211  0.4779
 1905TIP3    H2 5722   2.254   4.701   5.041  1.9971  1.1691  0.1102
 1906TIP3   OH2 5723   3.910   3.491   0.339 -0.0485 -0.1632  0.4532
 1906TIP3    H1 5724   3.917   3.503   0.433  0.7762 -0.8505  0.4998
 1906TIP3    H2 5725   3.935   3.399   0.325  1.9200  0.4869 -0.6253
 1907TIP3   OH2 5726   3.393   4.135   4.966 -0.4618 -1.0820 -0.0031
 1907TIP3    H1 5727   3.394   4.046   4.931  0.0088 -0.8612 -0.5962
 1907TIP3    H2 5728   3.340   4.130   5.045 -1.5744 -1.6114 -0.7619
 1908TIP3   OH2 5729   5.514   1.003   1.869  0.0010  0.2834  0.5086
 1908TIP3    H1 5730   5.504   0.910   1.846 -0.0012  0.7313 -1.4688
 1908TIP3    H2 5731   5.585   1.005   1.933  0.2401 -1.0399  0.3083
 1909TIP3   OH2 5732   1.177   0.477   1.426  0.5052  0.2008  0.7287
 1909TIP3    H1 5733   1.127   0.464   1.507 -0.0931 -0.3404  0.2758
 1909TIP3    H2 5734   1.119   0.528   1.370 -0.0708 -1.4739 -0.2736
 1910TIP3   OH2 5735   0.380   1.047   0.144 -0.3102  0.1892  0.0895
 1910TIP3    H1 5736   0.466   1.006   0.156 -1.0359 -1.2565  0.6337
 1910TIP3    H2 5737   0.352   1.071   0.232 -0.8715 -0.2242  0.0278
 1911TIP3   OH2 5738   1.617   2.680   1.808 -0.1184 -0.5040  0.0452
 1911TIP3    H1 5739   1.696   2.731   1.794  0.3401 -0.7304  1.6645
 1911TIP3    H2 5740   1.587   2.657   1.719  1.0624  0.4080 -0.6099
 1912TIP3   OH2 5741   1.142   2.499   0.002  0.2091  0.4787 -0.4389
 1912TIP3    H1 5742   1.170   2.472   0.090  1.9316  3.2992  0.0337
 1912TIP3    H2 5743   1.063   2.551   0.017  0.2638  0.6121 -0.6065
 1913TIP3   OH2 5744   3.194   3.294   0.749 -0.1474  0.4865 -0.5724
 1913TIP3    H1 5745   3.258   3.232   0.786 -0.7856  0.1585  0.0073
 1913TIP3    H2 5746   3.169   3.349   0.823  0.7121  1.7252 -1.1747
 1914TIP3   OH2 5747   4.573   1.566   0.385 -0.1002 -0.2514  0.3268
 1914TIP3    H1 5748   4.515   1.525   0.449  0.3689  0.0892  0.9939
 1914TIP3    H2 5749   4.650   1.509   0.382  0.1311  0.0430  0.5198
 1915TIP3   OH2 5750   4.603   4.802   4.828 -0.2332 -0.4839 -0.1993
 1915TIP3    H1 5751   4.527   4.843   4.868  0.5447 -0.1185  0.9382
 1915TIP3    H2 5752   4.583   4.802   4.734 -1.1681  0.5523 -0.0212
 1916TIP3   OH2 5753   0.217   3.390   0.205 -0.1211 -0.0986  0.5713
 1916TIP3    H1 5754   0.258   3.305   0.223  0.2647 -0.5048 -1.9242
 1916TIP3    H2 5755   0.152   3.371   0.138  1.0179  1.7885 -1.1679
 1917TIP3   OH2 5756   5.601   1.268   5.042  0.0955 -0.1064 -0.0164
 1917TIP3    H1 5757   5.594   1.358   5.009  0.2468 -0.7289 -1.8419
 1917TIP3    H2 5758   5.693   1.260   5.068  0.3349 -0.0134 -0.7891
 1918TIP3   OH2 5759   2.302   0.109   4.788  0.1208  0.3135 -0.0148
 1918TIP3    H1 5760   2.239   0.057   4.738  1.3240 -1.5438  0.3034
 1918TIP3    H2 5761   2.388   0.082   4.754  0.8820  0.3245  1.7856
 1919TIP3   OH2 5762   1.062   1.540   3.165 -0.2749  0.4081 -0.2947
 1919TIP3    H1 5763   1.079   1.532   3.071  2.0682 -0.4540  0.1602
 1919TIP3    H2 5764   1.066   1.634   3.181  1.1059  0.4446 -0.7672
 1920TIP3   OH2 5765   2.160   5.742   2.923  0.1060  0.0906 -0.6167
 1920TIP3    H1 5766   2.147   5.723   2.830 -0.7783 -1.4521 -0.2073
 1920TIP3    H2 5767   2.232   5.806   2.925  0.3023 -0.0413 -2.3334
 1921TIP3   OH2 5768   3.364   2.469   1.457  0.0740 -0.1392  0.3534
 1921TIP3    H1 5769   3.392   2.544   1.404  0.3571 -0.1273  0.5168
 1921TIP3    H2 5770   3.375   2.498   1.547  2.1162 -1.0531  0.4441
 1922TIP3   OH2 5771   0.677   0.068   2.302 -0.2247 -0.3348 -0.1163
 1922TIP3    H1 5772   0.664   0.034   2.390 -1.9431  2.0889  0.6828
 1922TIP3    H2 5773   0.600   0.039   2.253 -0.3753  0.1476 -0.1742
 1923TIP3   OH2 5774   6.211   2.670   5.093 -0.4511 -0.3752 -0.0372
 1923TIP3    H1 5775   6.235   2.703   5.007 -0.0525  1.6452  0.7942
 1923TIP3    H2 5776   6.121   2.640   5.083 -0.7878  0.8696 -0.9172
 1924TIP3   OH2 5777   5.083   2.264   1.052  0.1923 -0.1772 -0.4719
 1924TIP3    H1 5778   5.127   2.241   1.134  0.0485 -0.9937 -0.6165
 1924TIP3    H2 5779   5.032   2.342   1.073 -0.7152 -1.0149  0.5187
 1925TIP3   OH2 5780   4.342   2.301   1.754  0.2729 -0.5690  0.0285
 1925TIP3    H1 5781   4.399   2.376   1.770  0.8711 -0.4645 -2.2472
 1925TIP3    H2 5782   4.260   2.340   1.724  0.7668 -0.7898 -1.6918
 1926TIP3   OH2 5783   4.218   4.225   4.363  0.3699  0.1169 -0.2033
 1926TIP3    H1 5784   4.255   4.139   4.346  0.2979  0.3363 -1.5607
 1926TIP3    H2 5785   4.125   4.216   4.341  0.0150  0.1314  1.1751
 1927TIP3   OH2 5786   1.165   3.954   1.785  0.0694  0.2340  0.1610
 1927TIP3    H1 5787   1.147   3.991   1.699  0.1835 -0.4264 -0.1525
 1927TIP3    H2 5788   1.152   3.860   1.774  2.8364 -0.2368  0.1213
 1928TIP3   OH2 5789   4.384   4.424   0.990  0.1225  0.3080 -0.3260
 1928TIP3    H1 5790   4.302   4.472   0.996 -0.2869 -0.5215  1.6927
 1928TIP3    H2 5791   4.357   4.332   0.992  1.0670  0.0228 -0.4479
 1929TIP3   OH2 5792   2.307   5.290   3.788 -0.0288  0.2681 -0.0391
 1929TIP3    H1 5793   2.326   5.383   3.776 -2.4660  0.6764 -1.3991
 1929TIP3    H2 5794   2.236   5.288   3.852  1.1301 -0.8049  1.2584
 1930TIP3   OH2 5795   2.299   0.876   1.575  0.6137  0.1008 -0.5084
 1930TIP3    H1 5796   2.364   0.927   1.624  0.3626 -1.7328  1.9226
 1930TIP3    H2 5797   2.285   0.797   1.628 -2.5986 -0.2272 -1.5983
 1931TIP3   OH2 5798   4.462   1.851   3.749  0.2276 -0.0263  0.2375
 1931TIP3    H1 5799   4.432   1.790   3.681  0.4270 -1.2088  1.1683
 1931TIP3    H2 5800   4.485   1.931   3.702 -0.3539 -0.5579 -0.9876
 1932TIP3   OH2 5801   1.624   2.671   2.327 -0.0265 -0.2323 -0.3525
 1932TIP3    H1 5802   1.532   2.693   2.315  0.3941  0.9424 -1.6823
 1932TIP3    H2 5803   1.659   2.744   2.379  0.6551  0.6495 -1.9683
 1933TIP3   OH2 5804   6.206   4.715   3.015 -0.1071 -0.2358  0.2859
 1933TIP3    H1 5805   6.262   4.684   3.087 -1.6869 -0.9469  1.2686
 1933TIP3    H2 5806   6.179   4.802   3.042 -1.0778 -0.6870  0.8003
 1934TIP3   OH2 5807   5.369   0.117   3.355  0.6603  0.1988 -0.3375
 1934TIP3    H1 5808   5.394   0.027   3.375 -2.4659 -0.5152  1.1296
 1934TIP3    H2 5809   5.364   0.121   3.260  1.4203 -0.9741 -0.4400
 1935TIP3   OH2 5810   5.345   5.142   1.979  0.2990  0.0936 -0.1184
 1935TIP3    H1 5811   5.330   5.052   2.008  2.2696  0.1918  1.4022
 1935TIP3    H2 5812   5.345   5.137   1.883  0.1515 -1.4772 -0.0561
 1936TIP3   OH2 5813   0.655   1.013   4.570 -0.2411  0.2228  0.4167
 1936TIP3    H1 5814   0.680   0.943   4.510  1.1954  1.2147 -0.2194
 1936TIP3    H2 5815   0.694   0.988   4.654  1.1423  0.7074 -0.0525
 1937TIP3   OH2 5816   0.823   4.371   1.447  0.4154  0.3741 -0.5404
 1937TIP3    H1 5817   0.872   4.450   1.469 -0.7897  1.2143 -0.7575
 1937TIP3    H2 5818   0.791   4.338   1.531 -0.2062  0.8957 -0.5643
 1938TIP3   OH2 5819   2.185   2.785   2.129  0.9204 -0.1533  0.4822
 1938TIP3    H1 5820   2.218   2.863   2.084  3.0220 -0.9808  0.4557
 1938TIP3    H2 5821   2.092   2.803   2.144  0.7008  1.1777 -1.9784
 1939TIP3   OH2 5822   3.811   0.662   3.572  0.0804  0.1652  0.1186
 1939TIP3    H1 5823   3.732   0.716   3.573 -1.2760 -1.6221 -1.5562
 1939TIP3    H2 5824   3.784   0.578   3.609  1.5079 -0.1402  0.5396
 1940TIP3   OH2 5825   1.798   0.219   0.640  0.4665  0.1902 -0.2059
 1940TIP3    H1 5826   1.884   0.256   0.658  0.3068  0.3674  0.2328
 1940TIP3    H2 5827   1.813   0.125   0.631  0.7191  0.2326 -0.2289
 1941TIP3   OH2 5828   0.072   4.837   0.916  0.5322  0.6553  0.1886
 1941TIP3    H1 5829   0.139   4.858   0.852 -0.8083 -0.4323 -1.6712
 1941TIP3    H2 5830   0.093   4.748   0.945 -0.7432 -0.2102 -1.3751
 1942TIP3   OH2 5831   3.385   4.756   3.191  0.2019  0.1712 -0.8703
 1942TIP3    H1 5832   3.465   4.705   3.202  2.7383  3.9651 -0.1091
 1942TIP3    H2 5833   3.343   4.753   3.277  0.4473 -0.3497 -0.7625
 1943TIP3   OH2 5834   3.152   5.128   0.853  0.4365  0.7154 -0.1461
 1943TIP3    H1 5835   3.243   5.098   0.850 -0.3139 -1.8714  0.5139
 1943TIP3    H2 5836   3.108   5.067   0.912 -1.8290  1.6473 -0.7537
 1944TIP3   OH2 5837   1.914   5.268   1.645 -0.1591 -0.0052 -0.4915
 1944TIP3    H1 5838   1.891   5.294   1.556 -0.8344  0.5040 -0.1772
 1944TIP3    H2 5839   1.961   5.343   1.681 -0.0457 -0.1392 -0.3580
 1945TIP3   OH2 5840   1.773   3.882   2.662 -0.3953  0.1760 -0.3560
 1945TIP3    H1 5841   1.831   3.806   2.652 -1.2299 -0.3498 -1.3581
 1945TIP3    H2 5842   1.806   3.946   2.599 -0.9192 -0.1501 -0.9769
 1946TIP3   OH2 5843   5.817   3.832   2.759  0.1604  0.1938  0.3613
 1946TIP3    H1 5844   5.906   3.796   2.764  0.5307  1.2099  1.8023
 1946TIP3    H2 5845   5.829   3.919   2.721 -0.2723  0.1492  0.1264
 1947TIP3   OH2 5846   5.227   1.056   4.355 -0.4366  0.3064 -0.3754
 1947TIP3    H1 5847   5.221   1.071   4.449 -0.7902  0.1332 -0.3700
 1947TIP3    H2 5848   5.264   1.137   4.320  0.9252 -0.0893  0.0622
 1948TIP3   OH2 5849   5.589   0.098   1.362 -0.3298  0.8443 -0.0968
 1948TIP3    H1 5850   5.493   0.102   1.359 -0.5035 -1.7476 -1.0551
 1948TIP3    H2 5851   5.613   0.151   1.437 -2.4763  2.0118 -0.1507
 1949TIP3   OH2 5852   0.721   0.781   1.432  0.0519 -0.2309 -0.0193
 1949TIP3    H1 5853   0.751   0.872   1.437  0.0014 -0.2212  0.1065
 1949TIP3    H2 5854   0.651   0.783   1.366 -1.5091  0.2552  1.5818
 1950TIP3   OH2 5855   0.495   1.947   2.129  0.1251 -0.7074  0.3291
 1950TIP3    H1 5856   0.400   1.956   2.125  0.0965 -1.3417 -0.6744
 1950TIP3    H2 5857   0.511   1.896   2.208 -0.2052  1.2201  1.7090
 1951TIP3   OH2 5858   6.016   4.263   4.851 -0.0649 -0.3267  0.1017
 1951TIP3    H1 5859   6.033   4.321   4.925 -1.2160 -0.1773  0.2659
 1951TIP3    H2 5860   5.931   4.292   4.817 -0.3042 -1.4448 -0.2720
 1952TIP3   OH2 5861   1.416   0.006   1.392 -0.2084 -0.7010  0.3906
 1952TIP3    H1 5862   1.410   0.011   1.488  0.6166  3.0016  0.4106
 1952TIP3    H2 5863   1.479   0.074   1.369  0.9473 -2.6232 -2.7557
 1953TIP3   OH2 5864   5.433   4.416   2.397 -0.0812  0.1164 -0.3705
 1953TIP3    H1 5865   5.498   4.455   2.340 -0.6640 -1.0233 -1.8782
 1953TIP3    H2 5866   5.357   4.402   2.341 -0.7019 -0.9515  0.6912
 1954TIP3   OH2 5867   3.582   0.419   4.909  0.5862 -0.1024 -0.1642
 1954TIP3    H1 5868   3.636   0.418   4.831 -0.2931  0.9082 -0.8097
 1954TIP3    H2 5869   3.605   0.501   4.953 -1.8292  1.4195 -1.5232
 1955TIP3   OH2 5870   1.824   5.860   2.448  0.2131  0.2392 -0.2357
 1955TIP3    H1 5871   1.793   5.858   2.357  0.1638 -0.3149 -0.2098
 1955TIP3    H2 5872   1.744   5.859   2.500  0.2498 -0.6396 -0.1766
 1956TIP3   OH2 5873   0.873   2.437   0.964 -0.5230  0.7766 -0.1634
 1956TIP3    H1 5874   0.912   2.454   0.878  0.4351 -1.7706 -0.3148
 1956TIP3    H2 5875   0.812   2.365   0.948  0.6349 -0.6544  1.4794
 1957TIP3   OH2 5876   4.151   1.477   3.396 -0.1327  0.1087 -0.2784
 1957TIP3    H1 5877   4.202   1.524   3.462 -0.2655  1.1534 -0.8880
 1957TIP3    H2 5878   4.194   1.498   3.313 -1.7413  1.3423 -0.8531
 1958TIP3   OH2 5879   3.185   5.458   1.058 -0.8721 -0.4211 -0.3948
 1958TIP3    H1 5880   3.109   5.401   1.071 -1.4981 -0.0054 -1.9608
 1958TIP3    H2 5881   3.167   5.535   1.112 -0.1923 -1.4803  1.4436
 1959TIP3   OH2 5882   4.767   1.697   1.862 -0.1589  0.4590 -0.1223
 1959TIP3    H1 5883   4.821   1.752   1.805 -0.8630 -0.3766 -1.6701
 1959TIP3    H2 5884   4.710   1.649   1.802 -1.0582 -0.3581  1.3178
 1960TIP3   OH2 5885   0.534   5.586   2.080  0.0112 -0.0324 -0.3413
 1960TIP3    H1 5886   0.620   5.583   2.123 -0.5333  0.3599  0.8212
 1960TIP3    H2 5887   0.485   5.650   2.130 -0.9765 -0.2595 -0.9933
 1961TIP3   OH2 5888   1.336   4.026   4.115 -0.8746  0.2202  0.0333
 1961TIP3    H1 5889   1.361   4.097   4.055  0.0347  0.6972  0.9589
 1961TIP3    H2 5890   1.391   3.952   4.088 -1.8005 -0.1564 -0.9118
 1962TIP3   OH2 5891   1.335   0.339   2.503 -0.4316 -0.0380 -0.5237
 1962TIP3    H1 5892   1.296   0.343   2.590 -0.0314  1.2011 -0.3888
 1962TIP3    H2 5893   1.379   0.254   2.501  0.8984  0.5572  1.0824
 1963TIP3   OH2 5894   5.025   1.161   3.119  0.2212 -0.0462  0.2145
 1963TIP3    H1 5895   5.059   1.074   3.102 -0.1905 -0.1813  0.0769
 1963TIP3    H2 5896   4.929   1.151   3.118  0.1612  0.4957 -0.3240
 1964TIP3   OH2 5897   1.671   2.416   3.551 -0.2566 -0.2705 -0.8756
 1964TIP3    H1 5898   1.718   2.350   3.603 -1.8030 -1.4759 -0.9488
 1964TIP3    H2 5899   1.589   2.374   3.528 -0.3574  0.8972 -2.8265
 1965TIP3   OH2 5900   0.707   4.048   3.852  0.4422 -0.2603  0.0536
 1965TIP3    H1 5901   0.664   4.099   3.783  1.7989 -3.2246 -3.2360
 1965TIP3    H2 5902   0.637   3.993   3.887  0.3766 -1.1754 -1.4358
 1966TIP3   OH2 5903   1.024   0.007   4.650  0.6091 -0.7933 -0.2878
 1966TIP3    H1 5904   0.970   0.015   4.572  1.3979 -0.3821 -0.8063
 1966TIP3    H2 5905   1.101   0.061   4.632  1.7885 -2.3189 -0.0897
 1967TIP3   OH2 5906   4.238   2.509   1.037 -0.3667 -0.5861 -0.1427
 1967TIP3    H1 5907   4.242   2.604   1.049 -0.4492 -0.6269  0.2406
 1967TIP3    H2 5908   4.148   2.486   1.059 -0.9483 -0.5015 -2.2298
 1968TIP3   OH2 5909   3.557   4.799   3.581  0.2917 -0.1562  0.0787
 1968TIP3    H1 5910   3.638   4.802   3.532  0.7106  0.9169  0.8055
 1968TIP3    H2 5911   3.520   4.887   3.573  0.3979  0.0778  1.6817
 1969TIP3   OH2 5912   3.405   3.910   1.289 -0.1405 -0.2254 -0.6340
 1969TIP3    H1 5913   3.369   3.834   1.244  0.4763 -0.4123 -0.8114
 1969TIP3    H2 5914   3.480   3.937   1.236  0.3253 -0.1817  0.0302
 1970TIP3   OH2 5915   6.277   5.654   2.119 -0.3496 -0.0346 -0.1489
 1970TIP3    H1 5916   6.264   5.643   2.213 -4.6477 -0.2530 -0.5610
 1970TIP3    H2 5917   6.282   5.749   2.106 -2.0401  0.1245  0.1675
 1971TIP3   OH2 5918   5.301   4.221   3.298  0.6422 -0.4205 -0.0640
 1971TIP3    H1 5919   5.303   4.145   3.241 -3.3582 -2.4632  2.1213
 1971TIP3    H2 5920   5.356   4.196   3.372  0.6826 -0.4701 -0.1107
 1972TIP3   OH2 5921   5.189   5.585   4.849  0.6338 -0.0209 -0.3943
 1972TIP3    H1 5922   5.155   5.569   4.937 -0.0316  0.0009 -0.6437
 1972TIP3    H2 5923   5.115   5.566   4.791  1.1633 -0.3485 -0.9693
 1973TIP3   OH2 5924   5.819   5.275   1.450 -0.0963  0.0598 -0.2142
 1973TIP3    H1 5925   5.763   5.278   1.372 -2.8974  1.0447  1.6479
 1973TIP3    H2 5926   5.869   5.356   1.447 -1.2985  0.8339 -0.3071
 1974TIP3   OH2 5927   0.535   4.998   4.771  0.3757 -0.0314 -0.1398
 1974TIP3    H1 5928   0.555   4.979   4.680  0.7688 -0.4694  0.0341
 1974TIP3    H2 5929   0.507   4.915   4.808 -0.0427  0.2002  0.0778
 1975TIP3   OH2 5930   3.971   5.347   4.020 -0.5085 -0.3185 -0.9275
 1975TIP3    H1 5931   3.972   5.330   3.926  0.1161 -2.3055 -0.5968
 1975TIP3    H2 5932   3.902   5.290   4.055 -0.3480 -0.0308 -0.1088
 1976TIP3   OH2 5933   3.458   5.253   1.947 -0.0399 -0.8346 -0.0889
 1976TIP3    H1 5934   3.377   5.258   1.998  0.0494 -1.3300  0.1138
 1976TIP3    H2 5935   3.450   5.171   1.898 -0.3524 -0.1215 -1.2913
 1977TIP3   OH2 5936   1.646   2.427   2.219  0.3924 -0.0102  0.3458
 1977TIP3    H1 5937   1.566   2.407   2.267  0.8647  0.0039  1.1372
 1977TIP3    H2 5938   1.676   2.510   2.256  0.9421 -0.1681  0.2571
 1978TIP3   OH2 5939   0.867   1.490   4.507  0.6054 -0.4654 -0.8633
 1978TIP3    H1 5940   0.834   1.413   4.553  1.5071 -0.1286  0.4099
 1978TIP3    H2 5941   0.817   1.563   4.543  0.8274 -0.2778 -0.9292
 1979TIP3   OH2 5942   4.154   1.049   1.830 -0.5529 -0.3555 -0.1823
 1979TIP3    H1 5943   4.133   0.964   1.792 -1.5422 -0.5902  0.8119
 1979TIP3    H2 5944   4.244   1.039   1.862  0.0020 -0.3980 -1.7176
 1980TIP3   OH2 5945   6.334   2.747   4.060 -0.2258 -0.4843 -0.2453
 1980TIP3    H1 5946   6.363   2.682   3.995 -0.8031 -0.3699 -0.6213
 1980TIP3    H2 5947   6.290   2.695   4.127 -1.2786 -0.4280 -0.8773
 1981TIP3   OH2 5948   5.586   4.210   4.990  0.0958  0.0071 -0.4505
 1981TIP3    H1 5949   5.536   4.284   5.024  0.4321  1.1746 -2.3493
 1981TIP3    H2 5950   5.677   4.235   5.003  0.2141  0.0700 -1.3671
 1982TIP3   OH2 5951   1.924   5.113   2.710  0.1032 -0.3059 -0.5103
 1982TIP3    H1 5952   2.003   5.167   2.698  0.2921 -0.6412 -0.8078
 1982TIP3    H2 5953   1.852   5.176   2.712  0.1130 -0.1489 -2.7940
 1983TIP3   OH2 5954   0.204   1.491   0.085 -0.4197 -0.3422 -0.7226
 1983TIP3    H1 5955   0.178   1.400   0.067 -2.1244 -0.4399  1.7703
 1983TIP3    H2 5956   0.128   1.543   0.059  0.0697  0.2726 -0.9554
 1984TIP3   OH2 5957   1.648   0.076   1.256  0.5370 -0.2274 -0.6300
 1984TIP3    H1 5958   1.637   0.068   1.161 -0.9832 -1.2110 -0.4038
 1984TIP3    H2 5959   1.739   0.054   1.272  0.7262 -0.3680 -1.8288
 1985TIP3   OH2 5960   4.284   1.786   1.018 -0.4378 -0.3892 -0.2082
 1985TIP3    H1 5961   4.330   1.736   0.952 -0.2068  0.6804 -0.8898
 1985TIP3    H2 5962   4.321   1.875   1.011  0.0469 -0.3857  1.7830
 1986TIP3   OH2 5963   3.353   0.385   4.731  0.1766 -0.1463 -0.5163
 1986TIP3    H1 5964   3.375   0.470   4.769  0.5339 -0.7318  0.6482
 1986TIP3    H2 5965   3.372   0.322   4.801 -0.8340 -1.1158 -1.0739
 1987TIP3   OH2 5966   4.530   5.135   4.729 -0.0221 -0.1252 -0.2664
 1987TIP3    H1 5967   4.479   5.078   4.786 -1.3459  0.5647 -0.7071
 1987TIP3    H2 5968   4.554   5.209   4.785  0.0238 -0.1868 -0.2039
 1988TIP3   OH2 5969   0.969   1.926   0.833 -0.5463 -0.2821  0.3654
 1988TIP3    H1 5970   1.052   1.910   0.787 -0.4990 -1.2449  0.7539
 1988TIP3    H2 5971   0.902   1.891   0.774 -0.5534 -0.7546  0.6452
 1989TIP3   OH2 5972   5.738   0.089   1.959 -0.3496  0.0916  0.0552
 1989TIP3    H1 5973   5.732   0.059   2.050  1.3340  1.2699  0.6023
 1989TIP3    H2 5974   5.711   0.014   1.907  0.1695 -1.1316  1.4776
 1990TIP3   OH2 5975   2.484   4.929   1.355 -0.0023  0.3799 -0.1761
 1990TIP3    H1 5976   2.462   4.982   1.431 -1.1909  0.4001 -0.5085
 1990TIP3    H2 5977   2.540   4.859   1.389 -2.2123 -0.8504  1.1540
 1991TIP3   OH2 5978   2.091   2.324   1.246  0.3834  0.7334  0.2595
 1991TIP3    H1 5979   2.067   2.231   1.242 -1.6634  1.2450 -0.7167
 1991TIP3    H2 5980   2.098   2.342   1.339  2.2790 -0.7064  0.4589
 1992TIP3   OH2 5981   5.617   0.268   4.563 -0.5265 -0.0742  0.3583
 1992TIP3    H1 5982   5.705   0.230   4.560 -1.1926 -1.6821  0.0060
 1992TIP3    H2 5983   5.618   0.336   4.496  0.4585 -0.0411  0.3928
 1993TIP3   OH2 5984   6.329   0.044   1.349  0.1588  0.2238 -0.2557
 1993TIP3    H1 5985   6.312   0.044   1.255  0.7981  0.9992 -0.3890
 1993TIP3    H2 5986   6.387   0.119   1.363 -0.3239  0.4228  0.8338
 1994TIP3   OH2 5987   5.075   0.163   3.378  0.0953  0.1726  0.6078
 1994TIP3    H1 5988   5.021   0.236   3.347 -0.0485  0.1302  0.7537
 1994TIP3    H2 5989   5.159   0.174   3.334 -0.4139 -0.4394 -0.5744
 1995TIP3   OH2 5990   0.429   4.124   1.011 -0.3149  0.4759  0.4214
 1995TIP3    H1 5991   0.431   4.134   1.106  1.3284 -2.1564  0.7744
 1995TIP3    H2 5992   0.471   4.039   0.995 -0.9755  0.6069 -2.6371
 1996TIP3   OH2 5993   2.315   2.125   0.092  0.0998  0.3221 -0.8772
 1996TIP3    H1 5994   2.287   2.035   0.077 -1.8671  0.4342  1.5841
 1996TIP3    H2 5995   2.405   2.117   0.123 -0.8287 -1.0993  1.7109
 1997TIP3   OH2 5996   4.650   4.943   0.472 -0.7577  0.2832 -0.8004
 1997TIP3    H1 5997   4.635   4.890   0.394 -0.1661 -1.4844  0.2116
 1997TIP3    H2 5998   4.583   4.914   0.534  0.7723 -0.7399  0.4409
 1998TIP3   OH2 5999   3.795   3.371   4.781  0.2008 -0.3150 -0.5831
 1998TIP3    H1 6000   3.775   3.318   4.703 -1.4987 -0.8783  0.1899
 1998TIP3    H2 6001   3.888   3.392   4.772  0.1228 -0.6298 -2.5993
 1999TIP3   OH2 6002   3.965   4.469   1.561  0.2941  0.2185 -0.5273
 1999TIP3    H1 6003   3.997   4.415   1.633 -1.0376  0.4386  0.2661
 1999TIP3    H2 6004   3.944   4.553   1.602 -0.5860  0.3062 -1.1349
 2000TIP3   OH2 6005   3.651   5.753   0.117 -0.3745  0.1245  0.1323
 2000TIP3    H1 6006   3.742   5.776   0.097 -0.9545  1.1622 -1.6038
 2000TIP3    H2 6007   3.623   5.820   0.179 -0.4686  0.9445 -0.7652
 2001TIP3   OH2 6008   0.367   2.653   1.775 -0.8440  0.6871 -0.2901
 2001TIP3    H1 6009   0.332   2.725   1.827  2.5578  2.1478  0.1793
 2001TIP3    H2 6010   0.358   2.683   1.684 -5.9345 -1.4865 -0.8521
 2002TIP3   OH2 6011   1.978   3.707   2.637  0.4742  0.0645  0.4363
 2002TIP3    H1 6012   2.055   3.678   2.686  0.7305 -1.8661 -1.0033
 2002TIP3    H2 6013   2.011   3.775   2.578  0.3829  1.5562  1.9962
 2003TIP3   OH2 6014   5.740   5.140   4.453 -0.4189  0.7153 -0.1890
 2003TIP3    H1 6015   5.814   5.093   4.490 -0.7539 -0.4775 -0.9664
 2003TIP3    H2 6016   5.705   5.192   4.525  0.7516  0.7625  0.3549
 2004TIP3   OH2 6017   4.495   5.120   1.886  0.0264  0.0820 -0.0400
 2004TIP3    H1 6018   4.449   5.172   1.951  1.1573 -2.5270  3.1481
 2004TIP3    H2 6019   4.428   5.064   1.848 -0.3074  0.0966  0.5233
 2005TIP3   OH2 6020   0.907   1.061   3.845  0.2740  0.0906 -0.5037
 2005TIP3    H1 6021   0.946   0.987   3.892 -2.7025 -0.2923  1.6633
 2005TIP3    H2 6022   0.966   1.134   3.862  0.9329 -0.7951  1.2331
 2006TIP3   OH2 6023   4.785   2.338   3.802 -0.3864  0.1896 -0.0823
 2006TIP3    H1 6024   4.793   2.360   3.895 -0.2914  0.6153 -0.1926
 2006TIP3    H2 6025   4.786   2.422   3.757 -0.4588 -0.0163 -0.4688
 2007TIP3   OH2 6026   4.460   1.518   3.753  0.0400 -1.0073 -0.7556
 2007TIP3    H1 6027   4.522   1.576   3.796 -3.0030  2.1754 -0.1585
 2007TIP3    H2 6028   4.475   1.433   3.793  1.9696  0.2730  1.5218
 2008TIP3   OH2 6029   1.572   0.451   0.177  0.3657 -0.4026 -0.0649
 2008TIP3    H1 6030   1.537   0.520   0.120  0.1099  0.7270  1.3902
 2008TIP3    H2 6031   1.600   0.498   0.256  3.9726 -1.3869 -0.5658
 2009TIP3   OH2 6032   1.927   4.948   5.066  0.2095 -0.5876 -0.0497
 2009TIP3    H1 6033   1.900   4.944   4.974 -0.8237  0.2554  0.1908
 2009TIP3    H2 6034   2.016   4.981   5.063 -1.4137  4.6475 -0.6590
 2010TIP3   OH2 6035   0.033   1.269   2.263 -0.3171 -0.3461  0.9574
 2010TIP3    H1 6036  -0.015   1.204   2.313 -0.2385 -0.3847  0.9831
 2010TIP3    H2 6037   0.121   1.232   2.254  0.0748  0.3011  2.0163
 2011TIP3   OH2 6038   6.295   2.661   3.048  0.3683 -0.6324  0.0290
 2011TIP3    H1 6039   6.334   2.707   3.122 -0.1690 -0.0484 -0.0520
 2011TIP3    H2 6040   6.325   2.709   2.971  0.1724 -0.6872 -0.0820
 2012TIP3   OH2 6041   2.825   2.380   4.303 -0.1303  0.6913  0.8454
 2012TIP3    H1 6042   2.798   2.341   4.386  0.8860 -0.3506  0.7115
 2012TIP3    H2 6043   2.772   2.336   4.237  0.1265  0.4213  0.8141
 2013TIP3   OH2 6044   0.693   5.206   4.661  0.3271 -0.5457 -0.2035
 2013TIP3    H1 6045   0.716   5.263   4.735 -2.3408  0.3128  0.0834
 2013TIP3    H2 6046   0.652   5.130   4.702  2.0031 -1.7605 -0.6969
 2014TIP3   OH2 6047   4.516   5.365   3.844 -0.4650 -0.1266  0.0208
 2014TIP3    H1 6048   4.531   5.430   3.912  0.0819 -1.8580  1.6538
 2014TIP3    H2 6049   4.603   5.349   3.807 -0.6967  0.5061 -0.8197
 2015TIP3   OH2 6050   4.850   2.687   2.596  0.5393 -0.1407 -0.5653
 2015TIP3    H1 6051   4.801   2.638   2.530 -1.6841 -0.2239  1.0462
 2015TIP3    H2 6052   4.846   2.632   2.675  1.5747  0.7714  0.1570
 2016TIP3   OH2 6053   3.962   4.612   2.849 -0.2414  0.2460 -0.2625
 2016TIP3    H1 6054   3.953   4.702   2.880  0.9144 -0.4574  2.3859
 2016TIP3    H2 6055   4.035   4.576   2.900 -1.1552 -2.4109 -0.6703
 2017TIP3   OH2 6056   0.574   4.281   4.367 -0.0708 -0.4879 -0.2872
 2017TIP3    H1 6057   0.563   4.227   4.289 -0.0354  0.3744 -0.8977
 2017TIP3    H2 6058   0.567   4.371   4.335 -0.0215 -0.1266  0.6982
 2018TIP3   OH2 6059   2.517   3.001   4.947 -0.3765  0.5564 -0.7666
 2018TIP3    H1 6060   2.609   3.026   4.948 -0.0233 -0.5469 -2.1984
 2018TIP3    H2 6061   2.480   3.050   4.873 -0.7777  0.4743 -0.6217
 2019TIP3   OH2 6062   0.457   4.597   2.941 -0.1583  0.0328 -0.2064
 2019TIP3    H1 6063   0.425   4.589   3.030  0.6269 -0.5874  0.0291
 2019TIP3    H2 6064   0.548   4.626   2.950 -0.0421 -0.1275 -0.7901
 2020TIP3   OH2 6065   0.020  -0.021   2.361  0.2891  0.1026  0.3096
 2020TIP3    H1 6066   0.088   0.017   2.306 -0.5887  0.7414 -0.3709
 2020TIP3    H2 6067   0.024   0.029   2.443 -0.8120  1.6804 -0.5521
 2021TIP3   OH2 6068   2.294   5.148   1.155  0.0079 -0.6176  0.5044
 2021TIP3    H1 6069   2.233   5.075   1.163 -0.1391 -0.4323  1.0846
 2021TIP3    H2 6070   2.349   5.142   1.233 -0.0975 -0.0217  0.6262
 2022TIP3   OH2 6071   4.533   1.675   4.546  0.3013 -0.4439 -0.1080
 2022TIP3    H1 6072   4.607   1.735   4.555 -0.1055  0.1276 -0.5204
 2022TIP3    H2 6073   4.560   1.597   4.595  0.8349  0.0685  0.4384
 2023TIP3   OH2 6074   3.988   1.738   4.747  0.2583 -0.7653 -0.2481
 2023TIP3    H1 6075   4.082   1.719   4.751  0.7209  1.2986 -0.3209
 2023TIP3    H2 6076   3.975   1.809   4.809 -1.3381 -1.2359 -0.0097
 2024TIP3   OH2 6077   0.296   2.960   4.759  0.1541 -0.4197  0.3767
 2024TIP3    H1 6078   0.203   2.937   4.768  0.5032 -1.4255  1.7579
 2024TIP3    H2 6079   0.327   2.967   4.849  1.3886  0.0569 -0.0729
 2025TIP3   OH2 6080   3.273   2.272   2.688 -0.2601 -0.3482 -1.1030
 2025TIP3    H1 6081   3.213   2.259   2.761 -0.0946  1.6518 -0.5531
 2025TIP3    H2 6082   3.348   2.216   2.708 -1.7782 -2.7556 -1.7186
 2026TIP3   OH2 6083   0.828   2.351   1.579  0.4468  0.4283  0.2685
 2026TIP3    H1 6084   0.788   2.414   1.519 -0.9586  0.1772  0.8906
 2026TIP3    H2 6085   0.876   2.290   1.522  1.9010  2.0661 -0.3383
 2027TIP3   OH2 6086   2.865   0.996   4.226  0.1674 -0.3846  0.3583
 2027TIP3    H1 6087   2.959   0.981   4.217  0.1816  0.4461 -1.2669
 2027TIP3    H2 6088   2.825   0.910   4.212  0.5064 -0.0890 -3.6599
 2028TIP3   OH2 6089   2.057   5.758   1.636 -0.0372 -0.4126  0.2679
 2028TIP3    H1 6090   1.969   5.793   1.643 -0.4775 -1.1916 -1.0370
 2028TIP3    H2 6091   2.089   5.789   1.551  1.2018  0.3816  0.9835
 2029TIP3   OH2 6092   4.325   2.857   3.015 -0.2651  0.0732 -0.2875
 2029TIP3    H1 6093   4.260   2.850   2.945  0.4804 -0.3716 -0.9516
 2029TIP3    H2 6094   4.327   2.770   3.055  0.6555 -0.2129 -0.9437
 2030TIP3   OH2 6095   1.325   3.902   2.674  0.2276 -0.5242 -0.4279
 2030TIP3    H1 6096   1.318   3.994   2.700  2.0792 -0.1213 -1.2018
 2030TIP3    H2 6097   1.275   3.897   2.592 -1.1446 -0.5818  0.3877
 2031TIP3   OH2 6098   2.518   5.454   4.696  0.1025  0.5286 -0.1482
 2031TIP3    H1 6099   2.501   5.533   4.645  0.7704 -0.3000 -1.6864
 2031TIP3    H2 6100   2.507   5.382   4.635  1.0136 -0.4991  0.8439
 2032TIP3   OH2 6101   3.646   4.334   0.406  0.2152 -0.5227  0.1438
 2032TIP3    H1 6102   3.678   4.417   0.441  0.2346 -0.2437 -0.5210
 2032TIP3    H2 6103   3.561   4.356   0.368  0.2881 -0.7783 -0.1692
 2033TIP3   OH2 6104   2.616   2.413   1.117  0.2669  0.2795  0.5693
 2033TIP3    H1 6105   2.526   2.382   1.113  0.6952 -1.0232  0.7612
 2033TIP3    H2 6106   2.645   2.391   1.206  1.2225 -0.6145  0.0595
 2034TIP3   OH2 6107   5.243   2.382   3.779  0.3882  0.2845  0.2554
 2034TIP3    H1 6108   5.236   2.414   3.869 -1.0266  1.1540 -0.1392
 2034TIP3    H2 6109   5.159   2.340   3.761 -0.3232  2.2774 -1.4352
 2035TIP3   OH2 6110   1.600   0.502   4.710 -0.3037 -0.5415 -0.3740
 2035TIP3    H1 6111   1.680   0.476   4.757 -1.3862 -0.1087  1.8086
 2035TIP3    H2 6112   1.632   0.554   4.636  1.4186  0.8570  1.2423
 2036TIP3   OH2 6113   0.315   4.166   0.035  0.2843 -0.0632  0.0231
 2036TIP3    H1 6114   0.246   4.229   0.058  1.5437  0.6339  2.1736
 2036TIP3    H2 6115   0.375   4.215  -0.020  0.3160  0.0818  0.1851
 2037TIP3   OH2 6116   1.817   5.186   3.336  0.2923  0.2884 -0.0101
 2037TIP3    H1 6117   1.763   5.217   3.409  0.7883 -1.0223  0.9430
 2037TIP3    H2 6118   1.854   5.266   3.299 -0.8740  1.0706  0.4280
 2038TIP3   OH2 6119   5.149   5.156   0.048 -0.3179 -0.3839 -0.3547
 2038TIP3    H1 6120   5.127   5.245   0.076  0.0543 -0.7705  1.2422
 2038TIP3    H2 6121   5.102   5.145  -0.035 -1.0645  0.9940 -0.1422
 2039TIP3   OH2 6122   0.770   2.310   3.158 -0.0026  0.0811  0.1204
 2039TIP3    H1 6123   0.746   2.225   3.196 -1.9909 -0.3531 -1.9158
 2039TIP3    H2 6124   0.726   2.374   3.214  0.9858 -0.2173  1.2892
 2040TIP3   OH2 6125   2.836   0.508   4.193  0.4033 -0.0174  0.2704
 2040TIP3    H1 6126   2.812   0.595   4.224 -0.3839 -0.0050 -0.3459
 2040TIP3    H2 6127   2.884   0.469   4.266  0.9197  0.9884  0.4893
 2041TIP3   OH2 6128   0.191   3.084   3.284 -0.3142 -0.1356  0.5211
 2041TIP3    H1 6129   0.208   3.074   3.378 -2.4648 -1.3384  0.8334
 2041TIP3    H2 6130   0.115   3.142   3.280 -1.5236 -1.6928 -0.3225
 2042TIP3   OH2 6131   1.970   0.486   5.071 -0.2206 -0.1162 -0.3000
 2042TIP3    H1 6132   1.960   0.540   5.150 -2.5631 -2.7620  1.4358
 2042TIP3    H2 6133   2.037   0.530   5.020  1.0804  2.0676  2.9381
 2043TIP3   OH2 6134   2.032   4.829   4.534  0.2838  0.1197  0.6938
 2043TIP3    H1 6135   1.995   4.917   4.536  1.5310  0.6809  0.4218
 2043TIP3    H2 6136   1.972   4.778   4.481  0.7631  1.4255 -1.2137
 2044TIP3   OH2 6137   1.490   3.507   4.808 -0.6219  0.1632 -0.4746
 2044TIP3    H1 6138   1.454   3.421   4.831 -0.1284 -0.3807 -1.6363
 2044TIP3    H2 6139   1.467   3.519   4.716  1.2342  0.2480 -0.9739
 2045TIP3   OH2 6140   0.039   1.490   2.630  0.7708 -0.0551 -0.0267
 2045TIP3    H1 6141  -0.023   1.562   2.619  0.3203 -0.4655 -0.1982
 2045TIP3    H2 6142   0.002   1.437   2.701  1.5678  0.3641  0.7275
 2046TIP3   OH2 6143   0.647   5.283   2.081  0.0348  0.2934  0.2849
 2046TIP3    H1 6144   0.560   5.244   2.080  0.3257 -0.4942 -2.1386
 2046TIP3    H2 6145   0.633   5.371   2.116 -2.2909  1.1694 -2.4408
 2047TIP3   OH2 6146   2.616   2.228   1.383  0.1938  0.7376  0.0455
 2047TIP3    H1 6147   2.533   2.194   1.350  0.5500  1.3873 -1.6263
 2047TIP3    H2 6148   2.659   2.153   1.424  0.3870 -0.6046 -2.3832
 2048TIP3   OH2 6149   5.676   2.900   0.116  0.2005 -0.1859  0.1934
 2048TIP3    H1 6150   5.587   2.867   0.113 -0.3631  1.2959 -1.3548
 2048TIP3    H2 6151   5.731   2.822   0.125 -1.2020 -1.2070  0.2094
 2049TIP3   OH2 6152   3.943   3.929   5.047 -0.0178  0.3837 -0.4312
 2049TIP3    H1 6153   3.849   3.922   5.061 -0.0872  1.3408 -0.3874
 2049TIP3    H2 6154   3.970   4.006   5.097  0.7401  0.2939 -0.6811
 2050TIP3   OH2 6155   1.383   1.582   3.161 -0.0245  0.1420  0.1238
 2050TIP3    H1 6156   1.315   1.575   3.227 -0.6011  1.7843 -0.2535
 2050TIP3    H2 6157   1.462   1.605   3.210 -0.0000 -0.5706  0.4301
 2051TIP3   OH2 6158   0.469   0.995   3.672 -0.5200 -0.4942 -0.3161
 2051TIP3    H1 6159   0.526   0.981   3.749 -1.3302  0.6993  0.5339
 2051TIP3    H2 6160   0.523   1.047   3.612 -0.0849 -0.9272 -0.3095
 2052TIP3   OH2 6161   2.038   4.416   4.919 -0.5152  0.5245 -0.1348
 2052TIP3    H1 6162   2.107   4.458   4.866 -0.0665  0.0164  0.0324
 2052TIP3    H2 6163   2.017   4.336   4.870  1.2433 -0.9384  1.3535
 2053TIP3   OH2 6164   2.954   5.495   3.472 -0.0883  0.2156 -0.1320
 2053TIP3    H1 6165   2.962   5.414   3.522 -0.4687 -0.1691 -0.6761
 2053TIP3    H2 6166   2.863   5.522   3.483 -0.3715 -0.2469 -1.1453
 2054TIP3   OH2 6167   2.950   3.430   5.001  0.5325 -0.3002 -0.2672
 2054TIP3    H1 6168   2.989   3.369   4.939  1.9132 -0.4273  0.6726
 2054TIP3    H2 6169   2.970   3.392   5.087 -1.9100 -0.4875  0.2734
 2055TIP3   OH2 6170   5.745   2.092   1.655 -0.6868  0.7061  0.3735
 2055TIP3    H1 6171   5.794   2.080   1.574 -0.0791  0.3088  0.7972
 2055TIP3    H2 6172   5.811   2.090   1.724 -1.2428  0.6614  0.9128
 2056TIP3   OH2 6173   4.426   1.283   4.500  0.2648 -1.1826 -0.5607
 2056TIP3    H1 6174   4.375   1.363   4.506 -1.3802 -1.9663 -2.6947
 2056TIP3    H2 6175   4.510   1.304   4.540 -0.3385  1.3954 -0.5163
 2057TIP3   OH2 6176   2.380   4.573   2.603 -0.1064  0.6008  0.5878
 2057TIP3    H1 6177   2.307   4.620   2.644 -0.9620  0.5982 -0.8616
 2057TIP3    H2 6178   2.341   4.530   2.527  1.1178 -0.6548  0.6279
 2058TIP3   OH2 6179   1.698   1.344   2.769 -0.2684  0.2544  0.1762
 2058TIP3    H1 6180   1.778   1.387   2.737 -0.2525  0.8250  0.9533
 2058TIP3    H2 6181   1.667   1.401   2.839 -1.4998  0.1550 -0.2705
 2059TIP3   OH2 6182   2.923   0.250   3.159 -0.1350 -0.0003  0.5323
 2059TIP3    H1 6183   3.005   0.209   3.135  0.7945  0.4340  2.7376
 2059TIP3    H2 6184   2.907   0.315   3.089  1.2872 -0.2042 -0.0058
 2060TIP3   OH2 6185   2.227   2.047   2.213  0.2437  0.5454 -0.1722
 2060TIP3    H1 6186   2.263   2.134   2.201  1.5814  0.1068  0.4845
 2060TIP3    H2 6187   2.299   1.987   2.194 -0.9821 -0.5000 -1.8604
 2061TIP3   OH2 6188   1.404   2.893   0.874 -0.3880  0.0548 -0.6778
 2061TIP3    H1 6189   1.344   2.827   0.908  2.1012 -2.2984 -0.5538
 2061TIP3    H2 6190   1.402   2.963   0.940 -1.3971 -0.9013  0.3575
 2062TIP3   OH2 6191   2.455   3.364   3.849 -0.2146 -0.0867 -0.2987
 2062TIP3    H1 6192   2.540   3.399   3.824 -1.0311  1.3698 -1.2385
 2062TIP3    H2 6193   2.441   3.395   3.939  0.6189 -1.1211  0.2031
 2063TIP3   OH2 6194   3.206   4.901   1.868 -0.1332 -0.0303  0.1209
 2063TIP3    H1 6195   3.222   4.943   1.953  0.2929 -1.5957  0.8441
 2063TIP3    H2 6196   3.264   4.825   1.867 -0.1217 -0.0326 -1.5958
 2064TIP3   OH2 6197   2.577   0.731   1.606 -0.0773 -0.5956  0.2502
 2064TIP3    H1 6198   2.652   0.676   1.630 -0.3235 -0.3396  1.7026
 2064TIP3    H2 6199   2.537   0.686   1.532  1.9219 -0.3474 -1.0213
 2065TIP3   OH2 6200   6.063   2.899   0.209 -0.0753  0.0405  0.4373
 2065TIP3    H1 6201   6.017   2.867   0.131  0.5880  1.3396 -0.5393
 2065TIP3    H2 6202   6.125   2.964   0.175 -0.5275  1.4545  2.1677
 2066TIP3   OH2 6203   3.188   0.140   3.073  0.3339 -0.3104 -0.0569
 2066TIP3    H1 6204   3.140   0.059   3.056  0.6054 -0.3045 -0.9076
 2066TIP3    H2 6205   3.169   0.195   2.997 -1.8109  1.3959  1.5883
 2067TIP3   OH2 6206   0.481   0.712   0.480  0.3022  0.4380  0.0208
 2067TIP3    H1 6207   0.555   0.698   0.540 -0.1033  1.8075  0.8843
 2067TIP3    H2 6208   0.502   0.658   0.403  1.9306  0.3873  0.4664
 2068TIP3   OH2 6209   3.597   4.204   0.654 -0.2441 -0.6000  0.3002
 2068TIP3    H1 6210   3.615   4.232   0.565 -2.4668  2.5764  0.6952
 2068TIP3    H2 6211   3.526   4.141   0.645 -0.4033 -0.3561 -0.1904
 2069TIP3   OH2 6212   1.421   4.309   3.659  0.5733  0.2443 -0.0307
 2069TIP3    H1 6213   1.457   4.362   3.587 -1.3030  1.0059 -0.4792
 2069TIP3    H2 6214   1.332   4.343   3.671  0.2975 -0.9495  1.5955
 2070TIP3   OH2 6215   4.007   1.068   2.111  0.1070 -0.1254  0.3165
 2070TIP3    H1 6216   4.050   1.029   2.036 -1.9722 -0.3031 -0.8759
 2070TIP3    H2 6217   3.994   0.996   2.172 -0.8538 -0.6624 -0.4879
 2071TIP3   OH2 6218   6.070   2.652   1.851  0.0145  0.1275  0.2590
 2071TIP3    H1 6219   6.037   2.724   1.797 -0.3229  0.6436  1.1271
 2071TIP3    H2 6220   6.163   2.647   1.830 -0.0333  0.5670 -0.0906
 2072TIP3   OH2 6221   4.060   2.228   3.552 -0.1247 -0.0416  0.6228
 2072TIP3    H1 6222   4.116   2.299   3.581 -0.5173  0.6134 -0.1832
 2072TIP3    H2 6223   3.984   2.271   3.514 -1.0543 -0.9108  1.4292
 2073TIP3   OH2 6224   4.990   0.619   2.299  0.1768  0.0521 -0.9771
 2073TIP3    H1 6225   5.043   0.575   2.233  0.1329  0.1062 -1.0474
 2073TIP3    H2 6226   4.954   0.548   2.352 -1.8734 -0.1578 -2.5494
 2074TIP3   OH2 6227   0.640   2.459   3.979  0.4933  0.0976  0.5957
 2074TIP3    H1 6228   0.701   2.478   4.051 -1.1301  1.1520  1.7486
 2074TIP3    H2 6229   0.565   2.516   3.995 -0.2360 -0.1693 -1.5552
 2075TIP3   OH2 6230   6.308   2.513   3.886  0.3773 -0.1327 -0.1844
 2075TIP3    H1 6231   6.219   2.544   3.905  0.3513 -1.1325  1.5291
 2075TIP3    H2 6232   6.310   2.424   3.920  1.5962 -0.6853 -1.5991
 2076TIP3   OH2 6233   4.952   5.519   3.791  0.1332 -0.0381  0.9379
 2076TIP3    H1 6234   5.008   5.548   3.719  0.6000 -0.9538  0.9186
 2076TIP3    H2 6235   4.888   5.460   3.751 -0.1142  0.0888  1.1421
 2077TIP3   OH2 6236   1.118   3.405   4.457 -0.0560 -0.6631 -0.0389
 2077TIP3    H1 6237   1.098   3.469   4.525  0.8244 -0.4762  0.0646
 2077TIP3    H2 6238   1.166   3.455   4.390 -3.3467 -0.1548 -2.2550
 2078TIP3   OH2 6239   2.182   4.179   4.127  0.1138 -0.2834  0.4249
 2078TIP3    H1 6240   2.112   4.165   4.064  0.8079 -1.4863 -0.1036
 2078TIP3    H2 6241   2.234   4.250   4.090 -0.2537 -0.0569  0.3321
 2079TIP3   OH2 6242   4.570   1.983   1.683 -0.7747 -0.0718 -0.5812
 2079TIP3    H1 6243   4.507   1.959   1.750  0.1013 -1.4860 -0.2014
 2079TIP3    H2 6244   4.529   1.956   1.601 -1.4674  0.8363 -0.5518
 2080TIP3   OH2 6245   1.183   3.285   3.885 -0.1211  0.0729  0.1883
 2080TIP3    H1 6246   1.115   3.220   3.864  1.2085 -1.2265 -0.3262
 2080TIP3    H2 6247   1.154   3.324   3.967 -1.4355 -0.5075  0.0431
 2081TIP3   OH2 6248   2.033   4.827   4.149 -0.6750  0.5441 -0.3432
 2081TIP3    H1 6249   2.002   4.804   4.236 -0.9235  0.5670 -0.4246
 2081TIP3    H2 6250   2.051   4.743   4.107 -1.2978  0.5020 -0.5377
 2082TIP3   OH2 6251   1.733   2.849   4.617 -0.0524 -0.3481 -0.5090
 2082TIP3    H1 6252   1.750   2.893   4.700  1.5618  0.1923 -1.0826
 2082TIP3    H2 6253   1.779   2.765   4.624 -0.9901 -0.8658 -0.3866
 2083TIP3   OH2 6254   3.402   2.869   3.873  0.1427 -0.1973  0.4052
 2083TIP3    H1 6255   3.330   2.811   3.847 -0.5152  1.1863 -1.0608
 2083TIP3    H2 6256   3.426   2.840   3.961 -1.7647 -1.1343  0.6691
 2084TIP3   OH2 6257   4.381   3.105   1.177  0.1837 -0.0707  0.3649
 2084TIP3    H1 6258   4.361   3.185   1.226  1.9334  0.9055 -0.4335
 2084TIP3    H2 6259   4.443   3.059   1.233  0.4733 -0.0359  0.0762
 2085TIP3   OH2 6260   1.513   0.132   2.550 -0.3005 -0.4477 -0.1156
 2085TIP3    H1 6261   1.477   0.115   2.637  0.3873  0.4830  0.3656
 2085TIP3    H2 6262   1.484   0.057   2.498 -1.5636 -0.5219  0.6484
 2086TIP3   OH2 6263   5.446   2.693   3.801  0.0102  0.5841  0.3326
 2086TIP3    H1 6264   5.417   2.623   3.743 -1.4236  1.1387  0.3527
 2086TIP3    H2 6265   5.368   2.717   3.851  0.7382  1.4883  1.0741
 2087TIP3   OH2 6266   0.189   5.439   0.652 -0.5293  0.1472  0.2049
 2087TIP3    H1 6267   0.200   5.345   0.642 -2.1631  0.1285 -2.2166
 2087TIP3    H2 6268   0.207   5.456   0.745  0.8992 -2.3404  0.4640
 2088TIP3   OH2 6269   3.435   2.247   3.074 -0.8278 -0.2917 -0.1764
 2088TIP3    H1 6270   3.413   2.200   3.155  0.4211 -1.3731 -0.4144
 2088TIP3    H2 6271   3.494   2.187   3.028 -0.9840  0.5946 -1.5782
 2089TIP3   OH2 6272   5.566   1.924   1.813 -0.1823 -0.1513  0.3814
 2089TIP3    H1 6273   5.495   1.987   1.820 -0.7760 -0.5899 -1.3780
 2089TIP3    H2 6274   5.645   1.977   1.803 -0.3370  0.3224  1.5383
 2090TIP3   OH2 6275   2.777   0.094   4.871  0.3421 -0.4406  0.1132
 2090TIP3    H1 6276   2.827   0.020   4.904 -0.5534 -0.2897  1.9340
 2090TIP3    H2 6277   2.835   0.169   4.883  0.8791 -0.6930 -0.8237
 2091TIP3   OH2 6278   3.282   4.746   3.461 -0.9296  0.4497 -0.4119
 2091TIP3    H1 6279   3.359   4.737   3.516 -0.3605  0.6670 -1.1632
 2091TIP3    H2 6280   3.251   4.835   3.477 -1.5512  0.0648  0.5615
 2092TIP3   OH2 6281   1.352   1.059   2.946 -1.2546  0.5384  0.2461
 2092TIP3    H1 6282   1.367   0.978   2.996 -0.0815  0.8730  0.4763
 2092TIP3    H2 6283   1.303   1.115   3.006 -0.7464  0.5508  0.6668
 2093TIP3   OH2 6284   0.891   4.458   0.442  0.0178 -0.7177 -0.1587
 2093TIP3    H1 6285   0.909   4.368   0.469  0.4491 -0.5180  0.2309
 2093TIP3    H2 6286   0.935   4.467   0.357  0.8353 -0.5736  0.2696
 2094TIP3   OH2 6287   2.719   1.703   4.345  0.5760  0.3820  0.0527
 2094TIP3    H1 6288   2.813   1.723   4.342  0.7903 -0.6557 -0.6798
 2094TIP3    H2 6289   2.677   1.784   4.317  1.2989  0.5938 -0.4687
 2095TIP3   OH2 6290   2.464   3.145   4.448 -0.2034  0.3812  0.2018
 2095TIP3    H1 6291   2.450   3.051   4.435  0.8217  0.3733 -1.0253
 2095TIP3    H2 6292   2.548   3.163   4.406 -0.2766  1.8193  0.6102
 2096TIP3   OH2 6293   5.654   3.594   2.806 -0.2208 -0.3370  0.3452
 2096TIP3    H1 6294   5.694   3.680   2.824  1.0656 -0.7532 -0.3386
 2096TIP3    H2 6295   5.636   3.558   2.893 -0.0663  0.3085  0.6592
 2097TIP3   OH2 6296   4.696   4.011   2.712 -0.3189  0.3273  0.2264
 2097TIP3    H1 6297   4.762   4.079   2.695 -1.2001  1.2819  0.5131
 2097TIP3    H2 6298   4.707   3.990   2.805 -0.1727  0.2156  0.1842
 2098TIP3   OH2 6299   5.149   5.075   4.919  0.0876  0.1715 -0.1344
 2098TIP3    H1 6300   5.151   5.052   4.826  1.0938 -1.1812  0.1884
 2098TIP3    H2 6301   5.202   5.154   4.925  0.2524  0.1086 -0.6761
 2099TIP3   OH2 6302   3.898   2.731   0.297  0.0076 -0.3196  0.1056
 2099TIP3    H1 6303   3.946   2.741   0.215  0.7916 -1.4036  0.4124
 2099TIP3    H2 6304   3.966   2.722   0.364 -0.5740  2.2775  1.1542
 2100TIP3   OH2 6305   5.753   3.112   4.448  0.9387 -0.5048 -0.0860
 2100TIP3    H1 6306   5.732   3.152   4.364  1.8477 -0.1469 -0.1566
 2100TIP3    H2 6307   5.816   3.172   4.488 -2.6863  1.8320  2.8748
 2101TIP3   OH2 6308   6.292   5.244   2.147 -0.1920  0.3962  0.0309
 2101TIP3    H1 6309   6.375   5.262   2.191 -0.7513 -1.2868  1.9303
 2101TIP3    H2 6310   6.279   5.150   2.157 -0.9665  0.0921 -2.8130
 2102TIP3   OH2 6311   3.049   0.209   4.465  0.2255  0.3572  0.0944
 2102TIP3    H1 6312   3.092   0.126   4.483  0.8058  0.4589 -0.7340
 2102TIP3    H2 6313   2.970   0.185   4.417 -0.0248  0.2422  0.5586
 2103TIP3   OH2 6314   2.243   5.189   1.769  0.3270  0.3844 -0.4183
 2103TIP3    H1 6315   2.250   5.222   1.680  1.0476  0.8163 -0.2076
 2103TIP3    H2 6316   2.237   5.094   1.759 -0.2702  0.4737 -0.9548
 2104TIP3   OH2 6317   5.379   5.522   4.504 -0.6082 -0.5897  1.1084
 2104TIP3    H1 6318   5.473   5.534   4.497 -0.9620  1.8955 -3.9910
 2104TIP3    H2 6319   5.350   5.591   4.564  0.5938  1.1126 -0.1789
 2105TIP3   OH2 6320   5.507   0.755   0.833  0.0335  0.2209  0.1607
 2105TIP3    H1 6321   5.541   0.696   0.765 -2.2553 -1.4125  0.3409
 2105TIP3    H2 6322   5.430   0.796   0.794 -0.6109  0.1844  1.3366
 2106TIP3   OH2 6323   4.756   1.109   4.294  0.2218 -0.8619 -0.7469
 2106TIP3    H1 6324   4.780   1.194   4.330 -2.0035 -0.1804 -0.7304
 2106TIP3    H2 6325   4.838   1.059   4.293  1.3393  0.8575  0.3526
 2107TIP3   OH2 6326   1.387   2.524   3.045  0.1780  0.0284 -0.1734
 2107TIP3    H1 6327   1.349   2.497   3.128 -0.1719  2.5476  0.5703
 2107TIP3    H2 6328   1.319   2.576   3.003  1.5994  1.9327 -0.2789
 2108TIP3   OH2 6329   3.148   5.580   0.817  0.1211 -0.2763 -0.2749
 2108TIP3    H1 6330   3.115   5.512   0.757 -0.3582 -0.8134  0.5845
 2108TIP3    H2 6331   3.181   5.531   0.892 -0.4460  0.4531  0.4606
 2109TIP3   OH2 6332   0.501   1.525   3.062  0.1484  0.1742 -0.6553
 2109TIP3    H1 6333   0.485   1.589   3.131 -1.3544  0.9364 -1.6741
 2109TIP3    H2 6334   0.596   1.512   3.064  0.1121 -0.1865  1.8330
 2110TIP3   OH2 6335   4.706   5.466   1.407  0.3219  0.3662 -0.3098
 2110TIP3    H1 6336   4.733   5.374   1.402 -0.5180  0.0864  0.0526
 2110TIP3    H2 6337   4.737   5.495   1.493  0.4234  0.3696 -0.3472
 2111TIP3   OH2 6338   4.106   1.197   3.406 -0.4403  0.0628  0.4785
 2111TIP3    H1 6339   4.100   1.185   3.500  1.2485  0.0859  0.6302
 2111TIP3    H2 6340   4.088   1.290   3.392 -0.1492  0.1800  0.8591
 2112TIP3   OH2 6341   5.699   3.774   1.038  0.1240  0.6020 -0.0446
 2112TIP3    H1 6342   5.652   3.738   1.113 -0.0365  0.8242 -0.0366
 2112TIP3    H2 6343   5.791   3.764   1.060  0.1391 -1.5838 -0.8686
 2113TIP3   OH2 6344   1.208   3.080   2.612 -0.2751 -0.0176  0.3721
 2113TIP3    H1 6345   1.245   3.160   2.648  1.5260 -0.5459 -0.1933
 2113TIP3    H2 6346   1.140   3.109   2.551  0.8859  1.1394 -0.4177
 2114TIP3   OH2 6347   2.046   0.422   2.957  0.9933 -0.0391 -0.1968
 2114TIP3    H1 6348   2.077   0.338   2.922 -1.3773 -0.4801 -1.5192
 2114TIP3    H2 6349   2.044   0.410   3.052  2.4617 -0.7915 -0.2406
 2115TIP3   OH2 6350   2.953   5.549   0.011 -0.3700  0.4827  0.5872
 2115TIP3    H1 6351   3.002   5.555   0.093  1.6925 -2.7093 -0.2219
 2115TIP3    H2 6352   3.016   5.573  -0.056 -1.5643  1.4873 -0.2149
 2116TIP3   OH2 6353   0.929   0.389   4.696  0.0348 -0.7408  0.0753
 2116TIP3    H1 6354   0.989   0.462   4.714 -0.6180 -0.2374  0.2629
 2116TIP3    H2 6355   0.973   0.337   4.630  1.0343 -0.8095  0.7733
 2117TIP3   OH2 6356   5.390   2.805   2.779 -0.7366 -0.0911 -0.3184
 2117TIP3    H1 6357   5.418   2.743   2.713  0.4876 -1.2253  1.1874
 2117TIP3    H2 6358   5.294   2.798   2.781 -0.6664 -1.2608 -0.7978
 2118TIP3   OH2 6359   0.982   3.034   4.584 -0.2202 -0.0765  0.5725
 2118TIP3    H1 6360   1.032   3.078   4.515  1.0273 -2.0736  0.0929
 2118TIP3    H2 6361   0.903   3.003   4.540  0.6373 -1.4677 -0.0923
 2119TIP3   OH2 6362   3.330   3.477   2.062  0.1534 -0.4014  0.4319
 2119TIP3    H1 6363   3.380   3.414   2.114  0.9015 -0.2070 -0.0385
 2119TIP3    H2 6364   3.309   3.547   2.123 -0.4526 -0.9671  0.8924
 2120TIP3   OH2 6365   0.958   4.814   0.202 -0.4088 -0.2332  0.4407
 2120TIP3    H1 6366   0.949   4.796   0.296 -0.8429 -1.0103  0.2639
 2120TIP3    H2 6367   0.957   4.727   0.161  0.1729  0.0763 -0.2540
 2121TIP3   OH2 6368   3.434   2.286   4.222 -0.1094  0.2863  0.1338
 2121TIP3    H1 6369   3.361   2.303   4.281  0.9479  1.5141  1.1418
 2121TIP3    H2 6370   3.496   2.357   4.238  0.3342  0.5622 -2.3024
 2122TIP3   OH2 6371   3.961   1.741   1.271 -0.1528 -0.0194 -0.2167
 2122TIP3    H1 6372   3.915   1.736   1.188 -1.3729  1.0885  0.3553
 2122TIP3    H2 6373   3.948   1.655   1.311  0.0270 -0.3925 -0.9321
 2123TIP3   OH2 6374   1.660   2.673   0.362  0.3181 -0.2215  0.2594
 2123TIP3    H1 6375   1.660   2.622   0.281  0.5727 -0.3900  0.3634
 2123TIP3    H2 6376   1.590   2.737   0.350  1.3824  0.8214 -0.7675
 2124TIP3   OH2 6377   5.521   5.424   4.237  0.6917  0.2014  0.3979
 2124TIP3    H1 6378   5.536   5.448   4.329  1.6356 -1.2895  0.6778
 2124TIP3    H2 6379   5.609   5.419   4.199  0.3995 -0.4700 -0.2263
 2125TIP3   OH2 6380   2.424   0.047   0.199  0.4508 -0.0180  0.0050
 2125TIP3    H1 6381   2.371   0.014   0.271 -2.3250  2.0651 -0.9300
 2125TIP3    H2 6382   2.423  -0.023   0.134 -1.1272 -0.0735  0.0595
 2126TIP3   OH2 6383   5.495   4.927   2.236 -0.2159  0.1149 -0.7018
 2126TIP3    H1 6384   5.565   4.984   2.205  1.0654 -0.4771  0.9245
 2126TIP3    H2 6385   5.537   4.842   2.250 -1.0417 -0.0557  1.0692
 2127TIP3   OH2 6386   1.037   5.538   4.228 -0.4938 -0.1448  0.6414
 2127TIP3    H1 6387   0.946   5.547   4.198 -1.0844  1.0254  2.6054
 2127TIP3    H2 6388   1.087   5.526   4.147 -2.3967 -1.0852 -0.4888
 2128TIP3   OH2 6389   1.582   4.706   1.744 -0.5261  0.4845  0.0686
 2128TIP3    H1 6390   1.621   4.723   1.830 -1.0883  0.7471  0.2805
 2128TIP3    H2 6391   1.509   4.647   1.762  1.1014 -1.8852 -0.5984
 2129TIP3   OH2 6392   4.855   4.874   4.213  0.6719 -0.1830 -0.0648
 2129TIP3    H1 6393   4.836   4.902   4.123 -2.6614 -3.3664 -0.6048
 2129TIP3    H2 6394   4.845   4.954   4.265  0.5169  1.3327 -2.2631
 2130TIP3   OH2 6395   5.839   4.156   4.507 -0.0615 -0.2757  0.1713
 2130TIP3    H1 6396   5.862   4.142   4.415  0.2855  0.0101  0.2140
 2130TIP3    H2 6397   5.784   4.234   4.507  1.0583  0.5370  0.3539
 2131TIP3   OH2 6398   4.796   2.161   0.697 -0.3260  0.0611 -0.4027
 2131TIP3    H1 6399   4.823   2.140   0.607 -0.3593 -2.8251  0.1581
 2131TIP3    H2 6400   4.873   2.140   0.750 -0.6009  0.9057  0.3567
 2132TIP3   OH2 6401   6.158   3.704   2.120 -0.2280 -0.5670  0.5953
 2132TIP3    H1 6402   6.122   3.699   2.208 -0.5699  0.0628  0.4996
 2132TIP3    H2 6403   6.093   3.661   2.065 -1.4117  1.5106  0.2708
 2133TIP3   OH2 6404   1.612   2.116   3.264 -0.0961  0.1287  0.0499
 2133TIP3    H1 6405   1.681   2.130   3.328  0.3369  0.7827 -0.5399
 2133TIP3    H2 6406   1.641   2.163   3.186 -0.2376 -1.2554 -0.8907
 2134TIP3   OH2 6407   5.903   3.112   2.288 -0.0795 -0.0566 -0.1211
 2134TIP3    H1 6408   5.829   3.172   2.303  0.7355  0.4142  2.3481
 2134TIP3    H2 6409   5.954   3.115   2.368  1.7094 -1.7318 -1.1024
 2135TIP3   OH2 6410   0.267   5.598   0.895  0.2672  0.0832  0.2315
 2135TIP3    H1 6411   0.333   5.598   0.964  0.6172 -0.6065 -0.0975
 2135TIP3    H2 6412   0.254   5.690   0.875 -0.2500  0.3360  1.6018
 2136TIP3   OH2 6413   2.154   5.808   1.104 -0.1580 -0.3698 -0.4216
 2136TIP3    H1 6414   2.229   5.769   1.148 -0.1529 -0.3737 -0.4335
 2136TIP3    H2 6415   2.181   5.814   1.012 -1.3290 -3.4378 -1.0915
 2137TIP3   OH2 6416   5.248   0.352   2.513 -0.2655 -0.4881 -0.2400
 2137TIP3    H1 6417   5.195   0.274   2.499  0.8317 -1.2690 -0.1834
 2137TIP3    H2 6418   5.280   0.375   2.425 -0.6369 -0.0524 -0.2670
 2138TIP3   OH2 6419   5.509   2.343   0.754 -0.7171 -0.5235  0.2204
 2138TIP3    H1 6420   5.567   2.399   0.703 -0.6830  1.5219  2.3204
 2138TIP3    H2 6421   5.561   2.264   0.772  0.0952 -0.2470 -0.8494
 2139TIP3   OH2 6422   2.904   3.393   0.441  0.4510  0.1841 -0.1113
 2139TIP3    H1 6423   2.832   3.356   0.391 -0.8901  0.4801  1.5103
 2139TIP3    H2 6424   2.886   3.487   0.444  0.2363  0.1215  1.2651
 2140TIP3   OH2 6425   5.367   1.880   4.670 -0.3694  0.2464 -0.3354
 2140TIP3    H1 6426   5.298   1.938   4.638  0.7026  1.2817 -0.8209
 2140TIP3    H2 6427   5.444   1.935   4.678  0.3938 -0.8641  0.3126
 2141TIP3   OH2 6428   1.942   0.772   3.987  0.3967 -0.1945 -0.4133
 2141TIP3    H1 6429   2.018   0.717   3.968  2.0328  1.5960  0.6279
 2141TIP3    H2 6430   1.977   0.861   3.988 -1.8627  0.7549 -0.5118
 2142TIP3   OH2 6431   0.245   3.645   0.860  0.8417 -0.0008 -0.2709
 2142TIP3    H1 6432   0.271   3.662   0.769 -1.6838  2.6208 -0.6801
 2142TIP3    H2 6433   0.150   3.635   0.855  0.6582  0.1038  2.0750
 2143TIP3   OH2 6434   1.016   3.173   2.429 -0.3870 -0.0679 -0.5064
 2143TIP3    H1 6435   0.948   3.132   2.376 -0.8470 -0.2185  0.2000
 2143TIP3    H2 6436   1.041   3.251   2.379 -0.1050 -0.7246 -1.4343
 2144TIP3   OH2 6437   1.139   0.821   1.546  0.4735  0.0881  0.1296
 2144TIP3    H1 6438   1.189   0.811   1.464  1.8648 -1.4845  1.1064
 2144TIP3    H2 6439   1.075   0.750   1.543  0.7824 -0.2091  0.5766
 2145TIP3   OH2 6440   0.546   4.353   3.483  0.3868  0.4088  0.4273
 2145TIP3    H1 6441   0.623   4.396   3.447  1.6481 -2.4036 -0.5242
 2145TIP3    H2 6442   0.488   4.341   3.407 -0.1825  0.8702  0.7818
 2146TIP3   OH2 6443   1.497   5.812   0.844 -0.0093 -0.1605  0.1499
 2146TIP3    H1 6444   1.404   5.823   0.862 -0.4174  0.7755 -2.1986
 2146TIP3    H2 6445   1.530   5.901   0.832  0.6746 -0.5792 -1.2653
 2147TIP3   OH2 6446   6.095   0.746   1.171  0.0146  0.5428 -0.4385
 2147TIP3    H1 6447   6.007   0.766   1.140 -0.7769 -0.6431  0.9082
 2147TIP3    H2 6448   6.089   0.754   1.266  1.3366  0.3031 -0.3132
 2148TIP3   OH2 6449   1.180   5.025   0.372  0.2324 -0.3232  0.3755
 2148TIP3    H1 6450   1.167   4.982   0.288  1.1477  1.7884 -0.9376
 2148TIP3    H2 6451   1.205   4.955   0.432 -0.0909 -1.8262 -1.1862
 2149TIP3   OH2 6452   2.062   1.238   2.295  0.4319  0.3032 -0.1398
 2149TIP3    H1 6453   1.981   1.265   2.253  0.9646  0.5122 -1.0608
 2149TIP3    H2 6454   2.036   1.212   2.383 -0.6122  0.4769 -0.3855
 2150TIP3   OH2 6455   5.560   2.433   5.149  0.4312  0.2133 -0.1623
 2150TIP3    H1 6456   5.493   2.406   5.087  1.0738  0.1272 -0.8395
 2150TIP3    H2 6457   5.591   2.517   5.115 -0.7289  1.2706  1.2715
 2151TIP3   OH2 6458   3.628   5.775   0.761  0.1492 -1.1496  0.1612
 2151TIP3    H1 6459   3.535   5.754   0.756  0.4784 -2.9850  0.9509
 2151TIP3    H2 6460   3.644   5.832   0.686 -1.5314 -1.0523 -0.1619
 2152TIP3   OH2 6461   1.426   5.642   3.552  0.2655  0.7408 -0.3206
 2152TIP3    H1 6462   1.351   5.678   3.507 -1.5780 -1.6763  0.5761
 2152TIP3    H2 6463   1.402   5.551   3.571  1.8457  0.8701  3.3158
 2153TIP3   OH2 6464   4.246   5.147   2.457  0.3234  0.1909 -0.2116
 2153TIP3    H1 6465   4.235   5.087   2.383  1.4451  1.2734 -1.3150
 2153TIP3    H2 6466   4.160   5.185   2.470  0.0997 -0.0491 -0.9346
 2154TIP3   OH2 6467   0.402   4.592   4.595 -0.4585  0.0147 -0.1768
 2154TIP3    H1 6468   0.371   4.503   4.613  0.2362  0.3323  3.2541
 2154TIP3    H2 6469   0.332   4.649   4.626  0.4904  0.6406  0.8957
 2155TIP3   OH2 6470   2.579   1.814   4.879 -0.5841 -0.3240 -0.2618
 2155TIP3    H1 6471   2.492   1.850   4.896 -0.1515  1.3010 -1.2899
 2155TIP3    H2 6472   2.577   1.788   4.787  0.0099 -0.3048 -0.2837
 2156TIP3   OH2 6473   3.952   2.480   3.975  0.4771 -0.5818  0.3753
 2156TIP3    H1 6474   3.953   2.409   4.039 -0.8468 -0.8770  0.0992
 2156TIP3    H2 6475   4.042   2.512   3.973  0.7768 -1.2873  1.5750
 2157TIP3   OH2 6476   3.937   5.567   5.106 -0.2536  0.2206 -0.1769
 2157TIP3    H1 6477   3.895   5.555   5.021 -0.7983  0.5864  0.0369
 2157TIP3    H2 6478   4.029   5.544   5.090 -0.3740  0.1609 -0.8316
 2158TIP3   OH2 6479   4.777   1.771   3.179  1.0605 -0.1822  0.5092
 2158TIP3    H1 6480   4.823   1.747   3.260 -1.2243 -0.3605  1.8517
 2158TIP3    H2 6481   4.720   1.843   3.205  0.6446  0.0895 -1.0933
 2159TIP3   OH2 6482   0.436   3.130   1.070 -0.2208  0.5729 -0.7380
 2159TIP3    H1 6483   0.498   3.196   1.041  1.0631 -0.1969  0.1565
 2159TIP3    H2 6484   0.453   3.054   1.013 -2.1583  1.1590 -2.2375
 2160TIP3   OH2 6485   1.735   2.479   0.166  0.2379 -0.2162  0.0054
 2160TIP3    H1 6486   1.642   2.464   0.149  0.0486 -0.1703  0.9784
 2160TIP3    H2 6487   1.771   2.501   0.080 -0.4711 -1.1151 -0.5424
 2161TIP3   OH2 6488   4.869   4.851   2.199  0.0190  0.2634 -0.5758
 2161TIP3    H1 6489   4.793   4.910   2.199  0.1293  0.4661  1.2506
 2161TIP3    H2 6490   4.902   4.855   2.110  0.0724  3.0719 -0.5221
 2162TIP3   OH2 6491   4.111   2.729   3.839 -0.3580 -0.4160 -0.4253
 2162TIP3    H1 6492   4.032   2.753   3.888  0.6705  1.6696  0.3446
 2162TIP3    H2 6493   4.181   2.736   3.903  0.5389 -1.7252 -1.2264
 2163TIP3   OH2 6494   4.019   2.576   1.348 -0.1297 -0.1109  0.2386
 2163TIP3    H1 6495   3.946   2.547   1.402  1.4705 -1.4119  1.8379
 2163TIP3    H2 6496   3.987   2.571   1.258 -2.0983 -0.2517  0.9126
 2164TIP3   OH2 6497   6.312   3.185   4.656  0.1008 -0.1329 -0.0685
 2164TIP3    H1 6498   6.250   3.220   4.721  0.1570 -1.5233  0.7753
 2164TIP3    H2 6499   6.385   3.245   4.658  0.5308 -0.6327  1.9027
 2165TIP3   OH2 6500   2.645   2.486   4.738  0.0152  0.2918  0.0890
 2165TIP3    H1 6501   2.552   2.483   4.763 -0.7556  0.2591 -2.5110
 2165TIP3    H2 6502   2.671   2.577   4.753  0.0226  0.0098  2.1240
 2166TIP3   OH2 6503   5.978   3.998   4.669  0.4626 -0.8082  0.2109
 2166TIP3    H1 6504   5.934   4.067   4.620  0.8877  0.3503  1.3998
 2166TIP3    H2 6505   6.069   4.003   4.640  0.5898 -0.5340  0.6479
 2167TIP3   OH2 6506   2.278   5.808   4.614  0.2648  0.0730 -0.2322
 2167TIP3    H1 6507   2.227   5.815   4.534 -0.3798 -1.2913  0.0320
 2167TIP3    H2 6508   2.339   5.736   4.599  0.4810  0.1310  0.3143
 2168TIP3   OH2 6509   3.469   2.057   2.499  0.5329 -0.1300  0.1874
 2168TIP3    H1 6510   3.490   2.101   2.581  1.8532  0.1411 -0.2667
 2168TIP3    H2 6511   3.533   2.092   2.437 -0.4921 -0.2703 -0.9766
 2169TIP3   OH2 6512   5.021   5.873   3.304 -0.5082 -0.0641  0.1312
 2169TIP3    H1 6513   5.113   5.873   3.275 -0.3262  0.5181  0.7065
 2169TIP3    H2 6514   4.981   5.801   3.254  0.1256  0.0326 -0.5383
 2170TIP3   OH2 6515   5.485   2.807   4.084  0.1271 -0.3018 -0.3796
 2170TIP3    H1 6516   5.484   2.751   4.006 -0.1116 -0.6949 -0.0957
 2170TIP3    H2 6517   5.526   2.889   4.054  0.3049 -0.5566 -0.8439
 2171TIP3   OH2 6518   6.342   2.733   3.529 -0.7751 -0.1982 -0.1544
 2171TIP3    H1 6519   6.380   2.800   3.586  0.0758 -2.3279  1.9257
 2171TIP3    H2 6520   6.269   2.697   3.580  0.8954 -3.1555  0.4034
 2172TIP3   OH2 6521   1.427   3.275   4.016 -0.4656  0.5363 -0.9662
 2172TIP3    H1 6522   1.391   3.203   4.068  0.7629  2.5889  3.1755
 2172TIP3    H2 6523   1.359   3.295   3.952 -1.0392 -3.8856 -2.0829
 2173TIP3   OH2 6524   2.069   0.900   1.403 -0.0773 -0.0031 -0.5055
 2173TIP3    H1 6525   2.054   0.994   1.388 -0.2507  0.0815  0.1699
 2173TIP3    H2 6526   2.148   0.897   1.457  0.0804 -0.2628 -0.7490
 2174TIP3   OH2 6527   3.265   5.540   4.489  0.1066  0.3596 -0.2662
 2174TIP3    H1 6528   3.341   5.598   4.486  0.5263 -0.1515  0.3221
 2174TIP3    H2 6529   3.297   5.461   4.532 -1.3314  0.9957  2.1719
 2175TIP3   OH2 6530   4.254   1.590   3.132 -0.8835 -0.3377  0.3620
 2175TIP3    H1 6531   4.233   1.546   3.049 -1.8663 -0.1389  0.4933
 2175TIP3    H2 6532   4.233   1.682   3.116 -0.3928 -0.1800  0.6111
 2176TIP3   OH2 6533   5.531   1.753   1.329 -0.2362 -0.2998  0.4360
 2176TIP3    H1 6534   5.529   1.683   1.264  0.2467 -1.1651  1.3196
 2176TIP3    H2 6535   5.614   1.739   1.376 -0.3500  0.5958  0.9272
 2177TIP3   OH2 6536   5.393   3.264   3.989  0.3995  0.1651 -0.2925
 2177TIP3    H1 6537   5.445   3.344   3.990 -1.3275  1.3532  1.3925
 2177TIP3    H2 6538   5.337   3.272   3.912 -0.4173  1.0815  0.3659
 2178TIP3   OH2 6539   1.203   4.895   0.107 -0.3183  0.0879 -0.4224
 2178TIP3    H1 6540   1.181   4.975   0.060  0.1166  0.6476  0.2965
 2178TIP3    H2 6541   1.118   4.860   0.135 -0.5716 -0.2213 -1.5506
 2179TIP3   OH2 6542   1.875   4.143   1.769 -0.4615  0.3726 -0.4097
 2179TIP3    H1 6543   1.903   4.064   1.815  2.1458  1.4651  0.0547
 2179TIP3    H2 6544   1.930   4.147   1.691 -1.4973  1.0672 -1.1441
 2180TIP3   OH2 6545   4.406   1.583   1.692 -0.5336  0.0535 -0.4546
 2180TIP3    H1 6546   4.427   1.545   1.777  0.4248  0.5425 -0.4627
 2180TIP3    H2 6547   4.491   1.598   1.650 -0.9658  0.5080 -1.1964
 2181TIP3   OH2 6548   5.306   3.369   2.355 -0.0473  0.1308 -0.0298
 2181TIP3    H1 6549   5.225   3.357   2.305  0.0924 -1.8394  0.1494
 2181TIP3    H2 6550   5.366   3.410   2.294 -0.4507 -0.5514 -0.9008
 2182TIP3   OH2 6551   0.206   3.472   1.520  0.1586  0.2861 -0.1370
 2182TIP3    H1 6552   0.283   3.517   1.556  0.1105 -0.5710  1.1374
 2182TIP3    H2 6553   0.214   3.382   1.552 -0.6971 -0.1511 -1.0903
 2183TIP3   OH2 6554   1.444   4.378   3.064 -0.2843  0.1975  0.6997
 2183TIP3    H1 6555   1.493   4.311   3.016  0.3507  0.8164  0.4624
 2183TIP3    H2 6556   1.431   4.448   3.001  1.0719  1.2722  1.5524
 2184TIP3   OH2 6557   5.504   1.404   3.587  0.1500 -0.3754 -0.0985
 2184TIP3    H1 6558   5.459   1.355   3.518 -0.0944 -0.9746  0.4806
 2184TIP3    H2 6559   5.581   1.442   3.543 -1.1966  1.1594 -1.2424
 2185TIP3   OH2 6560   3.246   0.839   4.667  0.0663 -0.0806  0.0933
 2185TIP3    H1 6561   3.209   0.923   4.640  1.5001  0.9115  1.0655
 2185TIP3    H2 6562   3.202   0.818   4.749 -2.4519 -1.8384 -1.5569
 2186TIP3   OH2 6563   6.253   3.011   3.123 -0.0354 -0.9922 -0.0936
 2186TIP3    H1 6564   6.287   2.938   3.175  0.1788  0.4207  1.8681
 2186TIP3    H2 6565   6.326   3.072   3.117 -1.0613  0.3728  0.8634
 2187TIP3   OH2 6566   3.877   0.497   1.711 -0.0393  0.2442 -0.1960
 2187TIP3    H1 6567   3.887   0.548   1.791 -2.4710 -0.4178  0.6204
 2187TIP3    H2 6568   3.909   0.555   1.641  0.7414  1.4033  1.0725
 2188TIP3   OH2 6569   1.448   2.069   0.843 -0.5841 -0.4098 -0.2226
 2188TIP3    H1 6570   1.454   2.094   0.751  0.2368 -1.3879 -0.4467
 2188TIP3    H2 6571   1.480   2.145   0.891  0.9688 -0.6376 -0.8489
 2189TIP3   OH2 6572   2.793   3.181   5.014  0.7266 -0.0141  0.0940
 2189TIP3    H1 6573   2.842   3.258   5.043  0.9135 -0.4646  1.0071
 2189TIP3    H2 6574   2.838   3.107   5.055  0.4997 -0.6063 -0.7076
 2190TIP3   OH2 6575   4.905   2.654   2.049  0.4507  0.1809  0.0200
 2190TIP3    H1 6576   4.958   2.673   1.971  0.3531 -0.6501 -0.2592
 2190TIP3    H2 6577   4.864   2.737   2.070  0.9510  0.5609 -0.4596
 2191TIP3   OH2 6578   4.207   4.656   0.055  0.0676 -0.1253  1.0782
 2191TIP3    H1 6579   4.181   4.574   0.098  0.2553 -0.6956  0.1263
 2191TIP3    H2 6580   4.132   4.678  -0.001 -0.5644  1.0988  2.3057
 2192TIP3   OH2 6581   5.693   4.681   1.148  0.3327 -0.1034  0.0718
 2192TIP3    H1 6582   5.704   4.600   1.198  1.1570  0.2367  0.4561
 2192TIP3    H2 6583   5.704   4.655   1.057  0.6467 -0.4193  0.1967
 2193TIP3   OH2 6584   1.619   1.843   3.636 -0.5028  0.2716 -0.4815
 2193TIP3    H1 6585   1.582   1.768   3.591  0.2336  0.6339 -1.7432
 2193TIP3    H2 6586   1.694   1.869   3.582 -1.3571  2.5540 -0.7063
 2194TIP3   OH2 6587   1.668   4.284   4.698  0.0651 -0.5394  0.5848
 2194TIP3    H1 6588   1.641   4.370   4.729  3.2006  0.8001  0.0386
 2194TIP3    H2 6589   1.694   4.236   4.777  0.8265  0.0321  0.6898
 2195TIP3   OH2 6590   2.692   5.709   0.307 -0.5186  0.3646 -0.0635
 2195TIP3    H1 6591   2.608   5.670   0.333 -0.0609 -1.1284 -0.7451
 2195TIP3    H2 6592   2.693   5.702   0.212 -0.3017  1.8742 -0.2063
 2196TIP3   OH2 6593   6.289   4.090   4.425 -0.0262 -0.0576 -0.0822
 2196TIP3    H1 6594   6.268   4.100   4.518  1.3716 -2.0095  0.5050
 2196TIP3    H2 6595   6.255   4.170   4.384  1.5531  2.0782  2.4784
 2197TIP3   OH2 6596   1.111   0.434   2.697 -0.0941  0.2924 -0.4138
 2197TIP3    H1 6597   1.108   0.465   2.788 -1.8365 -1.0594  0.0440
 2197TIP3    H2 6598   1.180   0.486   2.657  1.4521  0.2366  1.9414
 2198TIP3   OH2 6599   4.077   3.093   2.362  0.1801 -0.1012  0.0437
 2198TIP3    H1 6600   4.075   3.137   2.447  0.1413 -0.8688  0.4473
 2198TIP3    H2 6601   4.098   3.163   2.299 -1.5142  0.8215  0.4487
 2199TIP3   OH2 6602   2.006   1.887   2.109 -0.6291 -0.1685  0.3490
 2199TIP3    H1 6603   2.031   1.823   2.042 -1.3444  0.0929 -0.1739
 2199TIP3    H2 6604   2.022   1.972   2.068 -1.1867 -0.0069  0.4668
 2200TIP3   OH2 6605   3.701   0.112   5.163 -0.5516 -0.2491 -0.2890
 2200TIP3    H1 6606   3.630   0.064   5.205  0.1716  0.0184  1.3299
 2200TIP3    H2 6607   3.772   0.049   5.155  0.0372  0.2464  0.8660
 2201TIP3   OH2 6608   2.810   1.929   2.405  0.2919 -0.2568  0.1482
 2201TIP3    H1 6609   2.799   1.912   2.498 -0.3087  1.2957  0.3811
 2201TIP3    H2 6610   2.867   2.006   2.401 -0.9664  0.6822 -0.6935
 2202TIP3   OH2 6611   0.366   1.412   1.414 -0.0043  0.1441  0.3036
 2202TIP3    H1 6612   0.289   1.459   1.446  0.6048  0.7721  0.8766
 2202TIP3    H2 6613   0.346   1.394   1.322 -0.8892  0.1758  0.4802
 2203TIP3   OH2 6614   0.025   0.447   3.302 -0.1414 -0.2588  0.4540
 2203TIP3    H1 6615   0.022   0.454   3.206  0.8437 -1.0942  0.3394
 2203TIP3    H2 6616   0.118   0.459   3.323  0.1841 -3.0881  1.0085
 2204TIP3   OH2 6617   2.939   4.982   0.960  0.2348  0.3656 -0.1247
 2204TIP3    H1 6618   2.903   4.899   0.991  3.5742 -0.8650  0.9246
 2204TIP3    H2 6619   2.901   5.047   1.019 -1.7445 -0.4911 -0.3778
 2205TIP3   OH2 6620   1.616   3.743   0.831 -0.3699 -0.2727 -0.3774
 2205TIP3    H1 6621   1.548   3.791   0.878 -0.6664 -2.2791  1.3572
 2205TIP3    H2 6622   1.570   3.702   0.758 -0.4682  0.4769 -0.7543
 2206TIP3   OH2 6623   0.940   5.005  -0.001 -0.0807 -0.5481 -0.3773
 2206TIP3    H1 6624   0.927   4.945   0.072  1.0029 -1.3304 -0.7904
 2206TIP3    H2 6625   0.862   4.995  -0.056 -0.6492 -0.3550  0.3916
 2207TIP3   OH2 6626   1.980   5.953   3.015  0.3458 -0.5198 -0.4634
 2207TIP3    H1 6627   1.957   6.001   2.936 -1.7469  0.4372  0.6411
 2207TIP3    H2 6628   2.013   5.869   2.984 -2.1382 -0.8864 -2.3355
 2208TIP3   OH2 6629   1.522   1.692   1.077  0.1136  0.3947 -0.0025
 2208TIP3    H1 6630   1.534   1.785   1.062  0.7749 -0.1494 -4.2482
 2208TIP3    H2 6631   1.438   1.685   1.122 -0.3171  2.9882 -0.2569
 2209TIP3   OH2 6632   3.083   3.926   4.382 -0.0305 -0.1292  0.2403
 2209TIP3    H1 6633   3.124   3.841   4.371 -1.2958 -0.7239 -0.0455
 2209TIP3    H2 6634   3.156   3.988   4.388  0.8998 -1.2275  0.4996
 2210TIP3   OH2 6635   5.381   1.896   1.499  0.1722  0.0569  0.2206
 2210TIP3    H1 6636   5.427   1.856   1.573  1.1692 -0.5420 -0.6764
 2210TIP3    H2 6637   5.430   1.866   1.422  0.1059  1.9108 -0.5931
 2211TIP3   OH2 6638   3.110   1.241   1.319  0.3812 -0.3459 -0.7110
 2211TIP3    H1 6639   3.044   1.273   1.381  1.3757  0.2841  0.0561
 2211TIP3    H2 6640   3.087   1.149   1.305  0.3049 -0.5944  0.8443
 2212TIP3   OH2 6641   4.990   1.298   0.428  0.2163 -0.0268  0.2320
 2212TIP3    H1 6642   5.007   1.232   0.494 -3.1043 -0.8819  0.3863
 2212TIP3    H2 6643   4.962   1.248   0.351  0.2455  1.1034 -0.5326
 2213TIP3   OH2 6644   0.709   3.002   0.353 -0.4930 -0.7543 -0.0319
 2213TIP3    H1 6645   0.647   2.996   0.426  0.6190  1.7773  1.2678
 2213TIP3    H2 6646   0.784   3.049   0.390 -0.4673  1.9883 -3.1736
 2214TIP3   OH2 6647   1.434   3.559   3.466  0.1341 -0.1306 -0.1705
 2214TIP3    H1 6648   1.390   3.523   3.543 -1.4513 -1.0064 -1.4067
 2214TIP3    H2 6649   1.448   3.483   3.410  2.0046  0.3641 -0.4305
 2215TIP3   OH2 6650   2.212   4.372   0.803  0.3408 -0.1078 -0.1180
 2215TIP3    H1 6651   2.200   4.279   0.818 -1.6025 -0.4616 -3.0614
 2215TIP3    H2 6652   2.254   4.378   0.718 -0.1063  1.7084 -0.2680
 2216TIP3   OH2 6653   3.500   2.841   4.769 -0.4921 -0.1401 -0.2217
 2216TIP3    H1 6654   3.421   2.825   4.820 -0.1838  0.2302  0.3794
 2216TIP3    H2 6655   3.506   2.936   4.763  0.2526 -0.1403  0.2978
 2217TIP3   OH2 6656   1.070   2.949   1.893 -0.3915  0.2263  0.5990
 2217TIP3    H1 6657   1.133   2.995   1.837 -1.9881 -0.2570 -1.7277
 2217TIP3    H2 6658   1.124   2.888   1.944  1.2759  1.6916  0.6926
 2218TIP3   OH2 6659   0.945   0.465   2.017  0.4728  0.2260  0.4624
 2218TIP3    H1 6660   0.919   0.375   2.037  2.2016 -0.4541 -0.1081
 2218TIP3    H2 6661   0.878   0.496   1.955 -0.3999 -0.4866  1.0240
 2219TIP3   OH2 6662   0.716   1.362   2.240 -0.1869  0.3338  0.5725
 2219TIP3    H1 6663   0.637   1.393   2.285 -0.8721  0.5346 -0.7019
 2219TIP3    H2 6664   0.748   1.438   2.192 -0.6734 -0.3535 -0.9037
 2220TIP3   OH2 6665   1.058   0.897   1.073  0.5202 -0.1437 -0.0710
 2220TIP3    H1 6666   1.102   0.852   1.000 -2.2836  0.3538 -2.1927
 2220TIP3    H2 6667   0.973   0.854   1.080 -0.0202  1.1015  1.6983
 2221TIP3   OH2 6668   0.517   1.720   4.850  0.2098  0.1603 -0.1471
 2221TIP3    H1 6669   0.495   1.638   4.894 -0.2445  0.2784 -0.1560
 2221TIP3    H2 6670   0.515   1.786   4.920  0.9998  0.1012 -0.0537
 2222TIP3   OH2 6671   5.751   2.323   2.611  0.0633 -0.1131 -0.3523
 2222TIP3    H1 6672   5.838   2.300   2.580  0.1496  0.9471 -0.9161
 2222TIP3    H2 6673   5.692   2.262   2.566  0.3652  0.2031 -1.1912
 2223TIP3   OH2 6674   5.800   1.554   5.118 -0.3680 -0.2672  0.0236
 2223TIP3    H1 6675   5.823   1.480   5.062 -2.8897 -1.3773  0.3258
 2223TIP3    H2 6676   5.872   1.560   5.181  1.0207 -0.9125 -1.4444
 2224TIP3   OH2 6677   5.755   2.893   4.811  0.0589  0.0991 -0.0595
 2224TIP3    H1 6678   5.769   2.946   4.890 -2.4904 -0.6357  1.0253
 2224TIP3    H2 6679   5.693   2.944   4.759  1.5183  0.4503 -1.5183
 2225TIP3   OH2 6680   2.931   0.600   4.722 -0.0056 -0.1331  0.5141
 2225TIP3    H1 6681   2.882   0.545   4.784 -0.6323 -1.1919 -0.8810
 2225TIP3    H2 6682   2.976   0.538   4.665 -0.2552  0.8182 -0.7426
 2226TIP3   OH2 6683   2.198   2.488   5.078 -0.0476 -0.0063 -0.6558
 2226TIP3    H1 6684   2.253   2.461   5.152 -1.0464 -0.9086 -0.2231
 2226TIP3    H2 6685   2.192   2.583   5.086 -1.7618 -0.2390  1.6207
 2227TIP3   OH2 6686   3.452   2.182   1.870 -0.4711 -0.0848 -0.1498
 2227TIP3    H1 6687   3.388   2.132   1.920 -2.0935  0.0483 -1.9728
 2227TIP3    H2 6688   3.520   2.119   1.847 -1.3209 -0.9061 -0.4508
 2228TIP3   OH2 6689   3.595   5.413   0.571 -0.2041 -0.6604 -0.7176
 2228TIP3    H1 6690   3.643   5.488   0.536 -2.1200  0.6760 -0.6633
 2228TIP3    H2 6691   3.648   5.384   0.645  1.1213 -0.0483 -1.3859
 2229TIP3   OH2 6692   0.306   1.313   3.142  0.0331 -0.0603 -0.4061
 2229TIP3    H1 6693   0.278   1.307   3.233 -1.2898 -2.6859 -0.9057
 2229TIP3    H2 6694   0.360   1.392   3.139 -1.6324  1.3052  2.1558
 2230TIP3   OH2 6695   2.914   2.953   5.085 -0.0216 -0.1089 -0.6815
 2230TIP3    H1 6696   2.970   2.934   5.160 -0.7458  0.5499  0.0439
 2230TIP3    H2 6697   2.893   2.867   5.049  0.3324 -0.4342 -0.1302
 2231TIP3   OH2 6698   5.639   0.055   2.963  0.0035 -0.0933 -0.3166
 2231TIP3    H1 6699   5.606   0.109   3.035  1.8161 -1.8546  2.0064
 2231TIP3    H2 6700   5.671   0.118   2.898 -1.6060  1.5599  0.4069
 2232TIP3   OH2 6701   3.582   3.634   2.932  0.3625 -0.5664  0.2355
 2232TIP3    H1 6702   3.560   3.694   3.004 -0.0051 -1.3026  0.7415
 2232TIP3    H2 6703   3.506   3.638   2.874  1.1157  0.8817 -0.7161
 2233TIP3   OH2 6704   3.991   2.477   4.697 -0.2844 -0.2482  0.1836
 2233TIP3    H1 6705   4.024   2.558   4.734  0.1227  0.1926 -1.0994
 2233TIP3    H2 6706   3.991   2.492   4.602 -1.8572 -1.1108  0.0145
 2234TIP3   OH2 6707   1.491   1.553   0.215 -0.1916  0.4018 -0.4013
 2234TIP3    H1 6708   1.440   1.629   0.242 -0.6065 -0.1454  0.3798
 2234TIP3    H2 6709   1.482   1.551   0.120  0.8475  2.0474 -0.5771
 2235TIP3   OH2 6710   2.131   5.269   2.009  0.2572  0.4038  0.3029
 2235TIP3    H1 6711   2.065   5.336   1.993  1.1379  1.0641 -0.7235
 2235TIP3    H2 6712   2.167   5.251   1.922  1.3077 -0.0620  0.8233
 2236TIP3   OH2 6713   5.357   2.512   2.946 -0.0699  0.5291  0.6222
 2236TIP3    H1 6714   5.388   2.497   2.857 -0.2373 -0.4444  0.7182
 2236TIP3    H2 6715   5.426   2.563   2.988 -1.2147  3.5958 -0.8768
 2237TIP3   OH2 6716   5.392   2.463   0.097  0.2940  0.4546  0.1089
 2237TIP3    H1 6717   5.338   2.479   0.175  0.9317 -1.9135  1.1224
 2237TIP3    H2 6718   5.458   2.400   0.126  2.9224  2.2832 -1.4056
 2238TIP3   OH2 6719   3.156   2.438   3.581 -0.1304  0.2647  0.2803
 2238TIP3    H1 6720   3.158   2.498   3.655 -1.9548  1.8951 -0.8940
 2238TIP3    H2 6721   3.070   2.397   3.585  0.3492 -0.8324 -0.0699
 2239TIP3   OH2 6722   5.347   0.387   3.318  0.9432 -0.0251 -0.1451
 2239TIP3    H1 6723   5.314   0.410   3.405 -1.6599 -3.4782 -0.0211
 2239TIP3    H2 6724   5.379   0.297   3.326 -0.8618 -1.0757 -2.9943
 2240TIP3   OH2 6725   1.811   0.787   4.233  0.2271  0.2486  0.5997
 2240TIP3    H1 6726   1.815   0.839   4.314 -0.0943  0.1285  0.6945
 2240TIP3    H2 6727   1.897   0.799   4.193  0.6694 -0.3212  1.3475
 2241TIP3   OH2 6728   3.599   5.483   1.836  0.2944  0.2920 -0.7387
 2241TIP3    H1 6729   3.556   5.483   1.751 -0.5117 -0.1926 -0.3533
 2241TIP3    H2 6730   3.556   5.411   1.884  0.9160  0.3834 -0.0212
 2242TIP3   OH2 6731   5.054   0.180   0.447  0.4435  0.4365  0.2563
 2242TIP3    H1 6732   5.146   0.165   0.470  0.3528 -0.6943 -0.0798
 2242TIP3    H2 6733   5.019   0.093   0.428 -0.7124  0.8478  0.4073
 2243TIP3   OH2 6734   0.965   0.486   3.315  0.1108 -0.2549 -0.5496
 2243TIP3    H1 6735   0.942   0.470   3.407  1.6450 -0.6739 -0.1985
 2243TIP3    H2 6736   0.917   0.565   3.291  0.4895  0.4715  0.9612
 2244TIP3   OH2 6737   0.310   4.969   0.305 -0.0772 -0.1187  0.1702
 2244TIP3    H1 6738   0.400   4.987   0.333  0.5423 -1.4635 -0.8684
 2244TIP3    H2 6739   0.319   4.914   0.227 -1.8001 -0.7918  0.3993
 2245TIP3   OH2 6740   1.416   2.368   4.219  0.5005 -0.0179 -0.7423
 2245TIP3    H1 6741   1.483   2.302   4.239  0.1064 -0.0311  0.6294
 2245TIP3    H2 6742   1.362   2.371   4.297 -1.9028 -0.9047 -2.2511
 2246TIP3   OH2 6743   2.783   5.829   4.171  0.0309  0.1178 -0.1684
 2246TIP3    H1 6744   2.741   5.912   4.190 -0.5204 -0.0637 -0.5733
 2246TIP3    H2 6745   2.867   5.833   4.217  0.3049  1.1703 -0.7488
 2247TIP3   OH2 6746   0.032   3.890   3.885 -0.1398 -0.0944  0.3101
 2247TIP3    H1 6747   0.052   3.798   3.905  2.3034  0.6334  1.6111
 2247TIP3    H2 6748  -0.054   3.904   3.924  0.6406 -1.1541  2.6542
 2248TIP3   OH2 6749   0.650   2.826   4.067 -0.2700  0.6016 -0.4671
 2248TIP3    H1 6750   0.646   2.915   4.031  1.3993  0.0019 -2.3243
 2248TIP3    H2 6751   0.567   2.786   4.041  0.0354  0.8498 -1.9291
 2249TIP3   OH2 6752   4.428   0.524   2.593  1.1983  0.0982 -0.7292
 2249TIP3    H1 6753   4.381   0.455   2.640  0.2992  0.8127 -0.5495
 2249TIP3    H2 6754   4.407   0.509   2.501  0.5417  0.4573 -0.6433
 2250TIP3   OH2 6755   1.329   4.228   3.940  0.6664  0.4908 -0.4899
 2250TIP3    H1 6756   1.312   4.322   3.926 -0.8247  0.1390 -1.2950
 2250TIP3    H2 6757   1.276   4.185   3.873 -1.0922 -1.0702  1.7798
 2251TIP3   OH2 6758   5.034   0.692   2.559  0.3901  0.5257  0.1848
 2251TIP3    H1 6759   5.037   0.682   2.464 -0.4155 -0.9159  0.2884
 2251TIP3    H2 6760   4.958   0.748   2.575 -0.6614 -0.8207  0.0593
 2252TIP3   OH2 6761   0.988   4.839   3.482 -0.2392 -0.2079  0.2755
 2252TIP3    H1 6762   0.954   4.816   3.396  0.7372  0.6716 -0.3792
 2252TIP3    H2 6763   1.046   4.766   3.505  1.7104  0.8160 -1.1294
 2253TIP3   OH2 6764   0.080   1.740   0.729  0.0282 -0.2558 -0.2894
 2253TIP3    H1 6765   0.050   1.821   0.770  2.6781  1.2754 -1.0849
 2253TIP3    H2 6766   0.048   1.746   0.639 -0.0038 -0.2205 -0.2755
 2254TIP3   OH2 6767   0.413   4.898   4.269  0.4343  0.5900  0.5753
 2254TIP3    H1 6768   0.336   4.897   4.327 -0.1057 -0.7536 -0.1301
 2254TIP3    H2 6769   0.431   4.806   4.252  3.0096  0.7970  1.7294
 2255TIP3   OH2 6770   2.785   1.403   3.396  0.2476 -0.0314  0.1627
 2255TIP3    H1 6771   2.814   1.344   3.327  0.5591 -0.5018  0.6906
 2255TIP3    H2 6772   2.861   1.412   3.454 -0.8520 -1.9362  2.0235
 2256TIP3   OH2 6773   1.377   5.935   3.121  0.1388 -0.1991 -0.3959
 2256TIP3    H1 6774   1.417   5.967   3.040  2.2088 -1.5160  0.0216
 2256TIP3    H2 6775   1.370   5.840   3.108 -0.9128 -0.2483  0.4160
 2257TIP3   OH2 6776   6.280   3.056   0.080 -0.7299 -0.2294 -0.0240
 2257TIP3    H1 6777   6.256   3.147   0.100  0.7495  0.1656  0.1026
 2257TIP3    H2 6778   6.376   3.058   0.071 -0.7339 -1.6470 -0.7204
 2258TIP3   OH2 6779   2.005   3.048   0.931  0.6246 -0.4467  0.2644
 2258TIP3    H1 6780   1.949   3.025   0.857 -1.5601  1.7328  1.1186
 2258TIP3    H2 6781   2.085   3.083   0.891 -0.4617  0.5693 -1.0859
 2259TIP3   OH2 6782   4.251   5.782   3.068  0.1542  0.7453 -0.1204
 2259TIP3    H1 6783   4.190   5.785   3.142 -0.0625  0.4444 -0.2856
 2259TIP3    H2 6784   4.204   5.733   3.001  0.6643  0.3275 -0.1708
 2260TIP3   OH2 6785   4.426   4.068   4.168  0.5244 -0.1155  0.0557
 2260TIP3    H1 6786   4.364   3.998   4.186 -1.3801  1.4128 -0.2387
 2260TIP3    H2 6787   4.505   4.023   4.140 -0.3950 -2.1485  0.5256
 2261TIP3   OH2 6788   0.406   1.892   4.050 -0.3856 -0.0028  0.4040
 2261TIP3    H1 6789   0.427   1.971   4.000  0.4817 -1.5865 -1.9062
 2261TIP3    H2 6790   0.321   1.864   4.015 -0.4185 -0.3988  0.7948
 2262TIP3   OH2 6791   4.788   1.067   0.904  0.0078  0.8022 -0.1867
 2262TIP3    H1 6792   4.761   1.053   0.813  0.4598  0.3645 -0.2523
 2262TIP3    H2 6793   4.709   1.102   0.947 -0.1614  1.1514 -0.7765
 2263TIP3   OH2 6794   1.987   4.035   3.974  0.3546 -0.1402  0.0810
 2263TIP3    H1 6795   1.995   4.075   3.887 -1.4500 -0.2746 -0.1948
 2263TIP3    H2 6796   1.893   4.016   3.982  0.6813 -1.2645  1.5596
 2264TIP3   OH2 6797   3.325   4.061   4.411  0.0348 -0.0850  0.2878
 2264TIP3    H1 6798   3.380   3.991   4.375  0.6000 -0.4293  1.7514
 2264TIP3    H2 6799   3.383   4.137   4.416  0.0181 -0.0887  0.6016
 2265TIP3   OH2 6800   3.938   1.011   4.929  0.3114 -0.4616 -0.1187
 2265TIP3    H1 6801   3.975   0.982   5.012  0.6706 -0.9075 -0.4296
 2265TIP3    H2 6802   4.009   1.003   4.866  0.4912  1.3188 -0.1908
 2266TIP3   OH2 6803   3.584   3.209   1.605  0.4335 -0.0022  0.2600
 2266TIP3    H1 6804   3.662   3.264   1.611  0.6875 -0.4018  0.7519
 2266TIP3    H2 6805   3.547   3.228   1.519  0.7365  0.6399  0.2673
 2267TIP3   OH2 6806   1.479   0.363   3.100 -0.1385  0.4777  0.0909
 2267TIP3    H1 6807   1.557   0.356   3.154  0.2883  0.5353 -0.5068
 2267TIP3    H2 6808   1.415   0.305   3.141 -0.5618  2.0956  1.8908
 2268TIP3   OH2 6809   3.965   3.195   2.047  0.3889 -0.2910  0.0916
 2268TIP3    H1 6810   3.965   3.103   2.021 -0.7619 -0.2272 -0.1678
 2268TIP3    H2 6811   4.058   3.218   2.052  0.7263 -0.7083 -2.6423
 2269TIP3   OH2 6812   5.631   5.672   4.796  0.0623 -0.3992  0.2506
 2269TIP3    H1 6813   5.604   5.585   4.826 -1.3693 -0.0610  0.0355
 2269TIP3    H2 6814   5.567   5.694   4.727 -0.6567  1.5024  1.4376
 2270TIP3   OH2 6815   4.299   2.106   1.407 -0.2642  0.1471 -0.5076
 2270TIP3    H1 6816   4.247   2.163   1.350  1.5870  0.1880 -2.2422
 2270TIP3    H2 6817   4.389   2.135   1.395  0.4151 -1.2433  0.8546
 2271TIP3   OH2 6818   6.094   1.768   3.920  0.1170  0.4501 -0.1662
 2271TIP3    H1 6819   6.001   1.768   3.946 -0.2186 -0.4469 -1.2532
 2271TIP3    H2 6820   6.138   1.718   3.989 -0.0993  1.3225  0.6331
 2272TIP3   OH2 6821   5.794   2.358   2.871  0.2833 -0.2244 -0.0385
 2272TIP3    H1 6822   5.762   2.378   2.783 -0.8342  0.7065  0.5549
 2272TIP3    H2 6823   5.731   2.295   2.906  0.5655 -0.3775  0.1994
 2273TIP3   OH2 6824   2.854   1.951   3.716  0.0083 -0.0127  0.1159
 2273TIP3    H1 6825   2.787   2.006   3.675 -1.0132 -0.3259  1.2776
 2273TIP3    H2 6826   2.924   2.011   3.739  0.4832  0.2098 -1.7807
 2274TIP3   OH2 6827   0.526   3.234   0.303  0.4449 -0.3361 -0.6573
 2274TIP3    H1 6828   0.583   3.213   0.376 -0.2125 -2.5195 -0.6948
 2274TIP3    H2 6829   0.566   3.190   0.228 -0.2360 -0.2374 -1.0864
 2275TIP3   OH2 6830   4.341   5.009   2.174 -0.4409  0.4612  0.1444
 2275TIP3    H1 6831   4.359   5.014   2.080  0.2629 -1.6687  0.0964
 2275TIP3    H2 6832   4.246   5.002   2.180 -0.6742  2.5801 -0.2274
 2276TIP3   OH2 6833   1.554   0.295   4.520  0.0168 -0.4916  0.2900
 2276TIP3    H1 6834   1.646   0.271   4.515  0.4879  1.4150 -1.5275
 2276TIP3    H2 6835   1.548   0.355   4.594  0.1062 -1.0439  0.7519
 2277TIP3   OH2 6836   0.289  -0.014   3.530 -0.1555 -0.2499  0.6118
 2277TIP3    H1 6837   0.379   0.012   3.512 -0.8952  1.5377 -0.9491
 2277TIP3    H2 6838   0.240   0.018   3.454 -2.4322  0.7454  2.3800
 2278TIP3   OH2 6839   0.295   1.086   3.354  0.6031  0.7322  0.1651
 2278TIP3    H1 6840   0.384   1.116   3.369  0.8497  0.0479  0.1242
 2278TIP3    H2 6841   0.240   1.155   3.389  1.1496  1.0888  0.3353
 2279TIP3   OH2 6842   3.527   2.375   0.760 -0.2236  0.5444 -0.2121
 2279TIP3    H1 6843   3.457   2.402   0.701 -0.9928 -0.4239  0.2352
 2279TIP3    H2 6844   3.581   2.316   0.706 -0.5234  0.2219 -0.1635
 2280TIP3   OH2 6845   1.544   5.279   3.134 -0.7277  0.5576  0.3161
 2280TIP3    H1 6846   1.516   5.278   3.225 -1.1644  1.2657  0.1984
 2280TIP3    H2 6847   1.501   5.203   3.094 -1.3342  0.8109  0.4761
 2281TIP3   OH2 6848   3.337   2.820   3.280 -0.1322  0.0837 -0.0614
 2281TIP3    H1 6849   3.244   2.802   3.264 -0.4622  0.4324  1.2848
 2281TIP3    H2 6850   3.371   2.737   3.314  0.4296 -0.4910 -1.9262
 2282TIP3   OH2 6851   1.906   2.902   4.106 -0.5974  0.0298 -0.7580
 2282TIP3    H1 6852   1.930   2.834   4.169  0.5087  0.7049 -0.4206
 2282TIP3    H2 6853   1.824   2.938   4.140  0.8902  1.6143  1.3708
 2283TIP3   OH2 6854   3.133   5.649   3.349 -0.3027 -0.3814 -0.1351
 2283TIP3    H1 6855   3.058   5.616   3.400 -1.7999 -0.7837 -2.4435
 2283TIP3    H2 6856   3.099   5.658   3.260  2.2177  0.1884 -1.1179
 2284TIP3   OH2 6857   2.107   3.022   1.746  0.5500 -0.0051 -0.5675
 2284TIP3    H1 6858   2.038   2.961   1.721  0.6460 -0.7599  0.9201
 2284TIP3    H2 6859   2.068   3.109   1.735 -0.8465 -0.4286  0.7596
 2285TIP3   OH2 6860   2.932   4.186   5.183  0.2745 -0.0430 -0.3096
 2285TIP3    H1 6861   2.885   4.148   5.258  0.4825 -0.4200 -0.3659
 2285TIP3    H2 6862   2.908   4.131   5.109  1.2158 -0.5824 -0.2388
 2286TIP3   OH2 6863   3.912   0.685   4.962 -0.4915  0.1450 -0.3368
 2286TIP3    H1 6864   3.922   0.688   4.867 -0.0696 -1.1139 -0.3458
 2286TIP3    H2 6865   4.000   0.672   4.995 -0.7376 -0.2278  0.1859
 2287TIP3   OH2 6866   1.302   4.206   2.165 -0.4649  0.1662  0.0874
 2287TIP3    H1 6867   1.309   4.134   2.102 -0.6292  0.4226 -0.2281
 2287TIP3    H2 6868   1.311   4.285   2.112  1.7719  0.3695  0.6952
 2288TIP3   OH2 6869   3.582   0.546   1.704  0.5169 -0.4026  0.1001
 2288TIP3    H1 6870   3.533   0.467   1.727  0.6450 -0.6214 -0.3743
 2288TIP3    H2 6871   3.673   0.517   1.701  0.4320 -0.5656 -1.4715
 2289TIP3   OH2 6872   3.401   0.760   1.745  0.6920 -0.0089 -0.3260
 2289TIP3    H1 6873   3.321   0.709   1.738  1.2184 -1.2152  1.7085
 2289TIP3    H2 6874   3.472   0.695   1.741  1.5867  0.9662 -1.4477
 2290TIP3   OH2 6875   3.472   0.682   0.448 -0.1056 -0.7106 -0.8401
 2290TIP3    H1 6876   3.484   0.703   0.541 -1.6662  0.0345 -0.7832
 2290TIP3    H2 6877   3.557   0.700   0.408  0.5130 -0.8104  0.3999
 2291TIP3   OH2 6878   0.917   4.730   0.444  0.6230  0.1944 -0.1412
 2291TIP3    H1 6879   0.911   4.635   0.446 -1.7398  0.2918 -0.4118
 2291TIP3    H2 6880   0.968   4.753   0.521  0.6284 -1.2517  0.3061
 2292TIP3   OH2 6881   4.283   2.751   4.935  0.2831  0.0615  0.2117
 2292TIP3    H1 6882   4.364   2.802   4.945 -0.0759  0.6000  0.4304
 2292TIP3    H2 6883   4.290   2.712   4.848  1.9970 -2.0871  1.2147
 2293TIP3   OH2 6884   6.043   2.459   0.894  0.2898  0.0264 -0.7408
 2293TIP3    H1 6885   6.077   2.373   0.916  1.3085  0.4880 -0.4619
 2293TIP3    H2 6886   6.098   2.520   0.944 -0.6713  0.8161 -0.6145
 2294TIP3   OH2 6887   1.725   4.913   0.813  0.5912  0.3981  0.0699
 2294TIP3    H1 6888   1.728   4.941   0.904  1.1264  0.9482 -0.1100
 2294TIP3    H2 6889   1.740   4.993   0.762 -0.2842  0.2028 -0.5193
 2295TIP3   OH2 6890   3.905   1.075   4.389 -0.7903  0.4214 -0.6032
 2295TIP3    H1 6891   3.950   1.056   4.306  0.0415 -1.5790  0.2602
 2295TIP3    H2 6892   3.900   1.171   4.391  0.7678  0.5904 -2.1196
 2296TIP3   OH2 6893   2.721   4.398   2.815 -0.5948  0.1962  0.1094
 2296TIP3    H1 6894   2.679   4.455   2.750 -2.1398 -1.8433 -0.7862
 2296TIP3    H2 6895   2.691   4.310   2.793  1.7100 -1.0262  1.4190
 2297TIP3   OH2 6896   4.005   2.125   4.477  0.4247 -0.2728 -0.1609
 2297TIP3    H1 6897   3.998   2.093   4.387  0.1556  0.7628 -0.5325
 2297TIP3    H2 6898   3.914   2.132   4.506  0.4380  0.6850 -0.3063
 2298TIP3   OH2 6899   6.187   1.582   5.047 -0.2258  0.0791  0.9637
 2298TIP3    H1 6900   6.245   1.526   5.098  0.6629  1.4137  1.4888
 2298TIP3    H2 6901   6.138   1.632   5.112 -2.1936 -1.2031  0.5285
 2299TIP3   OH2 6902   1.375   2.697   0.180 -0.4749 -0.7388 -0.0514
 2299TIP3    H1 6903   1.297   2.727   0.133 -0.0195  0.6997  0.0484
 2299TIP3    H2 6904   1.357   2.717   0.272 -0.0493 -0.5209 -0.0115
 2300TIP3   OH2 6905   1.755   4.004   4.348 -0.5628 -0.4002  0.3160
 2300TIP3    H1 6906   1.828   3.958   4.309 -0.0092  0.1171  0.7181
 2300TIP3    H2 6907   1.693   3.935   4.373  0.3972 -0.9619  1.2271
 2301TIP3   OH2 6908   4.031   1.223   0.258  0.5567  0.1788  0.9539
 2301TIP3    H1 6909   3.980   1.272   0.322  0.4803  1.1883  0.1487
 2301TIP3    H2 6910   3.965   1.173   0.209  0.3995  0.9191  0.3931
 2302TIP3   OH2 6911   0.847   4.202   0.508 -0.5940  0.4076 -0.2097
 2302TIP3    H1 6912   0.778   4.174   0.568  0.0736 -1.5471 -0.2893
 2302TIP3    H2 6913   0.820   4.166   0.423  1.5819 -2.5018  0.1713
 2303TIP3   OH2 6914   0.847   1.233   0.994  0.0796  0.2555 -0.2699
 2303TIP3    H1 6915   0.871   1.315   0.950  1.5799  0.2310  0.4430
 2303TIP3    H2 6916   0.759   1.249   1.029  0.5192  1.7294  0.2325
 2304TIP3   OH2 6917   0.702   3.290   2.104  0.0418  0.4650  0.6009
 2304TIP3    H1 6918   0.776   3.246   2.062 -0.5770  0.5261 -0.5942
 2304TIP3    H2 6919   0.627   3.233   2.084 -1.0362  2.6367 -2.1192
 2305TIP3   OH2 6920   5.879   4.810   0.376 -0.3131  0.0084  0.4011
 2305TIP3    H1 6921   5.883   4.857   0.459 -0.9472  0.8244 -0.0217
 2305TIP3    H2 6922   5.959   4.833   0.330 -0.9419  1.2712 -0.1039
 2306TIP3   OH2 6923   1.182   4.756   4.206 -0.2813  0.2906 -0.4511
 2306TIP3    H1 6924   1.240   4.708   4.265 -1.5118 -1.5611 -0.6406
 2306TIP3    H2 6925   1.227   4.838   4.189  1.2344 -0.1513  1.1267
 2307TIP3   OH2 6926   0.741   3.564   0.321  0.4612 -0.0533  0.0662
 2307TIP3    H1 6927   0.802   3.491   0.311  0.9223  0.2343  0.7053
 2307TIP3    H2 6928   0.667   3.526   0.368 -0.4782 -0.7242 -1.8410
 2308TIP3   OH2 6929   5.456   3.159   1.540 -0.0295  0.0791  0.1791
 2308TIP3    H1 6930   5.479   3.252   1.545 -1.6981  0.5547 -0.4587
 2308TIP3    H2 6931   5.391   3.154   1.470  0.1819 -1.6165  0.0700
 2309TIP3   OH2 6932   5.260   2.209   1.256  0.2685  0.0599  0.1132
 2309TIP3    H1 6933   5.345   2.187   1.294  0.0866  1.8749  1.7396
 2309TIP3    H2 6934   5.250   2.303   1.273 -1.1999  0.3265 -1.8363
 2310TIP3   OH2 6935   3.232   3.471   0.039  0.0723 -0.1090 -0.2778
 2310TIP3    H1 6936   3.210   3.489   0.130 -1.6035  3.9989 -1.2579
 2310TIP3    H2 6937   3.158   3.420   0.006 -0.2593  0.0558  0.2037
 2311TIP3   OH2 6938   2.718   4.932   2.863  0.2827 -0.4516  0.7550
 2311TIP3    H1 6939   2.793   4.957   2.810  0.5613  0.0283  1.3622
 2311TIP3    H2 6940   2.716   4.836   2.859  1.4532 -0.5251  1.4258
 2312TIP3   OH2 6941   2.610   0.703   0.302  0.1031 -0.0893  0.2225
 2312TIP3    H1 6942   2.537   0.730   0.358  2.8060  1.3190  3.5062
 2312TIP3    H2 6943   2.607   0.763   0.228 -2.0493 -0.1094  0.2499
 2313TIP3   OH2 6944   2.352   2.360   2.125 -0.0540 -0.2724  0.2186
 2313TIP3    H1 6945   2.395   2.309   2.056  0.6926  0.0084  0.4661
 2313TIP3    H2 6946   2.424   2.391   2.180 -0.3060  2.4619 -0.8412
 2314TIP3   OH2 6947   6.087   4.256   4.282  0.3587 -0.0289  0.3280
 2314TIP3    H1 6948   6.019   4.190   4.266 -0.7167  0.4824  2.5023
 2314TIP3    H2 6949   6.117   4.280   4.194 -1.5749 -0.9832 -0.6643
 2315TIP3   OH2 6950   0.533   2.263   0.359 -0.2048 -0.3830 -0.4174
 2315TIP3    H1 6951   0.612   2.216   0.386  0.0602  0.9252  1.2601
 2315TIP3    H2 6952   0.530   2.252   0.264  1.8207 -0.7334 -0.4915
 2316TIP3   OH2 6953   6.003   1.838   2.393 -0.1645 -0.5046  0.2279
 2316TIP3    H1 6954   6.018   1.759   2.342 -0.3816  0.6132 -1.7098
 2316TIP3    H2 6955   6.067   1.901   2.359 -1.2803  0.7212  0.2904
 2317TIP3   OH2 6956   0.117   2.949   5.032  0.0954  0.3548  0.2990
 2317TIP3    H1 6957   0.049   3.009   5.001  0.5843  0.3763 -0.7666
 2317TIP3    H2 6958   0.111   2.953   5.127 -0.6075  1.2595  0.2271
 2318TIP3   OH2 6959   5.070   3.085   0.992  0.0157 -0.5284  0.6396
 2318TIP3    H1 6960   5.105   3.020   1.053  0.5420 -0.8440  0.0129
 2318TIP3    H2 6961   5.063   3.039   0.909 -1.4523 -0.3316  0.6295
 2319TIP3   OH2 6962   5.905   2.641   5.080  0.1840  0.3650  0.0882
 2319TIP3    H1 6963   5.813   2.627   5.061 -0.0311  0.6662  0.8568
 2319TIP3    H2 6964   5.928   2.570   5.141  0.9585 -0.8289 -1.5250
 2320TIP3   OH2 6965   0.034   5.611   4.274  0.1104  0.0714  1.1026
 2320TIP3    H1 6966  -0.046   5.663   4.264  0.2136 -0.0797 -1.2936
 2320TIP3    H2 6967   0.105   5.672   4.250  0.6446 -0.0393  2.3455
 2321TIP3   OH2 6968   0.556   1.157   3.402 -0.3832  0.3906  0.0745
 2321TIP3    H1 6969   0.578   1.184   3.314 -1.6456 -1.2947 -0.8267
 2321TIP3    H2 6970   0.638   1.164   3.451  0.7164 -0.1057 -1.6180
 2322TIP3   OH2 6971   0.832   2.426   2.806 -0.0766  0.8386  0.4328
 2322TIP3    H1 6972   0.858   2.437   2.715  1.5002 -0.2554  0.7090
 2322TIP3    H2 6973   0.743   2.462   2.810 -0.4949  0.2142 -1.6972
 2323TIP3   OH2 6974   0.025   2.820   0.301  0.5876  0.3413  0.1725
 2323TIP3    H1 6975   0.088   2.867   0.247  1.0662 -0.1547  0.2883
 2323TIP3    H2 6976  -0.039   2.786   0.239  0.5015  0.7363  0.0401
 2324TIP3   OH2 6977   4.180   3.631   4.412 -0.2370  0.4477 -0.3813
 2324TIP3    H1 6978   4.266   3.656   4.447 -0.2408  0.7308 -0.5732
 2324TIP3    H2 6979   4.191   3.539   4.387 -0.4846 -0.0172  1.1510
 2325TIP3   OH2 6980   2.396   1.030   4.767 -0.0782  0.0577 -0.1741
 2325TIP3    H1 6981   2.365   0.961   4.708  0.6194  0.1480 -0.6586
 2325TIP3    H2 6982   2.321   1.049   4.824 -1.4791  1.4293 -2.3403
 2326TIP3   OH2 6983   1.617   0.203   4.921 -0.4935 -0.3587 -0.0614
 2326TIP3    H1 6984   1.589   0.270   4.984 -1.1099 -1.5739  1.0098
 2326TIP3    H2 6985   1.551   0.207   4.852 -1.0993 -0.5295  0.4969
 2327TIP3   OH2 6986   1.533   3.981   4.981 -0.9058 -0.7466  0.3881
 2327TIP3    H1 6987   1.590   4.052   4.953 -1.5514 -0.7544 -1.0260
 2327TIP3    H2 6988   1.574   3.947   5.061 -0.4342  1.0029  0.9318
 2328TIP3   OH2 6989   3.640   5.289   4.572 -0.2835 -0.0025  0.6869
 2328TIP3    H1 6990   3.639   5.248   4.485  0.8817 -0.6577  0.9546
 2328TIP3    H2 6991   3.719   5.344   4.571 -1.2426  1.4258  0.7143
 2329TIP3   OH2 6992   4.634   4.091   3.604 -0.0951  0.3987  0.4172
 2329TIP3    H1 6993   4.619   4.020   3.542 -1.9791  0.5506  0.6357
 2329TIP3    H2 6994   4.617   4.052   3.690  3.4207 -0.0702  1.0307
 2330TIP3   OH2 6995   6.322   2.640   4.377  0.0753  0.4357  0.5719
 2330TIP3    H1 6996   6.394   2.702   4.364 -0.7557  1.1103 -1.1127
 2330TIP3    H2 6997   6.247   2.694   4.401 -0.4794  0.0204 -0.1878
 2331TIP3   OH2 6998   4.119   0.438   4.662 -0.0175  0.4979  0.4475
 2331TIP3    H1 6999   4.169   0.412   4.585 -1.1696  2.1857 -0.9456
 2331TIP3    H2 7000   4.065   0.361   4.682  1.5038 -0.5525  0.6361
 2332TIP3   OH2 7001   2.556   3.876   4.017  0.3559  0.6887 -0.4462
 2332TIP3    H1 7002   2.579   3.857   3.926  2.9233  2.3241 -0.2290
 2332TIP3    H2 7003   2.461   3.887   4.015  0.4367  1.7653 -3.1696
 2333TIP3   OH2 7004   4.247   5.606   3.667  0.5982  0.4322 -0.6266
 2333TIP3    H1 7005   4.308   5.560   3.610  1.1927 -0.7121  0.8518
 2333TIP3    H2 7006   4.170   5.550   3.671  1.0553 -0.1604  0.6357
 2334TIP3   OH2 7007   4.347   4.092   3.799  0.2582 -0.2460  0.0411
 2334TIP3    H1 7008   4.358   4.159   3.867 -0.6620  0.8837 -0.8820
 2334TIP3    H2 7009   4.254   4.093   3.780  0.4216 -0.9766 -0.8292
 2335TIP3   OH2 7010   1.318   4.651   1.959 -0.0317  0.9602 -0.5435
 2335TIP3    H1 7011   1.360   4.568   1.936  0.1824  1.3557 -1.6544
 2335TIP3    H2 7012   1.342   4.666   2.050  1.4899  0.7142 -0.8752
 2336TIP3   OH2 7013   3.573   1.465   3.416 -0.1279 -0.2150 -0.0062
 2336TIP3    H1 7014   3.543   1.515   3.492  1.3706 -0.4873  0.8044
 2336TIP3    H2 7015   3.666   1.448   3.433  0.0656 -0.9304 -1.5545
 2337TIP3   OH2 7016   2.575   1.671   1.101 -0.3166  0.2829 -0.0402
 2337TIP3    H1 7017   2.641   1.626   1.154 -1.1575 -0.2135  0.5997
 2337TIP3    H2 7018   2.611   1.670   1.012 -0.3029 -1.6602 -0.0508
 2338TIP3   OH2 7019   4.151   3.648   5.064 -0.5641  0.0749 -0.1908
 2338TIP3    H1 7020   4.182   3.626   5.151 -0.9114 -2.0083 -0.5535
 2338TIP3    H2 7021   4.056   3.640   5.069 -0.6811  1.0573 -0.4951
 2339TIP3   OH2 7022   0.605   0.354   1.696 -0.0737 -0.5842 -0.7040
 2339TIP3    H1 7023   0.681   0.322   1.647 -0.5469 -1.4782 -0.8665
 2339TIP3    H2 7024   0.529   0.323   1.647 -0.5561 -1.5244  0.5715
 2340TIP3   OH2 7025   3.842   5.354   1.033  0.1150  0.2313  0.1069
 2340TIP3    H1 7026   3.916   5.303   0.999 -0.7601 -0.9903 -0.0432
 2340TIP3    H2 7027   3.767   5.324   0.983 -1.1202 -1.1592  2.5721
 2341TIP3   OH2 7028   0.746   1.098   2.207  0.1687  0.2477  0.0784
 2341TIP3    H1 7029   0.794   1.077   2.287  0.3352 -0.4889 -0.2087
 2341TIP3    H2 7030   0.715   1.187   2.220 -0.5342 -0.1664  1.3234
 2342TIP3   OH2 7031   1.784   3.271   2.850  0.2551  0.0352 -0.0864
 2342TIP3    H1 7032   1.719   3.201   2.851  0.7617 -0.4347  0.0616
 2342TIP3    H2 7033   1.833   3.259   2.931  0.0594  0.8347  0.1625
 2343TIP3   OH2 7034   3.717   0.244   1.214  0.4601 -0.4138 -0.1250
 2343TIP3    H1 7035   3.711   0.336   1.186  1.2101 -0.0552  0.8084
 2343TIP3    H2 7036   3.627   0.219   1.232  0.2847  0.2787 -0.0025
 2344TIP3   OH2 7037   2.572   0.894   0.113  0.1018 -0.0805  0.5810
 2344TIP3    H1 7038   2.498   0.883   0.054  0.1287  2.3431 -0.0126
 2344TIP3    H2 7039   2.649   0.886   0.058  0.1280  2.0834  0.1847
 2345TIP3   OH2 7040   0.635   4.413   1.788  0.1436  0.0292  0.1929
 2345TIP3    H1 7041   0.646   4.432   1.881  1.3894 -0.6784  0.2070
 2345TIP3    H2 7042   0.622   4.499   1.748 -0.2717  0.3565  0.9948
 2346TIP3   OH2 7043   4.099   2.465   1.720 -0.2562 -0.7052 -0.3751
 2346TIP3    H1 7044   4.111   2.491   1.811  1.2090 -1.7126 -0.2486
 2346TIP3    H2 7045   4.112   2.546   1.670 -0.9156 -0.1782  0.2937
 2347TIP3   OH2 7046   2.026   1.876   4.706  0.1166  0.8982 -0.4755
 2347TIP3    H1 7047   2.084   1.907   4.775  1.1492  1.5201 -1.5908
 2347TIP3    H2 7048   1.966   1.949   4.689  0.7175  1.2521 -1.1321
 2348TIP3   OH2 7049   1.146   5.247   3.392  0.8865  0.1488 -0.6849
 2348TIP3    H1 7050   1.211   5.184   3.422 -0.3167 -1.2107 -0.8193
 2348TIP3    H2 7051   1.079   5.194   3.348  0.4789  1.6506 -1.9835
 2349TIP3   OH2 7052   1.993   4.238   1.524  0.3228 -0.2162 -0.0228
 2349TIP3    H1 7053   2.080   4.242   1.485  1.3672 -0.4584  2.1291
 2349TIP3    H2 7054   1.967   4.330   1.533  1.0190 -0.0737  0.6580
 2350TIP3   OH2 7055   1.934   0.455   0.688 -0.0142 -0.1473 -0.8173
 2350TIP3    H1 7056   1.965   0.506   0.613 -0.7162  0.1738 -0.8969
 2350TIP3    H2 7057   1.864   0.508   0.726 -0.0580 -0.5802 -0.2830
 2351TIP3   OH2 7058   2.855   0.177   4.290 -0.0837 -0.3018  0.5152
 2351TIP3    H1 7059   2.766   0.145   4.305  0.0570 -0.7197  0.4724
 2351TIP3    H2 7060   2.860   0.192   4.195 -1.0543  2.5798  0.8015
 2352TIP3   OH2 7061   0.192   0.041   0.558 -0.2778 -0.0601  0.1540
 2352TIP3    H1 7062   0.162   0.095   0.485  0.2054  0.5603  0.4077
 2352TIP3    H2 7063   0.237   0.102   0.616  0.3333 -0.7409  0.4116
 2353TIP3   OH2 7064   6.153   4.673   3.386 -0.2471 -0.2607  0.3716
 2353TIP3    H1 7065   6.228   4.692   3.442 -0.9686  0.8193  0.9941
 2353TIP3    H2 7066   6.120   4.589   3.418 -1.9883  1.3549  3.1088
 2354TIP3   OH2 7067   3.276   5.425   2.409  0.2195  0.8187  0.2161
 2354TIP3    H1 7068   3.205   5.469   2.363 -0.3091 -0.5144 -0.2971
 2354TIP3    H2 7069   3.253   5.433   2.502  0.5005  2.2034  0.1794
 2355TIP3   OH2 7070   4.165   4.509   4.161 -0.1717  0.4936  0.2349
 2355TIP3    H1 7071   4.160   4.589   4.213 -0.9037  1.3315 -1.0886
 2355TIP3    H2 7072   4.104   4.449   4.204 -0.6004  1.0910  0.4762
 2356TIP3   OH2 7073   2.021   0.027   4.914 -0.5939 -0.2714 -0.2304
 2356TIP3    H1 7074   2.006   0.109   4.867 -0.8812 -0.7754 -1.0391
 2356TIP3    H2 7075   1.942   0.015   4.967 -0.6248 -0.1032 -0.2387
 2357TIP3   OH2 7076   0.930   3.238   4.083 -0.0926 -0.2358 -0.1986
 2357TIP3    H1 7077   0.881   3.178   4.027 -3.2804  0.5615  1.5112
 2357TIP3    H2 7078   0.936   3.318   4.032  0.4491 -0.6727 -0.8447
 2358TIP3   OH2 7079   0.685   3.153   4.246  0.3349 -0.2960 -0.0110
 2358TIP3    H1 7080   0.763   3.190   4.205 -0.6259 -0.2102 -1.8865
 2358TIP3    H2 7081   0.630   3.125   4.172 -1.0742 -1.0560  1.2613
 2359TIP3   OH2 7082   0.342   2.951   1.929  0.4025 -0.2398  0.0996
 2359TIP3    H1 7083   0.360   3.019   1.865  1.8407 -0.5116  0.1669
 2359TIP3    H2 7084   0.266   2.982   1.978 -0.5928  0.0601 -1.5934
 2360TIP3   OH2 7085   0.453   3.816   1.411  0.1642  0.2324  0.2770
 2360TIP3    H1 7086   0.447   3.901   1.455 -1.6972  1.2102 -1.6411
 2360TIP3    H2 7087   0.498   3.835   1.329  0.3645 -0.7762  0.1460
 2361TIP3   OH2 7088   2.006   1.348   0.979 -0.7427 -0.2388 -0.1019
 2361TIP3    H1 7089   1.914   1.357   1.001 -1.2889 -0.0589 -2.2404
 2361TIP3    H2 7090   2.040   1.283   1.041 -2.0259  0.4281  1.3619
 2362TIP3   OH2 7091   0.872   5.148   3.007 -0.0108 -0.1636 -0.0248
 2362TIP3    H1 7092   0.859   5.175   2.917 -1.2629  1.8009  0.6722
 2362TIP3    H2 7093   0.867   5.053   3.005 -1.7702 -0.0923 -1.7948
 2363TIP3   OH2 7094   1.505   3.495   0.102  0.5095 -0.9152  0.3017
 2363TIP3    H1 7095   1.444   3.567   0.084  1.0576 -0.6630 -0.5703
 2363TIP3    H2 7096   1.512   3.448   0.020  0.8331 -1.4564  0.6346
 2364TIP3   OH2 7097   5.288   0.135   0.560  0.8554  0.1354 -0.5352
 2364TIP3    H1 7098   5.339   0.058   0.539  0.4521 -0.3211  0.1259
 2364TIP3    H2 7099   5.296   0.144   0.655 -1.5548 -0.8934 -0.1607
 2365TIP3   OH2 7100   6.127   1.181   4.854  0.1802  0.1191 -0.3212
 2365TIP3    H1 7101   6.216   1.191   4.888 -0.0359 -0.9813  0.6157
 2365TIP3    H2 7102   6.137   1.186   4.759  1.1141  0.9015 -0.1973
 2366TIP3   OH2 7103   2.683   1.612   0.843  0.5247 -0.1183  0.1035
 2366TIP3    H1 7104   2.756   1.551   0.861 -1.2394 -2.1446  0.8050
 2366TIP3    H2 7105   2.652   1.587   0.756  0.0213  0.0274  0.2401
 2367TIP3   OH2 7106   3.646   2.455   4.312 -0.2007 -0.5813 -0.4898
 2367TIP3    H1 7107   3.654   2.548   4.329 -1.4934 -0.5937  0.2432
 2367TIP3    H2 7108   3.736   2.422   4.317  0.1188  0.4039  0.5006
 2368TIP3   OH2 7109   3.842   2.724   4.910 -0.2330 -0.5771 -0.4422
 2368TIP3    H1 7110   3.899   2.747   4.984 -0.2008  0.4503 -0.7608
 2368TIP3    H2 7111   3.903   2.715   4.837 -0.1134 -2.8535 -0.1225
 2369TIP3   OH2 7112   3.004   5.234   3.050  0.2386  0.6579  0.0492
 2369TIP3    H1 7113   3.022   5.201   2.962  0.7593 -1.5358  0.9218
 2369TIP3    H2 7114   2.916   5.203   3.070  0.2962  0.7502  0.4592
 2370TIP3   OH2 7115   0.603   4.955   4.486 -0.1926  0.2619  0.0354
 2370TIP3    H1 7116   0.565   4.948   4.399  0.7784  3.3206 -0.7616
 2370TIP3    H2 7117   0.697   4.967   4.471  0.1457 -0.1845  1.5696
 2371TIP3   OH2 7118   3.803   1.048   0.190 -0.8056  0.4645 -0.0825
 2371TIP3    H1 7119   3.774   1.085   0.274  2.3855  2.6678  0.1931
 2371TIP3    H2 7120   3.875   0.989   0.213 -0.2384  0.6836 -1.2388
 2372TIP3   OH2 7121   2.624   2.629   0.280 -0.4700 -0.2459 -0.2474
 2372TIP3    H1 7122   2.616   2.541   0.316  0.7472 -0.4309 -0.4111
 2372TIP3    H2 7123   2.692   2.672   0.332 -0.8026  0.4868 -0.3925
 2373TIP3   OH2 7124   1.379   2.069   4.238 -0.5199 -0.2111  0.0422
 2373TIP3    H1 7125   1.380   2.074   4.142 -3.2670  0.0429 -0.0332
 2373TIP3    H2 7126   1.468   2.096   4.264 -0.2134  1.4111 -2.3539
 2374TIP3   OH2 7127   1.694   1.413   4.092  0.8907  0.0230 -0.3462
 2374TIP3    H1 7128   1.665   1.483   4.151  1.0534 -1.1039  1.1479
 2374TIP3    H2 7129   1.688   1.450   4.005  0.7811  1.8259  0.3940
 2375TIP3   OH2 7130   1.949   3.545   4.293  0.2389  0.5458  0.0835
 2375TIP3    H1 7131   1.911   3.534   4.380  1.0556 -0.8068  0.2901
 2375TIP3    H2 7132   2.043   3.539   4.306  0.3313 -1.0818 -1.0426
 2376TIP3   OH2 7133   6.271   4.143   2.297 -0.2500 -0.0980  0.1428
 2376TIP3    H1 7134   6.177   4.135   2.283 -0.4335  1.6547  0.2555
 2376TIP3    H2 7135   6.281   4.203   2.370  0.9604 -0.6930  0.5038
 2377TIP3   OH2 7136   2.522   3.004   0.118  0.3275 -0.0136  0.0458
 2377TIP3    H1 7137   2.610   3.013   0.082  0.7319  0.4373  1.1130
 2377TIP3    H2 7138   2.477   3.084   0.092  0.4700  0.0994  0.1487
 2378TIP3   OH2 7139   4.822   3.103   4.228  0.0171  0.0844 -0.1796
 2378TIP3    H1 7140   4.849   3.015   4.202  0.5927  0.1668  0.1325
 2378TIP3    H2 7141   4.789   3.143   4.147  2.7292  0.6976 -1.0820
 2379TIP3   OH2 7142   0.705   4.355   1.031  0.1067  0.2813 -0.0827
 2379TIP3    H1 7143   0.724   4.273   1.076  0.1295  1.3424  1.9294
 2379TIP3    H2 7144   0.769   4.418   1.064 -1.0899  1.5951 -0.1313
 2380TIP3   OH2 7145   6.269   4.651   5.179  0.3130  0.1645  0.3795
 2380TIP3    H1 7146   6.237   4.573   5.133 -1.7456 -0.2355  2.2781
 2380TIP3    H2 7147   6.356   4.627   5.210  1.4215  0.1613 -2.4522
 2381TIP3   OH2 7148   0.589   5.555   4.743 -0.0142 -0.1281  0.2944
 2381TIP3    H1 7149   0.639   5.478   4.770 -1.3527 -1.4062 -0.7375
 2381TIP3    H2 7150   0.613   5.568   4.651  1.1133  1.4628  0.7658
 2382TIP3   OH2 7151   5.412   0.094   0.287  0.6135  0.0713  0.0513
 2382TIP3    H1 7152   5.417   0.188   0.305 -1.6602 -0.0656  1.7004
 2382TIP3    H2 7153   5.321   0.078   0.263  0.8753 -1.7767  0.1245
 2383TIP3   OH2 7154   0.316   1.546   4.974  0.0243  0.2623  0.2396
 2383TIP3    H1 7155   0.331   1.547   5.069 -1.8617  0.5546  0.5729
 2383TIP3    H2 7156   0.251   1.615   4.960  0.8443  0.7581 -1.4021
 2384TIP3   OH2 7157   5.553   0.335   0.300 -0.5339  0.3754  0.0637
 2384TIP3    H1 7158   5.481   0.397   0.297 -0.9137 -0.0888 -0.5224
 2384TIP3    H2 7159   5.564   0.305   0.210  0.8324  0.9292  0.0184
 2385TIP3   OH2 7160   2.775   4.878   4.421  0.2228  0.0230 -0.1476
 2385TIP3    H1 7161   2.750   4.825   4.496  1.3721 -0.7414 -0.2782
 2385TIP3    H2 7162   2.867   4.901   4.437  0.5257 -0.2438 -1.3482
 2386TIP3   OH2 7163   5.063   2.430   4.025  0.8299  0.1112  0.6986
 2386TIP3    H1 7164   4.989   2.436   4.086 -1.8933 -0.4841 -2.2591
 2386TIP3    H2 7165   5.094   2.339   4.035 -0.3135 -0.3218  0.4607
 2387TIP3   OH2 7166   5.900   1.873   3.202 -0.7094  0.4710 -0.1241
 2387TIP3    H1 7167   5.916   1.806   3.268 -1.6487 -1.8216 -2.0683
 2387TIP3    H2 7168   5.816   1.912   3.228 -2.0873 -1.7619 -0.8632
 2388TIP3   OH2 7169   3.844   3.370   5.054  0.3211  0.2599 -0.4245
 2388TIP3    H1 7170   3.850   3.275   5.070  1.0055  0.2078 -0.9459
 2388TIP3    H2 7171   3.804   3.376   4.967 -2.0577  0.5125  0.6105
 2389TIP3   OH2 7172   3.891   3.918   3.399 -0.0184 -0.1552  0.1776
 2389TIP3    H1 7173   3.807   3.948   3.432 -0.0947  1.9865 -1.6565
 2389TIP3    H2 7174   3.870   3.849   3.336 -0.3828  0.0345  0.0908
 2390TIP3   OH2 7175   2.091   2.797   1.521 -0.3385 -0.6063 -0.2468
 2390TIP3    H1 7176   2.110   2.876   1.471  2.1156 -0.4161  0.8501
 2390TIP3    H2 7177   2.122   2.726   1.465 -1.1456 -0.7168 -0.5778
 2391TIP3   OH2 7178   1.517   1.261   0.941  0.6436  0.3785 -0.4377
 2391TIP3    H1 7179   1.528   1.355   0.925  1.7893 -0.0748 -2.9884
 2391TIP3    H2 7180   1.508   1.223   0.853 -1.2225 -1.7829  0.5735
 2392TIP3   OH2 7181   5.724   5.511   0.202  0.5582  0.4544  0.0219
 2392TIP3    H1 7182   5.727   5.605   0.218  2.3269  0.2780  1.0260
 2392TIP3    H2 7183   5.756   5.471   0.283 -2.0181 -1.1657  0.3839
 2393TIP3   OH2 7184   0.134   5.816   3.082  0.8474  0.2106 -0.0869
 2393TIP3    H1 7185   0.140   5.862   2.999  0.9571 -2.0647 -1.4279
 2393TIP3    H2 7186   0.218   5.832   3.125  1.4200  0.1492 -1.1427
 2394TIP3   OH2 7187   4.056   3.992   4.675 -0.8155  0.0643 -0.3193
 2394TIP3    H1 7188   3.985   4.038   4.631 -0.5287  0.8363  0.0032
 2394TIP3    H2 7189   4.017   3.911   4.707 -1.3687  0.1538 -0.7626
 2395TIP3   OH2 7190   3.017   2.326   4.736  0.2107 -0.1688 -0.3573
 2395TIP3    H1 7191   3.109   2.349   4.721  0.1875 -0.5239 -1.0893
 2395TIP3    H2 7192   3.013   2.232   4.720 -0.1462 -0.2844  0.3752
 2396TIP3   OH2 7193   1.548   0.631   4.199 -0.5224  0.3865  0.0207
 2396TIP3    H1 7194   1.548   0.591   4.112 -1.1877 -0.6111  0.4573
 2396TIP3    H2 7195   1.634   0.670   4.207  0.8103 -2.3225  0.1494
 2397TIP3   OH2 7196   4.561   1.086   2.964  0.1202  0.2094 -0.2667
 2397TIP3    H1 7197   4.633   1.149   2.972 -0.7221  0.9579  2.6082
 2397TIP3    H2 7198   4.603   1.001   2.977  0.7971  0.4064 -1.0306
 2398TIP3   OH2 7199   4.719   0.590   2.532  0.4880  0.1008  0.3722
 2398TIP3    H1 7200   4.647   0.562   2.589  0.4027  0.2029  0.3166
 2398TIP3    H2 7201   4.675   0.628   2.456  0.5359 -1.9623 -0.7702
 2399TIP3   OH2 7202   4.547   3.502   5.199  0.6989  0.2312  0.6941
 2399TIP3    H1 7203   4.579   3.579   5.151 -0.1385  0.2756  0.1865
 2399TIP3    H2 7204   4.582   3.427   5.150  0.6052  0.2841  0.5464
 2400TIP3   OH2 7205   4.997   3.474   2.941  0.5615 -0.3807  0.2438
 2400TIP3    H1 7206   4.929   3.483   2.875 -0.2214 -0.2949  1.0395
 2400TIP3    H2 7207   5.016   3.563   2.969  0.1699 -0.4794  0.8383
 2401TIP3   OH2 7208   3.624   2.057   3.789  0.4464  0.4527 -0.0923
 2401TIP3    H1 7209   3.563   2.038   3.718  0.2513  1.8789 -0.3374
 2401TIP3    H2 7210   3.569   2.087   3.861  0.7885  0.8939 -0.0110
 2402TIP3   OH2 7211   0.721   5.681   0.556 -0.3973  0.1821  0.5396
 2402TIP3    H1 7212   0.714   5.716   0.645 -1.3099  1.6586 -0.0818
 2402TIP3    H2 7213   0.643   5.714   0.511 -1.0187 -2.2092 -0.2788
 2403TIP3   OH2 7214   5.362   1.041   2.091  0.1282 -0.9691  0.6287
 2403TIP3    H1 7215   5.365   1.041   1.996 -0.4068  0.0284  0.5980
 2403TIP3    H2 7216   5.453   1.052   2.118  0.1405  0.0825  0.2009
 2404TIP3   OH2 7217   1.813   3.576   1.523  0.1089  0.3425 -0.7252
 2404TIP3    H1 7218   1.776   3.664   1.531  0.2892  0.4070 -0.5829
 2404TIP3    H2 7219   1.805   3.539   1.611 -0.1809  0.1298 -0.8418
 2405TIP3   OH2 7220   0.534   3.896   0.921  0.0732 -0.2009 -0.2136
 2405TIP3    H1 7221   0.514   3.807   0.949 -1.2073  0.4105  0.9799
 2405TIP3    H2 7222   0.531   3.892   0.826 -1.2352 -1.1977 -0.1718
 2406TIP3   OH2 7223   3.945   4.025   4.196 -0.0810 -0.3789 -0.0604
 2406TIP3    H1 7224   3.975   3.958   4.258 -0.6094 -1.2458 -0.7300
 2406TIP3    H2 7225   3.854   4.041   4.220 -0.2251 -0.5657 -0.4833
 2407TIP3   OH2 7226   2.591   3.459   3.047 -0.0469  0.1191 -0.3650
 2407TIP3    H1 7227   2.606   3.507   3.129  0.2164  0.4364 -0.5996
 2407TIP3    H2 7228   2.671   3.470   2.997  0.8141 -2.1814  0.3581
 2408TIP3   OH2 7229   1.515   2.013   2.000 -0.5257  0.1767  0.9051
 2408TIP3    H1 7230   1.589   1.953   2.014 -2.0253 -1.9492  0.1534
 2408TIP3    H2 7231   1.461   2.003   2.079 -1.6381 -0.7989  0.0504
 2409TIP3   OH2 7232   2.010   2.370   3.464  0.2534  0.3530  0.2811
 2409TIP3    H1 7233   2.068   2.420   3.405 -0.7223  2.0811  0.7111
 2409TIP3    H2 7234   2.048   2.384   3.551 -0.4821  1.0621  0.5012
 2410TIP3   OH2 7235   0.534   4.751   2.426  0.5552 -0.0957 -0.1789
 2410TIP3    H1 7236   0.616   4.714   2.457  0.5303 -0.1408 -0.1669
 2410TIP3    H2 7237   0.537   4.740   2.331  0.4945 -0.2375 -0.1646
 2411TIP3   OH2 7238   0.290   2.347   1.187 -0.8670 -0.0407 -0.1215
 2411TIP3    H1 7239   0.318   2.419   1.129  0.2719 -0.1757  0.2216
 2411TIP3    H2 7240   0.229   2.387   1.248  2.6775  1.7243  2.6411
 2412TIP3   OH2 7241   0.659   3.756   2.600 -0.0909 -0.2589 -0.6978
 2412TIP3    H1 7242   0.572   3.720   2.579 -1.8591  1.9419  2.1793
 2412TIP3    H2 7243   0.641   3.839   2.643  3.5517  0.7913 -0.9181
 2413TIP3   OH2 7244   4.288   4.218   0.626 -0.2864  0.2985 -0.0364
 2413TIP3    H1 7245   4.376   4.227   0.660 -0.5099  1.3642  0.2957
 2413TIP3    H2 7246   4.298   4.223   0.531  0.0565 -0.1031 -0.0243
 2414TIP3   OH2 7247   2.908   1.825   1.044  0.3304  0.6956  0.8738
 2414TIP3    H1 7248   2.888   1.757   1.108  1.2270  0.4605  0.9189
 2414TIP3    H2 7249   2.883   1.907   1.086  0.7612  0.5264  1.4688
 2415TIP3   OH2 7250   3.303   1.129   2.638 -0.0371  0.4803  0.0762
 2415TIP3    H1 7251   3.310   1.155   2.547 -0.5666  0.6579  0.0863
 2415TIP3    H2 7252   3.365   1.186   2.684  0.8530 -0.1725 -0.2737
 2416TIP3   OH2 7253   2.493   4.821   0.373  0.4567 -0.3599  0.1426
 2416TIP3    H1 7254   2.581   4.788   0.391  0.8409  0.9639  0.8331
 2416TIP3    H2 7255   2.507   4.895   0.314 -0.1654  0.0479  0.4953
 2417TIP3   OH2 7256   0.762   1.101   1.950  0.0071 -0.3253 -0.4256
 2417TIP3    H1 7257   0.800   1.014   1.932  1.9306  0.7181 -1.7766
 2417TIP3    H2 7258   0.787   1.119   2.040  0.3408 -0.8283 -0.4067
 2418TIP3   OH2 7259   3.036   1.845   2.276  0.1440  0.2255 -0.0822
 2418TIP3    H1 7260   3.060   1.773   2.334  0.3625 -0.3391 -0.8602
 2418TIP3    H2 7261   2.949   1.872   2.307  0.8897  0.9849  1.4908
 2419TIP3   OH2 7262   6.094   5.446   2.537 -0.4199  0.2917  0.3068
 2419TIP3    H1 7263   6.170   5.390   2.556 -0.8158  0.1856  1.6826
 2419TIP3    H2 7264   6.087   5.445   2.441  0.5695 -0.6854  0.2206
 2420TIP3   OH2 7265   5.054   2.804   1.586 -0.4718  0.1375 -0.0971
 2420TIP3    H1 7266   5.113   2.860   1.536  1.2867 -0.5662  1.0785
 2420TIP3    H2 7267   5.096   2.718   1.586  0.1168  0.2870  3.2423
 2421TIP3   OH2 7268   1.233   4.002   3.110 -0.2481 -0.5005 -0.3191
 2421TIP3    H1 7269   1.242   3.922   3.163 -1.0148 -1.2755 -1.3301
 2421TIP3    H2 7270   1.204   3.971   3.025 -1.6705  0.9512 -0.4022
 2422TIP3   OH2 7271   2.818   0.451   2.686 -0.5384  0.3076  0.3536
 2422TIP3    H1 7272   2.860   0.370   2.657 -2.4161 -0.6720  0.2215
 2422TIP3    H2 7273   2.805   0.501   2.606 -0.5433  0.1618  0.2633
 2423TIP3   OH2 7274   5.734   1.262   2.357  0.4852 -0.6042  0.1812
 2423TIP3    H1 7275   5.792   1.331   2.387 -0.1397 -0.6221  1.4851
 2423TIP3    H2 7276   5.648   1.304   2.351  0.1294 -1.2343  0.8476
 2424TIP3   OH2 7277   0.951   5.186   4.196 -0.0105  0.1586  0.2877
 2424TIP3    H1 7278   1.040   5.159   4.217 -0.5828 -1.2354  1.0222
 2424TIP3    H2 7279   0.907   5.192   4.281 -0.7656  0.2887 -0.1045
 2425TIP3   OH2 7280   3.120   0.309   1.881  0.2659  0.0781 -0.2953
 2425TIP3    H1 7281   3.125   0.376   1.950 -0.2085  0.0050 -0.1813
 2425TIP3    H2 7282   3.084   0.232   1.926  0.1182 -0.0240 -0.5866
 2426TIP3   OH2 7283   0.999   3.874   4.271 -0.3240 -0.0326 -0.1224
 2426TIP3    H1 7284   1.075   3.933   4.270  1.3737 -2.0866 -1.0660
 2426TIP3    H2 7285   0.941   3.908   4.203  0.1376  1.0659  0.0057
 2427TIP3   OH2 7286   4.481   1.096   3.644  0.3853  0.0554 -0.1776
 2427TIP3    H1 7287   4.404   1.077   3.589  1.3908  0.1370 -1.6680
 2427TIP3    H2 7288   4.512   1.181   3.612  0.5037  0.5296  1.1329
 2428TIP3   OH2 7289   0.431   1.781   3.606 -0.0862  0.1243  0.0765
 2428TIP3    H1 7290   0.420   1.741   3.693  0.0898 -0.8476 -0.3381
 2428TIP3    H2 7291   0.388   1.866   3.614 -1.3530 -0.5391  0.7011
 2429TIP3   OH2 7292   1.764   3.422   0.548 -0.2892  0.0184 -0.3540
 2429TIP3    H1 7293   1.702   3.348   0.540  0.5076 -0.7347  0.2811
 2429TIP3    H2 7294   1.845   3.389   0.509  0.2233  0.3783  0.4010
 2430TIP3   OH2 7295   4.464   2.531   3.862  0.4042  0.2626 -0.3762
 2430TIP3    H1 7296   4.410   2.575   3.928 -0.8019  0.3429 -1.3713
 2430TIP3    H2 7297   4.552   2.529   3.900  0.0032  1.4349  0.6835
 2431TIP3   OH2 7298   2.845   0.502   3.020  0.3510  0.0022  0.3177
 2431TIP3    H1 7299   2.918   0.545   2.975  0.2776 -0.8486 -0.6654
 2431TIP3    H2 7300   2.771   0.561   3.008  0.1718 -0.4920 -1.2872
 2432TIP3   OH2 7301   3.772   2.710   2.581 -0.8499 -0.1710  0.4664
 2432TIP3    H1 7302   3.854   2.684   2.537 -1.5904 -1.3218 -0.3034
 2432TIP3    H2 7303   3.791   2.702   2.674 -0.1338 -0.6068  0.2919
 2433TIP3   OH2 7304   2.685   2.299   2.757 -0.1322  0.5691 -0.5014
 2433TIP3    H1 7305   2.642   2.222   2.719  1.4191 -0.3320 -0.5251
 2433TIP3    H2 7306   2.771   2.301   2.716  0.1247  1.8983  0.0564
 2434TIP3   OH2 7307   2.634   3.646   2.488 -0.4973 -0.1205 -1.0558
 2434TIP3    H1 7308   2.543   3.676   2.488 -0.7307 -0.8094 -0.8399
 2434TIP3    H2 7309   2.658   3.645   2.395 -0.7263  0.0129 -1.1185
 2435TIP3   OH2 7310   0.616   0.036   4.810 -0.2462 -0.3113  0.0368
 2435TIP3    H1 7311   0.533   0.022   4.855 -0.5170 -0.7670 -0.5910
 2435TIP3    H2 7312   0.675  -0.029   4.847 -0.6197 -1.0512 -0.6205
 2436TIP3   OH2 7313   4.255   4.070   4.854  0.0915 -0.7527  0.0258
 2436TIP3    H1 7314   4.180   4.068   4.795  1.2753 -0.3069 -1.5766
 2436TIP3    H2 7315   4.252   4.157   4.894  1.8484  0.8477 -3.0095
 2437TIP3   OH2 7316   0.666   4.897   0.056  0.6794 -0.2306 -0.5659
 2437TIP3    H1 7317   0.660   4.834  -0.016 -1.5219  0.5465 -1.1284
 2437TIP3    H2 7318   0.578   4.934   0.063  0.8927 -0.1020  2.4160
 2438TIP3   OH2 7319   4.928   3.799   3.612  0.7985 -0.3078  0.3866
 2438TIP3    H1 7320   5.016   3.767   3.592  1.1057  0.1336  0.9948
 2438TIP3    H2 7321   4.942   3.889   3.642  0.1110 -0.1450  0.2298
 2439TIP3   OH2 7322   3.494   4.603   0.442  0.1445 -0.0360 -0.2431
 2439TIP3    H1 7323   3.583   4.609   0.478  0.6948 -1.9010 -1.1751
 2439TIP3    H2 7324   3.465   4.694   0.436  1.7407  0.5835  0.6810
 2440TIP3   OH2 7325   0.057   1.864   1.706 -0.4724 -0.3162 -0.1116
 2440TIP3    H1 7326   0.138   1.915   1.705 -1.7696  1.9642  1.8301
 2440TIP3    H2 7327   0.083   1.779   1.744  0.8289  0.7955  1.6328
 2441TIP3   OH2 7328   5.931   4.841   3.405  0.9380  0.7155 -0.0312
 2441TIP3    H1 7329   5.975   4.891   3.474  1.5040 -0.8356  0.7795
 2441TIP3    H2 7330   6.000   4.787   3.366  0.2310  0.0706 -0.4201
 2442TIP3   OH2 7331   5.286   0.655   1.929  0.6560  0.4787 -0.0761
 2442TIP3    H1 7332   5.214   0.718   1.935 -1.3240 -1.6842  0.0037
 2442TIP3    H2 7333   5.365   0.708   1.941 -0.9730  2.7047  1.5032
 2443TIP3   OH2 7334   3.814   4.829   3.455 -0.0370 -0.2974  0.1950
 2443TIP3    H1 7335   3.845   4.873   3.535  0.4897 -1.8021  0.8436
 2443TIP3    H2 7336   3.846   4.739   3.463  0.2495 -0.4277 -1.8376
 2444TIP3   OH2 7337   1.817   3.573   5.128  0.1428 -0.3326 -0.4617
 2444TIP3    H1 7338   1.912   3.566   5.136  0.3010  1.2363 -0.5751
 2444TIP3    H2 7339   1.797   3.539   5.041  0.6500 -0.3498 -0.5755
 2445TIP3   OH2 7340   5.663   1.775   0.215  0.0552  0.5311  0.3965
 2445TIP3    H1 7341   5.742   1.738   0.176 -0.2225 -0.1408  0.4574
 2445TIP3    H2 7342   5.684   1.785   0.308 -0.2878 -0.6637  0.6166
 2446TIP3   OH2 7343   3.669   4.710   2.266 -0.1743 -0.2436 -0.0325
 2446TIP3    H1 7344   3.579   4.678   2.264 -0.2558 -0.3166  2.3659
 2446TIP3    H2 7345   3.722   4.631   2.279  0.1785 -0.1000 -0.5534
 2447TIP3   OH2 7346   2.739   1.883   0.496 -0.0465 -0.2549 -0.1324
 2447TIP3    H1 7347   2.745   1.792   0.466  0.2413 -0.2786 -0.0092
 2447TIP3    H2 7348   2.734   1.876   0.591  1.4389 -0.0933 -0.0186
 2448TIP3   OH2 7349   3.649   3.403   1.040  0.0497  0.2669  0.1394
 2448TIP3    H1 7350   3.712   3.344   0.999  0.1620 -0.0718  0.7830
 2448TIP3    H2 7351   3.573   3.402   0.981 -0.4668 -1.5563  0.7680
 2449TIP3   OH2 7352   3.480   4.785   1.948  0.5499 -0.2805  0.1222
 2449TIP3    H1 7353   3.575   4.769   1.947  0.3040 -2.0484 -1.6757
 2449TIP3    H2 7354   3.445   4.727   1.880 -1.8873  0.0357  0.9983
 2450TIP3   OH2 7355   3.344   2.392   2.455 -0.2093  0.5998 -0.3956
 2450TIP3    H1 7356   3.414   2.457   2.462  1.2087 -0.7977 -0.9894
 2450TIP3    H2 7357   3.332   2.359   2.545  1.8210 -1.0161 -0.6307
 2451TIP3   OH2 7358   0.392   5.401   3.080 -0.0212  0.0989  0.2497
 2451TIP3    H1 7359   0.428   5.313   3.070  0.5397 -0.0225  2.7249
 2451TIP3    H2 7360   0.467   5.459   3.065  0.6003 -0.0528  2.3560
 2452TIP3   OH2 7361   4.432  -0.009   2.248  0.7791  0.4202  0.5652
 2452TIP3    H1 7362   4.342  -0.037   2.264  1.3868 -0.9165  1.8688
 2452TIP3    H2 7363   4.424   0.063   2.185 -1.1571  0.0653  0.3498
 2453TIP3   OH2 7364   5.562   5.894   4.387 -0.1673  0.1931 -0.4868
 2453TIP3    H1 7365   5.516   5.971   4.354 -0.4465  0.9784  1.6352
 2453TIP3    H2 7366   5.521   5.821   4.340 -0.8575  1.1985 -1.5163
 2454TIP3   OH2 7367   5.184   3.744   4.885 -0.0206  0.1935 -0.9346
 2454TIP3    H1 7368   5.265   3.719   4.840  0.1000 -0.2562 -0.4677
 2454TIP3    H2 7369   5.155   3.665   4.929  0.3000  0.8062  0.4594
 2455TIP3   OH2 7370   3.482   0.766   1.089  0.2016  0.1926 -0.3271
 2455TIP3    H1 7371   3.438   0.687   1.123  0.8331 -0.0106  0.0264
 2455TIP3    H2 7372   3.561   0.774   1.142  0.1877  1.0237 -0.4169
 2456TIP3   OH2 7373   4.944   0.923   2.312  0.5503 -0.7950 -0.1460
 2456TIP3    H1 7374   5.011   0.912   2.245 -1.1639  0.2535 -2.1525
 2456TIP3    H2 7375   4.895   0.841   2.309  0.3680 -0.6807 -0.3126
 2457TIP3   OH2 7376   4.062   3.218   0.613 -0.1306 -0.5067 -0.4365
 2457TIP3    H1 7377   4.156   3.235   0.603  1.0177 -3.4780  3.0177
 2457TIP3    H2 7378   4.031   3.289   0.669  0.6623 -0.7903  0.3887
 2458TIP3   OH2 7379   3.793   2.422   1.445  0.3980 -0.0218 -0.3147
 2458TIP3    H1 7380   3.714   2.387   1.486  0.0438  0.9802 -0.1087
 2458TIP3    H2 7381   3.865   2.375   1.487 -0.0059  0.2976  0.7543
 2459TIP3   OH2 7382  -0.017   4.530   2.733 -0.0676  0.2290 -0.0377
 2459TIP3    H1 7383   0.076   4.538   2.753 -0.0481 -1.0931  0.5030
 2459TIP3    H2 7384  -0.031   4.587   2.657  0.9962  1.0892  0.3879
 2460TIP3   OH2 7385   0.374   3.150   1.488 -0.2045  0.2840 -0.2885
 2460TIP3    H1 7386   0.377   3.071   1.434  0.0651  1.4136 -1.9704
 2460TIP3    H2 7387   0.280   3.166   1.502 -0.3440  0.7984 -1.6879
 2461TIP3   OH2 7388   4.290   0.969   2.320 -0.4140  0.3498 -0.2600
 2461TIP3    H1 7389   4.352   1.035   2.352 -0.0687 -0.4590  0.7715
 2461TIP3    H2 7390   4.234   0.950   2.395  0.7576 -1.9812  0.1165
 2462TIP3   OH2 7391   6.157   4.083   4.998  0.2283  0.2633 -0.3905
 2462TIP3    H1 7392   6.113   4.131   4.928  1.0702  1.2415 -0.2748
 2462TIP3    H2 7393   6.088   4.063   5.061 -0.4167 -0.0496 -1.1842
 2463TIP3   OH2 7394   5.658   4.127   3.158 -0.5349  0.2460  0.2574
 2463TIP3    H1 7395   5.723   4.159   3.221 -2.3384  1.9782  1.3659
 2463TIP3    H2 7396   5.660   4.191   3.087 -0.5562 -0.0786 -0.0356
 2464TIP3   OH2 7397   4.272   2.716   0.092  0.0640  0.0968  1.0041
 2464TIP3    H1 7398   4.296   2.725   0.000 -2.5010 -2.5799 -0.0985
 2464TIP3    H2 7399   4.178   2.735   0.095  0.0715  0.1077  3.0826
 2465TIP3   OH2 7400   0.691   3.319   3.201  0.6682 -0.5052  0.5844
 2465TIP3    H1 7401   0.729   3.358   3.123  0.5885  1.4539  1.4611
 2465TIP3    H2 7402   0.626   3.383   3.231 -0.2529 -1.8108  1.5236
 2466TIP3   OH2 7403   1.359   4.035   1.140  0.0994  0.5947 -0.2122
 2466TIP3    H1 7404   1.348   4.128   1.161  2.0048  0.7194  0.4531
 2466TIP3    H2 7405   1.284   3.992   1.180 -1.1895  1.9050 -1.1260
 2467TIP3   OH2 7406   0.243   5.478   3.709  0.4261  0.0307 -0.1758
 2467TIP3    H1 7407   0.325   5.431   3.728  0.9380  0.6958 -0.6754
 2467TIP3    H2 7408   0.222   5.454   3.619  0.7096  0.7603 -0.4466
 2468TIP3   OH2 7409   6.075   2.350   0.415  0.3517 -0.2006 -0.1973
 2468TIP3    H1 7410   6.143   2.355   0.482  0.4855  1.4933 -0.4358
 2468TIP3    H2 7411   6.062   2.440   0.386 -1.7310 -0.5209 -0.4315
 2469TIP3   OH2 7412   4.570   1.032   4.779  0.3978  0.2017 -0.2094
 2469TIP3    H1 7413   4.655   1.066   4.809  0.6308  1.2649 -1.9779
 2469TIP3    H2 7414   4.507   1.098   4.807  0.5713  1.0086 -1.6217
 2470TIP3   OH2 7415   0.636   3.419   2.335  0.6309 -0.1974  0.4631
 2470TIP3    H1 7416   0.673   3.366   2.265 -1.1838 -2.3429  1.0261
 2470TIP3    H2 7417   0.622   3.505   2.294  0.1452 -1.2139 -1.6682
 2471TIP3   OH2 7418   3.719   3.642   1.142 -0.4707  0.1504  0.4309
 2471TIP3    H1 7419   3.719   3.620   1.236  2.3799  0.4729  0.6122
 2471TIP3    H2 7420   3.684   3.565   1.099 -3.5094  0.6288  1.7805
 2472TIP3   OH2 7421   3.301   0.983   3.704  0.2318  0.1943  0.6488
 2472TIP3    H1 7422   3.311   1.024   3.618 -0.4320  0.2110  0.5716
 2472TIP3    H2 7423   3.304   1.056   3.765  0.9979  0.1531  0.6673
 2473TIP3   OH2 7424   0.343   4.499   0.260 -0.3911  0.3173 -0.0609
 2473TIP3    H1 7425   0.380   4.545   0.335 -0.9514 -0.5333  0.7745
 2473TIP3    H2 7426   0.413   4.498   0.195  1.4422 -1.9056  1.7308
 2474TIP3   OH2 7427   4.741   2.457   2.464 -0.1203 -0.0109  0.5628
 2474TIP3    H1 7428   4.735   2.400   2.388  0.8130  0.3291  0.2149
 2474TIP3    H2 7429   4.813   2.422   2.515  0.7383  1.0702  0.1373
 2475TIP3   OH2 7430   0.792   5.285   1.026 -0.3954  0.0388  0.7411
 2475TIP3    H1 7431   0.813   5.368   1.069 -0.6027  1.4221 -1.6590
 2475TIP3    H2 7432   0.827   5.294   0.938  0.1672 -2.7373  0.5794
 2476TIP3   OH2 7433   2.862   1.485   2.488 -0.1426 -0.3955 -0.1015
 2476TIP3    H1 7434   2.931   1.431   2.527  0.2188 -0.4455 -0.7755
 2476TIP3    H2 7435   2.908   1.563   2.457 -0.5371 -0.0389  0.2096
 2477TIP3   OH2 7436   3.086   0.328   4.713 -0.4803 -0.3991  0.1087
 2477TIP3    H1 7437   3.084   0.272   4.636 -2.1598  1.7187 -1.5254
 2477TIP3    H2 7438   3.173   0.369   4.711 -0.8681  0.4234 -1.3322
 2478TIP3   OH2 7439   0.240   0.942   5.034 -0.1037 -0.0851 -1.3638
 2478TIP3    H1 7440   0.268   0.860   4.993  1.0773 -0.0381 -0.6804
 2478TIP3    H2 7441   0.315   0.970   5.086 -1.0165  0.6816 -0.4264
 2479TIP3   OH2 7442   5.806   0.350   0.470 -0.3298 -0.4832 -0.0500
 2479TIP3    H1 7443   5.743   0.392   0.411 -1.6264 -0.3876  1.3490
 2479TIP3    H2 7444   5.752   0.302   0.533  0.9569  0.2531  1.6811
 2480TIP3   OH2 7445   3.235   2.246   0.887  0.2551 -0.6683  0.2380
 2480TIP3    H1 7446   3.145   2.250   0.917  0.3904  0.6572  0.5221
 2480TIP3    H2 7447   3.235   2.296   0.805  0.2905 -2.5749 -1.0011
 2481TIP3   OH2 7448   0.882   4.552   2.488  0.4104  0.5494 -0.4532
 2481TIP3    H1 7449   0.814   4.559   2.422 -0.2551  0.5827  0.2160
 2481TIP3    H2 7450   0.964   4.554   2.439 -0.0721  0.2828 -1.2923
 2482TIP3   OH2 7451   6.013   2.132   0.717 -0.0582 -0.0602 -0.1465
 2482TIP3    H1 7452   6.100   2.171   0.714 -0.1539  0.3031  1.1544
 2482TIP3    H2 7453   6.024   2.045   0.678  0.6399  0.3995 -0.9907
 2483TIP3   OH2 7454   4.144   0.680   0.971 -0.7147  0.2643  0.0750
 2483TIP3    H1 7455   4.089   0.756   0.953 -0.5420 -0.1357 -2.5353
 2483TIP3    H2 7456   4.084   0.614   1.007 -0.9999  1.3495  1.6606
 2484TIP3   OH2 7457   0.027   1.199   4.884 -0.4990  0.4815 -0.2829
 2484TIP3    H1 7458   0.077   1.207   4.802  0.4964 -1.5137  0.0670
 2484TIP3    H2 7459   0.090   1.218   4.953 -0.4220 -1.1598  0.1311
 2485TIP3   OH2 7460   4.036   0.320   0.117  0.1194 -0.3354  0.1949
 2485TIP3    H1 7461   4.070   0.257   0.180 -1.7793 -1.3915  0.2355
 2485TIP3    H2 7462   3.986   0.268   0.054  0.9187  0.8205 -1.4969
 2486TIP3   OH2 7463   4.375   4.069   1.482  0.0371 -0.1958 -0.7330
 2486TIP3    H1 7464   4.364   3.979   1.512  2.1480 -0.3841 -0.3974
 2486TIP3    H2 7465   4.406   4.062   1.392  1.6782  0.1114 -0.2243
 2487TIP3   OH2 7466   3.561   5.674   1.061 -0.2195 -0.0321 -0.2289
 2487TIP3    H1 7467   3.552   5.696   0.969  0.2773 -1.1201 -0.5534
 2487TIP3    H2 7468   3.559   5.758   1.106  1.2100  0.6533 -1.3781
 2488TIP3   OH2 7469   0.657   2.044   1.858  0.1974 -0.7983  0.1778
 2488TIP3    H1 7470   0.669   2.114   1.794  1.8916 -0.9652  0.2516
 2488TIP3    H2 7471   0.575   2.064   1.902 -0.4975 -0.1242 -1.3472
 2489TIP3   OH2 7472   6.019   0.665   1.656  0.3624 -0.1932  0.1190
 2489TIP3    H1 7473   6.035   0.712   1.575 -0.9828  0.7544  0.3576
 2489TIP3    H2 7474   6.055   0.577   1.641  0.2509  0.0014 -1.4485
 2490TIP3   OH2 7475   1.002   5.073   3.235 -0.3111  0.6200 -0.0382
 2490TIP3    H1 7476   0.960   5.103   3.155 -1.1519  0.8095  0.4676
 2490TIP3    H2 7477   0.942   5.009   3.272  0.5980 -0.3083 -0.1313
 2491TIP3   OH2 7478   1.237   0.358   0.064 -0.3079  0.7869  0.1396
 2491TIP3    H1 7479   1.255   0.422   0.133  1.5701 -0.4686  0.8832
 2491TIP3    H2 7480   1.141   0.356   0.058 -0.6157  0.1851  3.4824
 2492TIP3   OH2 7481   5.357   1.807   3.720  0.4710 -0.3010  0.0549
 2492TIP3    H1 7482   5.323   1.871   3.783  0.2753 -0.2763 -0.0745
 2492TIP3    H2 7483   5.438   1.846   3.688 -0.8360  1.0365 -1.8179
 2493TIP3   OH2 7484   1.774   2.957   3.195  0.2073 -0.3700 -0.0983
 2493TIP3    H1 7485   1.847   2.956   3.257  0.1221  0.3371  0.0237
 2493TIP3    H2 7486   1.695   2.952   3.249  0.1326  0.2352 -0.1405
 2494TIP3   OH2 7487   2.452   2.714   0.090 -0.0686 -0.0669  0.1949
 2494TIP3    H1 7488   2.443   2.805   0.119  0.3233  0.2991 -0.8112
 2494TIP3    H2 7489   2.518   2.678   0.148  0.2952  0.4969  0.1403
 2495TIP3   OH2 7490   1.484   2.346   5.181  0.3412  0.3831  0.4462
 2495TIP3    H1 7491   1.489   2.399   5.260  0.5678 -0.0143  0.6997
 2495TIP3    H2 7492   1.409   2.382   5.133  0.9875  1.4747  0.2082
 2496TIP3   OH2 7493   3.138   4.378   2.738  0.5820  0.1062 -0.4463
 2496TIP3    H1 7494   3.060   4.363   2.684 -0.6313 -2.1610  1.7136
 2496TIP3    H2 7495   3.127   4.466   2.773 -1.0049 -0.1327 -0.2697
 2497TIP3   OH2 7496   2.683   2.668   4.345 -0.3368 -0.4900  0.2112
 2497TIP3    H1 7497   2.757   2.722   4.316 -0.5952 -1.5796 -2.7926
 2497TIP3    H2 7498   2.669   2.694   4.436  0.5694  3.2828 -0.5772
 2498TIP3   OH2 7499   4.855   1.033   3.973  0.3492  0.1594  0.2425
 2498TIP3    H1 7500   4.811   0.947   3.973  0.5141  0.0698 -0.1779
 2498TIP3    H2 7501   4.948   1.012   3.981  0.4136  0.2800 -0.1478
 2499TIP3   OH2 7502   6.066   0.750   2.633 -0.1075 -0.0029  0.9056
 2499TIP3    H1 7503   6.080   0.699   2.552 -1.2174  1.5890 -0.3538
 2499TIP3    H2 7504   6.147   0.800   2.644 -0.4667  0.8313 -0.0583
 2500TIP3   OH2 7505   4.753   3.127   3.845 -0.1780 -0.8765 -0.4429
 2500TIP3    H1 7506   4.807   3.205   3.847 -0.4683 -0.6798 -0.2639
 2500TIP3    H2 7507   4.690   3.139   3.916  0.9401 -2.1215  0.8326
 2501TIP3   OH2 7508   0.000   5.420   4.985  0.4582 -0.5267  0.2214
 2501TIP3    H1 7509   0.008   5.377   4.900 -0.1433 -0.1174 -0.0483
 2501TIP3    H2 7510   0.006   5.348   5.048  0.1973 -0.9169 -0.1923
 2502TIP3   OH2 7511   6.178   4.536   2.435 -0.7770  0.0775  0.7473
 2502TIP3    H1 7512   6.233   4.604   2.475 -1.7601  0.9283  0.6874
 2502TIP3    H2 7513   6.225   4.510   2.356 -1.3976  2.2709 -0.4249
 2503TIP3   OH2 7514   3.267   3.130   3.842  0.0043  0.4409 -0.3094
 2503TIP3    H1 7515   3.294   3.150   3.752 -0.7770  0.3451 -0.5745
 2503TIP3    H2 7516   3.327   3.061   3.870 -0.4874 -0.3595 -1.1811
 2504TIP3   OH2 7517   3.727   4.648   4.425 -0.1503  0.1735 -0.2770
 2504TIP3    H1 7518   3.633   4.663   4.431 -0.3491 -1.2293  0.5596
 2504TIP3    H2 7519   3.736   4.577   4.361  0.2588 -0.2507  0.2391
 2505TIP3   OH2 7520   1.636   4.057   1.089 -0.3498 -0.4841 -0.0234
 2505TIP3    H1 7521   1.542   4.059   1.109 -0.2233  0.8597  0.5238
 2505TIP3    H2 7522   1.646   4.120   1.017  0.1173 -0.7406 -0.1844
 2506TIP3   OH2 7523   1.642   1.481   0.459 -0.5382 -0.0649  0.0456
 2506TIP3    H1 7524   1.650   1.569   0.494 -1.7431  0.5131 -1.0410
 2506TIP3    H2 7525   1.576   1.488   0.390 -0.6408 -1.8098 -0.0929
 2507TIP3   OH2 7526   5.460   3.984   3.230  0.3715  0.4210 -0.2163
 2507TIP3    H1 7527   5.511   3.905   3.211 -0.5888 -0.1966 -0.2745
 2507TIP3    H2 7528   5.526   4.053   3.239  1.4654 -0.8245  2.3496
 2508TIP3   OH2 7529   2.253   2.810   2.992 -0.4403 -0.5060  0.2059
 2508TIP3    H1 7530   2.161   2.832   3.005 -0.5699 -0.5445 -0.5825
 2508TIP3    H2 7531   2.255   2.765   2.908  0.4462  0.4591 -0.3037
 2509TIP3   OH2 7532   0.578   4.761   1.060 -0.6743  0.0870 -0.0783
 2509TIP3    H1 7533   0.654   4.707   1.080  0.0479  0.2431 -2.1514
 2509TIP3    H2 7534   0.611   4.851   1.064 -1.2598  0.2771  0.9120
 2510TIP3   OH2 7535   2.409   1.307   3.264 -0.1280  0.4011  0.3655
 2510TIP3    H1 7536   2.406   1.276   3.173 -0.0915  1.5647 -0.0528
 2510TIP3    H2 7537   2.433   1.400   3.257 -0.5769  0.6262  1.5358
 2511TIP3   OH2 7538   5.138   4.220   5.001 -0.5874  0.1538 -0.5503
 2511TIP3    H1 7539   5.043   4.210   4.995 -0.7912  1.6532 -0.3060
 2511TIP3    H2 7540   5.173   4.173   4.925 -1.4019 -1.6017  0.1139
 2512TIP3   OH2 7541   2.274   5.407   0.844  0.8305  0.1230 -0.0178
 2512TIP3    H1 7542   2.260   5.463   0.767  2.1155  0.2196 -0.2059
 2512TIP3    H2 7543   2.269   5.318   0.810 -2.7121 -0.0507  0.5244
 2513TIP3   OH2 7544   2.732   5.972   2.408 -0.1168  0.3805  0.2876
 2513TIP3    H1 7545   2.713   6.045   2.350  1.4168  0.9061  0.4263
 2513TIP3    H2 7546   2.673   5.902   2.378  0.2939  0.7861 -1.6083
 2514TIP3   OH2 7547   4.331   2.069   3.170 -0.3938  0.0397 -0.8017
 2514TIP3    H1 7548   4.364   2.152   3.136 -0.5043  0.7646  0.7596
 2514TIP3    H2 7549   4.242   2.089   3.200 -0.3932 -0.6114 -0.3248
 2515TIP3   OH2 7550   2.896   1.543   1.947 -0.6193  0.3891  0.6623
 2515TIP3    H1 7551   2.875   1.460   1.904 -3.9314  0.7368  1.3213
 2515TIP3    H2 7552   2.900   1.522   2.040 -1.0962  0.8860  0.8006
 2516TIP3   OH2 7553   1.040   3.772   2.203  0.1195  0.6128  0.4841
 2516TIP3    H1 7554   0.964   3.735   2.248  1.2978 -0.6602  1.5397
 2516TIP3    H2 7555   1.044   3.724   2.120 -0.2383  0.7086  0.4089
 2517TIP3   OH2 7556   6.048   3.720   0.279  0.7253  0.1874 -0.3498
 2517TIP3    H1 7557   6.015   3.631   0.284 -0.5363  0.6049 -0.9849
 2517TIP3    H2 7558   6.139   3.710   0.249  0.6686 -0.8835 -0.1935
 2518TIP3   OH2 7559   0.861   1.916   5.048  0.8371 -0.0389 -0.1962
 2518TIP3    H1 7560   0.899   2.003   5.053  1.1971 -0.0186 -2.5176
 2518TIP3    H2 7561   0.926   1.862   5.004 -0.3419 -0.8869 -0.9851
 2519TIP3   OH2 7562   6.124   5.907   1.050 -0.3079 -0.4468 -0.5310
 2519TIP3    H1 7563   6.033   5.882   1.034 -1.0007  0.9332  0.9698
 2519TIP3    H2 7564   6.174   5.827   1.033 -1.8049 -1.2820 -1.2157
 2520TIP3   OH2 7565   4.922   0.424   3.301 -0.2314  0.0561 -0.6955
 2520TIP3    H1 7566   4.849   0.428   3.363 -0.8877 -0.0550 -1.4422
 2520TIP3    H2 7567   4.975   0.501   3.321  1.8510 -1.9964  2.7075
 2521TIP3   OH2 7568   5.424   1.052   3.730  0.1086 -0.0970  0.0239
 2521TIP3    H1 7569   5.480   0.977   3.750 -0.2467 -0.4960 -0.4757
 2521TIP3    H2 7570   5.336   1.015   3.724 -0.4125  0.6856  1.9190
 2522TIP3   OH2 7571   5.019   5.674   3.505  0.2020  0.1653 -0.1239
 2522TIP3    H1 7572   5.038   5.730   3.430  0.5774 -0.9626 -0.9087
 2522TIP3    H2 7573   4.958   5.609   3.471 -0.2179  0.0844  0.7561
 2523TIP3   OH2 7574   1.097   1.375   1.980  0.1728 -0.2736 -0.1983
 2523TIP3    H1 7575   1.117   1.303   2.039 -0.6748 -0.6118 -0.3060
 2523TIP3    H2 7576   1.139   1.452   2.019 -1.0059 -0.3343  1.2644
 2524TIP3   OH2 7577   0.612   1.235   0.700 -0.2453 -0.4303 -0.2786
 2524TIP3    H1 7578   0.654   1.320   0.708  1.7677 -1.3659 -0.4200
 2524TIP3    H2 7579   0.565   1.224   0.783 -1.7859  1.3942 -0.8287
 2525TIP3   OH2 7580   2.781   0.907   0.789 -0.2045  0.0329 -0.0665
 2525TIP3    H1 7581   2.860   0.871   0.750  0.1795  2.2197 -1.4712
 2525TIP3    H2 7582   2.813   0.961   0.862 -0.3262  1.1593 -0.8199
 2526TIP3   OH2 7583   4.043   3.236   1.257  0.1810  0.1916 -0.2592
 2526TIP3    H1 7584   4.122   3.182   1.247  0.0744  0.0490 -0.3357
 2526TIP3    H2 7585   4.012   3.251   1.167  0.4403  0.7263 -0.2664
 2527TIP3   OH2 7586   6.013   1.811   1.544  0.1502 -0.1248  0.0804
 2527TIP3    H1 7587   5.919   1.808   1.526 -0.0727 -3.2477  1.0854
 2527TIP3    H2 7588   6.021   1.781   1.635  2.1258 -0.1348 -0.0440
 2528TIP3   OH2 7589   3.206   3.375   2.406 -0.2625 -0.6052  0.3839
 2528TIP3    H1 7590   3.300   3.355   2.404 -0.1299 -0.1956 -2.6572
 2528TIP3    H2 7591   3.167   3.309   2.349 -1.4355  0.7428 -0.4294
 2529TIP3   OH2 7592   2.921   1.813   2.850 -0.6739 -0.1845 -0.2218
 2529TIP3    H1 7593   2.992   1.777   2.797 -1.4879 -0.3130 -1.2525
 2529TIP3    H2 7594   2.895   1.741   2.908  2.6098  0.9702  3.0565
 2530TIP3   OH2 7595   2.008   3.433   0.092 -0.3477  0.4644 -0.4658
 2530TIP3    H1 7596   2.006   3.412   0.185  0.8896  1.5441 -0.1626
 2530TIP3    H2 7597   2.000   3.348   0.048 -0.8303 -0.0711  0.6215
 2531TIP3   OH2 7598   4.087   1.529   0.805  0.0880  0.1483  0.0975
 2531TIP3    H1 7599   4.115   1.459   0.863  1.9157 -1.0899 -2.1157
 2531TIP3    H2 7600   4.010   1.493   0.760 -0.2427  0.4057  0.4510
 2532TIP3   OH2 7601   5.552   1.918   2.398 -0.2680 -0.6815 -0.5390
 2532TIP3    H1 7602   5.536   1.900   2.306  1.2614 -1.8744 -0.6145
 2532TIP3    H2 7603   5.641   1.886   2.414  0.1509  1.0706  0.9555
 2533TIP3   OH2 7604   5.156   3.698   0.991 -0.3934  0.4141 -0.6427
 2533TIP3    H1 7605   5.129   3.778   1.035 -1.2695  1.5106 -3.0320
 2533TIP3    H2 7606   5.203   3.727   0.913 -0.4181 -1.4106 -1.3889
 2534TIP3   OH2 7607   3.264   2.524   3.367 -0.6490  0.0118 -0.4984
 2534TIP3    H1 7608   3.216   2.504   3.448  1.4405  0.0943  0.8409
 2534TIP3    H2 7609   3.205   2.496   3.297 -1.7314 -1.9569  1.0782
 2535TIP3   OH2 7610   4.377   4.536   3.500  0.1178 -0.6183  0.5122
 2535TIP3    H1 7611   4.373   4.455   3.449  1.0619 -0.0395 -0.5216
 2535TIP3    H2 7612   4.470   4.548   3.519 -0.0217  0.1785  0.7371
 2536TIP3   OH2 7613   5.392   1.391   0.773  0.3107 -0.2038 -0.5723
 2536TIP3    H1 7614   5.444   1.418   0.697 -0.3361  1.6336 -0.4082
 2536TIP3    H2 7615   5.305   1.426   0.756  0.3401  0.9210  1.3365
 2537TIP3   OH2 7616   5.603   0.819   2.497  0.1116 -0.1462  0.3998
 2537TIP3    H1 7617   5.517   0.779   2.512  0.2721 -0.1578  1.3806
 2537TIP3    H2 7618   5.643   0.765   2.429  0.0100 -1.1725  1.1407
 2538TIP3   OH2 7619   5.023   5.732   0.353  0.0593 -0.3221 -0.4158
 2538TIP3    H1 7620   5.093   5.666   0.354  2.3615  1.9312 -1.4337
 2538TIP3    H2 7621   4.961   5.700   0.289  0.0121 -2.4840  0.6229
 2539TIP3   OH2 7622   2.398   3.859   3.424  0.0860 -0.0282  0.0361
 2539TIP3    H1 7623   2.435   3.774   3.399 -0.3250 -0.1786 -0.0764
 2539TIP3    H2 7624   2.387   3.905   3.341  2.2629  0.9772  0.2329
 2540TIP3   OH2 7625   0.181   2.514   1.355 -0.4536  0.3473 -0.0573
 2540TIP3    H1 7626   0.167   2.602   1.320 -2.0547  0.6168  1.1694
 2540TIP3    H2 7627   0.093   2.480   1.370  0.1564 -0.4119  2.0623
 2541TIP3   OH2 7628   3.913   5.844   0.825 -0.4261  0.0035 -0.2947
 2541TIP3    H1 7629   3.827   5.827   0.786 -0.9308  0.9099  0.3891
 2541TIP3    H2 7630   3.953   5.910   0.768  0.2038 -1.0353 -1.1082
 2542TIP3   OH2 7631   5.128   2.706   3.035  0.2135 -0.2135  0.2107
 2542TIP3    H1 7632   5.126   2.766   2.961  1.1393 -0.6962 -0.2268
 2542TIP3    H2 7633   5.145   2.620   2.996  0.5780 -0.4977  0.9651
 2543TIP3   OH2 7634   2.648   1.685   1.925  0.0031 -0.2090  0.3719
 2543TIP3    H1 7635   2.714   1.620   1.901 -0.3146 -0.0800 -0.8993
 2543TIP3    H2 7636   2.678   1.718   2.010  1.2505 -0.5731  0.1023
 2544TIP3   OH2 7637   4.032   5.405   3.680 -0.1342 -0.6772  0.5547
 2544TIP3    H1 7638   3.999   5.394   3.591 -0.0791  1.4376  0.2057
 2544TIP3    H2 7639   3.959   5.378   3.736 -0.9201 -0.1630 -0.1810
 2545TIP3   OH2 7640   2.016   2.169   2.702  0.0737  0.2194  0.3823
 2545TIP3    H1 7641   2.017   2.242   2.640 -0.3787 -0.3766 -0.3412
 2545TIP3    H2 7642   1.928   2.172   2.740  0.1295  0.1806  0.5152
 2546TIP3   OH2 7643   0.203   3.787   2.004  0.3071  0.1003  0.0222
 2546TIP3    H1 7644   0.254   3.826   2.075  0.2830  1.3126 -0.6013
 2546TIP3    H2 7645   0.141   3.729   2.049  0.1953  0.9446  1.0065
 2547TIP3   OH2 7646   4.992   1.804   1.071 -0.4861 -0.0875 -0.2628
 2547TIP3    H1 7647   5.060   1.801   1.138 -0.1010 -0.0856 -0.6491
 2547TIP3    H2 7648   4.910   1.790   1.119 -0.2261  0.0444  0.2215
 2548TIP3   OH2 7649   0.796   1.704   1.523 -0.1873  0.0755 -0.4071
 2548TIP3    H1 7650   0.817   1.611   1.513 -1.8258 -0.4336  0.6214
 2548TIP3    H2 7651   0.839   1.730   1.604  0.9121  0.4550 -1.0787
 2549TIP3   OH2 7652   5.645   0.508   4.123 -0.0628  0.8277 -0.0473
 2549TIP3    H1 7653   5.701   0.570   4.075  0.8714 -0.0035 -0.0684
 2549TIP3    H2 7654   5.701   0.432   4.138 -0.3814  0.9637  2.1691
 2550TIP3   OH2 7655   2.922   2.772   3.497  0.5037 -0.0585 -0.3986
 2550TIP3    H1 7656   2.909   2.720   3.418  0.7078  0.8562 -1.0600
 2550TIP3    H2 7657   2.851   2.746   3.555 -1.4251  1.2834 -1.9919
 2551TIP3   OH2 7658   3.355   3.666   1.071  0.2584 -0.1459  0.1493
 2551TIP3    H1 7659   3.331   3.580   1.104 -3.6188  1.0943  1.1569
 2551TIP3    H2 7660   3.297   3.681   0.996  0.6818  1.6085  0.1145
 2552TIP3   OH2 7661   1.767   1.284   2.394 -0.2747 -0.3598  0.7506
 2552TIP3    H1 7662   1.711   1.256   2.467  0.0653  1.1631  1.6365
 2552TIP3    H2 7663   1.839   1.331   2.436  0.0509  0.3506 -0.5633
 2553TIP3   OH2 7664   0.314   1.044   4.402 -0.1694  0.1550 -0.1994
 2553TIP3    H1 7665   0.237   1.038   4.459 -0.1645 -0.4884 -0.2516
 2553TIP3    H2 7666   0.369   0.970   4.427  0.5265  0.7186 -0.0344
 2554TIP3   OH2 7667   3.335   1.766   0.458 -0.1668  0.0079 -0.1036
 2554TIP3    H1 7668   3.389   1.808   0.525 -0.9264  0.7177  0.0804
 2554TIP3    H2 7669   3.359   1.674   0.461 -0.6098 -0.0746  1.5705
 2555TIP3   OH2 7670   1.542   5.877   0.332  0.3121  0.0455 -0.0903
 2555TIP3    H1 7671   1.495   5.894   0.250 -0.5451  1.1548  0.5949
 2555TIP3    H2 7672   1.497   5.801   0.369  0.3625 -0.1371 -0.4008
 2556TIP3   OH2 7673   1.301   2.607   4.367 -0.3165 -0.0822  0.1811
 2556TIP3    H1 7674   1.282   2.642   4.280 -0.0443 -0.2304  0.0610
 2556TIP3    H2 7675   1.387   2.642   4.389 -0.9192  0.9888  0.9333
 2557TIP3   OH2 7676   4.514   2.182   3.963  0.7198 -0.2318 -0.0955
 2557TIP3    H1 7677   4.463   2.263   3.973  2.1703  0.9059 -1.4720
 2557TIP3    H2 7678   4.562   2.194   3.881  2.1253 -1.8696  0.4406
 2558TIP3   OH2 7679   5.729   3.289   4.195  0.2721 -0.2298 -0.6316
 2558TIP3    H1 7680   5.755   3.234   4.121 -0.4222  0.0288 -1.0790
 2558TIP3    H2 7681   5.681   3.362   4.156  1.2829  0.7689 -0.0536
 2559TIP3   OH2 7682   2.939   0.517   0.882 -0.0991 -0.1272 -0.9770
 2559TIP3    H1 7683   2.941   0.482   0.971  0.9406  3.0118  0.3721
 2559TIP3    H2 7684   2.847   0.512   0.856 -0.3882 -1.2328  0.1836
 2560TIP3   OH2 7685   0.205   3.266   4.775 -0.4087 -0.5298  0.0421
 2560TIP3    H1 7686   0.252   3.327   4.718  2.6231 -0.4929  2.2917
 2560TIP3    H2 7687   0.232   3.179   4.744  0.1256 -0.5354  0.4955
 2561TIP3   OH2 7688   5.652   1.856   2.991 -0.1044  0.9102  1.0388
 2561TIP3    H1 7689   5.736   1.820   2.961  0.0994  2.8446 -0.9679
 2561TIP3    H2 7690   5.621   1.908   2.917 -2.8490  0.6748  1.9389
 2562TIP3   OH2 7691   0.716   0.043   0.816  0.0753 -0.2140  0.1654
 2562TIP3    H1 7692   0.794   0.029   0.870  0.6863 -1.4442 -0.9611
 2562TIP3    H2 7693   0.690  -0.045   0.789 -1.1386  0.2602 -0.2676
 2563TIP3   OH2 7694   1.326   5.654   3.182  0.1521 -0.3251  0.7023
 2563TIP3    H1 7695   1.306   5.565   3.212 -0.0837  0.2688  2.4725
 2563TIP3    H2 7696   1.292   5.710   3.252 -0.3187  1.2084 -0.6857
 2564TIP3   OH2 7697   3.146   5.798   2.058 -0.0333  0.0763  0.0789
 2564TIP3    H1 7698   3.141   5.891   2.036  0.5772  0.4413  1.3656
 2564TIP3    H2 7699   3.079   5.757   2.003 -0.4151  1.2865 -0.4104
 2565TIP3   OH2 7700   4.329   0.620   4.713 -0.0925  0.4942 -0.6594
 2565TIP3    H1 7701   4.302   0.706   4.746 -0.0654  0.6360 -1.0038
 2565TIP3    H2 7702   4.248   0.571   4.703 -0.0335  0.1365  0.4724
 2566TIP3   OH2 7703   2.790   4.454   0.110  0.6308  0.0221  0.1796
 2566TIP3    H1 7704   2.837   4.415   0.183  1.8810 -1.0198 -1.1491
 2566TIP3    H2 7705   2.798   4.391   0.039 -1.3249  0.5952 -0.6344
 2567TIP3   OH2 7706   6.207   1.577   1.499  0.4562 -0.1810  0.0610
 2567TIP3    H1 7707   6.186   1.629   1.577 -0.3074 -0.7470  0.2492
 2567TIP3    H2 7708   6.145   1.606   1.433  1.1330  0.3294 -0.3708
 2568TIP3   OH2 7709   2.821   2.239   3.939  0.0226  0.2284  0.1053
 2568TIP3    H1 7710   2.742   2.202   3.979  0.6771 -1.9972 -0.4969
 2568TIP3    H2 7711   2.893   2.196   3.984  0.8778  1.4274 -0.0888
 2569TIP3   OH2 7712   4.736   5.397   4.613 -0.6192 -0.1673 -0.5281
 2569TIP3    H1 7713   4.766   5.432   4.529  0.8737 -0.8133 -0.2902
 2569TIP3    H2 7714   4.790   5.320   4.628 -0.6673  0.0800  1.1579
 2570TIP3   OH2 7715   3.662   2.638   4.684 -0.4356 -0.7503  0.6868
 2570TIP3    H1 7716   3.604   2.707   4.717 -1.1892 -1.6581  1.3422
 2570TIP3    H2 7717   3.722   2.621   4.756  0.2348 -0.2630  0.2476
 2571TIP3   OH2 7718   4.212   0.365   3.532 -0.7283 -0.6534  0.6971
 2571TIP3    H1 7719   4.254   0.430   3.476  0.3346 -2.9007 -1.2846
 2571TIP3    H2 7720   4.119   0.387   3.530 -0.4369  0.5528 -0.2496
 2572TIP3   OH2 7721   3.613   5.222   1.637  0.1648 -0.7171 -0.0406
 2572TIP3    H1 7722   3.569   5.307   1.634  1.2867 -0.0420  1.2654
 2572TIP3    H2 7723   3.574   5.177   1.711  3.2211  0.9053  2.8009
 2573TIP3   OH2 7724   2.572   1.212   5.048 -0.7788 -0.6404 -0.5013
 2573TIP3    H1 7725   2.558   1.250   4.962 -1.4947 -0.8827 -0.5043
 2573TIP3    H2 7726   2.667   1.205   5.057 -0.6336  1.0684 -0.5146
 2574TIP3   OH2 7727   3.909   3.034   1.432 -0.3277  0.1875 -0.5328
 2574TIP3    H1 7728   3.970   3.068   1.366  0.9207 -0.6613  0.1276
 2574TIP3    H2 7729   3.946   3.063   1.515  0.9958 -2.8773  0.1035
 2575TIP3   OH2 7730   1.706   5.667   4.481  0.0768  0.0746  0.3150
 2575TIP3    H1 7731   1.755   5.625   4.551  1.4942  1.4543  0.2074
 2575TIP3    H2 7732   1.769   5.727   4.440 -1.1085  0.3317 -1.2301
 2576TIP3   OH2 7733   1.515   2.271   1.388  0.3687 -0.1510  0.0296
 2576TIP3    H1 7734   1.581   2.205   1.371  0.2062 -0.1105 -0.8507
 2576TIP3    H2 7735   1.433   2.222   1.393  0.0858  0.0595 -1.7783
 2577TIP3   OH2 7736   3.427   2.692   4.114 -0.6629  0.0159 -0.1628
 2577TIP3    H1 7737   3.437   2.646   4.197 -1.5217  0.9975  0.5223
 2577TIP3    H2 7738   3.498   2.659   4.058  0.5514  0.0628  1.2922
 2578TIP3   OH2 7739   4.053   5.174   0.300 -0.3457 -0.0211  0.2295
 2578TIP3    H1 7740   4.106   5.253   0.300  1.0626 -0.8636 -1.9103
 2578TIP3    H2 7741   4.057   5.142   0.390  0.1552  1.5957  0.8111
 2579TIP3   OH2 7742   2.511   0.735   3.438 -0.1877 -0.0018  0.0437
 2579TIP3    H1 7743   2.506   0.783   3.355 -0.4343  0.6131  0.4035
 2579TIP3    H2 7744   2.592   0.684   3.432  0.6769  1.3181  0.0824
 2580TIP3   OH2 7745   5.813   0.096   0.845 -0.0845  0.7001  0.3364
 2580TIP3    H1 7746   5.766   0.013   0.837 -1.2443  1.5055 -2.2513
 2580TIP3    H2 7747   5.778   0.150   0.775  2.1422  2.6607  0.6130
 2581TIP3   OH2 7748   4.275   0.794   4.498  0.2201  0.2128  0.2323
 2581TIP3    H1 7749   4.278   0.881   4.539 -0.5852  1.8729 -2.8860
 2581TIP3    H2 7750   4.182   0.780   4.480  0.5469 -0.3293 -1.1101
 2582TIP3   OH2 7751   4.797   1.822   1.311  0.7930  0.0566  0.4560
 2582TIP3    H1 7752   4.766   1.912   1.301 -0.7134 -0.2692  1.8441
 2582TIP3    H2 7753   4.814   1.812   1.405 -2.0604 -1.9697  0.8691
 2583TIP3   OH2 7754   2.547   0.021   0.849  0.2101 -0.4088 -0.4105
 2583TIP3    H1 7755   2.521   0.076   0.923 -0.8284 -0.4418 -0.7461
 2583TIP3    H2 7756   2.476  -0.042   0.839 -0.4624  0.5826 -2.4134
 2584TIP3   OH2 7757   2.381   1.241   3.936 -0.2347  0.1487  0.2953
 2584TIP3    H1 7758   2.314   1.213   3.874  3.1963 -0.5871 -3.4952
 2584TIP3    H2 7759   2.409   1.327   3.904 -0.1703  1.0481  2.5800
 2585TIP3   OH2 7760   2.677   5.518   0.081  0.1550 -0.5095 -0.0912
 2585TIP3    H1 7761   2.770   5.500   0.096  0.3018  0.8592  0.8230
 2585TIP3    H2 7762   2.649   5.449   0.021  2.3916  0.6366 -2.6277
 2586TIP3   OH2 7763   1.292   4.766   5.062 -0.0264 -0.1260 -0.0905
 2586TIP3    H1 7764   1.272   4.673   5.069  2.3930 -0.8054 -1.3938
 2586TIP3    H2 7765   1.379   4.775   5.100 -0.9991  2.0133  1.8894
 2587TIP3   OH2 7766   0.628   1.397   2.646 -0.1426 -0.2184 -0.5604
 2587TIP3    H1 7767   0.578   1.392   2.565  0.7525 -0.0457 -1.1468
 2587TIP3    H2 7768   0.566   1.428   2.712 -1.4196 -2.2654 -0.7045
 2588TIP3   OH2 7769   4.179   1.749   1.658  0.1846 -0.1358  0.2143
 2588TIP3    H1 7770   4.217   1.835   1.674 -0.7330  0.4561 -0.7145
 2588TIP3    H2 7771   4.255   1.690   1.657  0.8720  0.7252  0.3906
 2589TIP3   OH2 7772   2.757   2.001   4.381  0.2893 -0.0261  0.6722
 2589TIP3    H1 7773   2.731   2.038   4.465  0.6421 -2.6064  1.9977
 2589TIP3    H2 7774   2.675   1.994   4.332  0.0598  1.3498  0.8092
 2590TIP3   OH2 7775   5.954   3.266   4.542  0.1790  0.3146 -0.2893
 2590TIP3    H1 7776   5.898   3.297   4.614 -0.3604  1.6643 -1.2572
 2590TIP3    H2 7777   6.025   3.330   4.538 -0.7381  1.2955 -2.0658
 2591TIP3   OH2 7778   3.854   5.140   0.750  0.3621 -0.4349  0.1413
 2591TIP3    H1 7779   3.809   5.081   0.689  0.7259  1.6631 -2.3169
 2591TIP3    H2 7780   3.788   5.204   0.774  0.9848  0.4521 -0.4441
 2592TIP3   OH2 7781   2.146   4.922   1.184  0.0692  0.1579 -0.1531
 2592TIP3    H1 7782   2.181   4.907   1.272 -1.1081 -1.2218  0.1181
 2592TIP3    H2 7783   2.180   4.849   1.132  0.6759  0.9078 -0.8609
 2593TIP3   OH2 7784   0.846   2.193   4.154  0.0142  0.8895 -0.3289
 2593TIP3    H1 7785   0.875   2.279   4.183 -0.3794  1.0327 -0.3639
 2593TIP3    H2 7786   0.783   2.165   4.219  1.5600 -0.2309  0.7795
 2594TIP3   OH2 7787   4.444   5.758   2.127 -0.5100 -0.5830 -0.2330
 2594TIP3    H1 7788   4.472   5.741   2.216  0.6337 -1.2377 -0.6945
 2594TIP3    H2 7789   4.360   5.714   2.119 -1.8335  1.4885  1.2135
 2595TIP3   OH2 7790   4.201   1.354   4.849 -0.1644 -0.0523 -0.6527
 2595TIP3    H1 7791   4.107   1.344   4.836 -0.5854  0.1644  1.6601
 2595TIP3    H2 7792   4.228   1.421   4.786 -1.7541  0.5802 -0.6977
 2596TIP3   OH2 7793   5.264   4.940   0.276 -0.0670  0.0014 -0.2049
 2596TIP3    H1 7794   5.292   4.849   0.273 -0.5827 -0.1484 -0.5286
 2596TIP3    H2 7795   5.228   4.958   0.189  0.0083  0.5060 -0.1394
 2597TIP3   OH2 7796   3.805   1.255   4.924 -0.2026  0.2439  0.1937
 2597TIP3    H1 7797   3.855   1.314   4.867 -0.3495 -0.2285 -0.4362
 2597TIP3    H2 7798   3.840   1.168   4.904 -2.6862 -0.4127 -1.8920
 2598TIP3   OH2 7799   4.602   5.380   0.072  0.0044  0.2587  0.3640
 2598TIP3    H1 7800   4.542   5.307   0.086  1.1557 -0.9223 -0.6492
 2598TIP3    H2 7801   4.620   5.413   0.160 -1.1036 -0.1815  0.7796
 2599TIP3   OH2 7802   4.948   0.779   1.686  0.0505 -0.4949 -0.0865
 2599TIP3    H1 7803   5.014   0.770   1.617  0.1612 -0.2596 -0.0128
 2599TIP3    H2 7804   4.929   0.689   1.714  0.2593 -0.5693 -0.1847
 2600TIP3   OH2 7805   3.846   2.784   1.743 -0.8623 -0.0668 -0.3611
 2600TIP3    H1 7806   3.801   2.710   1.784 -1.4798  1.0496  1.0865
 2600TIP3    H2 7807   3.779   2.828   1.692 -1.5726  1.6347  1.8476
 2601TIP3   OH2 7808   0.430   5.698   4.379 -0.1724  0.0043  0.7149
 2601TIP3    H1 7809   0.416   5.750   4.458 -2.4903  0.8388 -0.1492
 2601TIP3    H2 7810   0.413   5.607   4.406  0.8597  0.0398  1.5403
 2602TIP3   OH2 7811   6.102   2.203   1.745  0.0349  0.2947  0.1491
 2602TIP3    H1 7812   6.067   2.292   1.750  1.6346  1.1051 -1.5949
 2602TIP3    H2 7813   6.053   2.162   1.674 -1.8843 -0.8584  2.0567
 2603TIP3   OH2 7814   4.014   1.136   2.658  0.2572 -0.0722 -0.1618
 2603TIP3    H1 7815   4.108   1.151   2.650 -0.0263  1.2884 -1.2846
 2603TIP3    H2 7816   3.975   1.223   2.652 -1.1971 -0.7809 -1.7788
 2604TIP3   OH2 7817   2.096   3.612   4.019  0.1988  0.1497  0.1319
 2604TIP3    H1 7818   2.011   3.622   4.062  0.2772  2.1915 -0.0956
 2604TIP3    H2 7819   2.092   3.525   3.978 -1.9999  0.4086 -0.3453
 2605TIP3   OH2 7820   3.493   5.439   1.216 -0.4939 -0.1719 -0.4141
 2605TIP3    H1 7821   3.438   5.477   1.285 -0.8293  0.7626 -1.1722
 2605TIP3    H2 7822   3.536   5.514   1.176  2.3196 -0.9538  0.9036
 2606TIP3   OH2 7823   3.049   0.717   1.168  0.4823 -0.2549  0.2410
 2606TIP3    H1 7824   3.009   0.635   1.141  0.7218  0.2825 -1.9557
 2606TIP3    H2 7825   3.127   0.725   1.112  0.7749  1.1918  0.8012
 2607TIP3   OH2 7826   1.086   5.852   1.924  0.0343 -0.0668 -0.7026
 2607TIP3    H1 7827   1.120   5.770   1.961 -1.0373  0.0641  0.6692
 2607TIP3    H2 7828   1.005   5.826   1.879  0.0992  0.1237 -0.9315
 2608TIP3   OH2 7829   2.014   2.619   0.308  1.0158  0.1455  0.0027
 2608TIP3    H1 7830   1.975   2.655   0.229  2.4993  1.5041 -0.1558
 2608TIP3    H2 7831   1.953   2.643   0.378 -0.1372 -0.7780 -0.6345
 2609TIP3   OH2 7832   3.706   1.610   1.329  0.2344 -0.1309  0.3083
 2609TIP3    H1 7833   3.760   1.531   1.340 -0.5796 -1.5069 -3.7694
 2609TIP3    H2 7834   3.634   1.598   1.390  1.4971 -1.1862  1.6768
 2610TIP3   OH2 7835   6.275   1.793   4.888 -0.0693  0.5729 -0.4173
 2610TIP3    H1 7836   6.318   1.851   4.951 -0.0970 -0.2349  0.3654
 2610TIP3    H2 7837   6.244   1.719   4.941 -1.8612  0.8285 -1.0626
 2611TIP3   OH2 7838   0.503   5.396   1.694  0.5985  0.2582  0.3078
 2611TIP3    H1 7839   0.497   5.300   1.691  0.8363  0.2717 -1.3061
 2611TIP3    H2 7840   0.412   5.426   1.695  0.5213  0.0286  0.2349
 2612TIP3   OH2 7841   5.325   3.106   1.798 -0.2013 -0.2224  0.7813
 2612TIP3    H1 7842   5.369   3.131   1.717  1.5759  0.1464  1.8087
 2612TIP3    H2 7843   5.245   3.157   1.798  0.5134  0.9483 -0.0206
 2613TIP3   OH2 7844   4.405   4.898   4.235 -0.0924  0.0331 -0.5264
 2613TIP3    H1 7845   4.401   4.805   4.259 -0.8821  0.0803 -0.4425
 2613TIP3    H2 7846   4.488   4.907   4.188  0.8978 -0.3332  1.0473
 2614TIP3   OH2 7847   1.429   4.490   0.324  0.3527  0.3558  0.3455
 2614TIP3    H1 7848   1.433   4.402   0.287 -2.4633  0.2307  0.1710
 2614TIP3    H2 7849   1.422   4.548   0.249  0.8341  0.6503  0.5158
 2615TIP3   OH2 7850   5.885   4.074   4.249 -0.1424 -0.0863  0.2187
 2615TIP3    H1 7851   5.869   4.085   4.155 -0.2973  1.5464  0.4110
 2615TIP3    H2 7852   5.887   3.979   4.262 -1.4816 -0.3486 -1.1966
 2616TIP3   OH2 7853   4.697   3.869   1.489  0.0718  0.1214  0.3633
 2616TIP3    H1 7854   4.656   3.861   1.403  1.3128  2.0944 -0.4697
 2616TIP3    H2 7855   4.769   3.805   1.487 -0.4358 -0.4587  0.2879
 2617TIP3   OH2 7856   4.578   0.685   2.061  0.4375 -0.4628  0.2874
 2617TIP3    H1 7857   4.497   0.685   2.113 -0.1075  0.7107 -0.5126
 2617TIP3    H2 7858   4.605   0.777   2.059  1.2684 -0.7119 -0.2561
 2618TIP3   OH2 7859   4.895   2.340   2.682 -0.4871 -0.6524  0.3301
 2618TIP3    H1 7860   4.990   2.346   2.692 -0.5716  2.1610  0.2173
 2618TIP3    H2 7861   4.860   2.354   2.770 -0.8112 -1.6935  0.3737
 2619TIP3   OH2 7862   5.225   2.937   3.965  0.3003 -0.7773 -0.1699
 2619TIP3    H1 7863   5.205   2.843   3.960  1.5402 -1.1118  0.7658
 2619TIP3    H2 7864   5.196   2.962   4.053  2.6427 -0.9839  0.7267
 2620TIP3   OH2 7865   3.895   5.892   2.512 -0.8349  0.4467  0.2395
 2620TIP3    H1 7866   3.829   5.951   2.547  0.1531  0.7465  1.6850
 2620TIP3    H2 7867   3.952   5.948   2.460 -0.8706  0.4513  0.2050
 2621TIP3   OH2 7868   0.283   4.411   1.311 -0.0129  0.2606  0.5161
 2621TIP3    H1 7869   0.340   4.445   1.380 -0.1084 -0.3502  0.9061
 2621TIP3    H2 7870   0.279   4.481   1.246  2.3403 -0.1928 -0.2246
 2622TIP3   OH2 7871   3.537   4.848   0.916  0.2692  0.2844  0.6472
 2622TIP3    H1 7872   3.611   4.823   0.860  0.2770  0.9517  0.3494
 2622TIP3    H2 7873   3.495   4.920   0.869 -1.1800 -0.7305  0.3045
 2623TIP3   OH2 7874   0.582   1.196   0.407  0.0727  0.3595  0.0003
 2623TIP3    H1 7875   0.522   1.263   0.375 -0.3574  0.7192  1.5193
 2623TIP3    H2 7876   0.574   1.199   0.502 -0.5046 -2.3370  0.1106
 2624TIP3   OH2 7877   5.974   2.652   1.413  0.1232 -0.1194 -0.2661
 2624TIP3    H1 7878   5.990   2.716   1.343 -0.3692  2.0584  1.4874
 2624TIP3    H2 7879   5.879   2.649   1.421  0.1556  1.8191  2.0428
 2625TIP3   OH2 7880   3.718   3.126   2.156 -0.4395 -0.0796 -0.6005
 2625TIP3    H1 7881   3.803   3.157   2.126 -0.6909  0.2923 -0.9381
 2625TIP3    H2 7882   3.672   3.098   2.077  0.1984 -2.4401 -0.2092
 2626TIP3   OH2 7883   0.913   0.989   3.419 -0.5740  0.2195  0.1373
 2626TIP3    H1 7884   0.839   0.993   3.480  0.5806 -0.1963  1.6211
 2626TIP3    H2 7885   0.907   1.071   3.370 -2.8340 -0.4251 -0.8168
 2627TIP3   OH2 7886   3.788   0.618   4.335 -0.3128  0.1323 -0.3953
 2627TIP3    H1 7887   3.703   0.579   4.356 -0.8317  1.0918 -0.6577
 2627TIP3    H2 7888   3.778   0.650   4.245 -0.2210  1.6874  0.1217
 2628TIP3   OH2 7889   1.749   3.997   3.003 -0.4605 -0.1517  0.5729
 2628TIP3    H1 7890   1.813   4.016   3.071  1.2750 -3.0567 -0.0775
 2628TIP3    H2 7891   1.800   3.957   2.932 -2.6993 -0.5341 -0.9357
 2629TIP3   OH2 7892   0.749   1.696   2.647  0.0255  1.0955 -0.0953
 2629TIP3    H1 7893   0.767   1.715   2.555  1.5794 -0.0426 -0.0712
 2629TIP3    H2 7894   0.726   1.604   2.649  0.0921  1.0847  0.6716
 2630TIP3   OH2 7895   0.085   0.480   0.289  0.2282  0.0189  0.5597
 2630TIP3    H1 7896   0.097   0.387   0.306  2.9169  0.2658  0.4553
 2630TIP3    H2 7897   0.100   0.489   0.195  2.2913  0.7931  0.9141
 2631TIP3   OH2 7898   3.154   1.356   0.251 -0.2794  0.1865  0.1260
 2631TIP3    H1 7899   3.082   1.358   0.189  0.4714  0.3164 -0.7651
 2631TIP3    H2 7900   3.134   1.281   0.309 -0.5692 -0.4566 -0.7858
 2632TIP3   OH2 7901   1.050   0.049   2.736 -0.6861  0.2957  0.4395
 2632TIP3    H1 7902   1.046  -0.040   2.769 -1.0237 -0.2755 -1.0664
 2632TIP3    H2 7903   1.136   0.081   2.762 -0.6489 -0.3795  1.1722
 2633TIP3   OH2 7904   3.403   5.092   0.788 -0.0112  0.0931  0.1528
 2633TIP3    H1 7905   3.427   5.106   0.696  0.3971 -0.4305  0.1779
 2633TIP3    H2 7906   3.426   5.174   0.831 -0.7747  0.5700 -0.3226
 2634TIP3   OH2 7907   3.979   5.631   1.052  0.5838  0.8428  0.0075
 2634TIP3    H1 7908   3.930   5.550   1.040 -0.7748  1.6802 -0.4403
 2634TIP3    H2 7909   3.917   5.690   1.096  1.4467  1.7162  0.0846
 2635TIP3   OH2 7910   5.092   1.024   1.303  0.1161  0.2849  0.3764
 2635TIP3    H1 7911   5.187   1.026   1.295  0.1301  2.0085  0.7191
 2635TIP3    H2 7912   5.060   1.067   1.224 -0.2433  2.4211  1.5961
 2636TIP3   OH2 7913   0.572   5.926   2.608  0.4843 -0.5537  0.6681
 2636TIP3    H1 7914   0.494   5.874   2.590 -0.0035 -0.2610  1.8509
 2636TIP3    H2 7915   0.602   5.896   2.694  1.5768 -0.5343  0.3106
 2637TIP3   OH2 7916   2.486   2.426   0.415 -0.1324  0.1066  0.4612
 2637TIP3    H1 7917   2.407   2.388   0.375 -1.2542  0.5110  2.1565
 2637TIP3    H2 7918   2.452   2.479   0.487  1.6647  1.0307  0.6668
 2638TIP3   OH2 7919   4.769   1.744   2.653  0.2079  0.0573  0.2153
 2638TIP3    H1 7920   4.842   1.792   2.614  0.2390  0.1462  0.3831
 2638TIP3    H2 7921   4.712   1.723   2.579 -0.1899  1.0145  0.2409
 2639TIP3   OH2 7922   0.692   1.682   3.695 -0.2493 -0.1928  0.2656
 2639TIP3    H1 7923   0.609   1.709   3.657 -1.6868  0.0146  3.3088
 2639TIP3    H2 7924   0.731   1.763   3.728 -0.2299 -0.6550  1.4036
 2640TIP3   OH2 7925   2.791   1.766   2.627 -0.1163  0.2372 -0.4005
 2640TIP3    H1 7926   2.806   1.673   2.608  1.6745  0.8055 -2.1311
 2640TIP3    H2 7927   2.835   1.780   2.711 -1.4276 -0.6871  0.4859
 2641TIP3   OH2 7928   2.356   3.992   3.181  0.6997  0.6274  0.5870
 2641TIP3    H1 7929   2.290   3.937   3.138 -1.3673  0.8033  3.2343
 2641TIP3    H2 7930   2.341   4.080   3.146  1.1172  0.2656 -0.5232
 2642TIP3   OH2 7931   5.052   4.050   3.644 -0.1306  0.2412 -0.0541
 2642TIP3    H1 7932   5.118   3.995   3.601  1.0219  0.8907  0.8192
 2642TIP3    H2 7933   5.092   4.137   3.645 -1.2431  0.7613  0.0370
 2643TIP3   OH2 7934   3.406   4.186   1.432 -0.6267  0.2701 -0.2145
 2643TIP3    H1 7935   3.418   4.096   1.403  0.3318  0.4804 -0.4913
 2643TIP3    H2 7936   3.379   4.179   1.523 -0.2782 -0.2910 -0.1528
 2644TIP3   OH2 7937   2.598   3.076   3.314  0.3972  0.3982 -0.0881
 2644TIP3    H1 7938   2.587   2.985   3.286  0.4153  0.8634 -1.6897
 2644TIP3    H2 7939   2.621   3.070   3.407 -0.4002 -1.1859  0.0353
 2645TIP3   OH2 7940   4.322   1.934   2.713  0.3185  0.2923  0.1974
 2645TIP3    H1 7941   4.307   2.027   2.692 -0.4347  0.8488  2.7823
 2645TIP3    H2 7942   4.406   1.934   2.759  0.9955 -0.5609 -0.9909
 2646TIP3   OH2 7943   3.372   1.729   0.057 -0.1479 -0.2327 -0.6057
 2646TIP3    H1 7944   3.398   1.638   0.069  3.4464  0.8166  0.9449
 2646TIP3    H2 7945   3.380   1.743  -0.037 -1.7391 -1.7039 -1.0108
 2647TIP3   OH2 7946   5.081   5.276   3.038  0.2663  0.0793  0.6761
 2647TIP3    H1 7947   5.123   5.194   3.012 -0.0217  0.0157  0.3991
 2647TIP3    H2 7948   5.102   5.338   2.967  1.5308  0.6072  1.4854
 2648TIP3   OH2 7949   5.846   2.686   0.207  0.1069 -0.1380 -0.5618
 2648TIP3    H1 7950   5.913   2.714   0.271 -0.2290 -0.4395 -0.0726
 2648TIP3    H2 7951   5.850   2.591   0.209 -0.9480 -0.1807  0.1282
 2649TIP3   OH2 7952   0.952   1.145   4.486 -0.3601 -0.1025 -0.0045
 2649TIP3    H1 7953   0.915   1.057   4.494  2.0595 -1.2426 -0.1675
 2649TIP3    H2 7954   0.931   1.188   4.569 -1.4719 -0.8591  0.1291
 2650TIP3   OH2 7955   0.675   2.732   2.037 -0.2662 -0.3226  0.0297
 2650TIP3    H1 7956   0.649   2.654   2.086 -1.6988  0.0429 -0.1005
 2650TIP3    H2 7957   0.726   2.698   1.963 -2.2728 -1.3269 -0.9719
 2651TIP3   OH2 7958   4.075   1.107   1.169  0.2763 -0.6872  0.0526
 2651TIP3    H1 7959   4.136   1.141   1.235 -2.3824  1.3326  1.7144
 2651TIP3    H2 7960   4.084   1.012   1.174  2.8548 -0.4772  0.5540
 2652TIP3   OH2 7961   0.869   5.517   1.160  0.2662  0.0191 -0.8458
 2652TIP3    H1 7962   0.961   5.542   1.167  0.5837 -0.7192 -2.1435
 2652TIP3    H2 7963   0.821   5.593   1.195  1.3528  0.2450  0.2365
 2653TIP3   OH2 7964   0.997   4.900   2.138  0.6058 -0.7062  0.1263
 2653TIP3    H1 7965   1.032   4.906   2.049  2.0826  0.4687  0.7346
 2653TIP3    H2 7966   0.937   4.974   2.146 -2.6271 -2.9614 -1.0565
 2654TIP3   OH2 7967   3.320   1.140   2.386 -0.0233  1.2297  0.0208
 2654TIP3    H1 7968   3.368   1.207   2.338 -0.7759  0.7810 -1.4035
 2654TIP3    H2 7969   3.352   1.057   2.351 -0.8122  0.8980  0.0560
 2655TIP3   OH2 7970   2.880   0.012   1.645  0.7272 -0.1071  0.1116
 2655TIP3    H1 7971   2.934   0.089   1.626  0.2737  0.7524  2.0014
 2655TIP3    H2 7972   2.797   0.030   1.600  0.9805  0.0244 -0.3042
 2656TIP3   OH2 7973   2.790   3.301   2.244 -0.9158 -0.3924  0.3124
 2656TIP3    H1 7974   2.832   3.262   2.167 -0.7396 -1.7973  1.0849
 2656TIP3    H2 7975   2.723   3.359   2.208 -0.4307 -0.5492 -0.9010
 2657TIP3   OH2 7976   0.105   4.124   1.470  0.4780  0.1921 -0.1517
 2657TIP3    H1 7977   0.058   4.064   1.412 -1.0074  1.6607 -0.5501
 2657TIP3    H2 7978   0.097   4.209   1.428  1.0512  0.9702  1.2473
 2658TIP3   OH2 7979   1.989   3.968   1.450  0.2338 -0.0481  0.2926
 2658TIP3    H1 7980   1.948   3.953   1.365 -1.0609  0.2903  0.8331
 2658TIP3    H2 7981   1.994   4.063   1.458  2.4680 -0.0500 -0.3519
 2659TIP3   OH2 7982   0.402   4.633   3.450  0.2770 -0.1585 -0.1030
 2659TIP3    H1 7983   0.408   4.538   3.448  1.4783 -0.2244  2.4045
 2659TIP3    H2 7984   0.329   4.651   3.510  0.2500  0.4843 -0.3182
 2660TIP3   OH2 7985   4.709   1.108   2.308  0.2010 -0.1487 -0.3438
 2660TIP3    H1 7986   4.797   1.069   2.311 -0.9621 -2.9799  0.0009
 2660TIP3    H2 7987   4.703   1.160   2.387  1.3729 -0.4122 -0.0655
 2661TIP3   OH2 7988   1.573   4.250   4.331 -0.0638  0.0710  0.2057
 2661TIP3    H1 7989   1.635   4.275   4.262 -0.8863 -1.3560 -1.1368
 2661TIP3    H2 7990   1.583   4.155   4.338 -2.1259 -0.2116 -0.1008
 2662TIP3   OH2 7991   4.002   3.089   0.923  0.3218 -0.0635  0.2720
 2662TIP3    H1 7992   4.064   3.150   0.883 -0.0222  0.6148  0.7483
 2662TIP3    H2 7993   3.916   3.125   0.900  0.0848 -1.2056 -0.7052
 2663TIP3   OH2 7994   5.612   3.440   4.380 -0.3775  0.6285 -0.7034
 2663TIP3    H1 7995   5.670   3.374   4.341 -0.8246 -0.8075  0.9164
 2663TIP3    H2 7996   5.660   3.472   4.457 -1.4128 -0.1333  0.3041
 2664TIP3   OH2 7997   3.942   4.701   1.704 -0.5784 -0.1305  0.1767
 2664TIP3    H1 7998   4.036   4.684   1.707 -0.4300  0.7213  1.9782
 2664TIP3    H2 7999   3.935   4.796   1.712 -1.5941 -0.2839  1.4346
 2665TIP3   OH2 8000   0.167   0.626   2.074 -0.0480 -0.0909  0.1054
 2665TIP3    H1 8001   0.184   0.711   2.116 -1.3438 -0.3671  1.2959
 2665TIP3    H2 8002   0.091   0.643   2.018  1.2512  0.1050 -1.6871
 2666TIP3   OH2 8003   4.816   1.943   3.997  0.1484 -0.2520  0.5872
 2666TIP3    H1 8004   4.822   1.930   3.902  2.2545  0.0182  0.6456
 2666TIP3    H2 8005   4.740   1.892   4.023 -0.4803 -0.3230 -1.2471
 2667TIP3   OH2 8006   4.837   5.272   0.985  0.6743 -0.7951 -0.3423
 2667TIP3    H1 8007   4.742   5.272   0.994  0.7838  1.4697  1.9484
 2667TIP3    H2 8008   4.857   5.358   0.945  1.7878 -1.1487 -0.6002
 2668TIP3   OH2 8009   0.452   1.723   0.912  0.1187 -0.1816  0.0378
 2668TIP3    H1 8010   0.516   1.675   0.859 -3.3164 -2.2933 -2.6727
 2668TIP3    H2 8011   0.413   1.657   0.969 -0.5400  0.7214  0.6690
 2669TIP3   OH2 8012   5.446   5.815   2.600 -0.6554  0.5708 -0.4809
 2669TIP3    H1 8013   5.393   5.735   2.603 -0.8997  0.7526  0.9831
 2669TIP3    H2 8014   5.509   5.805   2.672  1.3036  0.3882 -2.1308
 2670TIP3   OH2 8015   0.399   5.766   3.125 -0.6052  0.7833  0.0979
 2670TIP3    H1 8016   0.427   5.723   3.206  0.3205  1.0897 -0.0528
 2670TIP3    H2 8017   0.459   5.840   3.115 -0.6410  0.6815 -0.9329
 2671TIP3   OH2 8018   1.221   4.765   2.966  0.1243  0.0847 -0.0170
 2671TIP3    H1 8019   1.310   4.754   2.999  0.4607 -1.2646 -1.2659
 2671TIP3    H2 8020   1.232   4.785   2.873 -0.8579 -2.8393 -0.8777
 2672TIP3   OH2 8021   3.949   3.213   0.382  0.2041  0.0970  0.0733
 2672TIP3    H1 8022   3.983   3.196   0.470  0.6065  3.4868  0.7223
 2672TIP3    H2 8023   4.009   3.166   0.324  0.6502 -1.2365  1.5236
 2673TIP3   OH2 8024   1.915   1.004   1.788 -0.1389 -0.2460 -0.5334
 2673TIP3    H1 8025   2.007   1.030   1.790 -0.7645  2.4509 -1.6709
 2673TIP3    H2 8026   1.906   0.950   1.710  0.3809  0.0408 -0.7980
 2674TIP3   OH2 8027   0.622   3.839   4.160  0.0524  0.9900  0.1843
 2674TIP3    H1 8028   0.560   3.877   4.097  2.2070  1.8666 -1.5909
 2674TIP3    H2 8029   0.615   3.745   4.147 -0.9451  1.0731  0.0666
 2675TIP3   OH2 8030   3.685   5.199   1.370 -0.6034 -0.1535  0.1280
 2675TIP3    H1 8031   3.650   5.211   1.458 -0.3528 -1.7454  0.4689
 2675TIP3    H2 8032   3.731   5.281   1.351 -0.0601 -0.0558  1.7432
 2676TIP3   OH2 8033   4.788   5.984   3.075  0.3730 -0.2021  0.4718
 2676TIP3    H1 8034   4.834   5.947   2.999 -2.0968  1.1016 -1.8270
 2676TIP3    H2 8035   4.720   5.919   3.095 -0.2948  0.3909  0.1758
 2677TIP3   OH2 8036   6.085   4.754   4.444 -0.3139  0.1693  0.5515
 2677TIP3    H1 8037   6.150   4.817   4.476  1.6196 -1.1082 -0.6725
 2677TIP3    H2 8038   6.034   4.731   4.522  0.4320  1.5049  1.4749
 2678TIP3   OH2 8039   2.854   5.420   0.690  0.6929 -0.0078  0.9907
 2678TIP3    H1 8040   2.916   5.361   0.649  0.2445  0.7075 -0.8259
 2678TIP3    H2 8041   2.813   5.466   0.617 -2.3002 -0.7649  2.0362
 2679TIP3   OH2 8042   3.853   5.703   1.636  0.2047 -0.0447  0.2930
 2679TIP3    H1 8043   3.906   5.770   1.594 -1.5520  1.7159  0.7346
 2679TIP3    H2 8044   3.800   5.666   1.566  0.7572 -0.5868  0.1518
 2680TIP3   OH2 8045   6.307   0.562   4.944  0.1984  0.0050  0.0378
 2680TIP3    H1 8046   6.344   0.543   5.030  0.3757 -0.5542 -0.1596
 2680TIP3    H2 8047   6.259   0.483   4.921  0.5793 -0.0434 -0.6062
 2681TIP3   OH2 8048   4.262   5.328   0.689 -0.2837 -0.3273  0.4745
 2681TIP3    H1 8049   4.230   5.330   0.779 -1.3653  2.4461  0.1156
 2681TIP3    H2 8050   4.356   5.313   0.697 -0.4256 -0.5189  2.0167
 2682TIP3   OH2 8051   5.513   5.512   0.039 -0.2321  0.0356 -0.3047
 2682TIP3    H1 8052   5.511   5.422   0.005  1.3675  0.7517 -2.5359
 2682TIP3    H2 8053   5.583   5.511   0.104  0.7571 -0.0817 -1.3273
 2683TIP3   OH2 8054   3.256   4.825   3.951 -0.2784 -0.1597  0.3968
 2683TIP3    H1 8055   3.344   4.807   3.920 -0.1533 -1.2840  1.3130
 2683TIP3    H2 8056   3.267   4.851   4.042 -0.8335  0.5067  0.2836
 2684TIP3   OH2 8057   5.941   5.529   4.710  0.6079  0.0858 -0.3934
 2684TIP3    H1 8058   5.892   5.580   4.645 -0.2791  0.3108  0.4390
 2684TIP3    H2 8059   5.918   5.568   4.794  2.5907  0.5087  0.0162
 2685TIP3   OH2 8060   3.845   2.684   3.305 -0.5361 -0.0445 -0.0880
 2685TIP3    H1 8061   3.776   2.714   3.364  1.1990  0.2819  1.9098
 2685TIP3    H2 8062   3.914   2.750   3.314  0.5125 -0.9495 -1.1121
 2686TIP3   OH2 8063   3.489   1.258   3.231  0.3828 -0.0259  0.1294
 2686TIP3    H1 8064   3.393   1.254   3.232  0.2212  2.3392  0.6357
 2686TIP3    H2 8065   3.510   1.326   3.294  2.5903 -2.3395  2.0934
 2687TIP3   OH2 8066   1.429   4.739   2.447  0.3058  0.0969 -0.4829
 2687TIP3    H1 8067   1.386   4.748   2.362  0.9712 -0.0804 -0.8378
 2687TIP3    H2 8068   1.437   4.829   2.479 -0.1619  0.1457 -0.4963
 2688TIP3   OH2 8069   0.853   1.139   5.178  0.1905  0.2979 -0.0153
 2688TIP3    H1 8070   0.866   1.192   5.099 -0.7089  0.3378 -0.1454
 2688TIP3    H2 8071   0.915   1.068   5.169 -0.2568  0.0158 -1.0316
 2689TIP3   OH2 8072   2.965   4.342   0.837  0.0152  0.0943  0.3201
 2689TIP3    H1 8073   3.022   4.272   0.870  0.4745  0.3455  0.0665
 2689TIP3    H2 8074   2.972   4.336   0.741 -1.6208 -0.8898  0.2178
 2690TIP3   OH2 8075   3.763   5.171   5.013  0.6847  0.9049 -0.1723
 2690TIP3    H1 8076   3.797   5.147   5.099  0.2104 -1.1541 -0.5052
 2690TIP3    H2 8077   3.823   5.131   4.951 -0.5227 -0.0619 -0.7646
 2691TIP3   OH2 8078   6.210   4.009   0.570 -0.4318  0.2919 -0.2228
 2691TIP3    H1 8079   6.255   3.945   0.625  1.3962  1.3268 -0.4437
 2691TIP3    H2 8080   6.120   4.008   0.602 -0.0094 -0.9688  1.0691
 2692TIP3   OH2 8081   1.900   2.561   3.945  0.0580 -0.8681 -0.4085
 2692TIP3    H1 8082   1.891   2.567   3.850  0.4050  0.4766 -0.3774
 2692TIP3    H2 8083   1.818   2.522   3.974  0.5928 -2.8871 -1.3683
 2693TIP3   OH2 8084   1.622   0.174   0.142  0.1036  0.1476  0.2792
 2693TIP3    H1 8085   1.594   0.265   0.133 -0.6592  0.1859  2.4653
 2693TIP3    H2 8086   1.558   0.124   0.091 -1.2229  0.6353  1.3973
 2694TIP3   OH2 8087   4.965   3.070   3.109 -0.0201 -0.5925 -0.3659
 2694TIP3    H1 8088   4.929   3.114   3.031 -1.2225  0.8665  0.9496
 2694TIP3    H2 8089   5.016   3.138   3.153  1.0410 -1.5376 -0.0779
 2695TIP3   OH2 8090   2.465   1.106   4.145  0.2311 -0.0450 -0.2497
 2695TIP3    H1 8091   2.390   1.047   4.159  1.0169 -1.2739 -0.9686
 2695TIP3    H2 8092   2.449   1.145   4.059  1.0768 -1.4159 -1.0721
 2696TIP3   OH2 8093   0.238   1.896   2.169  0.2692  0.1510 -0.4928
 2696TIP3    H1 8094   0.207   1.951   2.098 -0.5998 -0.7425 -0.8340
 2696TIP3    H2 8095   0.184   1.920   2.244 -0.1635 -0.2765 -0.6621
 2697TIP3   OH2 8096   4.835   0.739   4.550  0.2114  0.0271  0.2636
 2697TIP3    H1 8097   4.745   0.758   4.576  0.8819  0.1406  2.7587
 2697TIP3    H2 8098   4.883   0.820   4.569  0.7140  0.3684 -2.1039
 2698TIP3   OH2 8099   5.136   5.616   5.119 -1.0203 -0.5060 -0.2350
 2698TIP3    H1 8100   5.052   5.648   5.153 -0.2681  1.4140 -0.0484
 2698TIP3    H2 8101   5.197   5.627   5.192 -0.0996  0.4261 -1.1144
 2699TIP3   OH2 8102   0.046   3.579   0.473 -0.2659  0.5490 -0.0492
 2699TIP3    H1 8103  -0.019   3.589   0.542 -1.3382  2.2949 -1.2348
 2699TIP3    H2 8104  -0.004   3.584   0.392  1.1387  0.0116 -1.0002
 2700TIP3   OH2 8105   2.158   4.522   1.030 -0.5179 -0.0109  0.7407
 2700TIP3    H1 8106   2.196   4.607   1.007  0.3541 -0.4952  0.3362
 2700TIP3    H2 8107   2.193   4.462   0.964  2.8080 -1.6511  3.7056
 2701TIP3   OH2 8108   4.174   1.297   1.434 -0.1373 -0.0939 -0.1221
 2701TIP3    H1 8109   4.241   1.287   1.367 -0.4574 -0.5898 -0.3737
 2701TIP3    H2 8110   4.223   1.311   1.515  0.2508  0.6097 -0.4736
 2702TIP3   OH2 8111   3.977   1.669   2.629 -0.0037  0.0990  0.2855
 2702TIP3    H1 8112   3.900   1.674   2.686 -0.0796 -1.9656  0.4290
 2702TIP3    H2 8113   4.050   1.652   2.688  0.5020  1.3903  0.0766
 2703TIP3   OH2 8114   2.255   2.289   0.284  0.4295 -0.1433 -0.0268
 2703TIP3    H1 8115   2.170   2.318   0.252  0.8494  1.2770  0.0460
 2703TIP3    H2 8116   2.280   2.218   0.226 -0.5298 -0.1677 -0.4354
 2704TIP3   OH2 8117   5.520   3.166   4.950  0.3411 -0.4910 -0.8293
 2704TIP3    H1 8118   5.511   3.079   4.913  0.0365 -0.5666 -0.5805
 2704TIP3    H2 8119   5.614   3.183   4.951  0.4595 -1.1577 -0.0879
 2705TIP3   OH2 8120   0.082   2.261   4.470 -0.3726  0.5898  0.0626
 2705TIP3    H1 8121   0.002   2.218   4.501 -0.6509 -0.6045 -2.1647
 2705TIP3    H2 8122   0.059   2.299   4.386  0.6599  2.8276  0.6975
 2706TIP3   OH2 8123   3.722   3.964   3.633 -0.2057  0.0520  0.4507
 2706TIP3    H1 8124   3.794   3.901   3.642 -1.8634 -1.7523  1.9305
 2706TIP3    H2 8125   3.748   4.039   3.687  1.2876  0.2016 -0.4238
 2707TIP3   OH2 8126   0.146   3.108   3.547  0.5427  0.1466  0.2708
 2707TIP3    H1 8127   0.089   3.041   3.584  0.8732 -0.6848 -0.6687
 2707TIP3    H2 8128   0.100   3.190   3.561 -0.2248 -0.3656  0.7697
 2708TIP3   OH2 8129   2.905   1.188   0.661  0.1459  0.4900 -0.1230
 2708TIP3    H1 8130   2.992   1.189   0.700 -0.1932  0.1301  0.6492
 2708TIP3    H2 8131   2.867   1.105   0.688 -0.8960  1.1688  0.5546
 2709TIP3   OH2 8132   2.077   5.241   4.177 -0.2083  0.4472  0.2094
 2709TIP3    H1 8133   2.033   5.323   4.199 -0.5255  0.7858 -1.5514
 2709TIP3    H2 8134   2.005   5.178   4.168 -0.1328  0.4311 -0.2983
 2710TIP3   OH2 8135   2.628   3.052   1.423 -0.0241 -0.2826  0.2675
 2710TIP3    H1 8136   2.711   3.019   1.457 -0.2007  0.2232  1.2402
 2710TIP3    H2 8137   2.578   3.075   1.501 -0.3959  1.0695 -0.3437
 2711TIP3   OH2 8138   2.826   5.822   2.921 -0.4850 -0.3479 -0.3933
 2711TIP3    H1 8139   2.854   5.731   2.907 -0.6769 -0.2850 -1.2081
 2711TIP3    H2 8140   2.788   5.849   2.837  0.2828  0.7457 -0.4034
 2712TIP3   OH2 8141   4.189   1.837   4.421 -0.1689 -0.6705  0.5076
 2712TIP3    H1 8142   4.116   1.844   4.359 -1.3692 -0.5617  1.8809
 2712TIP3    H2 8143   4.251   1.778   4.378  0.7917  2.2122 -2.4150
 2713TIP3   OH2 8144   5.529   0.803   3.853  0.2816  0.3124  0.1141
 2713TIP3    H1 8145   5.451   0.754   3.827  0.3170  1.3777 -2.2144
 2713TIP3    H2 8146   5.590   0.735   3.884 -0.7338 -0.7730 -0.1823
 2714TIP3   OH2 8147   5.703   0.581   3.848  0.0214 -0.5217  0.0606
 2714TIP3    H1 8148   5.701   0.490   3.818  0.8706 -1.1978  1.9136
 2714TIP3    H2 8149   5.774   0.621   3.797  0.0982 -1.0791 -0.2811
 2715TIP3   OH2 8150   6.320   0.424   2.527 -0.1052 -0.4889 -0.3607
 2715TIP3    H1 8151   6.368   0.409   2.446  1.4557 -0.1281  0.4742
 2715TIP3    H2 8152   6.266   0.501   2.509  0.9151  0.1407 -0.7705
 2716TIP3   OH2 8153   4.341   4.062   3.513  0.6107  0.3379  0.0684
 2716TIP3    H1 8154   4.359   4.073   3.606  0.1762 -0.4003  0.2538
 2716TIP3    H2 8155   4.338   4.151   3.478 -1.0811  0.7527  1.1277
 2717TIP3   OH2 8156   1.070   2.472   3.080 -0.4835 -0.5081 -0.6352
 2717TIP3    H1 8157   1.041   2.535   3.146 -0.3385  0.0440 -1.0866
 2717TIP3    H2 8158   1.147   2.431   3.119  0.1723  0.4949 -0.8336
 2718TIP3   OH2 8159   3.550   3.352   5.049 -0.1635 -0.0441  0.0071
 2718TIP3    H1 8160   3.499   3.391   5.121 -0.4127 -0.0918 -0.1411
 2718TIP3    H2 8161   3.613   3.420   5.025  0.7956 -0.5096  1.1349
 2719TIP3   OH2 8162   4.095   0.943   4.177  0.0311  0.1782 -0.2058
 2719TIP3    H1 8163   4.132   1.023   4.212 -0.2776  0.4513 -0.4971
 2719TIP3    H2 8164   4.164   0.877   4.188  0.7837  0.7736 -1.1729
 2720TIP3   OH2 8165   3.440   0.555   2.039 -0.0241 -0.1222 -0.2724
 2720TIP3    H1 8166   3.386   0.476   2.042 -1.2260  0.7101  1.5521
 2720TIP3    H2 8167   3.379   0.627   2.055  1.3751  1.0072  0.2070
 2721TIP3   OH2 8168   1.627   0.760   0.178  0.4884 -0.1935 -0.5209
 2721TIP3    H1 8169   1.581   0.729   0.100 -1.3298  0.1162  0.3808
 2721TIP3    H2 8170   1.636   0.854   0.165  0.6780 -0.2203 -0.5903
 2722TIP3   OH2 8171   0.899   0.023   1.001 -0.1979 -0.6939  0.7118
 2722TIP3    H1 8172   0.836   0.028   1.073 -1.1264 -0.9586 -0.0627
 2722TIP3    H2 8173   0.983   0.040   1.042 -1.0101  2.2222  1.3720
 2723TIP3   OH2 8174   6.221   0.888   2.177  0.1794 -0.0970 -0.2945
 2723TIP3    H1 8175   6.311   0.862   2.158  0.2967 -0.3590  0.5696
 2723TIP3    H2 8176   6.230   0.970   2.226 -0.0462 -0.1880 -0.0993
 2724TIP3   OH2 8177   1.003   3.158   4.323  0.1443 -0.1390  0.4069
 2724TIP3    H1 8178   1.006   3.242   4.369 -0.4443 -0.5675  1.2748
 2724TIP3    H2 8179   0.997   3.181   4.231 -0.1215  0.7701  0.6374
 2725TIP3   OH2 8180   6.155   1.188   1.041 -0.0462 -0.5888  0.0644
 2725TIP3    H1 8181   6.240   1.230   1.049 -0.8470  1.2534 -0.5755
 2725TIP3    H2 8182   6.155   1.149   0.953  0.0039 -0.2747 -0.0747
 2726TIP3   OH2 8183   2.104   0.866   2.023  0.0060  0.0821  0.3908
 2726TIP3    H1 8184   2.116   0.942   1.967 -0.8123 -0.1862 -0.1584
 2726TIP3    H2 8185   2.190   0.851   2.062  0.2060  1.2131  0.4231
 2727TIP3   OH2 8186   1.151   0.718   1.847 -0.1866 -0.0961  0.4998
 2727TIP3    H1 8187   1.113   0.669   1.774  3.1074  0.9173 -2.1746
 2727TIP3    H2 8188   1.105   0.802   1.846 -0.7095 -0.3810  0.1337
 2728TIP3   OH2 8189   4.305   3.615   4.835 -0.0595 -0.3473  0.5085
 2728TIP3    H1 8190   4.333   3.706   4.839  2.6903 -1.1275  1.1230
 2728TIP3    H2 8191   4.269   3.596   4.922  0.9028 -0.2725  0.9328
 2729TIP3   OH2 8192   1.399   0.259   4.775 -0.2357 -0.0067 -0.2480
 2729TIP3    H1 8193   1.391   0.346   4.736 -0.3220 -0.1912 -0.6476
 2729TIP3    H2 8194   1.329   0.256   4.840 -1.5687 -0.5061 -1.6332
 2730TIP3   OH2 8195   1.857   3.253   5.125 -0.6648  0.4701  0.4594
 2730TIP3    H1 8196   1.775   3.295   5.149 -1.7932 -1.1791 -0.3478
 2730TIP3    H2 8197   1.834   3.161   5.110  1.0476  0.2489 -1.1734
 2731TIP3   OH2 8198   1.568   1.416   1.909 -0.5029 -0.0186 -0.3180
 2731TIP3    H1 8199   1.649   1.431   1.860 -0.7125  1.1496 -0.3506
 2731TIP3    H2 8200   1.596   1.376   1.991  0.0831  0.0729 -0.4737
 2732TIP3   OH2 8201   5.501   2.126   1.354  0.4538 -0.3915 -0.4678
 2732TIP3    H1 8202   5.467   2.050   1.400  2.6239 -0.0206  1.9857
 2732TIP3    H2 8203   5.543   2.178   1.423 -0.1409  2.5851 -2.1899
 2733TIP3   OH2 8204   2.379   4.847   0.725  0.5396 -0.0452  0.1173
 2733TIP3    H1 8205   2.378   4.781   0.655 -1.7222 -2.0508  1.8612
 2733TIP3    H2 8206   2.315   4.912   0.696  1.3637  0.4136 -0.7314
 2734TIP3   OH2 8207   4.744   0.047   4.270 -0.1609  0.3330 -0.4696
 2734TIP3    H1 8208   4.758   0.142   4.274  1.7883  0.0441  0.5378
 2734TIP3    H2 8209   4.653   0.038   4.242 -0.7307  2.5074  0.4458
 2735TIP3   OH2 8210   6.251   1.554   1.909  0.3546 -0.0750 -0.0717
 2735TIP3    H1 8211   6.187   1.625   1.905  1.6245  1.0889 -0.7474
 2735TIP3    H2 8212   6.249   1.525   2.000 -0.2308  0.7944  0.2053
 2736TIP3   OH2 8213   5.205   3.550   1.939 -0.0250 -0.3996  0.0082
 2736TIP3    H1 8214   5.123   3.575   1.982  0.3199  0.1968  0.3309
 2736TIP3    H2 8215   5.251   3.497   2.004  0.4822  0.4740  0.3714
 2737TIP3   OH2 8216   1.339   4.981   1.584 -0.3197 -0.2866 -0.5577
 2737TIP3    H1 8217   1.316   5.074   1.577  2.1179  0.4092 -0.1608
 2737TIP3    H2 8218   1.339   4.963   1.678 -1.3186 -0.8818 -0.6503
 2738TIP3   OH2 8219   1.241   1.281   2.321  0.7845 -0.0524  0.3666
 2738TIP3    H1 8220   1.206   1.225   2.252  0.0893  0.4460  0.3159
 2738TIP3    H2 8221   1.281   1.355   2.275 -0.1303  0.5410  0.5057
 2739TIP3   OH2 8222   0.695   4.546   0.769 -0.0190  0.1216 -0.7362
 2739TIP3    H1 8223   0.625   4.482   0.779 -0.5713  0.7322 -0.5926
 2739TIP3    H2 8224   0.774   4.494   0.757 -0.2368 -0.6221  0.7802
 2740TIP3   OH2 8225   4.393   0.511   2.293  0.0281 -0.2675  0.0115
 2740TIP3    H1 8226   4.328   0.440   2.288 -0.6087  0.3714 -2.9356
 2740TIP3    H2 8227   4.474   0.471   2.262 -0.2185  0.1069 -1.1852
 2741TIP3   OH2 8228   3.020   0.367   3.965  0.5174  0.5517  0.4238
 2741TIP3    H1 8229   3.049   0.361   4.056  0.8510  0.9535  0.3483
 2741TIP3    H2 8230   3.052   0.452   3.935  1.5818 -0.1277 -0.4583
 2742TIP3   OH2 8231   3.567   1.618   3.187 -0.9807 -0.2541 -0.0606
 2742TIP3    H1 8232   3.578   1.577   3.272  0.1002 -1.1099 -0.5937
 2742TIP3    H2 8233   3.473   1.629   3.177 -1.1887 -1.3092  0.7009
 2743TIP3   OH2 8234   0.448   5.620   1.078 -0.1515 -0.6185  0.2292
 2743TIP3    H1 8235   0.515   5.688   1.084 -0.5902 -0.2544  1.3826
 2743TIP3    H2 8236   0.459   5.569   1.158 -0.3060 -1.4661 -0.2791
 2744TIP3   OH2 8237   3.785   2.117   0.784 -0.0236  0.0122 -0.8215
 2744TIP3    H1 8238   3.739   2.095   0.865  0.9970  2.5609  0.5830
 2744TIP3    H2 8239   3.863   2.164   0.813  1.6024 -1.0226 -3.2573
 2745TIP3   OH2 8240   2.824   3.692   1.110  0.3338 -0.4801 -0.1501
 2745TIP3    H1 8241   2.748   3.746   1.130  0.1750 -0.8332  0.1991
 2745TIP3    H2 8242   2.881   3.749   1.058  1.0034  0.6445  1.7415
 2746TIP3   OH2 8243   4.679   5.283   4.290  0.2897  0.0118 -0.5165
 2746TIP3    H1 8244   4.637   5.368   4.299 -0.3857 -0.4099  0.3933
 2746TIP3    H2 8245   4.609   5.219   4.306  0.9584 -0.7138 -0.4190
 2747TIP3   OH2 8246   3.181   3.670   4.753 -0.9987 -0.4116  0.5113
 2747TIP3    H1 8247   3.247   3.730   4.720 -1.7965  0.7771  1.0249
 2747TIP3    H2 8248   3.211   3.648   4.842 -1.4513  0.4063  0.8780
 2748TIP3   OH2 8249   5.819   5.145   0.032  0.2383  0.0693  0.1838
 2748TIP3    H1 8250   5.786   5.060   0.059 -0.2984  0.8250  2.0439
 2748TIP3    H2 8251   5.893   5.161   0.090 -0.2646  1.2908  0.5058
 2749TIP3   OH2 8252   6.299   5.906   2.703  0.0080  0.0073  0.1633
 2749TIP3    H1 8253   6.218   5.914   2.654  0.7254 -0.0697 -1.0746
 2749TIP3    H2 8254   6.303   5.813   2.728 -0.5359  0.1228  0.6846
 2750TIP3   OH2 8255   5.313   5.480   1.716 -0.0236 -0.3747  0.2626
 2750TIP3    H1 8256   5.374   5.446   1.651 -0.4278  0.7323 -0.7290
 2750TIP3    H2 8257   5.241   5.516   1.664 -0.2499  0.7421  1.3144
 2751TIP3   OH2 8258   1.570   5.053   5.041  0.3072  0.5047 -0.5343
 2751TIP3    H1 8259   1.475   5.044   5.031  0.6174 -0.6001 -3.6706
 2751TIP3    H2 8260   1.586   5.148   5.036 -0.6272  0.7032  0.0778
 2752TIP3   OH2 8261   2.891   3.272   3.731 -0.0564 -1.2119  0.1997
 2752TIP3    H1 8262   2.863   3.323   3.656 -0.2471 -0.8286  0.5290
 2752TIP3    H2 8263   2.984   3.254   3.716 -0.1254 -1.2485 -0.1856
 2753TIP3   OH2 8264   5.445   5.040   2.641  0.2499 -0.7311 -0.0857
 2753TIP3    H1 8265   5.353   5.056   2.660  0.4831 -0.2150  0.6068
 2753TIP3    H2 8266   5.481   5.002   2.721  0.2278 -2.6843 -0.9462
 2754TIP3   OH2 8267   0.117   0.667   2.876 -0.2744 -0.3796 -0.0239
 2754TIP3    H1 8268   0.079   0.615   2.946 -1.3424  0.2263 -0.1435
 2754TIP3    H2 8269   0.158   0.603   2.818 -0.3639 -0.9663  0.5568
 2755TIP3   OH2 8270   0.225   3.447   4.285  0.0493 -0.4672 -0.1925
 2755TIP3    H1 8271   0.268   3.529   4.308 -0.1255  0.2661 -2.2533
 2755TIP3    H2 8272   0.284   3.378   4.316  0.6975  0.4297  0.6184
 2756TIP3   OH2 8273   1.707   2.980   1.290 -0.5732 -0.3215  0.2704
 2756TIP3    H1 8274   1.713   2.893   1.249 -1.5733  0.0892 -0.8038
 2756TIP3    H2 8275   1.740   3.040   1.223 -3.2247  0.4846 -0.4307
 2757TIP3   OH2 8276   1.017   5.444   4.851  0.4069  0.1837  0.1166
 2757TIP3    H1 8277   1.036   5.511   4.785  0.3595  0.0664 -0.0164
 2757TIP3    H2 8278   1.090   5.383   4.844  0.1142 -0.1298 -0.2155
 2758TIP3   OH2 8279   2.586   5.073   1.015  0.3872  0.0641  0.2575
 2758TIP3    H1 8280   2.502   5.112   1.040  0.0485 -0.9244  0.7341
 2758TIP3    H2 8281   2.620   5.130   0.946 -1.9418 -0.9274 -1.8912
 2759TIP3   OH2 8282   3.368   5.216   3.224 -0.2769 -0.0239 -0.6293
 2759TIP3    H1 8283   3.328   5.255   3.302 -0.7997 -1.3719 -0.1885
 2759TIP3    H2 8284   3.315   5.139   3.206  1.8246 -1.6423 -0.3102
 2760TIP3   OH2 8285   2.853   3.481   2.508 -0.0085  0.1286 -0.2687
 2760TIP3    H1 8286   2.844   3.405   2.451 -0.7337  1.4758 -2.0373
 2760TIP3    H2 8287   2.767   3.524   2.504  0.9499  2.0914 -0.8754
 2761TIP3   OH2 8288   1.531   4.692   4.654 -0.4465  0.1253 -0.5265
 2761TIP3    H1 8289   1.523   4.769   4.711  0.4681 -0.5584  0.5687
 2761TIP3    H2 8290   1.625   4.681   4.641 -0.5461 -0.9340 -0.4679
 2762TIP3   OH2 8291   4.788   2.574   5.055  0.1242 -0.0871  0.5714
 2762TIP3    H1 8292   4.806   2.568   5.149 -0.4978  1.8555  0.8502
 2762TIP3    H2 8293   4.850   2.639   5.022 -0.1702 -0.1948 -0.2220
 2763TIP3   OH2 8294   5.871   2.028   1.889 -0.5965  0.2171 -0.6866
 2763TIP3    H1 8295   5.824   2.004   1.969 -0.6235 -0.3237 -0.8638
 2763TIP3    H2 8296   5.919   2.107   1.912 -0.6325  0.0826 -0.1457
 2764TIP3   OH2 8297   3.590   2.963   2.866 -0.0918  0.4374 -0.0648
 2764TIP3    H1 8298   3.648   2.897   2.827  0.8165  0.4093  1.2724
 2764TIP3    H2 8299   3.516   2.912   2.900 -1.3373  0.5427 -2.3998
 2765TIP3   OH2 8300   2.893   2.117   5.014  0.6542  0.1697 -0.2988
 2765TIP3    H1 8301   2.843   2.175   4.957  0.2933  2.3404  2.0700
 2765TIP3    H2 8302   2.858   2.029   4.996 -0.1830  0.9064 -2.5506
 2766TIP3   OH2 8303   2.625   3.992   4.702  0.0871 -0.0746 -0.6620
 2766TIP3    H1 8304   2.530   3.994   4.712 -0.0243  1.1959 -1.7670
 2766TIP3    H2 8305   2.654   3.923   4.763 -1.5069 -0.3720 -0.1974
 2767TIP3   OH2 8306   3.649   2.332   3.784  0.0640  0.0887 -0.1169
 2767TIP3    H1 8307   3.567   2.348   3.831 -0.0646 -0.4690 -0.1538
 2767TIP3    H2 8308   3.652   2.237   3.772  1.6389 -0.1257  1.5936
 2768TIP3   OH2 8309   3.384   0.638   4.912 -0.1273  0.2975  0.4162
 2768TIP3    H1 8310   3.418   0.696   4.844  1.6382  0.8266  1.7215
 2768TIP3    H2 8311   3.461   0.593   4.947 -1.4203 -3.4578 -0.9990
 2769TIP3   OH2 8312   1.412   4.372   0.840 -0.3407  0.0259  0.3209
 2769TIP3    H1 8313   1.416   4.354   0.746 -2.4979  0.3808  0.1181
 2769TIP3    H2 8314   1.411   4.468   0.846 -0.6307  0.0013  0.6801
 2770TIP3   OH2 8315   2.852   3.742   1.862 -0.2743 -0.0174 -0.0721
 2770TIP3    H1 8316   2.852   3.676   1.792 -0.2478  0.9715 -1.0312
 2770TIP3    H2 8317   2.768   3.730   1.906  0.4632 -1.8817  0.9611
 2771TIP3   OH2 8318   4.550   2.984   4.618 -0.6844 -0.0816  0.0362
 2771TIP3    H1 8319   4.621   3.026   4.666  1.4807 -1.9501 -1.3622
 2771TIP3    H2 8320   4.562   3.011   4.527 -1.3119 -1.0123 -0.3395
 2772TIP3   OH2 8321   6.214   2.132   4.296 -0.3317  0.1159  0.0845
 2772TIP3    H1 8322   6.146   2.092   4.242 -1.2095  0.7570  0.7008
 2772TIP3    H2 8323   6.248   2.060   4.349 -1.0554 -0.0586  0.3161
 2773TIP3   OH2 8324   2.221   2.216   3.998 -0.0628 -0.1268  0.0298
 2773TIP3    H1 8325   2.186   2.209   4.087 -2.0049 -0.2496 -0.7092
 2773TIP3    H2 8326   2.276   2.295   4.000 -0.7692  0.3545  1.1103
 2774TIP3   OH2 8327   6.139   0.383   1.572  0.1525  0.1055 -0.7508
 2774TIP3    H1 8328   6.129   0.392   1.478 -0.9120 -1.1011 -0.7733
 2774TIP3    H2 8329   6.100   0.299   1.593 -0.8339  0.9284  0.9545
 2775TIP3   OH2 8330   1.679   4.918   3.254  0.1357 -0.3833 -0.3069
 2775TIP3    H1 8331   1.731   4.984   3.300  0.0541 -0.2146 -0.4561
 2775TIP3    H2 8332   1.688   4.941   3.162  1.8251 -1.8185 -0.5307
 2776TIP3   OH2 8333   5.910   3.853   3.657 -0.1235 -0.6860  0.6140
 2776TIP3    H1 8334   5.913   3.947   3.637 -1.2245 -0.6838  0.4052
 2776TIP3    H2 8335   5.865   3.848   3.741  0.9572 -0.9605  1.1847
 2777TIP3   OH2 8336   3.791   3.387   1.591  0.0592 -0.6485 -0.1275
 2777TIP3    H1 8337   3.803   3.393   1.496  2.0467 -0.4616  0.0760
 2777TIP3    H2 8338   3.771   3.477   1.619 -1.7768 -0.9217 -0.4749
 2778TIP3   OH2 8339   6.320   4.050   0.335 -0.1982  0.0067  0.3816
 2778TIP3    H1 8340   6.283   4.031   0.421  2.2885 -0.5603  1.4214
 2778TIP3    H2 8341   6.391   3.986   0.324  0.4267  0.9255 -1.4960
 2779TIP3   OH2 8342   0.137   3.934   4.333  1.0523 -0.0647  0.0717
 2779TIP3    H1 8343   0.061   3.985   4.363  1.5463  0.2951  0.7320
 2779TIP3    H2 8344   0.198   3.937   4.406  2.2777  0.7974 -0.9511
 2780TIP3   OH2 8345   2.602   1.879   3.927 -0.0762 -0.6630  0.5530
 2780TIP3    H1 8346   2.697   1.894   3.921 -0.0878 -0.4816  0.8141
 2780TIP3    H2 8347   2.588   1.799   3.877  0.0539 -0.0587 -0.4805
 2781TIP3   OH2 8348   0.024   0.809   1.156 -0.1589 -0.0390 -0.0909
 2781TIP3    H1 8349   0.062   0.818   1.243 -1.2744  2.2481  0.2662
 2781TIP3    H2 8350  -0.058   0.762   1.170  1.3192 -2.9866 -0.5410
 2782TIP3   OH2 8351   3.800   4.291   4.898 -0.1046 -0.1019 -0.6101
 2782TIP3    H1 8352   3.768   4.311   4.986 -0.1152 -0.5765 -0.5013
 2782TIP3    H2 8353   3.868   4.356   4.881  0.1566 -0.2363 -0.1041
 2783TIP3   OH2 8354   1.930   0.282   4.178  0.3460 -0.0558  0.5511
 2783TIP3    H1 8355   1.988   0.276   4.101 -2.0980  0.3556 -1.4617
 2783TIP3    H2 8356   1.934   0.195   4.218 -0.7006 -1.3950 -1.9829
 2784TIP3   OH2 8357   0.932   4.327   4.747  0.0865 -0.1236  0.2037
 2784TIP3    H1 8358   0.953   4.337   4.654 -0.2170  1.9275  0.3089
 2784TIP3    H2 8359   0.837   4.336   4.751  0.0707 -0.4949  0.6906
 2785TIP3   OH2 8360   3.117   3.427   0.994 -0.2304  0.4258 -0.1728
 2785TIP3    H1 8361   3.025   3.447   1.011 -0.0707 -0.1952  1.6489
 2785TIP3    H2 8362   3.132   3.343   1.038  1.6036  1.3153  1.0289
 2786TIP3   OH2 8363   3.282   4.579   2.475  0.0049 -0.3253 -0.0167
 2786TIP3    H1 8364   3.251   4.488   2.479  0.4460 -0.5885 -1.7311
 2786TIP3    H2 8365   3.348   4.578   2.406  1.8946  0.7808  1.6679
 2787TIP3   OH2 8366   3.011   3.909   2.011  0.3062  0.3421  0.3952
 2787TIP3    H1 8367   2.943   3.872   1.954 -0.2380  1.2314  0.4530
 2787TIP3    H2 8368   3.088   3.914   1.955 -0.2453  1.2787 -0.3229
 2788TIP3   OH2 8369   1.861   2.128   1.759  0.2319  0.3840 -0.5295
 2788TIP3    H1 8370   1.857   2.036   1.735 -2.0084 -0.1859  1.6369
 2788TIP3    H2 8371   1.918   2.131   1.836 -0.3694  0.6844 -0.0927
 2789TIP3   OH2 8372   4.918   4.644   0.611  0.0744 -0.1720 -0.4634
 2789TIP3    H1 8373   4.954   4.616   0.527  2.0280  1.1415 -0.1376
 2789TIP3    H2 8374   4.824   4.649   0.597  0.3388 -0.2804 -2.4870
 2790TIP3   OH2 8375   4.847   3.944   2.075  0.1119  0.7020 -0.2577
 2790TIP3    H1 8376   4.874   4.032   2.100  1.0208  0.6337 -0.9783
 2790TIP3    H2 8377   4.924   3.890   2.089 -0.0070  0.2816 -1.1683
 2791TIP3   OH2 8378   5.659   5.665   2.688 -0.3918 -0.3084 -0.0409
 2791TIP3    H1 8379   5.620   5.663   2.775 -2.0529 -0.1551 -0.7416
 2791TIP3    H2 8380   5.754   5.670   2.704 -0.6976  0.6876  1.7509
 2792TIP3   OH2 8381   5.498   3.209   2.743 -0.2582  0.7378 -0.3372
 2792TIP3    H1 8382   5.448   3.286   2.770 -0.9551  0.1745  0.0007
 2792TIP3    H2 8383   5.469   3.191   2.654 -0.4840  0.5500 -0.2254
 2793TIP3   OH2 8384   4.397   1.051   1.439 -0.5634 -0.1211 -0.0629
 2793TIP3    H1 8385   4.349   1.120   1.394  0.0697  0.6057  0.3487
 2793TIP3    H2 8386   4.438   1.000   1.369  0.8245  1.2988 -0.3304
 2794TIP3   OH2 8387   2.782   4.483   1.247  0.0044 -0.1915  0.0622
 2794TIP3    H1 8388   2.757   4.496   1.156  1.8100  1.6235 -0.2478
 2794TIP3    H2 8389   2.814   4.569   1.276  0.9668 -1.1128  1.9137
 2795TIP3   OH2 8390   3.250   4.384   4.955  0.6985 -0.3199 -0.0076
 2795TIP3    H1 8391   3.228   4.309   4.899  0.8307  0.8485 -1.7088
 2795TIP3    H2 8392   3.345   4.377   4.969  0.5291 -1.0806  0.7891
 2796TIP3   OH2 8393   1.288   2.401   3.251 -0.0065 -0.1515 -0.3171
 2796TIP3    H1 8394   1.211   2.386   3.305 -0.0720 -2.5091 -0.9410
 2796TIP3    H2 8395   1.362   2.375   3.307  0.1443 -0.0804 -0.4827
 2797TIP3   OH2 8396   5.418   3.957   2.171 -0.2856 -0.7796 -0.3755
 2797TIP3    H1 8397   5.408   4.052   2.168 -2.1015 -0.9175  0.1172
 2797TIP3    H2 8398   5.334   3.925   2.203  1.0946 -2.4101  1.9296
 2798TIP3   OH2 8399   4.951   1.781   0.503  0.2200  0.2013 -0.1386
 2798TIP3    H1 8400   5.015   1.793   0.574 -0.0578  0.0076  0.1451
 2798TIP3    H2 8401   4.979   1.701   0.459  0.2061  0.1475 -0.0496
 2799TIP3   OH2 8402   2.439   0.614   0.737 -0.2499 -0.2732  0.1452
 2799TIP3    H1 8403   2.350   0.624   0.705 -0.3731  1.8948  1.0279
 2799TIP3    H2 8404   2.485   0.691   0.705  1.6764 -1.8648 -1.2324
 2800TIP3   OH2 8405   1.478   1.243   0.413  0.3351  0.6053 -0.5244
 2800TIP3    H1 8406   1.386   1.222   0.399  0.1079  0.4029  1.0557
 2800TIP3    H2 8407   1.476   1.320   0.470  1.1524  0.7474 -0.6807
 2801TIP3   OH2 8408   1.118   2.146   0.042  0.4570 -0.0483 -0.0400
 2801TIP3    H1 8409   1.041   2.194   0.014 -0.2802 -0.3880  1.3129
 2801TIP3    H2 8410   1.169   2.209   0.093 -0.0517 -0.4096  0.9475
 2802TIP3   OH2 8411   0.429   2.317   2.551 -0.0806  0.3967  0.1783
 2802TIP3    H1 8412   0.415   2.397   2.501  1.1588  1.0324  0.8303
 2802TIP3    H2 8413   0.395   2.337   2.638 -1.8313 -0.5670 -0.2178
 2803TIP3   OH2 8414   5.181   5.329   3.448 -0.2569  0.2921 -0.5791
 2803TIP3    H1 8415   5.229   5.400   3.490  0.2172 -0.0684 -0.5068
 2803TIP3    H2 8416   5.164   5.266   3.518 -1.9017  0.9573 -0.3313
 2804TIP3   OH2 8417   3.260   0.015   5.191  0.3880  0.1698 -0.7091
 2804TIP3    H1 8418   3.287   0.055   5.108 -0.2862  0.2758 -0.8858
 2804TIP3    H2 8419   3.171  -0.016   5.175 -0.6360  2.1647  0.6008
 2805TIP3   OH2 8420   0.199   4.155   2.321  0.0802  0.1659 -0.5806
 2805TIP3    H1 8421   0.108   4.186   2.318 -0.0854 -0.2957 -0.4117
 2805TIP3    H2 8422   0.247   4.214   2.263 -0.0812  1.2454  0.3425
 2806TIP3   OH2 8423   6.132   4.938   2.628 -0.4336  0.1202 -0.0381
 2806TIP3    H1 8424   6.208   4.974   2.585 -0.5142 -0.1064 -0.3739
 2806TIP3    H2 8425   6.085   4.890   2.559  0.0875 -1.2974  0.5397
 2807TIP3   OH2 8426   1.677   2.247   0.373  0.0510  0.4670 -0.1906
 2807TIP3    H1 8427   1.767   2.237   0.403 -0.1416 -0.8724  0.0100
 2807TIP3    H2 8428   1.685   2.289   0.288  0.8185  0.9572  0.1097
 2808TIP3   OH2 8429   0.797   3.625   1.340 -0.1239 -0.0887 -0.3559
 2808TIP3    H1 8430   0.767   3.563   1.407  1.7915 -0.8442 -0.1240
 2808TIP3    H2 8431   0.741   3.608   1.264 -1.0370 -0.5979  0.4137
 2809TIP3   OH2 8432   4.975   5.525   4.722 -0.7648 -0.1999 -0.4090
 2809TIP3    H1 8433   4.882   5.540   4.703 -0.3986  0.4775 -1.7922
 2809TIP3    H2 8434   4.992   5.436   4.690 -1.1048 -0.6473  0.6024
 2810TIP3   OH2 8435   5.341   1.394   0.488  0.2911 -0.0794 -0.0681
 2810TIP3    H1 8436   5.261   1.349   0.461  1.1527 -1.6936 -0.0307
 2810TIP3    H2 8437   5.346   1.470   0.429 -1.4130  0.2462  0.1462
 2811TIP3   OH2 8438   4.445   0.504   0.684 -0.8262 -0.0901  0.7998
 2811TIP3    H1 8439   4.492   0.430   0.644  1.4319  0.1811  2.7168
 2811TIP3    H2 8440   4.451   0.574   0.619  3.3747  0.5782  1.6415
 2812TIP3   OH2 8441   4.926   2.215   2.053 -0.4129  0.0887 -0.0182
 2812TIP3    H1 8442   4.933   2.287   1.991 -1.3267  0.0512 -0.1905
 2812TIP3    H2 8443   4.901   2.140   1.999 -0.0462 -0.2153  0.2367
 2813TIP3   OH2 8444   3.437   1.487   2.567  0.0015  0.5615  0.6909
 2813TIP3    H1 8445   3.515   1.431   2.568 -0.5750 -0.2674  0.6504
 2813TIP3    H2 8446   3.434   1.525   2.655  0.9001  1.2541  0.4375
 2814TIP3   OH2 8447   0.920   3.963   4.541 -0.2285 -0.1357 -0.1077
 2814TIP3    H1 8448   0.884   4.051   4.529 -1.5215 -0.9479 -2.9406
 2814TIP3    H2 8449   0.940   3.933   4.453 -1.0633 -3.1726  0.6213
 2815TIP3   OH2 8450   0.750   5.370   4.861  0.4423  0.2831  0.1816
 2815TIP3    H1 8451   0.766   5.368   4.955  0.8462 -0.9859  0.1008
 2815TIP3    H2 8452   0.837   5.380   4.822  0.3028  0.5461 -0.0714
 2816TIP3   OH2 8453   4.608   5.340   4.876 -0.2098 -0.3662 -0.2086
 2816TIP3    H1 8454   4.652   5.367   4.957  0.3508  0.7006 -0.8480
 2816TIP3    H2 8455   4.671   5.358   4.807 -1.1118 -0.1792 -1.0055
 2817TIP3   OH2 8456   4.524   4.309   3.455 -0.5986  0.2339  0.2525
 2817TIP3    H1 8457   4.603   4.329   3.405 -1.5585 -1.8949 -2.3271
 2817TIP3    H2 8458   4.551   4.240   3.516 -0.2819  0.1447  0.0130
 2818TIP3   OH2 8459   1.905   1.683   4.085  0.2750 -0.1377 -0.1682
 2818TIP3    H1 8460   1.928   1.744   4.156  0.0192 -0.5980  0.3241
 2818TIP3    H2 8461   1.847   1.733   4.028 -2.7268 -0.8511  2.0104
 2819TIP3   OH2 8462   0.458   3.947   3.928 -0.0122  0.0576 -0.0515
 2819TIP3    H1 8463   0.416   4.027   3.896  0.5808 -0.1494 -1.4403
 2819TIP3    H2 8464   0.386   3.892   3.958 -0.6280  0.2237 -1.1789
 2820TIP3   OH2 8465   2.641   3.463   0.302 -0.8219 -0.3337  0.1765
 2820TIP3    H1 8466   2.550   3.490   0.311 -0.2318  1.3874  1.5063
 2820TIP3    H2 8467   2.682   3.535   0.254  0.2860  0.0745  1.6526
 2821TIP3   OH2 8468   5.267   0.068   2.690  0.0871 -0.6806 -0.1468
 2821TIP3    H1 8469   5.218   0.078   2.772  0.0051  1.8066 -0.4158
 2821TIP3    H2 8470   5.201   0.077   2.622  0.2199 -2.3295 -0.5171
 2822TIP3   OH2 8471   6.150   3.828   4.413 -0.1008  0.3336 -0.2346
 2822TIP3    H1 8472   6.196   3.901   4.453  0.0192  0.2064 -0.1433
 2822TIP3    H2 8473   6.057   3.847   4.427 -0.1233 -1.6078  3.6038
 2823TIP3   OH2 8474   3.751   2.178   2.068  0.1001  0.4371 -0.0107
 2823TIP3    H1 8475   3.808   2.230   2.124 -0.9673  0.9223  0.6630
 2823TIP3    H2 8476   3.807   2.108   2.034  0.8105  0.1895  1.5917
 2824TIP3   OH2 8477   2.369   3.444   0.556 -0.0392  0.1877  0.9548
 2824TIP3    H1 8478   2.376   3.454   0.461  0.1961  2.9385  1.1605
 2824TIP3    H2 8479   2.277   3.463   0.575  0.2466  1.1982  1.3823
 2825TIP3   OH2 8480   4.679   3.113   0.784 -0.3732  0.2127  0.1576
 2825TIP3    H1 8481   4.749   3.126   0.719 -0.4431  0.0620  0.0516
 2825TIP3    H2 8482   4.608   3.071   0.735 -0.2943 -0.2247  0.4123
 2826TIP3   OH2 8483   5.726   1.390   4.746  0.4112 -0.1108 -0.2172
 2826TIP3    H1 8484   5.700   1.447   4.819  0.0700  0.2179 -0.5938
 2826TIP3    H2 8485   5.647   1.382   4.693  1.0169  0.7200 -1.2619
 2827TIP3   OH2 8486   2.598   0.457   2.907 -0.0368 -0.0828  0.0362
 2827TIP3    H1 8487   2.682   0.470   2.865  0.9409 -1.4407  1.4303
 2827TIP3    H2 8488   2.533   0.482   2.841  1.4327  1.1231 -1.0161
 2828TIP3   OH2 8489   1.959   5.467   2.474 -0.0766 -0.3562 -0.2810
 2828TIP3    H1 8490   1.893   5.427   2.531 -0.0992 -0.1986 -0.1959
 2828TIP3    H2 8491   1.909   5.496   2.397 -0.4365  1.4032  0.5662
 2829TIP3   OH2 8492   5.359   2.315   4.815 -0.2201 -0.3982  0.4834
 2829TIP3    H1 8493   5.310   2.396   4.803  0.9813  0.1920 -0.6766
 2829TIP3    H2 8494   5.323   2.256   4.747 -0.0958 -0.3465  0.3728
 2830TIP3   OH2 8495   3.580   2.011   0.579 -1.4881 -0.3263 -0.3622
 2830TIP3    H1 8496   3.554   1.962   0.657 -2.1339  1.0450  0.3089
 2830TIP3    H2 8497   3.649   2.070   0.609 -1.9325  0.4040 -0.7678
 2831TIP3   OH2 8498   3.114   3.607   1.663 -0.3727  0.2158 -0.3367
 2831TIP3    H1 8499   3.042   3.554   1.629  0.2811 -0.2593 -1.0269
 2831TIP3    H2 8500   3.185   3.593   1.600  0.1183  1.1718 -0.0131
 2832TIP3   OH2 8501   2.508   3.135   2.145 -0.5252  0.4451 -0.5368
 2832TIP3    H1 8502   2.472   3.142   2.233  0.4176 -0.2474 -0.0853
 2832TIP3    H2 8503   2.522   3.226   2.118  0.0318  0.6451  0.3911
 2833TIP3   OH2 8504   3.373   4.321   1.889  0.2622 -0.5396  0.7372
 2833TIP3    H1 8505   3.323   4.400   1.870  0.7905 -0.3679  0.0122
 2833TIP3    H2 8506   3.354   4.262   1.817  0.9049 -0.5615  0.5738
 2834TIP3   OH2 8507   5.539   1.511   4.908  0.1484  0.4186 -0.0271
 2834TIP3    H1 8508   5.516   1.583   4.967 -1.3686 -0.2497  0.2504
 2834TIP3    H2 8509   5.477   1.519   4.835 -0.2908 -0.8057  0.1900
 2835TIP3   OH2 8510   2.951   3.410   1.540  0.3097 -0.0813  0.3998
 2835TIP3    H1 8511   2.894   3.404   1.463  0.6598  1.8412 -0.0754
 2835TIP3    H2 8512   3.003   3.330   1.538 -0.1849 -0.3934 -0.9621
 2836TIP3   OH2 8513   1.247   1.904   5.170 -0.2013 -0.4177 -0.0454
 2836TIP3    H1 8514   1.258   1.921   5.077  2.0929 -0.3678  0.1711
 2836TIP3    H2 8515   1.301   1.827   5.187 -0.3521 -0.2559  1.2950
 2837TIP3   OH2 8516   5.862   1.680   1.227  0.6822  0.5169 -0.2923
 2837TIP3    H1 8517   5.935   1.645   1.176  1.8745  0.5802  1.3055
 2837TIP3    H2 8518   5.900   1.752   1.278 -0.3943  0.3047  0.8631
 2838TIP3   OH2 8519   2.710   0.937   3.949 -0.5250 -0.0815  0.3486
 2838TIP3    H1 8520   2.640   0.970   3.892  0.5842  1.2223 -0.2856
 2838TIP3    H2 8521   2.666   0.920   4.033 -1.6253  0.6196 -0.0647
 2839TIP3   OH2 8522   0.765   2.248   4.583 -0.2856 -0.6923 -0.1883
 2839TIP3    H1 8523   0.846   2.204   4.610 -1.0615 -1.4520  0.9925
 2839TIP3    H2 8524   0.697   2.208   4.637 -1.4583 -0.0515 -1.1465
 2840TIP3   OH2 8525   1.592   0.428   0.468 -0.2493 -0.7373  0.2069
 2840TIP3    H1 8526   1.584   0.475   0.552  0.4844  1.0911 -0.7012
 2840TIP3    H2 8527   1.657   0.360   0.485  1.7434  1.1601  0.5198
 2841TIP3   OH2 8528   6.249   5.647   1.029  0.5156  0.2446 -0.1888
 2841TIP3    H1 8529   6.331   5.598   1.029  0.5527  0.2805  0.9462
 2841TIP3    H2 8530   6.196   5.605   1.097  0.0676  1.0034 -0.0578
 2842TIP3   OH2 8531   2.892   1.348   1.428 -0.4029 -0.7842 -0.3388
 2842TIP3    H1 8532   2.872   1.311   1.514 -0.3024  1.0475  0.5256
 2842TIP3    H2 8533   2.814   1.328   1.375  0.2095 -3.3588 -0.3708
 2843TIP3   OH2 8534   4.686   1.911   4.664  0.1072 -0.1413 -0.1745
 2843TIP3    H1 8535   4.614   1.943   4.609  1.4327 -1.3695 -2.7979
 2843TIP3    H2 8536   4.731   1.990   4.692  0.1955  0.5337 -2.0633
 2844TIP3   OH2 8537   1.638   1.064   2.903 -0.2696  0.1077  0.2555
 2844TIP3    H1 8538   1.544   1.080   2.913 -0.4006 -0.4163 -0.1078
 2844TIP3    H2 8539   1.679   1.128   2.961 -0.8575  0.1713  0.6145
 2845TIP3   OH2 8540   2.970   4.005   0.722  0.3019  0.6343 -0.2025
 2845TIP3    H1 8541   2.916   3.928   0.738  2.5369 -1.0320 -0.2322
 2845TIP3    H2 8542   2.969   4.052   0.806 -0.2402  0.0000  0.1590
 2846TIP3   OH2 8543   4.691   0.242   3.426 -0.3243  0.2912 -0.2576
 2846TIP3    H1 8544   4.679   0.294   3.347 -0.6326 -0.0363 -0.4297
 2846TIP3    H2 8545   4.706   0.153   3.395  0.6857  0.3474  0.0167
 2847TIP3   OH2 8546   2.212   1.254   5.213  0.1748  0.0478  0.1653
 2847TIP3    H1 8547   2.231   1.294   5.128  0.1766 -1.5840 -0.6346
 2847TIP3    H2 8548   2.130   1.207   5.200  0.9195 -1.4283  0.6139
 2848TIP3   OH2 8549   3.000   1.902   0.386 -0.3429  0.0462 -0.0827
 2848TIP3    H1 8550   3.008   1.807   0.384 -0.5000  0.0365 -0.3246
 2848TIP3    H2 8551   2.952   1.920   0.467  0.9808  0.0222  0.7241
 2849TIP3   OH2 8552   3.762   4.790   3.191  0.2566  0.6195  0.3226
 2849TIP3    H1 8553   3.706   4.713   3.188  0.5590  0.4132 -0.2079
 2849TIP3    H2 8554   3.770   4.811   3.285 -0.8605  0.7778  0.3917
 2850TIP3   OH2 8555   1.469   3.092   0.070  0.5147  0.5467 -0.4053
 2850TIP3    H1 8556   1.396   3.061   0.016  0.9596 -1.2373 -0.0471
 2850TIP3    H2 8557   1.428   3.128   0.149 -0.0221  0.6254 -0.7191
 2851TIP3   OH2 8558   2.211   5.237   4.748  0.0211  0.3211  0.5190
 2851TIP3    H1 8559   2.206   5.332   4.742 -3.2818  0.3235  1.3645
 2851TIP3    H2 8560   2.226   5.219   4.841 -0.9487  0.0308  0.6272
 2852TIP3   OH2 8561   0.257   3.752   3.113 -0.2139 -0.1223 -0.5057
 2852TIP3    H1 8562   0.330   3.801   3.076 -1.3410 -0.4740 -3.4431
 2852TIP3    H2 8563   0.245   3.790   3.201  1.6126  1.9109 -1.0545
 2853TIP3   OH2 8564   2.574   0.798   5.083 -0.5971  0.1946  0.4839
 2853TIP3    H1 8565   2.531   0.724   5.039  0.1671 -0.8753  1.4654
 2853TIP3    H2 8566   2.510   0.869   5.079 -0.4555  0.2921 -2.5989
 2854TIP3   OH2 8567   0.850   0.746   3.283 -0.3451 -0.8871 -0.3870
 2854TIP3    H1 8568   0.810   0.812   3.227  2.0408 -0.5722 -1.8507
 2854TIP3    H2 8569   0.848   0.784   3.371  0.3868  0.9136 -1.0924
 2855TIP3   OH2 8570   4.128   0.090   0.246 -0.0202 -0.1944 -0.4052
 2855TIP3    H1 8571   4.100   0.001   0.222 -0.2454 -0.0474 -0.6983
 2855TIP3    H2 8572   4.078   0.110   0.325 -1.2638  0.3104 -1.2765
 2856TIP3   OH2 8573   5.093   3.579   0.319 -0.2187  0.4090  0.4460
 2856TIP3    H1 8574   5.132   3.665   0.334 -2.4291  1.4752  0.5402
 2856TIP3    H2 8575   5.002   3.589   0.347 -1.3343 -1.0955 -2.2871
 2857TIP3   OH2 8576   4.694   3.571   3.051  0.1826 -0.7215  0.4983
 2857TIP3    H1 8577   4.774   3.573   2.999  0.7388 -2.8283  1.1723
 2857TIP3    H2 8578   4.705   3.640   3.117  2.1425 -1.9394  1.5136
 2858TIP3   OH2 8579   0.689   0.917   2.808  0.1077 -0.0961  0.0560
 2858TIP3    H1 8580   0.617   0.976   2.789  0.3891  0.3780  0.4452
 2858TIP3    H2 8581   0.666   0.835   2.764 -1.6339 -0.6143  1.7842
 2859TIP3   OH2 8582   5.291   3.893   0.378 -0.5925  0.3382 -0.0995
 2859TIP3    H1 8583   5.208   3.913   0.336 -1.5530 -1.2797  0.9427
 2859TIP3    H2 8584   5.340   3.844   0.312 -2.4448 -2.9871  0.8098
 2860TIP3   OH2 8585   3.087   1.797   4.644  0.2982 -0.8201 -0.0772
 2860TIP3    H1 8586   3.068   1.742   4.720  2.2574  0.2742  1.2759
 2860TIP3    H2 8587   3.162   1.850   4.670  0.1787  0.5815 -2.3070
 2861TIP3   OH2 8588   0.163   0.740   0.789 -0.7864 -0.5853 -0.3177
 2861TIP3    H1 8589   0.140   0.654   0.827 -0.4701 -1.3645 -1.8115
 2861TIP3    H2 8590   0.178   0.722   0.697  0.4069  0.8998 -0.4537
 2862TIP3   OH2 8591   5.629   2.670   5.005 -0.2228 -0.0432 -0.5585
 2862TIP3    H1 8592   5.605   2.762   4.993 -0.1838 -0.1443 -1.4314
 2862TIP3    H2 8593   5.623   2.632   4.918 -2.7481 -1.4984  0.1558
 2863TIP3   OH2 8594   0.777   4.703   4.413  0.0390  0.8773 -0.2636
 2863TIP3    H1 8595   0.812   4.757   4.343 -0.9471  1.2536 -0.4832
 2863TIP3    H2 8596   0.682   4.715   4.407 -0.0230  1.5952  1.6842
 2864TIP3   OH2 8597   5.362   5.284   4.982 -0.3981 -0.7816  0.4729
 2864TIP3    H1 8598   5.408   5.313   5.060  1.9843 -0.1282 -1.0773
 2864TIP3    H2 8599   5.302   5.356   4.961  1.0798  0.3633  0.0770
 2865TIP3   OH2 8600   5.656   1.201   4.282  0.0704 -0.3576  0.2823
 2865TIP3    H1 8601   5.592   1.188   4.353 -1.2884 -0.0953 -0.8545
 2865TIP3    H2 8602   5.652   1.121   4.231  1.5074 -0.8003  0.8150
 2866TIP3   OH2 8603   5.077   2.306   3.499 -0.1826 -0.3277  0.9242
 2866TIP3    H1 8604   5.003   2.320   3.439 -0.1063 -1.5400  0.5102
 2866TIP3    H2 8605   5.153   2.300   3.442  0.5849  2.7033  1.4562
 2867TIP3   OH2 8606   4.690   1.356   4.569 -0.1145 -0.3759 -0.4683
 2867TIP3    H1 8607   4.653   1.378   4.655 -0.5611 -0.6287 -0.5932
 2867TIP3    H2 8608   4.783   1.338   4.587  0.9320  3.7940 -0.6794
 2868TIP3   OH2 8609   5.464   2.089   0.429  0.3168 -0.2166  0.1279
 2868TIP3    H1 8610   5.464   1.994   0.418  0.2029 -0.1678 -0.3042
 2868TIP3    H2 8611   5.402   2.104   0.500  0.4125 -0.4744  0.2672
 2869TIP3   OH2 8612   2.877   3.987   0.250  0.3786  0.2759 -0.0276
 2869TIP3    H1 8613   2.823   3.981   0.171  1.8686  1.3234 -1.1707
 2869TIP3    H2 8614   2.959   3.945   0.227  0.2447 -0.9655  1.5737
 2870TIP3   OH2 8615   1.983   2.143   2.001  0.5531  0.3966 -0.1319
 2870TIP3    H1 8616   2.064   2.183   1.968  0.4719  0.5219 -0.1808
 2870TIP3    H2 8617   1.961   2.193   2.079  0.4830  0.4093 -0.1596
 2871TIP3   OH2 8618   0.725   4.986   1.699  0.3815 -0.3443  0.3521
 2871TIP3    H1 8619   0.795   5.045   1.672 -1.6347  1.8784 -0.3682
 2871TIP3    H2 8620   0.710   4.929   1.623  1.6728 -1.2057  0.6995
 2872TIP3   OH2 8621   3.998   2.460   0.707  0.1181  0.0075  0.4153
 2872TIP3    H1 8622   3.965   2.549   0.716 -0.2422  0.0171 -0.8137
 2872TIP3    H2 8623   4.003   2.446   0.613  1.2321 -0.8942  0.5947
 2873TIP3   OH2 8624   1.360   4.541   3.247  0.8587 -1.2696  0.2620
 2873TIP3    H1 8625   1.368   4.468   3.185 -0.1011 -1.1354 -0.0282
 2873TIP3    H2 8626   1.372   4.619   3.193 -1.2236 -1.0965 -0.0157
 2874TIP3   OH2 8627   2.804   5.837   1.641  0.8917 -0.6195 -0.1086
 2874TIP3    H1 8628   2.857   5.758   1.640  0.5406 -0.8527 -0.4550
 2874TIP3    H2 8629   2.720   5.810   1.677  0.9056 -0.3182  0.1525
 2875TIP3   OH2 8630   4.102   4.679   1.321  0.0997  0.2185 -0.5121
 2875TIP3    H1 8631   4.010   4.706   1.321  0.6514  2.2407 -0.6430
 2875TIP3    H2 8632   4.138   4.714   1.403  0.7092 -0.7740 -0.3333
 2876TIP3   OH2 8633   1.193   5.729   3.430  0.3200  0.3057  0.7543
 2876TIP3    H1 8634   1.175   5.823   3.432  0.3043  0.3214  0.0716
 2876TIP3    H2 8635   1.106   5.688   3.426  0.3480  0.2946  0.1636
 2877TIP3   OH2 8636   5.124   2.514   4.821  0.5928 -0.1711 -0.7423
 2877TIP3    H1 8637   5.172   2.598   4.818 -0.6799  0.6272  0.3056
 2877TIP3    H2 8638   5.117   2.494   4.914 -1.5322  0.0059 -0.8176
 2878TIP3   OH2 8639   2.038   4.316   4.600 -0.2312 -0.3229  0.7400
 2878TIP3    H1 8640   2.012   4.224   4.601 -1.4242 -0.0417 -0.9760
 2878TIP3    H2 8641   1.995   4.353   4.523  1.8788  1.2169  0.2154
 2879TIP3   OH2 8642   0.613   0.398   0.315 -0.3318  0.7023  0.8041
 2879TIP3    H1 8643   0.634   0.389   0.408  1.7695 -1.2752  0.2285
 2879TIP3    H2 8644   0.669   0.334   0.272 -1.7328  1.1001 -1.7886
 2880TIP3   OH2 8645   5.929   5.214   0.476 -0.0864 -0.0353  0.0285
 2880TIP3    H1 8646   5.863   5.282   0.462  0.4198  0.4963  0.1714
 2880TIP3    H2 8647   5.970   5.202   0.390 -0.7326 -0.7679 -0.1933
 2881TIP3   OH2 8648   2.431   5.633   0.069  0.7182  0.0763  0.3110
 2881TIP3    H1 8649   2.511   5.581   0.062 -0.0537 -1.0945 -0.2144
 2881TIP3    H2 8650   2.361   5.574   0.040 -0.2805  1.2233  0.2754
 2882TIP3   OH2 8651   4.620   0.954   2.093  0.4762  0.0231 -0.0415
 2882TIP3    H1 8652   4.637   1.003   2.173 -0.7677 -0.8447  0.7998
 2882TIP3    H2 8653   4.575   1.016   2.036  1.7696  0.7812 -0.2731
 2883TIP3   OH2 8654   1.425   0.748   1.872 -0.4984 -0.5097 -0.4324
 2883TIP3    H1 8655   1.455   0.820   1.816  0.7183  1.0554  2.0946
 2883TIP3    H2 8656   1.330   0.760   1.879 -0.2386  1.2520  0.4308
 2884TIP3   OH2 8657   1.038   3.211   0.674 -0.1416 -0.2430 -0.2201
 2884TIP3    H1 8658   1.046   3.116   0.664  2.6355  0.0447 -1.7504
 2884TIP3    H2 8659   1.105   3.234   0.739 -0.1486  0.7502 -0.5487
 2885TIP3   OH2 8660   6.070   2.883   3.916  0.2190 -0.4895  0.1336
 2885TIP3    H1 8661   5.988   2.912   3.876  0.0048  1.0828  1.5938
 2885TIP3    H2 8662   6.138   2.936   3.874 -0.1061  1.8943  2.3547
 2886TIP3   OH2 8663   5.694   2.903   3.323 -0.2381  0.2200  0.5797
 2886TIP3    H1 8664   5.670   2.816   3.354 -0.0707  1.0322  3.2195
 2886TIP3    H2 8665   5.613   2.954   3.325  0.3425  1.1648  3.0286
 2887TIP3   OH2 8666   3.255   1.051   3.010 -0.1402  0.0658 -0.5397
 2887TIP3    H1 8667   3.198   0.991   2.963 -0.7121  1.1941 -1.3483
 2887TIP3    H2 8668   3.341   1.009   3.010 -0.1493 -0.0430 -2.4729
 2888TIP3   OH2 8669   4.023   4.906   4.118  0.1521 -0.3238 -0.7371
 2888TIP3    H1 8670   4.026   4.816   4.149 -3.5784 -0.1084  0.6865
 2888TIP3    H2 8671   4.058   4.958   4.190 -1.2729 -0.4241  0.0714
 2889TIP3   OH2 8672   4.790   2.087   0.398  0.9405  0.1420  0.2293
 2889TIP3    H1 8673   4.782   1.992   0.409 -0.1664  0.3268  1.2094
 2889TIP3    H2 8674   4.805   2.099   0.304 -0.2131 -0.9334 -0.1183
 2890TIP3   OH2 8675   3.674   0.519   2.139 -0.3737  0.4223 -0.0783
 2890TIP3    H1 8676   3.606   0.553   2.081  1.3753  1.2081 -1.8085
 2890TIP3    H2 8677   3.723   0.458   2.083  1.1351  0.8897  0.6939
 2891TIP3   OH2 8678   2.258   5.661   2.110  0.0349 -0.7936  0.1953
 2891TIP3    H1 8679   2.304   5.579   2.090  2.4291  0.6496 -0.5324
 2891TIP3    H2 8680   2.265   5.713   2.030 -1.8399  0.0071  0.4899
 2892TIP3   OH2 8681   2.282   1.901   4.392 -0.5499  0.2953 -0.1853
 2892TIP3    H1 8682   2.332   1.959   4.449  0.7828 -0.3275 -0.6908
 2892TIP3    H2 8683   2.300   1.813   4.425  0.8199 -0.1371 -1.9698
 2893TIP3   OH2 8684   3.836   5.945   5.190 -0.1349  0.3319 -0.2035
 2893TIP3    H1 8685   3.760   5.962   5.246 -0.4936 -0.8661 -0.3096
 2893TIP3    H2 8686   3.802   5.949   5.101 -0.2806 -1.1008 -0.2265
 2894TIP3   OH2 8687   1.179   0.597   3.544  0.4851 -0.8095 -0.1542
 2894TIP3    H1 8688   1.202   0.558   3.460  1.7445 -0.4294 -0.0037
 2894TIP3    H2 8689   1.212   0.687   3.539 -2.2410  0.2664 -0.4407
 2895TIP3   OH2 8690   6.142   0.697   0.633 -0.2789 -0.1411  0.1610
 2895TIP3    H1 8691   6.163   0.721   0.723  1.4577 -0.3491 -0.1671
 2895TIP3    H2 8692   6.047   0.684   0.634 -0.2857 -0.2247  1.9811
 2896TIP3   OH2 8693   4.761   4.602   3.251  0.1731  0.7165  0.1050
 2896TIP3    H1 8694   4.799   4.686   3.273 -1.9702  1.4390  1.4086
 2896TIP3    H2 8695   4.756   4.601   3.155  0.1152  2.1279  0.0846
 2897TIP3   OH2 8696   3.158   4.689   2.110 -0.4575  0.5813  0.8254
 2897TIP3    H1 8697   3.155   4.782   2.134 -0.7425  0.2029  2.4269
 2897TIP3    H2 8698   3.089   4.679   2.045 -1.1080  1.3078  1.3788
 2898TIP3   OH2 8699   2.849   5.443   4.593 -0.2254  0.0630 -0.0345
 2898TIP3    H1 8700   2.821   5.496   4.668 -1.1636 -0.6162  0.1091
 2898TIP3    H2 8701   2.935   5.409   4.618 -0.5857 -0.2582  0.7966
 2899TIP3   OH2 8702   6.082   5.019   5.113  0.1948 -0.5826 -0.2900
 2899TIP3    H1 8703   6.113   4.999   5.201 -0.8158 -0.3851  0.1247
 2899TIP3    H2 8704   6.045   5.107   5.119 -0.5101 -0.8417 -0.7399
 2900TIP3   OH2 8705   1.119   5.727   1.477 -0.5393  0.0948  0.0173
 2900TIP3    H1 8706   1.128   5.821   1.457 -2.7599  0.9316  2.4471
 2900TIP3    H2 8707   1.101   5.686   1.392  1.4313  1.6385 -1.2630
 2901TIP3   OH2 8708   6.080   2.635   0.345 -0.3038  0.4410 -0.8047
 2901TIP3    H1 8709   6.109   2.659   0.433 -1.3210  0.5014 -0.4683
 2901TIP3    H2 8710   6.154   2.657   0.288  0.2462  0.6958 -0.0065
 2902TIP3   OH2 8711   3.060   3.767   0.314  0.2792 -0.0248  0.1248
 2902TIP3    H1 8712   3.028   3.751   0.225  1.4302  2.8020 -0.8875
 2902TIP3    H2 8713   3.155   3.755   0.308  0.4146  0.6320  0.8426
 2903TIP3   OH2 8714   2.214   0.608   1.717  0.8868 -0.1105  0.2737
 2903TIP3    H1 8715   2.122   0.581   1.723 -0.0495  2.6095 -0.2177
 2903TIP3    H2 8716   2.257   0.563   1.789 -0.8064 -1.5077  0.4888
 2904TIP3   OH2 8717   1.036   3.598   2.611  0.5874  0.3388  0.1802
 2904TIP3    H1 8718   0.949   3.566   2.633  0.7457  0.1096  0.4759
 2904TIP3    H2 8719   1.035   3.690   2.637  0.7373  0.0991  1.0538
 2905TIP3   OH2 8720   0.076   4.843   0.387  0.1552  0.8328 -0.2285
 2905TIP3    H1 8721   0.149   4.905   0.376  1.7677 -0.7122  1.1010
 2905TIP3    H2 8722   0.092   4.776   0.321  0.0022  0.4304  0.1428
 2906TIP3   OH2 8723   2.606   0.062   2.912 -0.0425 -0.2868  0.1745
 2906TIP3    H1 8724   2.623   0.069   3.006 -0.4126 -0.6845  0.2719
 2906TIP3    H2 8725   2.660   0.131   2.873  0.6848 -0.5998  0.6117
 2907TIP3   OH2 8726   2.296   1.793   4.141  0.9912  0.3071  0.1647
 2907TIP3    H1 8727   2.256   1.810   4.227  0.6693  0.1684  0.0408
 2907TIP3    H2 8728   2.240   1.726   4.101 -0.0907  1.8596 -1.0248
 2908TIP3   OH2 8729   1.505   2.647   5.053 -0.2240 -0.1666  0.2918
 2908TIP3    H1 8730   1.540   2.660   5.141  1.9622 -0.3693 -0.4901
 2908TIP3    H2 8731   1.552   2.571   5.019  1.3824  1.7778 -2.1759
 2909TIP3   OH2 8732   3.682   4.884   1.768 -1.0954 -0.3153  0.8514
 2909TIP3    H1 8733   3.769   4.886   1.728 -0.9185 -0.6376  1.2111
 2909TIP3    H2 8734   3.699   4.862   1.860 -1.4959  0.3388  1.0885
 2910TIP3   OH2 8735   3.005   1.517   4.769  0.3231 -0.3379  0.0946
 2910TIP3    H1 8736   2.990   1.477   4.855 -0.6916  0.2088  0.1824
 2910TIP3    H2 8737   3.097   1.498   4.750  1.3551  1.7778  2.4768
 2911TIP3   OH2 8738   1.108   1.637   4.531  0.2819 -0.1548  0.4818
 2911TIP3    H1 8739   1.025   1.593   4.551 -0.1820  1.1188  1.4752
 2911TIP3    H2 8740   1.127   1.611   4.441 -1.2707 -0.3753  0.1864
 2912TIP3   OH2 8741   2.060   5.484   1.691 -0.2977 -0.3302 -0.0779
 2912TIP3    H1 8742   2.074   5.567   1.645  0.4754 -0.0936  0.5632
 2912TIP3    H2 8743   2.026   5.508   1.777 -0.5080 -0.7037 -0.0516
 2913TIP3   OH2 8744   3.739   1.139   2.590  0.6605  0.1196  0.0398
 2913TIP3    H1 8745   3.758   1.216   2.536  1.0782  0.7994  1.1127
 2913TIP3    H2 8746   3.823   1.093   2.596  1.0298  0.9114  1.3954
 2914TIP3   OH2 8747   3.685   4.578   1.748  0.6391 -0.0086  0.2375
 2914TIP3    H1 8748   3.687   4.489   1.715  1.4701  0.5222 -1.2354
 2914TIP3    H2 8749   3.775   4.609   1.742  0.4543  0.7861  1.1737
 2915TIP3   OH2 8750   3.540   1.661   3.857 -0.5983  0.2199  0.1140
 2915TIP3    H1 8751   3.556   1.571   3.885 -0.6666 -0.0556 -0.6869
 2915TIP3    H2 8752   3.463   1.689   3.907  0.6428  0.5815  1.9248
 2916TIP3   OH2 8753   4.566   5.569   3.382 -0.3564 -0.0872 -0.2091
 2916TIP3    H1 8754   4.566   5.662   3.403  1.8497 -0.2257  0.7228
 2916TIP3    H2 8755   4.502   5.530   3.441 -0.8413  0.7420 -0.1788
 2917TIP3   OH2 8756   3.381   1.443   0.107 -0.1446  0.0180 -0.0510
 2917TIP3    H1 8757   3.317   1.414   0.171  0.5616 -1.4858  0.0071
 2917TIP3    H2 8758   3.334   1.442   0.023 -0.5106  0.0699  0.1517
 2918TIP3   OH2 8759   3.199   4.825   0.962 -0.3730  0.3548  0.2847
 2918TIP3    H1 8760   3.111   4.841   0.927  0.6866 -0.2814 -3.1284
 2918TIP3    H2 8761   3.222   4.739   0.927  1.0548 -0.2043  2.4550
 2919TIP3   OH2 8762   1.041   1.718   0.377  0.1050  0.2595  1.0560
 2919TIP3    H1 8763   1.002   1.633   0.357 -1.2842  0.8110  1.2357
 2919TIP3    H2 8764   0.982   1.782   0.336  2.1493  1.1099 -0.7081
 2920TIP3   OH2 8765   0.338   3.255   3.054  0.5267  0.7938  0.1854
 2920TIP3    H1 8766   0.307   3.291   3.137 -2.0232 -0.0423 -0.3343
 2920TIP3    H2 8767   0.286   3.300   2.987  0.7403 -0.3410 -0.7758
 2921TIP3   OH2 8768   2.838   3.477   3.526 -0.6659 -0.1876 -0.4055
 2921TIP3    H1 8769   2.872   3.414   3.463 -1.6237 -1.2049  0.0661
 2921TIP3    H2 8770   2.910   3.539   3.539  0.8019 -1.9276  0.1134
 2922TIP3   OH2 8771   5.414   3.638   4.389  0.1329 -0.6285 -0.2144
 2922TIP3    H1 8772   5.462   3.576   4.334 -0.6685  0.2797 -2.0064
 2922TIP3    H2 8773   5.322   3.611   4.381 -0.1467  0.3551 -0.4477
 2923TIP3   OH2 8774   2.099   4.519   3.315  0.0384 -0.9313 -0.1702
 2923TIP3    H1 8775   2.028   4.583   3.326 -0.9473 -1.7711 -1.3984
 2923TIP3    H2 8776   2.120   4.523   3.222  0.1843 -2.1585 -0.1944
 2924TIP3   OH2 8777   1.588   0.386   5.148 -0.1350 -0.7515  1.3198
 2924TIP3    H1 8778   1.668   0.349   5.186 -0.4177 -2.0110  0.7517
 2924TIP3    H2 8779   1.565   0.458   5.207  1.6039 -0.1229  1.2921
 2925TIP3   OH2 8780   1.956   4.911   3.678 -0.4358  0.6905 -1.2068
 2925TIP3    H1 8781   1.994   4.981   3.625  1.9154 -0.1030 -0.6904
 2925TIP3    H2 8782   1.946   4.838   3.617  1.6527 -0.0070 -0.8167
 2926TIP3   OH2 8783   1.948   5.445   4.311 -0.4003  0.0255  0.4218
 2926TIP3    H1 8784   1.977   5.379   4.374  0.7341  1.3418  1.3294
 2926TIP3    H2 8785   1.979   5.528   4.347  1.5498  0.7467 -2.5385
 2927TIP3   OH2 8786   4.215   4.544   1.951 -0.1476  0.1600  0.6248
 2927TIP3    H1 8787   4.269   4.588   1.886 -0.7349 -0.9568 -0.6469
 2927TIP3    H2 8788   4.270   4.541   2.030  1.3368 -0.2231 -0.3926
 2928TIP3   OH2 8789   2.602   0.372   1.771  0.0420  0.6137 -0.5464
 2928TIP3    H1 8790   2.648   0.376   1.855 -1.2433 -0.5498  0.2673
 2928TIP3    H2 8791   2.638   0.444   1.720  0.1634  1.9974  1.3691
 2929TIP3   OH2 8792   2.559   0.035   1.917  0.2689  0.4863  0.8324
 2929TIP3    H1 8793   2.621   0.102   1.891 -0.4280  0.5181 -0.9225
 2929TIP3    H2 8794   2.607  -0.021   1.978  0.5810  3.0422  3.0806
 2930TIP3   OH2 8795   5.190   3.936   3.270  0.2582  0.2483  0.5834
 2930TIP3    H1 8796   5.163   3.937   3.362 -1.3725 -0.8866  0.1537
 2930TIP3    H2 8797   5.286   3.936   3.273  0.2356  0.1907  2.2695
 2931TIP3   OH2 8798   3.713   4.458   4.204  0.1158  0.2714  0.5776
 2931TIP3    H1 8799   3.707   4.544   4.164  2.3286  0.0129 -0.3948
 2931TIP3    H2 8800   3.653   4.403   4.153  1.4469  0.4023 -1.1843
 2932TIP3   OH2 8801   1.837   3.079   4.443  0.0552  0.0744 -0.3055
 2932TIP3    H1 8802   1.897   3.094   4.369 -0.1140  1.2823 -0.2160
 2932TIP3    H2 8803   1.884   3.112   4.519  0.3019 -1.3362  0.1857
 2933TIP3   OH2 8804   0.068   4.691   1.859  0.4216 -0.2469  0.4501
 2933TIP3    H1 8805   0.070   4.772   1.809 -1.4390 -0.9186 -0.8038
 2933TIP3    H2 8806   0.159   4.660   1.856  0.4177 -0.3034 -2.6790
 2934TIP3   OH2 8807   3.202   2.729   3.708 -0.2597 -0.4330  0.0065
 2934TIP3    H1 8808   3.151   2.744   3.788  0.3413  1.5167  0.0820
 2934TIP3    H2 8809   3.139   2.744   3.638 -0.1129  0.8327  0.1148
 2935TIP3   OH2 8810   2.587   5.285   3.768 -0.3338  0.1599 -0.1100
 2935TIP3    H1 8811   2.547   5.205   3.800 -0.0869  0.1946  0.2981
 2935TIP3    H2 8812   2.514   5.344   3.750 -0.4491  0.7774  2.0866
 2936TIP3   OH2 8813   0.023   3.550   1.113  0.1551  0.1475  0.1232
 2936TIP3    H1 8814   0.115   3.525   1.125  0.0768 -0.9731 -1.3065
 2936TIP3    H2 8815  -0.024   3.467   1.112 -0.6829  0.6205 -0.6391
 2937TIP3   OH2 8816   4.100   3.800   2.958 -0.1798  0.1591 -0.2868
 2937TIP3    H1 8817   4.187   3.836   2.974 -1.1200  1.9105  1.5278
 2937TIP3    H2 8818   4.067   3.847   2.882  0.0215  0.3799 -0.2363
 2938TIP3   OH2 8819   0.860   0.748   2.192 -0.1632 -0.1539 -0.2938
 2938TIP3    H1 8820   0.954   0.730   2.184  0.2694  1.9675 -0.4738
 2938TIP3    H2 8821   0.837   0.796   2.112 -0.6912  1.9980  1.0688
 2939TIP3   OH2 8822   3.119   0.976   2.767 -0.0908 -0.1998  0.0130
 2939TIP3    H1 8823   3.146   0.890   2.736 -0.2922  0.3658 -1.8640
 2939TIP3    H2 8824   3.176   1.037   2.719 -0.6307  0.7504  0.5643
 2940TIP3   OH2 8825   0.352   4.931   5.059 -0.2823  0.3270  0.1064
 2940TIP3    H1 8826   0.432   4.979   5.039 -0.4771  0.3579 -0.6399
 2940TIP3    H2 8827   0.344   4.935   5.154  0.1241  1.0869  0.1145
 2941TIP3   OH2 8828   3.835   5.368   3.180  0.5584 -0.4693  0.2501
 2941TIP3    H1 8829   3.779   5.299   3.214 -0.5318 -0.3981 -1.3037
 2941TIP3    H2 8830   3.776   5.424   3.130  1.4991  1.3282  1.0620
 2942TIP3   OH2 8831   6.298   4.769   3.959  0.0989 -0.8910  0.3148
 2942TIP3    H1 8832   6.216   4.731   3.991 -0.4871  0.0896  0.0290
 2942TIP3    H2 8833   6.271   4.835   3.895  1.0334  0.3377  1.1310
 2943TIP3   OH2 8834   6.313   1.264   3.141 -0.1391 -0.1718  0.1508
 2943TIP3    H1 8835   6.354   1.346   3.169  2.6430 -1.0156 -1.1403
 2943TIP3    H2 8836   6.386   1.208   3.113 -2.0402 -2.6085 -0.3200
 2944TIP3   OH2 8837   6.029   4.464   1.697 -0.0928  0.2456 -0.3191
 2944TIP3    H1 8838   6.064   4.487   1.611 -0.6783  3.3592  0.1870
 2944TIP3    H2 8839   6.093   4.499   1.759 -0.9473  0.3370  0.5376
 2945TIP3   OH2 8840   5.014   4.883   3.065 -0.3589  0.0634 -0.0043
 2945TIP3    H1 8841   5.024   4.881   2.970  1.3212  1.7586  0.0873
 2945TIP3    H2 8842   4.920   4.890   3.079 -0.6049  0.2269 -1.5630
 2946TIP3   OH2 8843   4.994   4.542   1.229  0.0151 -0.4817 -0.4359
 2946TIP3    H1 8844   4.902   4.554   1.252 -0.1452 -0.0157 -1.2904
 2946TIP3    H2 8845   5.042   4.570   1.307 -0.5856 -2.7747  0.8664
 2947TIP3   OH2 8846   6.313   3.698   0.778  0.0644  0.0297 -0.6025
 2947TIP3    H1 8847   6.244   3.688   0.712  1.4851 -0.2852 -2.0967
 2947TIP3    H2 8848   6.349   3.785   0.763  1.1140 -0.4536 -0.9945
 2948TIP3   OH2 8849   6.318   4.248   1.791  0.1541 -0.4419  0.3460
 2948TIP3    H1 8850   6.352   4.159   1.785  1.2507  0.0317 -0.9938
 2948TIP3    H2 8851   6.328   4.284   1.702 -1.7229  0.5061  0.4532
 2949TIP3   OH2 8852   1.196   3.132   3.378  0.1532  0.6477  0.0497
 2949TIP3    H1 8853   1.223   3.099   3.464  0.1552 -2.0559 -0.9006
 2949TIP3    H2 8854   1.101   3.140   3.385  0.2303  1.2229  0.5337
 2950TIP3   OH2 8855   3.134   4.883   0.626 -0.3174 -0.3933  0.8248
 2950TIP3    H1 8856   3.148   4.977   0.626  2.0942 -0.5891 -2.0794
 2950TIP3    H2 8857   3.221   4.846   0.642 -0.9213 -2.0910  0.3807
 2951TIP3   OH2 8858   2.300   0.324   1.292  0.3967  0.0773  0.1857
 2951TIP3    H1 8859   2.327   0.328   1.384 -0.7757  0.2416  0.5346
 2951TIP3    H2 8860   2.382   0.329   1.243  1.0242  0.1645  1.2172
 2952TIP3   OH2 8861   3.554   3.670   2.498 -0.2271  0.3559  0.2784
 2952TIP3    H1 8862   3.558   3.670   2.593 -2.4005 -1.3326  0.4599
 2952TIP3    H2 8863   3.546   3.762   2.474 -2.5412  0.6832  1.9719
 2953TIP3   OH2 8864   0.350   3.144   4.501 -0.0324  0.0932 -0.1421
 2953TIP3    H1 8865   0.387   3.056   4.506 -1.7606 -0.5998  2.5653
 2953TIP3    H2 8866   0.276   3.135   4.440  0.3656 -0.0891 -0.6017
 2954TIP3   OH2 8867   2.025   1.484   2.145 -0.9434  0.1653 -0.8150
 2954TIP3    H1 8868   1.939   1.518   2.119 -1.2369 -0.5068 -0.7383
 2954TIP3    H2 8869   2.082   1.561   2.143 -1.4823  0.5696 -1.1365
 2955TIP3   OH2 8870   6.194   3.887   1.930 -0.6526  0.1855 -0.5826
 2955TIP3    H1 8871   6.275   3.935   1.948 -1.4438  1.2271  0.4038
 2955TIP3    H2 8872   6.186   3.826   2.002 -0.4636 -0.3355 -0.9940
 2956TIP3   OH2 8873   3.570   4.050   2.133 -0.1329  0.2581  0.6855
 2956TIP3    H1 8874   3.518   4.035   2.212  1.1076  0.4710  1.5661
 2956TIP3    H2 8875   3.661   4.045   2.162  0.4137  3.5456 -0.0811
 2957TIP3   OH2 8876   1.283   4.993   4.081  0.2976 -0.2025 -0.1868
 2957TIP3    H1 8877   1.249   4.998   3.992 -0.3963 -1.2517  0.0088
 2957TIP3    H2 8878   1.319   5.080   4.098 -1.5638  0.7168 -0.7064
 2958TIP3   OH2 8879   2.402   5.769   1.480  0.9269 -0.4124  0.2693
 2958TIP3    H1 8880   2.318   5.814   1.472 -0.0390 -1.9573  1.1182
 2958TIP3    H2 8881   2.426   5.746   1.390  0.3088 -0.1828  0.0419
 2959TIP3   OH2 8882   1.783   1.608   1.077  0.3489  0.7103 -0.0310
 2959TIP3    H1 8883   1.704   1.660   1.089  0.2927  0.4887  0.5861
 2959TIP3    H2 8884   1.778   1.541   1.145  1.2628  0.9269  0.2623
 2960TIP3   OH2 8885   0.357   0.307   2.350  0.6141  0.7871  0.0824
 2960TIP3    H1 8886   0.281   0.256   2.322 -0.4410  2.6674 -0.6754
 2960TIP3    H2 8887   0.338   0.329   2.442  0.1208  1.4014 -0.1561
 2961TIP3   OH2 8888   1.220   3.967   3.473 -0.2379  0.5997 -0.0944
 2961TIP3    H1 8889   1.293   4.015   3.511  0.3927  0.7562 -1.4339
 2961TIP3    H2 8890   1.259   3.884   3.443 -0.6987  0.4951 -0.4138
 2962TIP3   OH2 8891   2.428   2.464   2.658 -0.1288 -0.2164  0.1994
 2962TIP3    H1 8892   2.493   2.415   2.708 -0.8017  0.0689  1.3745
 2962TIP3    H2 8893   2.352   2.406   2.654 -0.2834 -0.0023  0.0125
 2963TIP3   OH2 8894   2.356   4.707   4.861 -0.2695  0.1321  0.1255
 2963TIP3    H1 8895   2.316   4.725   4.777  0.9566  0.6521 -0.3701
 2963TIP3    H2 8896   2.417   4.635   4.844  1.5173  1.5974  0.0720
 2964TIP3   OH2 8897   4.574   0.313   4.541 -0.7106  0.0418 -0.0231
 2964TIP3    H1 8898   4.646   0.287   4.598 -0.2389  0.4339 -0.4323
 2964TIP3    H2 8899   4.499   0.260   4.570 -0.3593 -0.0812  0.6565
 2965TIP3   OH2 8900   4.526   1.926   0.147 -0.1106  0.2106 -0.7179
 2965TIP3    H1 8901   4.609   1.916   0.193  0.6527 -0.6715 -2.1850
 2965TIP3    H2 8902   4.459   1.902   0.211  0.5895  2.6212  1.0378
 2966TIP3   OH2 8903   5.912   2.428   1.795 -0.4201  0.3199  0.5925
 2966TIP3    H1 8904   5.950   2.511   1.824 -0.7533 -0.0989  2.4025
 2966TIP3    H2 8905   5.851   2.405   1.866  0.4484 -1.9787  0.6602
 2967TIP3   OH2 8906   5.443   4.721   2.727  0.8592 -0.0973 -0.7710
 2967TIP3    H1 8907   5.430   4.772   2.807  0.3769 -2.0782  0.4770
 2967TIP3    H2 8908   5.362   4.733   2.678  0.2753 -0.5596  0.0530
 2968TIP3   OH2 8909   4.910   4.518   2.259  0.1691 -0.3691  0.1042
 2968TIP3    H1 8910   4.897   4.608   2.228  1.8580 -1.2990 -4.0460
 2968TIP3    H2 8911   5.001   4.517   2.291  0.6091 -0.8044 -1.0935
 2969TIP3   OH2 8912   4.474   1.356   2.718  0.3158  0.1356  0.1450
 2969TIP3    H1 8913   4.394   1.397   2.687  0.9407  0.3430 -1.2697
 2969TIP3    H2 8914   4.515   1.423   2.773  0.6679  0.9421 -1.0571
 2970TIP3   OH2 8915   0.658   5.788   1.116  0.9178 -0.4838 -0.3126
 2970TIP3    H1 8916   0.745   5.793   1.077  0.9862 -0.2414 -0.1293
 2970TIP3    H2 8917   0.675   5.771   1.209  0.7445 -1.9908 -0.5267
 2971TIP3   OH2 8918   3.636   1.860   1.497 -0.2421  0.4618 -0.6294
 2971TIP3    H1 8919   3.669   1.922   1.563 -0.3526 -0.7717  0.6409
 2971TIP3    H2 8920   3.715   1.813   1.468 -0.3185  0.3492 -0.6544
 2972TIP3   OH2 8921   1.462   3.010   4.764 -0.6085 -0.2763  0.1987
 2972TIP3    H1 8922   1.484   2.970   4.848 -1.9966 -1.9873 -0.1869
 2972TIP3    H2 8923   1.408   2.944   4.720 -0.4738  0.8543 -1.7601
 2973TIP3   OH2 8924   1.573   4.970   2.825 -0.2792 -0.1295  0.4559
 2973TIP3    H1 8925   1.582   5.058   2.788  0.4281  0.0257  0.9536
 2973TIP3    H2 8926   1.525   4.984   2.907 -1.1077 -0.3583  0.0187
 2974TIP3   OH2 8927   2.803   3.106   1.178 -0.0940 -0.1051 -0.0497
 2974TIP3    H1 8928   2.738   3.060   1.231  0.1493  0.0063  0.3540
 2974TIP3    H2 8929   2.765   3.109   1.090 -1.2106  1.0664  0.4414
 2975TIP3   OH2 8930   5.103   3.948   1.748 -0.5426 -0.0773  0.1832
 2975TIP3    H1 8931   5.189   3.925   1.781 -0.6752 -0.6379  0.1476
 2975TIP3    H2 8932   5.078   4.026   1.798 -0.3595 -0.3869  0.7671
 2976TIP3   OH2 8933   4.195   3.094   3.054  0.3246 -0.2010  0.3350
 2976TIP3    H1 8934   4.229   3.008   3.080  0.2009 -1.2226 -2.5950
 2976TIP3    H2 8935   4.100   3.087   3.065  0.3775 -0.1307  0.8744
 2977TIP3   OH2 8936   2.085   4.383   1.913  0.8986 -0.1775 -0.1373
 2977TIP3    H1 8937   2.131   4.299   1.915 -0.4509 -1.0190 -1.6105
 2977TIP3    H2 8938   2.085   4.407   1.820 -0.2761  0.5522  0.0345
 2978TIP3   OH2 8939   1.517   2.631   4.673 -0.6038 -0.1528 -0.4127
 2978TIP3    H1 8940   1.555   2.643   4.760  2.6846  3.8256 -2.0819
 2978TIP3    H2 8941   1.437   2.682   4.674  0.3808  1.4553 -0.1294
 2979TIP3   OH2 8942   4.370   0.460   3.998  0.3761  0.5406 -0.4602
 2979TIP3    H1 8943   4.428   0.517   4.048 -2.0523  2.2577  0.5669
 2979TIP3    H2 8944   4.377   0.492   3.908  0.4254  1.2393 -0.2116
 2980TIP3   OH2 8945   3.398   1.318   0.811 -0.0877 -0.1521 -0.0069
 2980TIP3    H1 8946   3.423   1.266   0.887  1.4761  2.5558  1.4860
 2980TIP3    H2 8947   3.475   1.319   0.756 -1.3169 -2.3726 -1.9441
 2981TIP3   OH2 8948   5.999   1.252   0.766  0.7253  0.4529 -0.4251
 2981TIP3    H1 8949   6.027   1.305   0.840  1.2096 -1.1361  0.5829
 2981TIP3    H2 8950   6.036   1.165   0.783  0.1759 -0.1631 -2.1255
 2982TIP3   OH2 8951   6.120   2.715   0.596  0.1404 -0.3508 -0.1268
 2982TIP3    H1 8952   6.159   2.725   0.683 -0.1132 -0.1940 -0.0311
 2982TIP3    H2 8953   6.036   2.673   0.611 -0.8754  1.5681 -0.0641
 2983TIP3   OH2 8954   5.600   5.344   3.368 -0.2397 -0.2916  0.2791
 2983TIP3    H1 8955   5.533   5.353   3.436  1.3152 -1.0555  1.9847
 2983TIP3    H2 8956   5.623   5.435   3.346 -1.6479 -0.0165 -0.2234
 2984TIP3   OH2 8957   0.848   0.382   4.305  0.3112 -1.0561  0.4442
 2984TIP3    H1 8958   0.884   0.325   4.373  0.7280 -1.2913  0.0407
 2984TIP3    H2 8959   0.787   0.440   4.350  1.7565 -0.1463  1.3015
 2985TIP3   OH2 8960   2.035   3.701   3.736  0.3992 -0.1975 -0.0573
 2985TIP3    H1 8961   2.081   3.785   3.735  0.8123 -0.4114  0.3454
 2985TIP3    H2 8962   2.048   3.668   3.824  0.8878 -1.0273 -0.4288
 2986TIP3   OH2 8963   3.712   2.770   4.316 -0.8859 -0.2722 -0.0237
 2986TIP3    H1 8964   3.715   2.759   4.221 -1.5361  0.6987 -0.1668
 2986TIP3    H2 8965   3.630   2.816   4.332 -0.1347  0.8036  0.8746
 2987TIP3   OH2 8966   0.365   3.989   4.828  0.1490  0.1150 -0.4746
 2987TIP3    H1 8967   0.296   4.040   4.870  1.7354  0.7216  1.5846
 2987TIP3    H2 8968   0.395   3.929   4.897  2.3276  0.5912 -0.9293
 2988TIP3   OH2 8969   1.013   2.909   3.039  0.1879 -0.0465 -0.0293
 2988TIP3    H1 8970   0.943   2.861   2.996 -0.8181  0.1784  1.3105
 2988TIP3    H2 8971   0.986   3.001   3.033  0.0510 -0.0126  1.0431
 2989TIP3   OH2 8972   6.261   2.927   1.969  0.0176  0.4934 -0.1182
 2989TIP3    H1 8973   6.254   2.860   2.037  1.1372 -1.8984 -2.2002
 2989TIP3    H2 8974   6.192   2.990   1.989 -0.2624 -0.5732  2.6594
 2990TIP3   OH2 8975   4.563   0.747   4.628 -0.3580  0.4001  0.1581
 2990TIP3    H1 8976   4.533   0.838   4.623 -1.5000 -0.0269 -1.4944
 2990TIP3    H2 8977   4.482   0.697   4.641  0.0619 -0.5082 -0.6761
 2991TIP3   OH2 8978   2.896   2.559   3.300 -0.4156 -0.6916 -0.1608
 2991TIP3    H1 8979   2.862   2.596   3.219  1.8134  3.4729  0.5183
 2991TIP3    H2 8980   2.983   2.525   3.277  0.7574  1.6004  0.4775
 2992TIP3   OH2 8981   6.067   1.898   4.750 -0.1884  1.3091 -0.2134
 2992TIP3    H1 8982   6.024   1.814   4.733  0.9805  1.0265 -2.0719
 2992TIP3    H2 8983   6.144   1.875   4.802  0.0039  1.2449 -0.5219
 2993TIP3   OH2 8984   1.075   1.497   2.536  0.0021 -0.4127 -0.3574
 2993TIP3    H1 8985   1.034   1.500   2.450  0.9605 -0.6405 -0.8354
 2993TIP3    H2 8986   1.169   1.502   2.518  0.4635 -3.7938  0.4224
 2994TIP3   OH2 8987   4.873   3.086   0.556  0.5753 -0.2013  0.2924
 2994TIP3    H1 8988   4.874   3.021   0.486 -0.0695 -0.0492  0.1363
 2994TIP3    H2 8989   4.914   3.163   0.518  0.6511 -0.2714  0.2321
 2995TIP3   OH2 8990   3.490   5.476   1.587 -0.1286 -0.0857 -0.6357
 2995TIP3    H1 8991   3.545   5.530   1.531 -0.7305 -0.1917 -1.3467
 2995TIP3    H2 8992   3.409   5.463   1.537 -0.4029 -0.7728 -0.0411
 2996TIP3   OH2 8993   5.258   0.996   2.965 -0.4609  0.0041  0.0584
 2996TIP3    H1 8994   5.201   0.930   2.924  0.1700 -1.5552  1.5394
 2996TIP3    H2 8995   5.241   0.987   3.059  1.7733 -0.1040  0.5007
 2997TIP3   OH2 8996   2.756   2.142   0.937  0.4358  0.2519  0.9439
 2997TIP3    H1 8997   2.732   2.129   1.029  0.4094  0.1252  0.9197
 2997TIP3    H2 8998   2.697   2.211   0.907  0.1687  0.0133  0.9132
 2998TIP3   OH2 8999   2.430   4.184   3.474  0.2754 -0.5329  0.2840
 2998TIP3    H1 9000   2.360   4.204   3.412 -0.1277  0.4208  1.0206
 2998TIP3    H2 9001   2.384   4.163   3.555  0.8477  0.8646  0.9943
 2999TIP3   OH2 9002   5.625   1.176   2.597  0.8593  0.1051  0.2698
 2999TIP3    H1 9003   5.578   1.255   2.623 -1.1225 -0.2718 -1.8650
 2999TIP3    H2 9004   5.689   1.206   2.533 -1.9334 -0.2053 -2.9157
 3000TIP3   OH2 9005   6.137   1.764   0.872 -0.2624 -0.2097  0.2879
 3000TIP3    H1 9006   6.074   1.828   0.906 -0.2520 -0.3421  0.5547
 3000TIP3    H2 9007   6.223   1.802   0.891 -0.2283  0.8231 -1.6358
 3001TIP3   OH2 9008   2.503   3.280   1.060 -0.1782 -0.2122 -0.2475
 3001TIP3    H1 9009   2.579   3.222   1.064  0.0206  0.0802  0.2780
 3001TIP3    H2 9010   2.460   3.270   1.144 -0.1674  0.3641 -0.1701
 3002TIP3   OH2 9011   2.190   2.334   3.165 -0.6302  0.2424  0.7494
 3002TIP3    H1 9012   2.203   2.305   3.074  0.5932  0.7579  0.7442
 3002TIP3    H2 9013   2.097   2.354   3.170 -1.3449 -2.5454  0.4254
 3003TIP3   OH2 9014   4.826   1.082   3.512  0.5972  0.3938 -0.0229
 3003TIP3    H1 9015   4.742   1.075   3.465 -0.8110  3.4217  1.6876
 3003TIP3    H2 9016   4.881   1.134   3.453 -0.2080  1.8455  0.4470
 3004TIP3   OH2 9017   1.405   2.902   3.494  0.1494  0.3629  0.1026
 3004TIP3    H1 9018   1.466   2.891   3.421 -0.3192 -0.8159 -0.1418
 3004TIP3    H2 9019   1.446   2.854   3.566  0.4970  1.3271  0.5681
 3005TIP3   OH2 9020   1.587   2.428   1.602 -0.1937 -0.1208  0.2771
 3005TIP3    H1 9021   1.531   2.505   1.592  0.4136  0.1359 -1.6782
 3005TIP3    H2 9022   1.555   2.367   1.535 -0.5186 -1.5106  1.6487
 3006TIP3   OH2 9023   1.083   1.017   5.043  0.1541  0.1068  0.0804
 3006TIP3    H1 9024   1.083   1.024   4.947  0.0817 -0.5155  0.0329
 3006TIP3    H2 9025   1.174   1.000   5.066  0.1863  0.3383  0.1354
 3007TIP3   OH2 9026   5.917   5.124   1.043 -0.1877  0.0926 -0.6638
 3007TIP3    H1 9027   5.976   5.123   0.968  0.3041  1.3560 -0.3314
 3007TIP3    H2 9028   5.876   5.038   1.043  1.5656 -0.7969 -0.9745
 3008TIP3   OH2 9029   5.931   4.748   0.092 -0.1007  0.1549 -0.2452
 3008TIP3    H1 9030   6.007   4.796   0.058  0.2443 -0.3422 -0.1872
 3008TIP3    H2 9031   5.881   4.723   0.014 -0.3609  0.7237 -0.2694
 3009TIP3   OH2 9032   3.147   5.737   2.701 -0.0222  0.1618  0.0241
 3009TIP3    H1 9033   3.120   5.826   2.676 -0.0984  0.5354  1.3738
 3009TIP3    H2 9034   3.234   5.748   2.738  0.3418 -0.4699 -0.6139
 3010TIP3   OH2 9035   3.053   3.962   4.697 -0.8472 -0.1130 -0.4768
 3010TIP3    H1 9036   3.061   3.867   4.707 -0.8051 -0.0200  0.4462
 3010TIP3    H2 9037   3.036   3.975   4.604 -1.0200 -1.0357 -0.5809
 3011TIP3   OH2 9038   0.254   2.863   0.158 -0.2664 -0.2770  0.5562
 3011TIP3    H1 9039   0.262   2.875   0.063 -2.0737 -1.0419  0.2696
 3011TIP3    H2 9040   0.343   2.844   0.187  0.8652  2.7569 -0.5326
 3012TIP3   OH2 9041   0.711   1.684   4.631  0.1298 -0.2167  0.1996
 3012TIP3    H1 9042   0.772   1.757   4.617  0.8050 -1.1282 -2.0392
 3012TIP3    H2 9043   0.665   1.707   4.711  0.6950  2.4200 -0.1284
 3013TIP3   OH2 9044   4.243   5.000   1.893 -0.4853  0.1029  0.4867
 3013TIP3    H1 9045   4.154   4.991   1.927 -0.9217 -0.0181 -0.6691
 3013TIP3    H2 9046   4.234   5.059   1.818  0.3018 -0.4119 -0.0267
 3014TIP3   OH2 9047   5.131   3.570   4.018 -0.5961 -0.4594  0.3064
 3014TIP3    H1 9048   5.114   3.476   4.014 -0.1541 -0.5055 -1.5620
 3014TIP3    H2 9049   5.047   3.608   4.044 -1.5813 -1.2059 -1.5920
 3015TIP3   OH2 9050   2.858   2.628   2.654 -0.0929  0.0043  0.1972
 3015TIP3    H1 9051   2.850   2.688   2.580 -0.4392 -0.5184 -0.1898
 3015TIP3    H2 9052   2.801   2.666   2.721 -2.4604 -1.2521 -0.9607
 3016TIP3   OH2 9053   5.037   5.315   4.558  0.4047  0.3408 -0.3877
 3016TIP3    H1 9054   5.132   5.326   4.565  0.2804  1.5444 -0.3672
 3016TIP3    H2 9055   5.012   5.372   4.485 -0.3325  0.2485 -0.2130
 3017TIP3   OH2 9056   2.533   5.925   1.117  0.0818 -0.3374 -0.0432
 3017TIP3    H1 9057   2.585   5.926   1.036 -0.4449  0.0598 -0.3849
 3017TIP3    H2 9058   2.596   5.945   1.186  0.8837 -2.3740 -0.1292
 3018TIP3   OH2 9059   1.732   3.230   4.769  0.2282 -0.0189  0.0977
 3018TIP3    H1 9060   1.800   3.177   4.726  1.7431  1.7271  0.2255
 3018TIP3    H2 9061   1.657   3.171   4.777  1.3070 -1.6423 -1.1792
 3019TIP3   OH2 9062   2.343   0.643   1.091  0.1684  0.1476  0.0622
 3019TIP3    H1 9063   2.271   0.640   1.154  0.5201 -0.5839  0.4466
 3019TIP3    H2 9064   2.319   0.713   1.031 -1.2447 -0.5745 -0.2649
 3020TIP3   OH2 9065   5.300   2.431   0.547  0.2414 -0.1305  0.1962
 3020TIP3    H1 9066   5.379   2.409   0.595  0.4812 -0.5274 -0.3623
 3020TIP3    H2 9067   5.229   2.396   0.600  0.4658 -0.1119  0.5112
 3021TIP3   OH2 9068   3.872   0.657   1.926 -0.1621 -0.0498  0.1050
 3021TIP3    H1 9069   3.957   0.661   1.969 -0.7862  1.6776  1.2595
 3021TIP3    H2 9070   3.810   0.644   1.997 -0.9690 -0.1857 -0.6105
 3022TIP3   OH2 9071   3.079   4.669   2.752 -0.1078  0.1798  0.6564
 3022TIP3    H1 9072   3.157   4.694   2.801  0.4279  2.4055 -1.1190
 3022TIP3    H2 9073   3.013   4.734   2.776  0.8855  2.9565 -3.0390
 3023TIP3   OH2 9074   1.995   1.437   0.153 -0.1135 -0.7425  0.0057
 3023TIP3    H1 9075   1.929   1.376   0.187 -1.0539 -0.5090 -1.3534
 3023TIP3    H2 9076   1.948   1.520   0.142  0.6130 -0.3582 -0.2399
 3024TIP3   OH2 9077   5.415   5.887   1.427  0.5621 -0.1611 -0.2464
 3024TIP3    H1 9078   5.376   5.897   1.514  1.2273 -0.3079  0.0794
 3024TIP3    H2 9079   5.496   5.939   1.431 -0.9832  2.6345 -1.8465
 3025TIP3   OH2 9080   5.971   2.046   2.999 -0.0475 -0.3630 -0.5953
 3025TIP3    H1 9081   5.951   1.972   3.055 -3.1787 -0.9373 -2.2565
 3025TIP3    H2 9082   5.906   2.113   3.022  0.7480  0.6697 -1.2361
 3026TIP3   OH2 9083   5.171   2.125   2.977  0.2524 -0.4260  0.3703
 3026TIP3    H1 9084   5.086   2.130   2.934 -0.1991 -1.4033  1.1018
 3026TIP3    H2 9085   5.234   2.140   2.907 -0.5190  0.3033 -0.1837
 3027TIP3   OH2 9086   4.742   4.930   3.076  0.5413  0.3079  0.1593
 3027TIP3    H1 9087   4.685   4.854   3.089  1.5031 -0.5692 -0.6686
 3027TIP3    H2 9088   4.691   5.003   3.112 -0.3446 -0.7262  1.1141
 3028TIP3   OH2 9089   3.189   1.305   2.953  0.0894 -0.4312  0.1380
 3028TIP3    H1 9090   3.121   1.284   2.889  1.0821  0.3102 -1.2355
 3028TIP3    H2 9091   3.223   1.221   2.981 -0.2584 -0.7793 -0.4556
 3029TIP3   OH2 9092   3.266   0.758   2.083 -0.0845 -0.1193  0.2489
 3029TIP3    H1 9093   3.310   0.805   2.154  0.4220 -1.4982  0.9017
 3029TIP3    H2 9094   3.223   0.826   2.032  1.1889  1.1117  0.7271
 3030TIP3   OH2 9095   5.382   3.885   4.045 -0.0121  0.4949  0.4782
 3030TIP3    H1 9096   5.450   3.948   4.070 -0.3985  0.3325  2.0563
 3030TIP3    H2 9097   5.323   3.883   4.120  0.1406 -1.9517  0.6280
 3031TIP3   OH2 9098   3.368   1.849   4.767  0.0646 -0.5913  0.0771
 3031TIP3    H1 9099   3.429   1.808   4.705  0.4761  1.4165 -0.9263
 3031TIP3    H2 9100   3.349   1.780   4.831  2.1191 -1.7747 -0.4924
 3032TIP3   OH2 9101   4.064   2.388   2.065 -0.1225  0.0846  0.0581
 3032TIP3    H1 9102   4.122   2.382   1.989 -2.7325  0.7726 -2.1344
 3032TIP3    H2 9103   4.051   2.296   2.092  0.2517 -0.2249 -0.7867
 3033TIP3   OH2 9104   1.868   0.248   5.170  0.5870  0.1429 -0.0196
 3033TIP3    H1 9105   1.800   0.217   5.110  1.9674 -1.7254 -0.6809
 3033TIP3    H2 9106   1.908   0.322   5.125  1.0995 -0.7639 -1.0686
 3034TIP3   OH2 9107   2.954   0.457   4.423  0.1249 -0.4498  0.2200
 3034TIP3    H1 9108   3.037   0.492   4.456  0.0965  0.5189 -0.6796
 3034TIP3    H2 9109   2.966   0.362   4.426  0.9438 -0.3453  0.8841
 3035TIP3   OH2 9110   5.923   4.898   2.838 -0.7613 -0.0236 -0.2874
 3035TIP3    H1 9111   6.011   4.935   2.834 -0.7172 -0.1097 -0.0952
 3035TIP3    H2 9112   5.865   4.971   2.816 -0.7675  0.5122  1.3571
 3036TIP3   OH2 9113   5.762   4.125   0.506  0.0341  0.1472 -0.6844
 3036TIP3    H1 9114   5.808   4.181   0.444  1.2541  1.6271  1.4513
 3036TIP3    H2 9115   5.669   4.146   0.493  0.3861  1.6858 -0.8734
 3037TIP3   OH2 9116   5.332   2.580   4.514 -0.1671  0.4249 -0.4579
 3037TIP3    H1 9117   5.316   2.561   4.421  0.9778 -1.0522 -0.3856
 3037TIP3    H2 9118   5.425   2.602   4.519 -0.2725  0.7485  0.3167
 3038TIP3   OH2 9119   1.528   0.950   3.417  0.1198 -0.1381 -0.1839
 3038TIP3    H1 9120   1.447   0.897   3.416 -0.5561  0.8501  0.4525
 3038TIP3    H2 9121   1.597   0.887   3.435 -0.3130 -1.2343 -2.0624
 3039TIP3   OH2 9122   1.945   5.655   3.074  0.5413  0.3845 -0.5037
 3039TIP3    H1 9123   1.916   5.594   3.007 -0.5705 -0.3228  0.5822
 3039TIP3    H2 9124   2.035   5.677   3.049  0.9375 -1.5907 -1.0084
 3040TIP3   OH2 9125   4.987   4.845   2.802 -0.2757 -0.2484  0.0182
 3040TIP3    H1 9126   4.932   4.779   2.844 -0.2580  0.9148  1.9716
 3040TIP3    H2 9127   4.926   4.902   2.756 -0.3892 -0.8218 -0.5711
 3041TIP3   OH2 9128   4.318   5.141   1.028  0.1133  0.2430  0.0990
 3041TIP3    H1 9129   4.244   5.192   0.996 -0.9739  0.4525  2.6775
 3041TIP3    H2 9130   4.278   5.061   1.063  0.9800  0.5467  1.9268
 3042TIP3   OH2 9131   3.889   3.951   2.160 -0.1306  0.0639  0.2773
 3042TIP3    H1 9132   3.945   4.010   2.211 -1.5903  1.4623  0.3037
 3042TIP3    H2 9133   3.828   3.915   2.224 -1.0741  0.7522 -0.2145
 3043TIP3   OH2 9134   6.325   5.554   1.845  0.1450 -0.5115  0.1607
 3043TIP3    H1 9135   6.281   5.567   1.929  0.3894 -1.5432  0.4661
 3043TIP3    H2 9136   6.331   5.459   1.835  1.1802 -0.4046 -0.4564
 3044TIP3   OH2 9137   2.029   0.943   4.622  0.7548  0.6784 -0.2757
 3044TIP3    H1 9138   2.083   0.972   4.696  0.7930 -0.1084  0.0134
 3044TIP3    H2 9139   1.961   1.010   4.614 -0.0844  0.0795  1.3662
 3045TIP3   OH2 9140   2.871   0.496   2.067  0.1010 -0.0153  0.0506
 3045TIP3    H1 9141   2.797   0.548   2.035  0.4096 -0.1280 -0.8768
 3045TIP3    H2 9142   2.922   0.557   2.120 -1.5360 -0.3544  2.1676
 3046TIP3   OH2 9143   0.243   3.290   0.731  0.2788  0.3187  0.3534
 3046TIP3    H1 9144   0.223   3.201   0.702 -1.5865  0.5883  0.6962
 3046TIP3    H2 9145   0.219   3.346   0.657  0.8463  0.6028  0.3734
 3047TIP3   OH2 9146   1.226   4.176   2.863  0.0893 -0.1234  0.6010
 3047TIP3    H1 9147   1.195   4.236   2.794  0.4950 -1.1713 -0.5288
 3047TIP3    H2 9148   1.177   4.203   2.941 -0.6031  0.9171 -0.1518
 3048TIP3   OH2 9149   4.232   4.934   1.507 -0.0762  0.0900  0.2501
 3048TIP3    H1 9150   4.173   5.009   1.512 -1.0552 -0.6189 -0.3402
 3048TIP3    H2 9151   4.187   4.865   1.557 -0.0743 -0.6633 -0.7578
 3049TIP3   OH2 9152   5.520   2.837   0.600 -0.7300 -0.3296 -0.0839
 3049TIP3    H1 9153   5.551   2.796   0.519 -0.2709 -0.2316  0.0411
 3049TIP3    H2 9154   5.583   2.809   0.667 -0.0926  1.0146 -0.0949
 3050TIP3   OH2 9155   3.613   2.442   2.713 -0.1584 -0.0049  0.4956
 3050TIP3    H1 9156   3.579   2.498   2.784  0.3109  2.1198 -0.8700
 3050TIP3    H2 9157   3.602   2.495   2.634  0.9663 -1.6130 -0.7882
 3051TIP3   OH2 9158   0.217   2.256   2.768 -0.1465  0.5947 -0.0567
 3051TIP3    H1 9159   0.254   2.343   2.753  1.6169  0.6594  3.5662
 3051TIP3    H2 9160   0.137   2.272   2.819 -0.6039  0.1102 -0.6010
 3052TIP3   OH2 9161   4.293   4.230   2.227  0.0720  0.6217 -0.5768
 3052TIP3    H1 9162   4.379   4.204   2.260 -0.6608  1.1084  1.9724
 3052TIP3    H2 9163   4.301   4.225   2.132  2.8153  0.3823 -0.4184
 3053TIP3   OH2 9164   2.858   4.624   3.466 -0.3672  0.0721 -0.0162
 3053TIP3    H1 9165   2.838   4.554   3.404 -0.4562  0.2782 -0.2231
 3053TIP3    H2 9166   2.929   4.589   3.520 -2.0890 -1.1745  1.5687
 3054TIP3   OH2 9167   2.405   1.817   2.585 -0.2503  0.0288  0.3280
 3054TIP3    H1 9168   2.317   1.854   2.585 -0.0189  0.5876  0.1594
 3054TIP3    H2 9169   2.425   1.802   2.493  0.2452  0.9257  0.2750
 3055TIP3   OH2 9170   2.058   1.463   4.139 -0.4099 -0.3645  0.3147
 3055TIP3    H1 9171   2.116   1.498   4.206 -2.5640  0.1693  2.0386
 3055TIP3    H2 9172   1.998   1.535   4.119 -0.6935 -0.9742 -1.1541
 3056TIP3   OH2 9173   0.627   1.955   0.895  0.1590 -0.2650  0.1596
 3056TIP3    H1 9174   0.571   2.033   0.886  0.1711  0.3833  4.0334
 3056TIP3    H2 9175   0.566   1.882   0.898 -0.3345  0.1786  1.7156
 3057TIP3   OH2 9176   3.160   2.747   3.997  0.2456  0.0056 -0.1224
 3057TIP3    H1 9177   3.234   2.695   4.027  0.8178 -0.2117 -1.8264
 3057TIP3    H2 9178   3.083   2.697   4.026  0.7734 -2.0983 -2.0634
 3058TIP3   OH2 9179   2.223   1.544  -0.012 -0.5282  0.2647 -0.3568
 3058TIP3    H1 9180   2.304   1.590   0.012  1.1092 -2.2203 -0.7159
 3058TIP3    H2 9181   2.193   1.504   0.069 -1.6125  1.4021 -0.1665
 3059TIP3   OH2 9182   3.663   4.558   5.029 -0.1265  0.0651  0.0163
 3059TIP3    H1 9183   3.659   4.475   5.075 -0.4097 -0.0453 -0.2017
 3059TIP3    H2 9184   3.745   4.598   5.058  0.2971 -0.5450 -0.3142
 3060TIP3   OH2 9185   1.506   0.705   2.147  0.2883  0.1646  0.1217
 3060TIP3    H1 9186   1.478   0.740   2.062  0.3569  0.3752  0.1883
 3060TIP3    H2 9187   1.600   0.690   2.137  0.3224  0.3260  0.2115
 3061TIP3   OH2 9188   5.686   3.047   5.169 -0.3534 -0.7153 -0.5361
 3061TIP3    H1 9189   5.659   3.114   5.232 -0.5723 -1.1622 -0.1470
 3061TIP3    H2 9190   5.709   3.096   5.090  0.9254 -0.0629  0.2155
 3062TIP3   OH2 9191   4.684   0.688   3.469  0.2784 -0.7390 -0.0243
 3062TIP3    H1 9192   4.670   0.594   3.473  5.1012 -1.6892  0.7461
 3062TIP3    H2 9193   4.671   0.718   3.559 -2.6971 -0.2192 -0.5201
 3063TIP3   OH2 9194   4.549   3.848   0.127 -0.4564 -0.4633 -0.2363
 3063TIP3    H1 9195   4.620   3.811   0.074 -0.2409  0.5911 -0.7224
 3063TIP3    H2 9196   4.488   3.886   0.063 -1.8355 -1.9496  0.1350
 3064TIP3   OH2 9197   4.177   1.003   0.033 -0.4081 -0.3723  0.2553
 3064TIP3    H1 9198   4.112   0.942   0.069  0.5461 -0.6246  1.5856
 3064TIP3    H2 9199   4.148   1.016  -0.058 -2.3260 -0.4659  0.7937
 3065TIP3   OH2 9200   6.124   0.341   3.224  0.1963 -0.0046  0.0269
 3065TIP3    H1 9201   6.205   0.384   3.195  2.1132 -2.2856  1.6167
 3065TIP3    H2 9202   6.124   0.258   3.177 -1.5622  0.1824 -0.3554
 3066TIP3   OH2 9203   4.334   2.057   1.014  0.3475 -0.5641 -0.1226
 3066TIP3    H1 9204   4.315   2.149   1.032  1.6681 -0.2937 -0.0663
 3066TIP3    H2 9205   4.413   2.038   1.064  1.3362 -1.1218 -1.8185
 3067TIP3   OH2 9206   0.597   0.999   2.496 -0.0609  0.1354 -0.5468
 3067TIP3    H1 9207   0.677   0.996   2.444 -0.7921  0.4575 -1.7480
 3067TIP3    H2 9208   0.554   0.915   2.480 -0.7191  0.5754 -1.2296
 3068TIP3   OH2 9209   0.226   3.892   4.075  0.5812 -0.2904 -0.2822
 3068TIP3    H1 9210   0.155   3.920   4.017 -0.4423 -1.0681  0.5477
 3068TIP3    H2 9211   0.184   3.882   4.161  2.1066  1.0906  0.6837
 3069TIP3   OH2 9212   4.001   2.233   4.816  0.3143 -0.0903  0.0165
 3069TIP3    H1 9213   3.975   2.312   4.769 -0.2217 -1.0770 -1.3984
 3069TIP3    H2 9214   3.938   2.226   4.888 -0.2375  0.2513 -0.4254
 3070TIP3   OH2 9215   1.402   2.306   3.821  0.2161  0.1625  0.1302
 3070TIP3    H1 9216   1.330   2.278   3.877 -1.4807 -1.7506 -2.7203
 3070TIP3    H2 9217   1.470   2.239   3.832  0.5229  0.6064  0.9715
 3071TIP3   OH2 9218   0.582   4.738   4.085  0.2343  0.1356  0.0976
 3071TIP3    H1 9219   0.581   4.691   4.002  0.2829  0.6966 -0.2216
 3071TIP3    H2 9220   0.582   4.669   4.151  1.2214 -0.3385 -0.3659
 3072TIP3   OH2 9221   5.420   0.835   2.722 -0.3281 -0.0756  0.1639
 3072TIP3    H1 9222   5.398   0.765   2.660  0.6414 -0.4538  0.2329
 3072TIP3    H2 9223   5.344   0.841   2.780 -0.5651 -0.8337 -0.0616
 3073TIP3   OH2 9224   1.833   5.487   2.215  0.5849  0.1085 -0.0931
 3073TIP3    H1 9225   1.875   5.558   2.167  2.2528 -1.4582 -1.0958
 3073TIP3    H2 9226   1.740   5.503   2.207  0.7876  0.3119 -3.3563
 3074TIP3   OH2 9227   0.638   3.831   0.395 -0.0166  0.5378  0.0387
 3074TIP3    H1 9228   0.718   3.778   0.401 -0.5727 -0.2850  0.3934
 3074TIP3    H2 9229   0.567   3.766   0.392 -0.6893  1.2632  0.0632
 3075TIP3   OH2 9230   2.123   2.868   0.611 -0.5169  0.0271 -0.4311
 3075TIP3    H1 9231   2.121   2.943   0.551  0.3295 -0.9310 -1.7028
 3075TIP3    H2 9232   2.114   2.792   0.554 -0.4687 -0.8883  0.7551
 3076TIP3   OH2 9233   3.404   1.916   1.241  0.2586  0.2433 -0.3147
 3076TIP3    H1 9234   3.471   1.860   1.202  0.6053  0.9450 -0.7479
 3076TIP3    H2 9235   3.356   1.952   1.166 -1.2933 -1.0432  0.0033
 3077TIP3   OH2 9236   2.648   4.292   2.105  0.0236 -0.1123  0.0339
 3077TIP3    H1 9237   2.737   4.258   2.118 -0.1952 -0.4483  0.6763
 3077TIP3    H2 9238   2.632   4.348   2.181 -0.4557 -0.3533  0.1116
 3078TIP3   OH2 9239   5.088   0.767   1.434  0.3239  0.5575  0.1286
 3078TIP3    H1 9240   5.054   0.762   1.344  2.0980  0.5199 -0.5924
 3078TIP3    H2 9241   5.076   0.858   1.459  0.6069  0.7712 -0.4928
 3079TIP3   OH2 9242   1.493   2.308   0.989 -0.2189 -0.2690  0.4918
 3079TIP3    H1 9243   1.534   2.344   1.068 -0.3218  0.7620  0.0929
 3079TIP3    H2 9244   1.536   2.353   0.917 -1.2730  0.0371  0.0238
 3080TIP3   OH2 9245   4.476   0.452   1.539 -0.3610  0.0719  0.0061
 3080TIP3    H1 9246   4.479   0.451   1.444 -0.6535 -0.2421  0.0007
 3080TIP3    H2 9247   4.545   0.391   1.566 -0.4269 -0.0061 -0.0041
 3081TIP3   OH2 9248   5.606   5.322   4.677 -0.6469 -0.0347  0.4043
 3081TIP3    H1 9249   5.613   5.360   4.764  1.4954 -1.4316  0.9183
 3081TIP3    H2 9250   5.583   5.230   4.691 -2.3037  0.1706 -0.6456
 3082TIP3   OH2 9251   0.003   5.412   3.267 -0.1224  0.5500 -0.3792
 3082TIP3    H1 9252   0.089   5.422   3.307  0.5358 -0.3833 -1.5116
 3082TIP3    H2 9253   0.018   5.424   3.173 -1.1231 -0.1908 -0.6539
 3083TIP3   OH2 9254   6.053   3.474   2.682 -0.6353  0.0784  0.4221
 3083TIP3    H1 9255   6.110   3.483   2.758  0.4497 -0.1633 -0.3367
 3083TIP3    H2 9256   6.066   3.383   2.653  1.0236  0.8746 -1.6020
 3084TIP3   OH2 9257   3.620   0.459   3.538 -0.0676 -0.5328 -0.0511
 3084TIP3    H1 9258   3.558   0.443   3.467  1.6494 -2.3217 -1.2463
 3084TIP3    H2 9259   3.612   0.383   3.595  0.5639 -0.4512  0.1564
 3085TIP3   OH2 9260   2.391   2.417   1.541  0.4709  0.2499  0.2409
 3085TIP3    H1 9261   2.396   2.322   1.547  0.3437 -0.0138 -2.5020
 3085TIP3    H2 9262   2.482   2.446   1.541  0.6415 -0.1586 -1.3282
 3086TIP3   OH2 9263   0.708   4.478   5.077  0.1201  0.4267  0.3604
 3086TIP3    H1 9264   0.659   4.459   5.156 -1.1038 -0.3385 -0.5464
 3086TIP3    H2 9265   0.671   4.419   5.011  1.0844  1.0590 -0.7869
 3087TIP3   OH2 9266   5.936   4.860   2.470 -0.4929  0.3541 -0.0788
 3087TIP3    H1 9267   5.878   4.888   2.542  1.0514  0.9927  0.9622
 3087TIP3    H2 9268   5.928   4.930   2.405  1.0232  1.7890  1.1902
 3088TIP3   OH2 9269   1.887   1.883   5.034 -0.4222  0.2436  0.0337
 3088TIP3    H1 9270   1.869   1.956   5.093 -1.5156  0.5000 -0.5972
 3088TIP3    H2 9271   1.982   1.871   5.041 -0.3853  0.9280  1.0601
 3089TIP3   OH2 9272   1.130   2.338   2.801 -0.0648 -0.8316 -1.0672
 3089TIP3    H1 9273   1.175   2.414   2.764  0.7957 -1.1492 -0.7056
 3089TIP3    H2 9274   1.197   2.293   2.852 -1.2522 -0.3092  1.0462
 3090TIP3   OH2 9275   5.450   5.775   0.242  0.2280  0.1088  0.0164
 3090TIP3    H1 9276   5.509   5.706   0.273  0.7573  0.3230 -0.4881
 3090TIP3    H2 9277   5.474   5.852   0.295 -0.2564 -0.0470  0.4714
 3091TIP3   OH2 9278   0.211   3.001   0.877 -0.9060 -0.1943 -0.1703
 3091TIP3    H1 9279   0.263   2.925   0.903  0.5610  0.7601 -0.1945
 3091TIP3    H2 9280   0.232   3.013   0.784  2.4414  2.7760  0.7325
 3092TIP3   OH2 9281   3.501   5.105   0.525 -0.3737  0.9034  0.1676
 3092TIP3    H1 9282   3.527   5.197   0.523  2.8615  0.0962 -0.9979
 3092TIP3    H2 9283   3.467   5.087   0.438  1.4638  0.4622 -0.5084
 3093TIP3   OH2 9284   5.356   3.608   4.672  0.1168 -0.4252 -0.0069
 3093TIP3    H1 9285   5.388   3.650   4.592 -1.8306  1.1539 -0.0379
 3093TIP3    H2 9286   5.401   3.523   4.674  0.1583 -0.5791 -2.8285
 3094TIP3   OH2 9287   3.516   5.407   3.763  0.3077 -0.3208 -0.3245
 3094TIP3    H1 9288   3.491   5.456   3.842  0.8541 -0.4427 -0.0733
 3094TIP3    H2 9289   3.439   5.353   3.744  0.9476 -2.0048  1.4724
 3095TIP3   OH2 9290   3.119   0.953   2.440 -0.2747  0.5129  0.1515
 3095TIP3    H1 9291   3.116   0.964   2.345  0.1133 -1.7120 -0.1737
 3095TIP3    H2 9292   3.172   1.026   2.471 -0.1606  1.1060 -1.3722
 3096TIP3   OH2 9293   4.954   2.810   3.218  0.2024  0.0146 -0.3889
 3096TIP3    H1 9294   4.957   2.902   3.193  2.4398  0.5191  1.4333
 3096TIP3    H2 9295   5.011   2.766   3.154  3.6771  0.8786  1.8385
 3097TIP3   OH2 9296   5.076   4.178   3.947 -0.8623  0.2375  0.2836
 3097TIP3    H1 9297   5.067   4.207   3.856  0.5123 -1.0707 -0.3226
 3097TIP3    H2 9298   5.171   4.177   3.962 -1.0820  0.6272  1.8100
 3098TIP3   OH2 9299   2.994   0.152   0.151 -0.3417 -0.6484 -0.3537
 3098TIP3    H1 9300   2.987   0.062   0.181  1.1339 -1.3716 -2.0162
 3098TIP3    H2 9301   3.088   0.170   0.150 -0.5885  0.7423 -0.5122
 3099TIP3   OH2 9302   1.823   0.255   4.511 -0.0038 -0.5902  0.3336
 3099TIP3    H1 9303   1.827   0.346   4.482  0.6842 -0.5147  0.6636
 3099TIP3    H2 9304   1.851   0.204   4.436 -1.1077 -0.5832 -0.0980
 3100TIP3   OH2 9305   5.913   4.114   3.978 -0.0948 -0.1602 -1.1316
 3100TIP3    H1 9306   5.823   4.095   3.951 -0.6572  1.2048 -0.3471
 3100TIP3    H2 9307   5.920   4.209   3.969  0.6712 -0.0290  0.5417
 3101TIP3   OH2 9308   5.773   1.884   0.447  0.2848 -0.2073  0.2821
 3101TIP3    H1 9309   5.850   1.843   0.409 -0.2775 -1.3040  0.2818
 3101TIP3    H2 9310   5.781   1.977   0.424  1.1057 -0.4687 -0.5394
 3102TIP3   OH2 9311   4.207   2.687   3.213 -0.1941 -0.0577  0.0723
 3102TIP3    H1 9312   4.274   2.649   3.271 -2.4972 -2.5986  1.2977
 3102TIP3    H2 9313   4.155   2.612   3.185 -1.8686  1.6864 -1.7399
 3103TIP3   OH2 9314   0.872   5.316   5.126 -0.4646  0.4723  1.1351
 3103TIP3    H1 9315   0.945   5.283   5.074 -0.6396  1.0970  0.4593
 3103TIP3    H2 9316   0.872   5.264   5.205 -1.1067 -1.5558 -0.1284
 3104TIP3   OH2 9317   2.397   0.748   0.465 -0.1634 -0.1543  0.1021
 3104TIP3    H1 9318   2.312   0.739   0.508 -0.5174 -0.6839 -0.6703
 3104TIP3    H2 9319   2.456   0.781   0.533 -0.9088 -0.1052  0.7342
 3105TIP3   OH2 9320   3.918   2.158   1.132 -0.1949 -0.9577  0.0365
 3105TIP3    H1 9321   3.851   2.226   1.138  0.7896  0.0563 -0.0664
 3105TIP3    H2 9322   3.937   2.151   1.038  0.4920 -0.5656  0.1378
 3106TIP3   OH2 9323   5.483   5.835   3.428  0.0093  0.1280  0.4349
 3106TIP3    H1 9324   5.578   5.834   3.430  0.0558  0.7614 -0.7680
 3106TIP3    H2 9325   5.457   5.866   3.515  0.8461 -1.4171  1.2773
 3107TIP3   OH2 9326   1.078   1.783   4.882  0.1287  0.1885  0.4171
 3107TIP3    H1 9327   1.145   1.754   4.943 -0.5359  1.1266  1.6350
 3107TIP3    H2 9328   1.126   1.824   4.810  0.8837  0.2671  0.9585
 3108TIP3   OH2 9329   0.145   3.631   5.224  0.3354  0.1484  0.2058
 3108TIP3    H1 9330   0.234   3.633   5.188 -0.0321 -0.0570 -0.7516
 3108TIP3    H2 9331   0.088   3.625   5.147 -0.4680 -0.7819  0.8442
 3109TIP3   OH2 9332   4.542   2.211   2.941 -0.2175 -0.2864 -0.6553
 3109TIP3    H1 9333   4.569   2.186   2.853 -0.4241  0.5724 -0.9714
 3109TIP3    H2 9334   4.456   2.250   2.930 -0.5363 -0.7682  0.0231
 3110TIP3   OH2 9335   5.859   1.856   0.900  0.4044  0.3829 -0.5641
 3110TIP3    H1 9336   5.798   1.833   0.830 -0.5052 -1.6698  0.8179
 3110TIP3    H2 9337   5.805   1.887   0.972  1.1331  0.2439  0.0636
 3111TIP3   OH2 9338   5.653   3.039   1.774 -0.0371 -0.1038  0.1957
 3111TIP3    H1 9339   5.602   3.090   1.711  1.3539  0.0356 -0.8646
 3111TIP3    H2 9340   5.655   3.093   1.853  0.2326  0.8647 -0.4568
 3112TIP3   OH2 9341   0.140   0.924   2.043 -0.9136 -0.0104 -0.6642
 3112TIP3    H1 9342   0.225   0.910   2.002  0.6221  2.0341  1.5373
 3112TIP3    H2 9343   0.080   0.941   1.970  1.2650  1.7575 -2.1661
 3113TIP3   OH2 9344   0.568   2.276   0.070 -0.1945  0.2681  0.0236
 3113TIP3    H1 9345   0.657   2.284   0.036  0.2139  1.4894  1.3166
 3113TIP3    H2 9346   0.532   2.364   0.066 -0.3129  0.3661  2.1919
 3114TIP3   OH2 9347   4.018   0.389   2.554  0.0063 -0.5974  0.1459
 3114TIP3    H1 9348   3.984   0.402   2.466 -0.4473  0.8479  0.5237
 3114TIP3    H2 9349   3.941   0.368   2.607  0.0468  0.1141  0.4964
 3115TIP3   OH2 9350   2.006   1.977   2.375  0.1986 -0.2090 -0.4954
 3115TIP3    H1 9351   2.069   1.974   2.303 -0.0419 -2.7022 -0.7168
 3115TIP3    H2 9352   1.920   1.974   2.333  0.0264 -0.3366 -0.1446
 3116TIP3   OH2 9353   5.143   0.723   2.917  0.5129  0.3119  0.0221
 3116TIP3    H1 9354   5.120   0.752   2.828 -0.7655 -2.2385 -0.5602
 3116TIP3    H2 9355   5.061   0.724   2.965  0.5408 -1.4889  0.1786
 3117TIP3   OH2 9356   0.397   0.719   4.419  0.5914  0.4237  0.4646
 3117TIP3    H1 9357   0.314   0.766   4.409 -0.4736 -1.1674  1.4380
 3117TIP3    H2 9358   0.386   0.666   4.498  2.1662 -0.5594  0.0754
 3118TIP3   OH2 9359   5.804   5.279   2.019  0.5125  0.4423 -0.0919
 3118TIP3    H1 9360   5.851   5.349   2.064  0.5653  0.2058  0.2160
 3118TIP3    H2 9361   5.782   5.317   1.934 -1.9851  1.8747  1.0972
 3119TIP3   OH2 9362   3.091   0.319   3.515 -0.0356 -0.1987  0.3788
 3119TIP3    H1 9363   3.133   0.342   3.598 -1.3878  1.5199  0.6522
 3119TIP3    H2 9364   3.098   0.399   3.463 -1.4837 -0.4070 -0.1657
 3120TIP3   OH2 9365   6.110   0.967   3.793 -0.2066  0.0515 -0.2555
 3120TIP3    H1 9366   6.160   1.007   3.864 -0.3633  1.1974 -0.7589
 3120TIP3    H2 9367   6.163   0.983   3.715  0.6193 -2.3582 -0.2742
 3121TIP3   OH2 9368   3.976   3.615   1.078 -0.5971  0.3461  0.3227
 3121TIP3    H1 9369   3.991   3.673   1.003 -2.8885  0.3143 -0.2551
 3121TIP3    H2 9370   3.901   3.655   1.123 -0.3947 -0.6236  1.5578
 3122TIP3   OH2 9371   3.610   3.313   3.050  0.1614 -0.0418  0.2352
 3122TIP3    H1 9372   3.556   3.279   2.978 -1.6152  0.3086  1.3376
 3122TIP3    H2 9373   3.673   3.372   3.007 -0.5474 -0.1900 -1.0686
 3123TIP3   OH2 9374   5.328   4.745   0.814 -0.0313  0.1845 -0.2095
 3123TIP3    H1 9375   5.316   4.825   0.864  1.3784 -0.7375  1.7095
 3123TIP3    H2 9376   5.245   4.698   0.825  0.8882 -0.9536  3.2290
 3124TIP3   OH2 9377   4.800   1.338   1.563  0.2178 -0.0057  0.2884
 3124TIP3    H1 9378   4.803   1.386   1.481 -1.4686  0.3161  0.3683
 3124TIP3    H2 9379   4.878   1.283   1.563 -0.6453 -1.3921 -2.3843
 3125TIP3   OH2 9380   5.021   3.886   0.253 -0.7496 -0.4276  0.0854
 3125TIP3    H1 9381   5.016   3.792   0.236 -0.4223 -0.1482 -1.6942
 3125TIP3    H2 9382   4.930   3.916   0.247 -0.6466 -0.3397 -1.2689
 3126TIP3   OH2 9383   3.370   5.024   3.446 -0.0520 -0.3956 -0.3084
 3126TIP3    H1 9384   3.456   5.028   3.488  0.2041  0.8975 -0.9326
 3126TIP3    H2 9385   3.337   5.114   3.449 -0.2973 -0.3757 -2.3051
 3127TIP3   OH2 9386   2.447   3.876   4.909  0.3080  0.1631 -0.1637
 3127TIP3    H1 9387   2.391   3.805   4.941  0.1042  0.1393 -0.5701
 3127TIP3    H2 9388   2.531   3.834   4.892 -0.4470 -0.4869 -2.5960
 3128TIP3   OH2 9389   4.770   5.318   3.658 -0.2211  0.3491 -0.4792
 3128TIP3    H1 9390   4.832   5.245   3.652 -1.3675 -0.8517  1.2944
 3128TIP3    H2 9391   4.700   5.295   3.597 -0.6227 -0.1040  0.1404
 3129TIP3   OH2 9392   3.644   3.095   1.881  0.0548  1.0125 -0.2940
 3129TIP3    H1 9393   3.554   3.126   1.887 -0.4201 -0.4870  1.0751
 3129TIP3    H2 9394   3.683   3.146   1.811 -1.1983  3.3026  0.5821
 3130TIP3   OH2 9395   1.983   1.864   4.292 -0.4436  0.6331 -0.0363
 3130TIP3    H1 9396   2.041   1.938   4.273 -2.9857  2.2725 -2.0913
 3130TIP3    H2 9397   1.909   1.902   4.340 -1.8569 -0.5107 -1.2038
 3131TIP3   OH2 9398   5.255   0.585   2.648  0.2217 -0.1445 -0.2483
 3131TIP3    H1 9399   5.281   0.495   2.628  0.5048  0.1949 -1.4704
 3131TIP3    H2 9400   5.165   0.592   2.616 -0.1699 -0.2733  0.7701
 3132TIP3   OH2 9401   6.144   3.107   1.592  0.1304  0.2394 -0.2009
 3132TIP3    H1 9402   6.163   3.179   1.652  0.2537  0.7770 -0.8746
 3132TIP3    H2 9403   6.068   3.063   1.631 -1.4573  2.1451 -0.9545
 3133TIP3   OH2 9404   3.854   4.787   4.928 -0.1234 -0.0655  0.6221
 3133TIP3    H1 9405   3.779   4.816   4.979  0.7613 -0.3804  2.1906
 3133TIP3    H2 9406   3.860   4.848   4.855 -0.7866  1.1087  1.5242
 3134TIP3   OH2 9407   1.582   5.629   0.676  0.3733 -0.0465 -0.2467
 3134TIP3    H1 9408   1.539   5.699   0.725  1.5378  0.2553  0.3953
 3134TIP3    H2 9409   1.536   5.549   0.701  1.7991 -0.1131  2.5057
 3135TIP3   OH2 9410   1.615   5.627   1.093  0.0333 -0.4778 -0.1078
 3135TIP3    H1 9411   1.582   5.550   1.047  0.9862 -1.6233  1.0237
 3135TIP3    H2 9412   1.710   5.625   1.078  0.2138 -0.2337  0.9197
 3136TIP3   OH2 9413   1.935   1.500   1.662  0.1430 -0.2268  0.5534
 3136TIP3    H1 9414   1.865   1.564   1.673  0.7982  0.5651  0.2526
 3136TIP3    H2 9415   2.008   1.551   1.626 -0.0716 -1.5930 -1.9755
 3137TIP3   OH2 9416   0.385   2.546   0.481  0.1096  0.0939  0.4659
 3137TIP3    H1 9417   0.369   2.463   0.525 -0.4681 -0.5483 -0.9103
 3137TIP3    H2 9418   0.313   2.555   0.419  1.8369  0.0404 -1.6627
 3138TIP3   OH2 9419   0.849   2.450   3.741 -0.1184  0.3056 -0.0441
 3138TIP3    H1 9420   0.939   2.449   3.775 -0.7768  0.2009  1.8326
 3138TIP3    H2 9421   0.804   2.383   3.793 -0.8210 -1.2009 -2.4104
 3139TIP3   OH2 9422   3.338   0.408   4.416  0.9453  0.0325 -0.8467
 3139TIP3    H1 9423   3.356   0.361   4.497  1.2904 -0.0178 -0.9509
 3139TIP3    H2 9424   3.417   0.397   4.364  1.6773  2.0101 -0.2588
 3140TIP3   OH2 9425  -0.006   1.115   0.648 -0.4998 -0.0211  0.1868
 3140TIP3    H1 9426  -0.038   1.188   0.594 -1.6390 -1.7667 -1.6678
 3140TIP3    H2 9427   0.066   1.152   0.698 -1.8104  2.6833  0.2661
 3141TIP3   OH2 9428   3.303   3.840   2.889 -0.1896  0.4299  0.1904
 3141TIP3    H1 9429   3.336   3.777   2.825 -0.6037  0.8886 -0.4913
 3141TIP3    H2 9430   3.225   3.798   2.926 -1.1800  1.0118 -1.1421
 3142TIP3   OH2 9431   2.284   2.982   1.953 -0.6996 -0.1110 -0.2959
 3142TIP3    H1 9432   2.354   3.046   1.947 -1.1228  0.4332  0.4090
 3142TIP3    H2 9433   2.215   3.017   1.896 -0.3380 -0.7445 -1.1446
 3143TIP3   OH2 9434   1.840   4.517   4.105 -0.5472  0.0872  0.2126
 3143TIP3    H1 9435   1.829   4.552   4.016 -0.7932  0.7830  0.5050
 3143TIP3    H2 9436   1.808   4.427   4.100  0.4731 -0.2479 -0.6570
 3144TIP3   OH2 9437   5.234   4.532   2.839 -0.2954 -0.1109  0.6456
 3144TIP3    H1 9438   5.274   4.550   2.925  1.1702 -3.0679  0.6923
 3144TIP3    H2 9439   5.303   4.488   2.789 -1.4737  0.5677 -1.7076
 3145TIP3   OH2 9440   0.614   3.122   0.075  0.1557 -0.1228  0.3397
 3145TIP3    H1 9441   0.576   3.066   0.007  0.2578  0.2901 -0.0655
 3145TIP3    H2 9442   0.708   3.117   0.061  0.1297  0.8676 -0.2935
 3146TIP3   OH2 9443   4.012   3.448   3.675  0.2404 -0.5068 -0.4009
 3146TIP3    H1 9444   4.015   3.372   3.617 -1.1377 -0.7079 -0.2492
 3146TIP3    H2 9445   3.951   3.508   3.633 -0.8569 -0.6977  0.8465
 3147TIP3   OH2 9446   1.618   0.406   2.491 -0.3697  0.4359 -0.7379
 3147TIP3    H1 9447   1.609   0.313   2.513  0.7656  0.3944 -0.4080
 3147TIP3    H2 9448   1.532   0.430   2.456 -0.5163 -0.8771 -1.3699
 3148TIP3   OH2 9449   3.288   2.788   2.412  0.0167 -0.6684 -0.0303
 3148TIP3    H1 9450   3.366   2.810   2.464  0.2554 -0.4160 -0.4875
 3148TIP3    H2 9451   3.229   2.746   2.474  0.4464 -0.7002  0.3646
 3149TIP3   OH2 9452   2.401   5.373   2.518  0.3765  0.1544  0.5126
 3149TIP3    H1 9453   2.377   5.453   2.470  2.4809 -0.7274 -2.3018
 3149TIP3    H2 9454   2.463   5.402   2.584 -0.5671  1.0968  1.0117
 3150TIP3   OH2 9455   4.011   0.766   4.417  0.2944 -1.0224  0.0363
 3150TIP3    H1 9456   3.979   0.832   4.355 -1.1394  0.7646  2.4666
 3150TIP3    H2 9457   3.966   0.685   4.392  0.9669 -0.7806 -2.1375
 3151TIP3   OH2 9458   1.384   1.904   1.251  0.1590  0.5334 -0.7672
 3151TIP3    H1 9459   1.342   1.818   1.243 -1.0774  0.4759  3.5869
 3151TIP3    H2 9460   1.473   1.884   1.281  0.3935  0.7646 -1.3075
 3152TIP3   OH2 9461   2.202   0.003   1.401 -0.1970 -0.0692  0.0841
 3152TIP3    H1 9462   2.149   0.048   1.336  1.2108  1.3353 -0.1531
 3152TIP3    H2 9463   2.290   0.003   1.363  0.2721 -0.9623  1.1384
 3153TIP3   OH2 9464   5.972   2.076   4.560  0.8399  0.0296 -0.0691
 3153TIP3    H1 9465   5.896   2.036   4.604  0.8882  1.9966  1.9984
 3153TIP3    H2 9466   6.041   2.010   4.568  0.0464 -0.7841  0.3160
 3154TIP3   OH2 9467   5.697   1.801   0.696 -0.2113 -0.4691 -0.1628
 3154TIP3    H1 9468   5.605   1.778   0.685 -0.0460 -0.4189 -2.0719
 3154TIP3    H2 9469   5.722   1.838   0.611  2.0759 -2.3779 -0.4368
 3155TIP3   OH2 9470   2.532   3.371   4.922 -0.2614 -0.3876 -0.1631
 3155TIP3    H1 9471   2.605   3.381   4.860 -0.1765  0.8786  0.1161
 3155TIP3    H2 9472   2.486   3.455   4.918  0.0178 -0.1059  1.8352
 3156TIP3   OH2 9473   1.177   0.878   2.178 -0.5965  0.3019 -0.3851
 3156TIP3    H1 9474   1.250   0.849   2.234  1.3085  0.6596 -2.5537
 3156TIP3    H2 9475   1.134   0.797   2.151  0.9950 -0.1713 -1.6068
 3157TIP3   OH2 9476   0.643   1.619   0.746  0.2118  0.4657 -0.3728
 3157TIP3    H1 9477   0.644   1.615   0.650  0.3948  0.5646 -0.3759
 3157TIP3    H2 9478   0.727   1.580   0.772 -0.4564 -0.9064 -0.1971
 3158TIP3   OH2 9479   0.498   4.503   1.476 -0.2624 -0.3439  0.8619
 3158TIP3    H1 9480   0.564   4.570   1.458 -0.5608 -0.3746 -0.3676
 3158TIP3    H2 9481   0.414   4.548   1.466 -0.4567 -0.4306  1.9467
 3159TIP3   OH2 9482   2.565   5.150   4.814 -0.2216  0.9194 -0.0546
 3159TIP3    H1 9483   2.535   5.132   4.724  1.8709 -0.1274 -0.6003
 3159TIP3    H2 9484   2.523   5.083   4.867  1.0735 -0.5452 -0.8075
 3160TIP3   OH2 9485   5.534   4.399   0.765 -0.4880  0.6895  0.2499
 3160TIP3    H1 9486   5.551   4.386   0.859 -0.5420 -1.0228  0.0567
 3160TIP3    H2 9487   5.606   4.454   0.735  0.4592 -0.1043  0.9928
 3161TIP3   OH2 9488   0.564   4.141   0.179  0.0802  0.2708 -0.1590
 3161TIP3    H1 9489   0.482   4.114   0.138 -1.0876  0.0333  2.1789
 3161TIP3    H2 9490   0.563   4.237   0.174 -1.9205  0.4881  2.5122
 3162TIP3   OH2 9491   1.500   1.727   4.866 -0.1386  0.4027 -0.0871
 3162TIP3    H1 9492   1.426   1.684   4.909 -0.3589  1.8191  1.0361
 3162TIP3    H2 9493   1.481   1.821   4.872 -0.2884  0.7215 -3.5372
 3163TIP3   OH2 9494   5.923   3.794   1.911 -0.0100  0.3015  0.3297
 3163TIP3    H1 9495   5.997   3.855   1.901  0.4992  0.2104  2.7717
 3163TIP3    H2 9496   5.964   3.708   1.920 -0.6073 -0.1392 -0.9199
 3164TIP3   OH2 9497   4.719   5.878   3.717  0.3456 -0.0846 -0.1387
 3164TIP3    H1 9498   4.807   5.914   3.706  1.0758 -1.7483 -0.0497
 3164TIP3    H2 9499   4.664   5.932   3.661  1.2169  1.6716  0.6266
 3165TIP3   OH2 9500   0.180   3.661   2.867 -0.1467  0.1914  0.7364
 3165TIP3    H1 9501   0.149   3.737   2.818  0.5797 -0.6128 -1.0300
 3165TIP3    H2 9502   0.198   3.696   2.955 -0.0465  2.0038  0.0421
 3166TIP3   OH2 9503   0.392   3.180   1.788  0.3755  0.9170 -0.0890
 3166TIP3    H1 9504   0.485   3.158   1.788  0.2479  0.2781 -1.5407
 3166TIP3    H2 9505   0.370   3.194   1.696 -1.0786  0.5746  0.1712
 3167TIP3   OH2 9506   5.531   3.892   0.528 -0.4927  0.3907 -0.7931
 3167TIP3    H1 9507   5.444   3.932   0.539 -0.9498 -0.2468 -1.8931
 3167TIP3    H2 9508   5.569   3.892   0.615 -0.0811  4.0703 -0.8106
 3168TIP3   OH2 9509   1.151   3.649   3.567 -0.1361 -0.0981  0.1443
 3168TIP3    H1 9510   1.058   3.627   3.563 -0.5886  1.3290  1.3365
 3168TIP3    H2 9511   1.176   3.669   3.477 -1.0248 -0.3467 -0.1628
 3169TIP3   OH2 9512   1.406   5.032   3.078  0.1165  0.2073  0.2337
 3169TIP3    H1 9513   1.385   4.981   3.156 -0.5890  0.3804  0.1701
 3169TIP3    H2 9514   1.320   5.057   3.043  0.4408  0.6747 -0.2353
 3170TIP3   OH2 9515   4.081   2.636   1.904 -0.0942 -0.2598 -0.0265
 3170TIP3    H1 9516   4.048   2.698   1.839 -0.1990  0.5069  0.7437
 3170TIP3    H2 9517   4.004   2.617   1.959  0.1208 -0.4882  0.1957
 3171TIP3   OH2 9518   4.608   1.016   0.679  0.2439  0.1615 -0.6367
 3171TIP3    H1 9519   4.513   1.017   0.686  0.2598  2.0035 -0.0533
 3171TIP3    H2 9520   4.625   1.019   0.585 -0.2173 -2.1103 -0.8412
 3172TIP3   OH2 9521   3.466   3.324   1.871 -0.1343 -0.4970 -0.0311
 3172TIP3    H1 9522   3.391   3.373   1.906  1.0015 -0.1163  2.0420
 3172TIP3    H2 9523   3.490   3.371   1.791 -0.8974  0.5577  0.3274
 3173TIP3   OH2 9524   4.896   0.669   3.007  0.3657  0.1743  0.0905
 3173TIP3    H1 9525   4.896   0.593   2.950 -0.5908 -0.5131  0.9927
 3173TIP3    H2 9526   4.813   0.713   2.989 -0.2225 -0.3818  1.3709
 3174TIP3   OH2 9527   3.017   2.175   4.453  0.3557  0.3191  0.1389
 3174TIP3    H1 9528   3.016   2.147   4.545 -0.8859  1.2861  0.4465
 3174TIP3    H2 9529   3.010   2.094   4.403 -0.3603 -0.1358  0.9403
 3175TIP3   OH2 9530   4.746   3.973   0.260  0.4374  0.0938 -0.4627
 3175TIP3    H1 9531   4.721   4.065   0.264  2.1797  0.5700  0.7857
 3175TIP3    H2 9532   4.684   3.934   0.199 -0.7569  1.9469 -0.5200
 3176TIP3   OH2 9533   1.857   0.548   1.286 -0.1699 -0.0089 -0.2537
 3176TIP3    H1 9534   1.949   0.527   1.269 -0.4874  0.1759 -2.4511
 3176TIP3    H2 9535   1.822   0.469   1.327  0.4068 -1.0537 -1.6886
 3177TIP3   OH2 9536   4.147   0.607   0.669  0.0437  0.5159  0.5386
 3177TIP3    H1 9537   4.144   0.519   0.631  0.1042  0.8247 -0.2085
 3177TIP3    H2 9538   4.141   0.593   0.763 -2.8584 -0.1562  0.3625
 3178TIP3   OH2 9539   5.498   4.733   3.681  0.5831 -0.5962 -0.3669
 3178TIP3    H1 9540   5.409   4.718   3.713 -0.6736 -0.0162 -3.2388
 3178TIP3    H2 9541   5.550   4.747   3.760 -2.4428  2.0714  1.3918
 3179TIP3   OH2 9542   2.780   4.048   3.857 -0.5356  0.0372 -0.2032
 3179TIP3    H1 9543   2.800   3.954   3.849 -4.9788 -1.1716  0.2807
 3179TIP3    H2 9544   2.726   4.067   3.779 -1.4795  1.5955  0.7826
 3180TIP3   OH2 9545   1.480   4.538   2.788  0.5594  0.0578 -0.3004
 3180TIP3    H1 9546   1.528   4.460   2.761  0.5870 -0.3096  0.7597
 3180TIP3    H2 9547   1.394   4.529   2.746  0.4285 -0.7443  0.1204
 3181TIP3   OH2 9548   1.332   2.405   0.466  0.3432  0.4755  0.1396
 3181TIP3    H1 9549   1.392   2.460   0.517 -0.7235  0.5258  1.3896
 3181TIP3    H2 9550   1.246   2.425   0.502 -0.4592  0.4997 -1.7177
 3182TIP3   OH2 9551   4.182   0.133   4.965  0.2865  0.2732  0.0785
 3182TIP3    H1 9552   4.188   0.044   4.932  2.8254  0.6486 -0.7297
 3182TIP3    H2 9553   4.106   0.171   4.921  0.4552 -0.8416 -1.2293
 3183TIP3   OH2 9554   0.291   0.374   4.935  0.3788  0.0715  0.2961
 3183TIP3    H1 9555   0.375   0.375   4.889 -0.1163  1.6153 -0.6520
 3183TIP3    H2 9556   0.232   0.326   4.878  0.1955  0.4781  0.1407
 3184TIP3   OH2 9557   3.527   1.251   2.744  0.7172 -0.2347  0.3181
 3184TIP3    H1 9558   3.572   1.302   2.811  0.8783  0.4366 -0.2869
 3184TIP3    H2 9559   3.597   1.203   2.699  0.7547  0.2563 -0.1559
 3185TIP3   OH2 9560   5.602   4.338   4.522 -0.1133  0.3229 -0.3251
 3185TIP3    H1 9561   5.542   4.271   4.555 -0.1745  0.8660  0.7007
 3185TIP3    H2 9562   5.566   4.420   4.554  1.2957  0.6442  0.5033
 3186TIP3   OH2 9563   0.186   5.706   2.085 -0.4390  0.3696 -0.0155
 3186TIP3    H1 9564   0.183   5.801   2.101  1.1615  0.1216  2.1931
 3186TIP3    H2 9565   0.095   5.678   2.091 -1.1859  1.9345 -2.3975
 3187TIP3   OH2 9566   1.983   0.693   3.296  0.3232  0.1254  0.5174
 3187TIP3    H1 9567   2.038   0.618   3.274  0.6499  0.8712 -1.3335
 3187TIP3    H2 9568   2.031   0.769   3.264 -1.3723  0.8762 -0.3637
 3188TIP3   OH2 9569   0.545   4.963   1.368 -0.1284 -0.0694 -0.2328
 3188TIP3    H1 9570   0.520   5.022   1.296 -0.2836  0.2855  0.1042
 3188TIP3    H2 9571   0.467   4.960   1.424 -0.7713 -2.0195 -1.1549
 3189TIP3   OH2 9572   6.374   2.648   0.492  0.3495  0.3586 -0.1114
 3189TIP3    H1 9573   6.404   2.695   0.414  0.7087  0.5848  0.1561
 3189TIP3    H2 9574   6.291   2.688   0.514  0.0780  0.0638 -0.5733
 3190TIP3   OH2 9575   4.057   2.867   2.699 -0.9489  0.2977 -0.7947
 3190TIP3    H1 9576   3.973   2.912   2.691 -0.3134  1.3947 -1.5154
 3190TIP3    H2 9577   4.064   2.847   2.793 -1.9897  0.2107 -0.7232
 3191TIP3   OH2 9578   1.926   5.079   3.924  0.0957 -0.2291  0.1383
 3191TIP3    H1 9579   1.968   5.142   3.865  1.6789 -1.9457 -0.6756
 3191TIP3    H2 9580   1.940   4.994   3.883 -0.6499 -1.2837  1.9322
 3192TIP3   OH2 9581   4.464   2.410   2.599 -0.4877 -0.0233 -0.3190
 3192TIP3    H1 9582   4.521   2.460   2.541 -0.6987  0.4128 -0.1604
 3192TIP3    H2 9583   4.520   2.343   2.638 -0.1981  0.0993 -0.5254
 3193TIP3   OH2 9584   5.040   1.820   4.560 -0.7321 -0.1367  0.1665
 3193TIP3    H1 9585   5.034   1.916   4.561 -1.1195 -0.1461  1.2175
 3193TIP3    H2 9586   5.087   1.799   4.480 -0.9028  0.9192 -0.2334
 3194TIP3   OH2 9587   5.766   4.293   4.743  0.5574  0.2573  0.3179
 3194TIP3    H1 9588   5.745   4.200   4.736 -0.1931  0.3380  1.2589
 3194TIP3    H2 9589   5.688   4.338   4.710  1.2901  0.5758 -1.0694
 3195TIP3   OH2 9590   4.056   5.774   3.280 -0.2772  0.6004  0.4939
 3195TIP3    H1 9591   4.141   5.787   3.324 -0.3500  1.9327  0.2703
 3195TIP3    H2 9592   4.004   5.724   3.344  0.2928  0.7655  1.1016
 3196TIP3   OH2 9593   3.422   5.959   0.517  0.0228 -0.5704 -0.6775
 3196TIP3    H1 9594   3.414   5.997   0.429  0.0732 -1.4291 -1.0556
 3196TIP3    H2 9595   3.429   5.865   0.502  1.4201 -0.6208  0.1626
 3197TIP3   OH2 9596   3.535   1.757   4.577 -0.2477  0.3067 -0.5104
 3197TIP3    H1 9597   3.627   1.778   4.565  0.0995  0.0803  1.3985
 3197TIP3    H2 9598   3.514   1.696   4.507  0.9278  0.7262 -1.2433
 3198TIP3   OH2 9599   1.848   4.302   5.184  0.3122  0.0616  0.3519
 3198TIP3    H1 9600   1.916   4.237   5.201  0.3796  0.3690  1.2917
 3198TIP3    H2 9601   1.896   4.381   5.161  0.2254 -0.4736 -1.9147
 3199TIP3   OH2 9602   2.160   0.794   2.881  0.6428 -0.3424 -0.4641
 3199TIP3    H1 9603   2.093   0.761   2.821  0.2916 -0.0369 -0.2462
 3199TIP3    H2 9604   2.120   0.872   2.920  0.8494 -0.5671  0.1997
 3200TIP3   OH2 9605   0.638   2.941   4.736 -0.9422 -0.5878 -0.1334
 3200TIP3    H1 9606   0.701   3.005   4.768  1.1765 -3.3906  1.8420
 3200TIP3    H2 9607   0.553   2.981   4.751  0.2632  2.0964  0.0526
 3201TIP3   OH2 9608   4.506   2.332   2.066  0.3174  0.0534  0.4565
 3201TIP3    H1 9609   4.591   2.367   2.037  0.9569 -0.5562  1.5644
 3201TIP3    H2 9610   4.509   2.337   2.161 -1.6688  1.8210  0.4988
 3202TIP3   OH2 9611   5.760   1.233   2.930  0.8928 -0.0995  0.2034
 3202TIP3    H1 9612   5.776   1.141   2.909  1.2675 -0.0021  0.0586
 3202TIP3    H2 9613   5.847   1.271   2.941  0.7907  0.5188 -0.9558
 3203TIP3   OH2 9614   4.072   0.298   1.880 -0.2538  0.2245  1.0086
 3203TIP3    H1 9615   4.126   0.282   1.803 -2.6281 -0.4384 -0.6081
 3203TIP3    H2 9616   4.122   0.361   1.932  1.1698  1.1351 -1.3318
 3204TIP3   OH2 9617   4.144   0.874   3.596  0.3671  0.2031  0.9265
 3204TIP3    H1 9618   4.128   0.788   3.635 -0.0403  0.1058  0.5603
 3204TIP3    H2 9619   4.136   0.936   3.668 -2.4158  0.2351  0.6840
 3205TIP3   OH2 9620   6.173   1.599   4.129 -0.0956 -0.0835 -0.2014
 3205TIP3    H1 9621   6.113   1.593   4.204 -0.2339  2.2398 -0.0283
 3205TIP3    H2 9622   6.179   1.510   4.095 -1.2459 -0.9275  1.6314
 3206TIP3   OH2 9623   6.227   0.925   0.483  0.5853  0.4446 -0.6668
 3206TIP3    H1 9624   6.269   0.975   0.554  1.2331 -1.3884  0.3030
 3206TIP3    H2 9625   6.182   0.854   0.528 -0.7828  0.4351 -1.9762
 3207TIP3   OH2 9626   3.897   5.138   4.420  0.1383 -0.9654 -0.4076
 3207TIP3    H1 9627   3.908   5.228   4.451  0.3518 -1.1895  0.1795
 3207TIP3    H2 9628   3.932   5.084   4.490 -0.9453 -1.5562 -0.3022
 3208TIP3   OH2 9629   6.214   0.272   4.245  0.1777 -0.3760 -0.0879
 3208TIP3    H1 9630   6.143   0.332   4.269  1.0274 -0.0276  1.7379
 3208TIP3    H2 9631   6.217   0.208   4.315  0.4179 -1.5616 -1.1374
 3209TIP3   OH2 9632   1.260   3.633   4.316 -0.2823  0.0124  0.1447
 3209TIP3    H1 9633   1.227   3.644   4.226 -1.2860  0.0651  0.5071
 3209TIP3    H2 9634   1.270   3.722   4.349 -1.0626 -0.0161  0.4810
 3210TIP3   OH2 9635   4.099   5.612   0.753  0.3823  0.5294  0.0868
 3210TIP3    H1 9636   4.057   5.694   0.779  0.5480  0.4399  0.6348
 3210TIP3    H2 9637   4.125   5.570   0.835  0.8628  0.2217 -0.2146
 3211TIP3   OH2 9638   5.206   3.332   0.885 -0.5883  0.2123  0.2841
 3211TIP3    H1 9639   5.132   3.300   0.938 -1.5939  1.9821  0.0300
 3211TIP3    H2 9640   5.207   3.275   0.809 -0.7820 -0.7300  0.9625
 3212TIP3   OH2 9641   5.674   4.815   2.964  0.0780 -0.3297  0.0593
 3212TIP3    H1 9642   5.680   4.818   3.060 -1.2742  1.6834  0.1491
 3212TIP3    H2 9643   5.756   4.856   2.934 -0.4679  1.1383  0.4645
 3213TIP3   OH2 9644   4.995   2.859   4.557 -0.1538 -0.5652  0.0264
 3213TIP3    H1 9645   5.047   2.926   4.514 -1.6741  0.0320 -0.9518
 3213TIP3    H2 9646   5.001   2.880   4.650 -0.8627  1.1547 -0.2827
 3214TIP3   OH2 9647   5.886   2.304   4.367 -0.0592  0.0398 -0.2794
 3214TIP3    H1 9648   5.912   2.236   4.429 -0.6165  1.4484  1.6094
 3214TIP3    H2 9649   5.967   2.351   4.347 -0.0131  0.1786  0.1986
 3215TIP3   OH2 9650   0.536   0.259   0.882 -0.3522 -0.1087 -0.0448
 3215TIP3    H1 9651   0.587   0.179   0.897 -0.0492 -0.4463 -2.4511
 3215TIP3    H2 9652   0.558   0.315   0.956  0.5036 -1.7188  0.9971
 3216TIP3   OH2 9653   2.205   3.222   3.698 -0.0137 -0.0416 -0.2057
 3216TIP3    H1 9654   2.134   3.168   3.664 -0.1394  0.8061 -1.3285
 3216TIP3    H2 9655   2.281   3.197   3.646  0.4500 -0.6753  0.7397
 3217TIP3   OH2 9656   4.203   0.589   2.865 -0.5626  0.0536  0.5258
 3217TIP3    H1 9657   4.273   0.525   2.847 -0.5112  0.8818 -3.0322
 3217TIP3    H2 9658   4.122   0.540   2.851 -0.5580  0.2289 -0.1672
 3218TIP3   OH2 9659   0.928   0.293   5.137  0.2672 -0.0418 -0.0327
 3218TIP3    H1 9660   0.851   0.345   5.163  0.5139  1.3727 -1.9412
 3218TIP3    H2 9661   0.906   0.260   5.050  1.4448 -0.4422 -0.1931
 3219TIP3   OH2 9662   5.636   4.212   3.975 -0.2228 -0.1432 -0.4452
 3219TIP3    H1 9663   5.560   4.173   4.018 -0.5306 -1.0778 -1.7942
 3219TIP3    H2 9664   5.652   4.293   4.025 -0.8265 -0.9405  1.1329
 3220TIP3   OH2 9665   5.847   3.790   3.394  0.1214 -0.2891 -0.5531
 3220TIP3    H1 9666   5.775   3.727   3.397 -0.6717  0.6356  0.2446
 3220TIP3    H2 9667   5.866   3.811   3.485 -0.4426  1.5205 -0.8083
 3221TIP3   OH2 9668   5.706   2.847   4.319 -0.1485 -0.1115  0.7146
 3221TIP3    H1 9669   5.731   2.864   4.228  0.0894  1.4044  1.0521
 3221TIP3    H2 9670   5.730   2.926   4.367 -0.7546 -0.6808  2.0159
 3222TIP3   OH2 9671   5.260   2.804   3.558 -0.7600 -0.0553 -0.3492
 3222TIP3    H1 9672   5.176   2.789   3.515 -0.5120 -2.1003 -0.2215
 3222TIP3    H2 9673   5.295   2.716   3.574  1.1135  0.7341  0.1878
 3223TIP3   OH2 9674   4.986   2.094   2.313 -0.1826 -0.6368  0.2345
 3223TIP3    H1 9675   4.910   2.110   2.257  0.4432  1.8662 -0.0221
 3223TIP3    H2 9676   5.062   2.120   2.260  0.7486 -1.8067  0.9383
 3224TIP3   OH2 9677   5.237   2.334   3.139  0.1640  0.0708  0.3419
 3224TIP3    H1 9678   5.238   2.395   3.066 -0.3029 -1.0219 -0.6094
 3224TIP3    H2 9679   5.222   2.248   3.099 -0.9359 -0.4584  1.7814
 3225TIP3   OH2 9680   0.750   2.712   1.638 -0.3161  0.2557  0.2720
 3225TIP3    H1 9681   0.687   2.677   1.576 -1.7470 -0.7182  2.1728
 3225TIP3    H2 9682   0.750   2.806   1.622 -0.4605 -0.0035 -1.3430
 3226TIP3   OH2 9683   5.979   2.905   1.226 -0.3837 -0.0482  0.5100
 3226TIP3    H1 9684   5.891   2.868   1.219 -0.6155  0.6947 -1.3080
 3226TIP3    H2 9685   5.999   2.934   1.136  2.6580 -2.2876  0.3142
 3227TIP3   OH2 9686   4.103   5.689   4.021  0.0533 -0.3102  0.1348
 3227TIP3    H1 9687   4.042   5.642   3.964  2.6802 -2.0690 -1.4669
 3227TIP3    H2 9688   4.152   5.620   4.066  0.6673  1.0193  1.5688
 3228TIP3   OH2 9689   0.697   4.784   4.970 -0.4420  0.8140  0.3224
 3228TIP3    H1 9690   0.711   4.879   4.967 -1.1048  0.9508  1.1068
 3228TIP3    H2 9691   0.703   4.756   4.879 -0.4738  1.6469  0.0545
 3229TIP3   OH2 9692   4.922   3.995   2.433  0.2110 -0.4441 -0.1777
 3229TIP3    H1 9693   4.926   4.008   2.528  2.3149 -1.7414 -0.0420
 3229TIP3    H2 9694   4.829   3.979   2.416 -0.4500  1.2618  1.4172
 3230TIP3   OH2 9695   3.602   5.403   5.022 -0.0048 -0.4152 -0.4995
 3230TIP3    H1 9696   3.657   5.325   5.024  0.8680  0.1856  0.5696
 3230TIP3    H2 9697   3.597   5.431   5.114 -2.5846 -0.7448 -0.4905
 3231TIP3   OH2 9698   2.190   1.712   1.577  0.3364  0.2542  0.0872
 3231TIP3    H1 9699   2.212   1.804   1.562 -1.2930  0.8237  0.9261
 3231TIP3    H2 9700   2.231   1.692   1.661  0.7460  0.1812 -0.1260
 3232TIP3   OH2 9701   4.860   5.748   2.190  0.0199 -0.3729 -0.1998
 3232TIP3    H1 9702   4.956   5.745   2.189  0.0548  0.3452 -1.2019
 3232TIP3    H2 9703   4.839   5.839   2.167 -0.8980 -0.5048  0.1012
 3233TIP3   OH2 9704   1.120   1.295   0.646  0.4073 -0.5844  0.3664
 3233TIP3    H1 9705   1.141   1.202   0.643  0.1493 -0.6125 -1.6136
 3233TIP3    H2 9706   1.200   1.338   0.615  0.4383 -0.1459  1.0327
 3234TIP3   OH2 9707   0.364   2.480   4.942 -0.2900  0.4608 -0.0056
 3234TIP3    H1 9708   0.326   2.558   4.981 -1.2848  0.2550 -0.5324
 3234TIP3    H2 9709   0.303   2.456   4.872 -0.8273 -1.6470  1.0971
 3235TIP3   OH2 9710   1.570   0.055   0.997  0.1516  0.3029 -0.6042
 3235TIP3    H1 9711   1.481   0.076   0.970 -0.2102  1.4203  1.3386
 3235TIP3    H2 9712   1.598  -0.012   0.934 -1.1486  1.6422 -2.7625
 3236TIP3   OH2 9713   2.332   5.982   4.227  0.2335 -0.1479 -0.0865
 3236TIP3    H1 9714   2.327   6.064   4.178 -0.4766  0.7020  1.3578
 3236TIP3    H2 9715   2.360   5.917   4.162 -1.2968  0.7923 -1.7629
 3237TIP3   OH2 9716   6.242   1.319   3.471  0.1451  0.6665  0.4071
 3237TIP3    H1 9717   6.236   1.315   3.375  0.7958 -0.0507  0.3882
 3237TIP3    H2 9718   6.156   1.350   3.499 -0.2529  0.2938 -0.3723
 3238TIP3   OH2 9719   0.131   5.223   2.381  0.4049  0.0557  0.0815
 3238TIP3    H1 9720   0.138   5.311   2.419  1.1932 -0.5075  1.3408
 3238TIP3    H2 9721   0.212   5.212   2.331 -0.6611  0.8173 -1.8910
 3239TIP3   OH2 9722   2.672   4.024   4.268 -0.6411 -0.6646  0.3121
 3239TIP3    H1 9723   2.670   3.975   4.186  1.5402  1.5096 -1.1950
 3239TIP3    H2 9724   2.591   4.075   4.268 -0.0425  0.3659 -1.2633
 3240TIP3   OH2 9725   6.264   1.908   4.455  0.2460  0.0122 -0.1380
 3240TIP3    H1 9726   6.312   1.922   4.536 -1.3182  2.2023  0.4967
 3240TIP3    H2 9727   6.225   1.821   4.465 -1.8127  1.1019  2.5659
 3241TIP3   OH2 9728   2.677   2.232   2.201  0.2624 -0.2177 -0.1856
 3241TIP3    H1 9729   2.618   2.297   2.240 -0.7687 -1.0698 -0.2966
 3241TIP3    H2 9730   2.756   2.282   2.180 -0.1502  0.8049  0.5871
 3242TIP3   OH2 9731   2.489   4.010   2.510 -0.4909  0.5959  0.4504
 3242TIP3    H1 9732   2.570   4.044   2.473  1.7531 -2.2616  2.3055
 3242TIP3    H2 9733   2.432   3.996   2.435  2.7085 -2.1552 -1.7655
 3243TIP3   OH2 9734   5.679   5.169   3.183  0.3098  0.4788 -0.9120
 3243TIP3    H1 9735   5.647   5.241   3.238  0.3500 -0.7178  0.7615
 3243TIP3    H2 9736   5.601   5.120   3.159  0.5128 -0.5796  0.4512
 3244TIP3   OH2 9737   3.944   0.150   1.405  0.6689  0.1238 -0.0174
 3244TIP3    H1 9738   3.891   0.151   1.485  0.0538 -1.1384 -0.3896
 3244TIP3    H2 9739   3.997   0.230   1.411 -0.1636  0.6224  1.1079
 3245TIP3   OH2 9740   0.061   0.848   0.329 -0.1358  0.4049  0.0181
 3245TIP3    H1 9741  -0.008   0.868   0.393  0.4547 -0.0335  0.8114
 3245TIP3    H2 9742   0.143   0.871   0.374  0.3574 -0.8527 -0.1949
 3246TIP3   OH2 9743   1.991   4.558   1.372  0.0118  0.4216 -0.2232
 3246TIP3    H1 9744   2.070   4.609   1.359  0.1133  0.4153  0.3524
 3246TIP3    H2 9745   1.936   4.612   1.429 -0.3110  0.3393 -0.4533
 3247TIP3   OH2 9746   0.959   5.495   2.106  0.4648 -0.0431 -0.5466
 3247TIP3    H1 9747   0.930   5.431   2.042  2.8029 -0.6361 -1.1329
 3247TIP3    H2 9748   1.025   5.548   2.059 -0.6974  2.1973  0.2028
 3248TIP3   OH2 9749   2.808   2.908   0.060 -0.1191 -0.4715  0.0441
 3248TIP3    H1 9750   2.778   2.840  -0.001 -0.8452  1.4576 -1.8957
 3248TIP3    H2 9751   2.888   2.942   0.020 -0.3783  0.5574  0.3793
 3249TIP3   OH2 9752   4.357   1.400   2.139  0.1322  0.1083 -0.2135
 3249TIP3    H1 9753   4.351   1.305   2.126  0.2067  0.3041 -1.9036
 3249TIP3    H2 9754   4.322   1.414   2.227 -1.4500 -1.3052 -0.5631
 3250TIP3   OH2 9755   1.521   4.448   1.840 -0.2012  0.0718  0.2031
 3250TIP3    H1 9756   1.597   4.459   1.784  0.0327  3.3129  1.0107
 3250TIP3    H2 9757   1.556   4.447   1.929 -1.0324  1.0178  0.5551
 3251TIP3   OH2 9758   3.800   1.778   4.524  0.0638 -0.3695  0.0006
 3251TIP3    H1 9759   3.836   1.700   4.481  0.8100  0.2573 -0.5403
 3251TIP3    H2 9760   3.872   1.812   4.576 -0.5639 -0.5953  1.0352
 3252TIP3   OH2 9761   5.134   0.092   1.623 -0.3684  0.1654 -0.3096
 3252TIP3    H1 9762   5.120   0.042   1.543 -2.3499 -1.3982  0.8818
 3252TIP3    H2 9763   5.154   0.026   1.689  3.0254  1.5543  0.2261
 3253TIP3   OH2 9764   2.030   0.832   0.746 -0.2249  0.3087  0.2264
 3253TIP3    H1 9765   1.962   0.769   0.769  0.1083 -0.7251 -1.4716
 3253TIP3    H2 9766   1.986   0.917   0.750 -1.3322 -0.2422  0.1986
 3254TIP3   OH2 9767   6.245   5.783   3.171 -0.2085  0.3393 -0.8222
 3254TIP3    H1 9768   6.204   5.746   3.093  2.1697 -0.9478 -1.5736
 3254TIP3    H2 9769   6.339   5.776   3.154  0.4740 -1.1138  2.6242
 3255TIP3   OH2 9770   3.032   3.358   4.083  0.5528 -0.2191  0.2331
 3255TIP3    H1 9771   3.052   3.269   4.112  0.8083 -0.4226 -0.5497
 3255TIP3    H2 9772   2.957   3.384   4.137  1.5026 -0.2748  1.6196
 3256TIP3   OH2 9773   4.747   5.879   1.141  0.1944 -0.0512 -0.3750
 3256TIP3    H1 9774   4.764   5.790   1.110 -0.5392 -0.0967 -0.6571
 3256TIP3    H2 9775   4.673   5.909   1.088 -1.0785 -0.1146  1.2898
 3257TIP3   OH2 9776   3.190   0.737   0.551 -0.3204 -0.1575 -0.0344
 3257TIP3    H1 9777   3.167   0.694   0.633  1.3396 -1.2477 -0.0959
 3257TIP3    H2 9778   3.198   0.665   0.488 -0.3495  0.5384 -0.8420
 3258TIP3   OH2 9779   1.101   0.831   2.893  0.7577 -0.4041  0.7359
 3258TIP3    H1 9780   1.116   0.736   2.897  0.5443 -0.4610  0.3052
 3258TIP3    H2 9781   1.025   0.845   2.949  0.7627 -0.4924  0.7660
 3259TIP3   OH2 9782   5.285   1.476   3.260 -0.2715 -0.1563  0.1897
 3259TIP3    H1 9783   5.266   1.391   3.299 -2.4960  0.4455  0.5439
 3259TIP3    H2 9784   5.277   1.462   3.166  0.5513 -0.5903  0.1793
 3260TIP3   OH2 9785   3.539   4.319   4.792 -0.4508  0.1562  0.2465
 3260TIP3    H1 9786   3.490   4.237   4.799  0.7681 -0.5961  0.1118
 3260TIP3    H2 9787   3.623   4.301   4.832  1.5804 -0.1253 -3.6923
 3261TIP3   OH2 9788   1.290   0.188   2.792  0.0157 -0.1402 -0.2063
 3261TIP3    H1 9789   1.248   0.200   2.876  0.0474 -1.5603  0.0364
 3261TIP3    H2 9790   1.383   0.207   2.809 -0.1953  1.0911 -0.3042
 3262TIP3   OH2 9791   2.665   5.294   1.712  0.2458 -0.2970 -0.2137
 3262TIP3    H1 9792   2.707   5.248   1.639  0.0680  1.9397 -1.8121
 3262TIP3    H2 9793   2.728   5.359   1.740 -0.3693  0.0121  0.4923
 3263TIP3   OH2 9794   1.980   3.825   0.089  0.1166  0.9057  0.0656
 3263TIP3    H1 9795   1.958   3.823   0.182 -1.8307  1.4223 -0.3478
 3263TIP3    H2 9796   1.915   3.768   0.047  2.2125 -1.0366 -0.8063
 3264TIP3   OH2 9797   3.622   1.035   0.626  0.7400 -0.6349 -0.4112
 3264TIP3    H1 9798   3.530   1.040   0.597  1.2473 -0.6911 -2.1134
 3264TIP3    H2 9799   3.621   0.969   0.695 -0.9703  1.3835  1.6843
 3265TIP3   OH2 9800   0.772   1.891   0.648 -0.0211  0.3322 -0.2245
 3265TIP3    H1 9801   0.733   1.911   0.563  0.4054 -1.3963 -0.8806
 3265TIP3    H2 9802   0.717   1.935   0.712  0.0604  2.2770 -1.4225
 3266TIP3   OH2 9803   5.459   5.478   1.041  0.1487  0.2799  0.0423
 3266TIP3    H1 9804   5.460   5.485   1.136  1.8242 -0.7120  0.1430
 3266TIP3    H2 9805   5.551   5.486   1.016 -0.3332  1.1469 -1.5559
 3267TIP3   OH2 9806   2.087   4.987   0.315 -0.0438 -0.0485  0.2747
 3267TIP3    H1 9807   2.118   4.904   0.279 -0.0908  0.1912 -0.3429
 3267TIP3    H2 9808   1.992   4.979   0.314 -0.0341 -0.2748  0.9244
 3268TIP3   OH2 9809   3.380   1.532   2.835 -0.3667 -0.2491 -0.0728
 3268TIP3    H1 9810   3.304   1.475   2.845 -0.1677 -0.5176 -0.0766
 3268TIP3    H2 9811   3.420   1.533   2.922 -0.1114 -0.4788 -0.1900
 3269TIP3   OH2 9812   1.357   0.806   4.325 -0.4565  0.3767 -0.5944
 3269TIP3    H1 9813   1.391   0.885   4.368  0.9310 -1.0450  1.1022
 3269TIP3    H2 9814   1.435   0.764   4.288 -1.3048  0.2641 -2.3466
 3270TIP3   OH2 9815   2.220   3.466   4.242  0.2414 -0.5809  0.7720
 3270TIP3    H1 9816   2.266   3.515   4.174 -2.6502 -0.6827 -1.4424
 3270TIP3    H2 9817   2.215   3.376   4.208  0.1765 -1.0296  1.9152
 3271TIP3   OH2 9818   3.005   0.870   1.637  0.2760 -0.0146  0.0197
 3271TIP3    H1 9819   2.921   0.895   1.599  0.8669 -0.6247 -1.8185
 3271TIP3    H2 9820   3.049   0.821   1.567  2.0213 -0.0083  1.0518
 3272TIP3   OH2 9821   6.326   0.652   0.035 -0.3991  0.2130  0.1613
 3272TIP3    H1 9822   6.261   0.671   0.104 -1.1922 -0.5612 -0.3589
 3272TIP3    H2 9823   6.382   0.729   0.034 -1.4261  0.9922  0.5044
 3273TIP3   OH2 9824   5.699   3.100   0.313  0.3054 -0.5728  0.5707
 3273TIP3    H1 9825   5.696   3.033   0.244 -1.0328  1.5241 -1.5597
 3273TIP3    H2 9826   5.607   3.113   0.337  0.4716  0.8709  0.5183
 3274TIP3   OH2 9827   1.795   5.295   3.019  0.0883 -0.0908  0.6879
 3274TIP3    H1 9828   1.720   5.290   3.079 -0.9190 -0.8129 -0.5729
 3274TIP3    H2 9829   1.834   5.208   3.022 -1.1714 -0.7795 -1.1267
 3275TIP3   OH2 9830   3.203   1.529   0.722  0.1750 -0.4297  0.3758
 3275TIP3    H1 9831   3.224   1.608   0.673 -0.7040 -0.4399 -0.0448
 3275TIP3    H2 9832   3.258   1.460   0.684 -0.8343 -0.5413 -0.9323
 3276TIP3   OH2 9833   1.322   2.553   2.010 -1.0405 -0.5039  0.3642
 3276TIP3    H1 9834   1.332   2.553   1.915 -1.6176 -0.0273  0.2974
 3276TIP3    H2 9835   1.343   2.464   2.036 -1.3214 -0.7621 -0.2635
 3277TIP3   OH2 9836   2.729   1.590   0.441 -0.1640  0.0801 -0.6441
 3277TIP3    H1 9837   2.663   1.578   0.509 -0.1109  0.8102 -0.4622
 3277TIP3    H2 9838   2.744   1.502   0.407 -2.3196  0.0907 -1.7231
 3278TIP3   OH2 9839   0.887   0.063   1.452 -0.3395 -0.3571 -0.5096
 3278TIP3    H1 9840   0.945   0.037   1.524  0.3040  2.1846  0.0075
 3278TIP3    H2 9841   0.801   0.075   1.494  0.2300  2.0068  0.1316
 3279TIP3   OH2 9842   4.300   5.703   2.350  0.1018  0.5098  0.1821
 3279TIP3    H1 9843   4.255   5.664   2.425 -0.4141  1.9135  0.6350
 3279TIP3    H2 9844   4.298   5.797   2.368  1.1172  0.7694 -0.9703
 3280TIP3   OH2 9845   1.472   3.545   4.097 -0.2660 -0.3829 -0.4768
 3280TIP3    H1 9846   1.385   3.579   4.074 -0.1016 -0.0792 -0.6653
 3280TIP3    H2 9847   1.474   3.456   4.061  0.1086  0.1987 -1.9796
 3281TIP3   OH2 9848   2.490   0.182   2.668 -0.3938 -0.0787  0.4251
 3281TIP3    H1 9849   2.544   0.112   2.705  0.4052  1.2114  1.8056
 3281TIP3    H2 9850   2.547   0.259   2.670 -1.3655  0.7018 -0.7486
 3282TIP3   OH2 9851   0.533   3.353   4.388  0.3421  0.8692 -0.3173
 3282TIP3    H1 9852   0.584   3.284   4.345  1.9316  1.2945  0.7970
 3282TIP3    H2 9853   0.482   3.307   4.455  1.4720  0.7401  0.4899
 3283TIP3   OH2 9854   3.693   5.726   4.892  0.0031  0.2809  0.5655
 3283TIP3    H1 9855   3.609   5.683   4.910  0.4202 -0.4864  0.7296
 3283TIP3    H2 9856   3.755   5.654   4.883  0.6031  0.8338  0.2077
 3284TIP3   OH2 9857   5.422   4.172   1.796 -0.1598  0.1257  0.4626
 3284TIP3    H1 9858   5.434   4.262   1.826 -1.6435  0.2708  0.6914
 3284TIP3    H2 9859   5.498   4.155   1.740  0.3571  1.3649  0.7570
 3285TIP3   OH2 9860   3.700   4.573   0.999  0.2168 -0.0033  0.6936
 3285TIP3    H1 9861   3.680   4.496   1.053 -1.2885  0.3331  0.6581
 3285TIP3    H2 9862   3.750   4.538   0.925  0.1169 -0.8466  1.0103
 3286TIP3   OH2 9863   6.095   3.446   0.755 -0.1198 -0.6557 -0.1471
 3286TIP3    H1 9864   6.000   3.462   0.760 -0.1731 -1.2434  1.2426
 3286TIP3    H2 9865   6.125   3.504   0.685 -0.9574  2.2374  1.7027
 3287TIP3   OH2 9866   6.258   0.303   2.859  0.1706  0.0206  0.9217
 3287TIP3    H1 9867   6.170   0.321   2.827  0.2424  0.3088  0.8885
 3287TIP3    H2 9868   6.308   0.282   2.781 -0.0020 -0.6978  0.9976
 3288TIP3   OH2 9869   1.184   5.155   2.720 -0.2648 -0.2128  0.1416
 3288TIP3    H1 9870   1.262   5.208   2.706 -0.6605  0.9655  2.0408
 3288TIP3    H2 9871   1.114   5.203   2.676 -0.2034 -0.4342 -0.2005
 3289TIP3   OH2 9872   1.730   3.128   2.227 -1.1706  0.2156  0.2524
 3289TIP3    H1 9873   1.743   3.203   2.170  2.4184 -1.0620 -0.8834
 3289TIP3    H2 9874   1.698   3.059   2.169 -2.5226  0.2442  0.9055
 3290TIP3   OH2 9875   5.264   5.941   1.664  0.3434  0.4533 -0.6216
 3290TIP3    H1 9876   5.319   5.990   1.726  0.3089 -0.1304 -0.1221
 3290TIP3    H2 9877   5.204   5.891   1.720 -0.4664  0.8141 -1.1522
 3291TIP3   OH2 9878   4.315   1.845   0.295  0.0927 -0.3864  0.3576
 3291TIP3    H1 9879   4.226   1.870   0.268 -0.2998 -2.5560 -0.5780
 3291TIP3    H2 9880   4.306   1.823   0.388 -1.0455 -3.0792 -0.2743
 3292TIP3   OH2 9881   1.893   2.779   4.347 -0.2660  0.2334 -0.0408
 3292TIP3    H1 9882   1.903   2.684   4.351 -0.3929  0.2622  2.2779
 3292TIP3    H2 9883   1.956   2.813   4.411  0.0710  1.7462 -1.1308
 3293TIP3   OH2 9884   5.275   5.938   3.932 -0.0539  0.9481 -0.5583
 3293TIP3    H1 9885   5.286   6.033   3.927 -1.0940  1.0750 -0.6560
 3293TIP3    H2 9886   5.180   5.925   3.930  0.1064 -0.1692 -2.0104
 3294TIP3   OH2 9887   0.800   5.070   1.402 -0.3234  0.5321 -0.1623
 3294TIP3    H1 9888   0.790   5.161   1.373 -0.9851  0.9201  1.1908
 3294TIP3    H2 9889   0.712   5.033   1.395 -0.4484  0.5705  1.0968
 3295TIP3   OH2 9890   4.657   0.442   2.208 -0.3225 -0.0879  0.3802
 3295TIP3    H1 9891   4.648   0.520   2.153 -0.6829  0.5951  1.3804
 3295TIP3    H2 9892   4.749   0.417   2.198 -0.5474 -0.4107 -1.0818
 3296TIP3   OH2 9893   2.604   3.310   2.703  0.0920 -0.3569 -0.0229
 3296TIP3    H1 9894   2.535   3.368   2.670  0.1955 -0.8999 -1.2223
 3296TIP3    H2 9895   2.653   3.364   2.765  0.4852  0.9939 -1.4780
 3297TIP3   OH2 9896   5.212   3.554   1.474 -0.4003 -0.0727 -0.9934
 3297TIP3    H1 9897   5.198   3.641   1.437 -0.3800 -0.1253 -1.1288
 3297TIP3    H2 9898   5.301   3.530   1.446  0.9275  1.2065  1.7872
 3298TIP3   OH2 9899   2.885   2.404   0.703 -0.2640  0.4888  0.1640
 3298TIP3    H1 9900   2.908   2.484   0.751 -0.0755 -0.7999  2.3830
 3298TIP3    H2 9901   2.790   2.405   0.700 -0.2670  0.7607  0.2916
 3299TIP3   OH2 9902   6.273   5.847   0.745  0.0241  0.3971 -0.0432
 3299TIP3    H1 9903   6.205   5.876   0.684 -0.6032 -0.3301  0.2961
 3299TIP3    H2 9904   6.261   5.752   0.750  0.9306  0.2903  0.1899
 3300TIP3   OH2 9905   1.717   0.900   4.465 -0.0601 -0.3331 -0.6666
 3300TIP3    H1 9906   1.746   0.985   4.499 -2.7711  0.9723 -1.3900
 3300TIP3    H2 9907   1.651   0.870   4.528  0.1171 -1.4218 -0.9772
 3301TIP3   OH2 9908   5.737   0.219   2.772 -0.5706 -0.3152  0.3461
 3301TIP3    H1 9909   5.826   0.183   2.775 -0.4945 -0.3426 -1.2289
 3301TIP3    H2 9910   5.747   0.303   2.727 -1.3758 -0.5316 -0.2613
 3302TIP3   OH2 9911   1.430   1.984   2.954 -0.2761 -0.2399  0.6978
 3302TIP3    H1 9912   1.346   2.001   2.913 -0.9010 -3.3999  0.4088
 3302TIP3    H2 9913   1.409   1.969   3.047  0.1994  0.4837  0.9271
 3303TIP3   OH2 9914   0.926   5.846   3.360  0.1237  0.1404 -0.4276
 3303TIP3    H1 9915   0.927   5.861   3.266  0.1027 -1.7269 -0.7549
 3303TIP3    H2 9916   0.966   5.925   3.397 -0.2865  1.1002 -1.9464
 3304TIP3   OH2 9917   5.659   3.612   3.699  0.4483  0.3806  0.5314
 3304TIP3    H1 9918   5.655   3.668   3.621  0.3081  0.3773  0.5349
 3304TIP3    H2 9919   5.580   3.557   3.692  1.1025 -0.5218 -0.0009
 3305TIP3   OH2 9920   1.235   4.004   0.204 -0.0479  0.3629 -0.3171
 3305TIP3    H1 9921   1.175   3.944   0.249 -1.1228 -0.1803 -2.3301
 3305TIP3    H2 9922   1.282   3.949   0.142 -0.1814  1.3943 -1.3654
 3306TIP3   OH2 9923   3.087   5.011   3.665  0.5041 -0.0577  0.3943
 3306TIP3    H1 9924   3.066   4.959   3.587  0.4104 -0.0265  0.3994
 3306TIP3    H2 9925   3.059   4.956   3.738  1.5998 -0.5670  0.4493
 3307TIP3   OH2 9926   3.687   1.870   2.469  0.1004 -0.0813  0.1029
 3307TIP3    H1 9927   3.608   1.920   2.489 -0.5323 -1.7090  1.9757
 3307TIP3    H2 9928   3.758   1.935   2.474 -0.8926  1.0373  0.3087
 3308TIP3   OH2 9929   1.172   2.682   0.805  0.2050  0.5406 -0.4815
 3308TIP3    H1 9930   1.144   2.679   0.897 -0.2880  0.1646 -0.6406
 3308TIP3    H2 9931   1.235   2.611   0.797  0.8213  1.0487 -0.2555
 3309TIP3   OH2 9932   3.883   1.888   0.631 -0.4383  0.1687  0.2703
 3309TIP3    H1 9933   3.858   1.970   0.673  0.0422  0.2128  0.4789
 3309TIP3    H2 9934   3.835   1.821   0.679 -2.9437  0.4890 -1.5597
 3310TIP3   OH2 9935   2.534   3.284   0.690 -0.7217 -0.3429 -0.1395
 3310TIP3    H1 9936   2.574   3.227   0.624 -0.2973  0.6990 -0.7895
 3310TIP3    H2 9937   2.465   3.331   0.643 -1.1255 -0.3603  0.4208
 3311TIP3   OH2 9938   3.561   5.038   4.034  0.5023  0.5854 -0.0327
 3311TIP3    H1 9939   3.640   5.049   3.980 -0.0548  1.1975 -0.7578
 3311TIP3    H2 9940   3.505   4.980   3.982  0.7903 -0.5104  0.8515
 3312TIP3   OH2 9941   1.154   1.159   2.572 -0.6995  0.3067  0.2795
 3312TIP3    H1 9942   1.221   1.171   2.505  0.5954 -1.8261  1.0822
 3312TIP3    H2 9943   1.104   1.241   2.571  1.5396  1.7595 -0.7582
 3313TIP3   OH2 9944   0.743   4.772   2.630  0.2589  0.3538  0.6859
 3313TIP3    H1 9945   0.667   4.722   2.659  0.7831  0.1277  1.7316
 3313TIP3    H2 9946   0.790   4.713   2.572 -0.3991  0.5316 -0.0510
 3314TIP3   OH2 9947   5.844   0.170   3.798 -0.2755 -0.5331  0.1225
 3314TIP3    H1 9948   5.824   0.087   3.841  0.3080  0.0051  1.4866
 3314TIP3    H2 9949   5.855   0.233   3.870 -3.1761  1.3513 -0.9133
 3315TIP3   OH2 9950   0.448   4.282   2.023  0.2708  0.4207 -0.7345
 3315TIP3    H1 9951   0.387   4.263   1.952 -0.1075 -0.8579 -0.0942
 3315TIP3    H2 9952   0.509   4.346   1.985  1.3687 -1.7694 -2.9519
 3316TIP3   OH2 9953   1.742   4.531   0.106 -0.1818  0.1568  0.3163
 3316TIP3    H1 9954   1.819   4.588   0.111  1.0290 -1.3807  0.2619
 3316TIP3    H2 9955   1.728   4.504   0.197 -0.4410  0.1610  0.2769
 3317TIP3   OH2 9956   2.701   5.132   0.465 -0.5504 -0.2181  0.3272
 3317TIP3    H1 9957   2.641   5.161   0.396 -0.2800 -0.2025  0.0964
 3317TIP3    H2 9958   2.646   5.125   0.543 -0.6859  0.5926  0.3147
 3318TIP3   OH2 9959   0.945   1.329   1.301 -0.7590 -0.0569 -0.5721
 3318TIP3    H1 9960   0.922   1.373   1.219 -0.9183 -0.6559 -0.8536
 3318TIP3    H2 9961   1.020   1.379   1.335 -0.4362 -0.0469 -1.2886
 3319TIP3   OH2 9962   1.025   3.805   2.775 -0.0512  0.0184  0.4631
 3319TIP3    H1 9963   0.977   3.780   2.854 -1.2186 -1.3839 -0.6291
 3319TIP3    H2 9964   1.117   3.799   2.799 -0.2098 -4.2789  0.7587
 3320TIP3   OH2 9965   2.245   0.148   0.723  0.1595  0.4268 -0.1091
 3320TIP3    H1 9966   2.238   0.198   0.642  0.0034 -0.2272 -0.5150
 3320TIP3    H2 9967   2.160   0.161   0.766  0.1772  0.6369 -0.1389
 3321TIP3   OH2 9968   0.886   5.066   4.438 -0.2351 -0.2156 -0.0881
 3321TIP3    H1 9969   0.822   5.103   4.500  0.2332  0.1808  0.1651
 3321TIP3    H2 9970   0.947   5.017   4.493 -0.6008 -1.0108 -0.3805
 3322TIP3   OH2 9971   4.951   1.189   1.143 -0.1379 -0.4860 -0.1273
 3322TIP3    H1 9972   4.884   1.255   1.161  0.2453  0.0375 -0.5526
 3322TIP3    H2 9973   4.909   1.128   1.082  0.2353  0.7195 -1.6702
 3323TIP3   OH2 9974   1.687   5.328   3.824  0.2814 -0.2885  0.2959
 3323TIP3    H1 9975   1.708   5.253   3.880  0.9246  0.0825  0.5704
 3323TIP3    H2 9976   1.603   5.306   3.785  0.8512 -1.5422 -0.2947
 3324TIP3   OH2 9977   6.142   5.982   0.540 -0.3016  0.0537 -0.0707
 3324TIP3    H1 9978   6.081   5.911   0.516  0.5615 -1.1961  1.2741
 3324TIP3    H2 9979   6.198   5.992   0.463 -0.4160 -0.7693 -0.2766
 3325TIP3   OH2 9980   3.831   5.854   3.679  1.1234  0.0369 -0.2495
 3325TIP3    H1 9981   3.753   5.900   3.709  0.4380 -0.5481 -1.0967
 3325TIP3    H2 9982   3.904   5.905   3.715  0.4755  2.8434 -2.5325
 3326TIP3   OH2 9983   0.490   5.453   0.595 -0.2098  0.2397  0.1185
 3326TIP3    H1 9984   0.524   5.423   0.679  0.1937  0.8138  0.1712
 3326TIP3    H2 9985   0.398   5.473   0.611 -0.5624 -1.1843  0.0165
 3327TIP3   OH2 9986   0.750   2.843   5.199 -0.0500 -0.2976  0.1618
 3327TIP3    H1 9987   0.762   2.752   5.225  1.6832 -0.0946  0.1804
 3327TIP3    H2 9988   0.829   2.865   5.149 -0.6988  1.0252 -0.3307
 3328TIP3   OH2 9989   0.288   0.257   4.475 -0.3200  0.0450  0.3795
 3328TIP3    H1 9990   0.221   0.300   4.528  0.7076  1.6985  0.4063
 3328TIP3    H2 9991   0.256   0.264   4.385 -0.5776  0.0755  0.4733
 3329TIP3   OH2 9992   2.130   2.484   2.205  0.3824 -0.0047  0.2362
 3329TIP3    H1 9993   2.221   2.483   2.175  0.6798  1.7010  0.9653
 3329TIP3    H2 9994   2.114   2.395   2.237  1.7819 -0.3295  0.0796
 3330TIP3   OH2 9995   1.824   0.698   0.864  0.6379 -0.4750 -0.1927
 3330TIP3    H1 9996   1.809   0.739   0.949 -0.4104  0.7190 -0.9101
 3330TIP3    H2 9997   1.757   0.736   0.807  3.0959  1.0271 -2.3186
 3331TIP3   OH2 9998   4.079   4.143   1.790  0.1942  0.1632 -0.0920
 3331TIP3    H1 9999   4.063   4.235   1.811  0.6427  0.0250  0.9037
 3331TIP3    H210000   4.002   4.097   1.823 -0.2717  0.2224 -1.0505
 3332TIP3   OH210001   2.618   4.941   1.765  0.1872  0.5158 -0.1137
 3332TIP3    H110002   2.654   4.858   1.733 -0.0583  0.1710  0.4700
 3332TIP3    H210003   2.686   5.006   1.747  1.3098 -0.1776  1.3206
 3333TIP3   OH210004   1.522   3.869   2.363 -0.5555 -0.1010  0.2980
 3333TIP3    H110005   1.591   3.934   2.376  0.3133 -0.8856 -0.3631
 3333TIP3    H210006   1.535   3.806   2.434 -0.2694 -0.5195 -0.1207
 3334TIP3   OH210007   0.994   3.759   1.694  0.3221 -0.2717 -0.4395
 3334TIP3    H110008   1.046   3.693   1.648  0.7717  0.8198 -1.5773
 3334TIP3    H210009   0.944   3.801   1.624 -0.5546  0.0565  0.3750
 3335TIP3   OH210010   4.068   0.005   2.722  0.0371  0.0279  0.0672
 3335TIP3    H110011   4.030  -0.006   2.635  1.6974 -1.1804 -0.5455
 3335TIP3    H210012   4.158   0.032   2.706 -0.2651  2.1388  1.4768
 3336TIP3   OH210013   5.425   4.915   2.937  0.0827 -0.1114  0.0805
 3336TIP3    H110014   5.406   4.950   3.025 -0.3744  0.4640 -0.2398
 3336TIP3    H210015   5.514   4.881   2.944  0.2274  0.3586  0.6461
 3337TIP3   OH210016   2.139   3.654   0.327  0.3556 -0.1904  0.6663
 3337TIP3    H110017   2.056   3.699   0.311  0.3014 -0.8172 -1.0497
 3337TIP3    H210018   2.138   3.633   0.420 -1.3690 -0.1296  0.6918
 3338TIP3   OH210019   2.314   3.948   3.703 -0.4061  0.0490 -0.0123
 3338TIP3    H110020   2.332   3.923   3.612 -0.1739  2.1789 -0.5995
 3338TIP3    H210021   2.385   3.906   3.753 -0.1409 -0.5860 -0.8929
 3339TIP3   OH210022   2.094   0.857   0.271 -0.3255  0.1013  0.1216
 3339TIP3    H110023   2.108   0.929   0.209 -1.0745 -0.0775 -0.2724
 3339TIP3    H210024   2.139   0.782   0.231  2.3427  0.8137  1.5785
 3340TIP3   OH210025   5.303   3.176   1.301 -0.9636 -0.4863  0.1644
 3340TIP3    H110026   5.234   3.239   1.280 -0.2768  0.4113  0.5682
 3340TIP3    H210027   5.362   3.179   1.227 -1.0114 -0.7903  0.1099
 3341TIP3   OH210028   4.685   0.881   2.647  0.2677 -0.0168 -0.2255
 3341TIP3    H110029   4.599   0.918   2.626  1.5218  2.5346 -1.2523
 3341TIP3    H210030   4.716   0.845   2.565  0.1823 -1.0071  0.1628
 3342TIP3   OH210031   3.683   5.334   0.813 -0.0309  0.3623  0.2083
 3342TIP3    H110032   3.596   5.337   0.853  0.2077 -1.0697  0.8796
 3342TIP3    H210033   3.724   5.416   0.840 -1.3615  1.3468 -0.6155
 3343TIP3   OH210034   0.713   5.341   1.522 -0.6609 -0.3415  0.1739
 3343TIP3    H110035   0.787   5.379   1.570 -0.1497  2.8585 -2.7414
 3343TIP3    H210036   0.637   5.355   1.580  0.0958  2.1890  0.7053
 3344TIP3   OH210037   1.849   4.995   1.360  0.4733 -0.2281  1.0530
 3344TIP3    H110038   1.933   5.006   1.404  1.1656 -2.0750  0.2933
 3344TIP3    H210039   1.812   4.915   1.397  0.9920 -1.7433 -1.4117
 3345TIP3   OH210040   3.702   3.842   2.312  0.2297  0.2260 -0.0087
 3345TIP3    H110041   3.649   3.913   2.349 -0.3915  0.7306 -1.7374
 3345TIP3    H210042   3.639   3.772   2.294  0.6113 -0.2257  0.3939
 3346TIP3   OH210043   0.828   3.043   2.294 -0.2490  0.3102 -0.1298
 3346TIP3    H110044   0.798   2.992   2.369 -0.5673  0.1242 -0.3772
 3346TIP3    H210045   0.767   3.019   2.223 -0.3020  0.9125 -0.2938
 3347TIP3   OH210046   5.215   3.191   0.629 -0.3513 -0.2695  0.0995
 3347TIP3    H110047   5.140   3.145   0.593 -0.1187 -1.9947  1.6609
 3347TIP3    H210048   5.263   3.224   0.552 -2.4445  0.5658 -0.9264
 3348TIP3   OH210049   2.136   1.889   5.150  0.0235  0.0826  0.5085
 3348TIP3    H110050   2.134   1.973   5.196 -0.9459  1.4006 -1.7362
 3348TIP3    H210051   2.158   1.825   5.217  0.0459  2.0262  2.4706
 3349TIP3   OH210052   0.187   2.830   4.381  0.6276 -0.1982  0.5233
 3349TIP3    H110053   0.243   2.807   4.455 -0.5566 -0.9499  1.2267
 3349TIP3    H210054   0.176   2.925   4.388  1.2079 -0.1506  0.8137
 3350TIP3   OH210055   0.666   3.563   4.565 -0.4644 -0.3303 -0.1251
 3350TIP3    H110056   0.603   3.505   4.522 -1.2824 -0.9791  1.8392
 3350TIP3    H210057   0.648   3.554   4.659 -0.0042  2.4074  0.3259
 3351TIP3   OH210058   4.788   2.562   0.116  0.8244 -0.0716  0.2424
 3351TIP3    H110059   4.718   2.591   0.058  1.3764  0.8229  0.0086
 3351TIP3    H210060   4.771   2.469   0.130  0.3240 -0.1519 -0.8444
 3352TIP3   OH210061   3.990   1.687   3.734  0.2246 -0.0976  0.3096
 3352TIP3    H110062   3.918   1.730   3.781 -0.2969  0.0497 -0.5986
 3352TIP3    H210063   4.009   1.746   3.661 -0.1917 -1.1674 -0.6900
 3353TIP3   OH210064   5.077   1.266   3.713  0.2720 -0.4108  0.4491
 3353TIP3    H110065   5.105   1.176   3.734  0.0634 -0.5370  0.1999
 3353TIP3    H210066   4.986   1.256   3.684  1.0246 -0.5110 -2.1920
 3354TIP3   OH210067   0.934   3.631   4.105 -0.0075  0.0433 -0.4858
 3354TIP3    H110068   0.904   3.645   4.015  0.1872 -1.2830 -0.7860
 3354TIP3    H210069   0.861   3.658   4.160 -0.6817 -0.4804 -1.1045
 3355TIP3   OH210070   2.277   0.607   4.195 -0.0928 -0.0359 -0.6664
 3355TIP3    H110071   2.257   0.592   4.103  1.0484 -1.2996 -0.7410
 3355TIP3    H210072   2.361   0.652   4.194  0.3902 -0.8893 -0.2558
 3356TIP3   OH210073   2.881   5.869   3.413  0.6767 -0.6002  0.3093
 3356TIP3    H110074   2.915   5.863   3.502 -0.9524 -1.5926  0.9178
 3356TIP3    H210075   2.887   5.962   3.391  1.3620 -0.3834  1.3507
 3357TIP3   OH210076   3.223   2.071   3.448 -0.2244 -0.6926  0.7468
 3357TIP3    H110077   3.127   2.076   3.447 -0.2107  0.5435 -1.9250
 3357TIP3    H210078   3.251   2.158   3.478  0.1192 -1.3929  2.5830
 3358TIP3   OH210079   1.041   5.431   4.482 -0.6868  0.0432 -0.2111
 3358TIP3    H110080   1.004   5.517   4.505 -2.2855 -0.4708 -0.7813
 3358TIP3    H210081   1.070   5.441   4.392  1.2883  0.6434  0.4304
 3359TIP3   OH210082   4.189   2.217   4.994  0.0546 -0.3076  0.2523
 3359TIP3    H110083   4.198   2.310   5.013  1.9806 -0.5631  0.7070
 3359TIP3    H210084   4.125   2.214   4.922  1.8730  1.5667 -1.5748
 3360TIP3   OH210085   2.672   4.929   3.924  0.4252  0.5092 -0.1824
 3360TIP3    H110086   2.585   4.966   3.935  0.0884 -0.7955  2.2042
 3360TIP3    H210087   2.664   4.870   3.849 -0.8143  0.2742  0.1112
 3361TIP3   OH210088   2.572   3.462   4.330  0.0764 -0.1232 -0.3880
 3361TIP3    H110089   2.504   3.453   4.397 -0.0618  2.0355 -0.1397
 3361TIP3    H210090   2.644   3.505   4.376  0.7859 -0.4705 -1.1534
 3362TIP3   OH210091   4.740   3.482   4.915 -0.0764 -0.2122  0.5105
 3362TIP3    H110092   4.731   3.500   4.822  0.1653 -1.4560  0.2269
 3362TIP3    H210093   4.822   3.433   4.923 -0.9845 -1.6956  1.1202
 3363TIP3   OH210094   2.815   5.219   4.918 -0.4755 -0.4899 -0.4817
 3363TIP3    H110095   2.877   5.175   4.976  0.0240  0.2806 -0.4168
 3363TIP3    H210096   2.747   5.154   4.902  0.0658 -1.1600 -0.1059
 3364TIP3   OH210097   2.132   0.380   3.763  0.3312 -0.3043 -0.2353
 3364TIP3    H110098   2.051   0.410   3.723 -1.0368 -1.2519  1.6631
 3364TIP3    H210099   2.177   0.331   3.694 -0.1984  1.0259 -1.5964
 3365TIP3   OH210100   5.187   4.598   0.061  0.2194 -0.3395  0.2066
 3365TIP3    H110101   5.112   4.630   0.112 -0.2368 -1.3489  0.1994
 3365TIP3    H210102   5.152   4.586  -0.027  0.8133  0.6868 -0.1859
 3366TIP3   OH210103   1.918   4.060   4.584 -0.5691  0.3326  0.1232
 3366TIP3    H110104   1.940   3.967   4.594  1.9562  0.8608  0.0266
 3366TIP3    H210105   1.864   4.064   4.505  0.5394 -0.8884 -0.7237
 3367TIP3   OH210106   1.008   4.133   4.915  0.5962  0.5228 -0.1930
 3367TIP3    H110107   1.100   4.115   4.897  0.5925  0.7029 -0.4016
 3367TIP3    H210108   0.982   4.196   4.847  0.2961  0.4036 -0.1912
 3368TIP3   OH210109   1.116   1.468   2.842  0.7608  0.3256 -0.2468
 3368TIP3    H110110   1.071   1.465   2.758  0.2097 -2.3078  0.0331
 3368TIP3    H210111   1.194   1.521   2.826  0.3288  0.4308 -2.2451
 3369TIP3   OH210112   5.150   1.230   2.165 -0.2337 -0.1892  0.6179
 3369TIP3    H110113   5.220   1.177   2.203  0.4646  0.3949  0.1565
 3369TIP3    H210114   5.183   1.256   2.079 -1.0833 -0.0349  0.3265
 3370TIP3   OH210115   0.861   3.790   3.388  0.1486  0.5590 -0.0657
 3370TIP3    H110116   0.774   3.822   3.411 -0.0969  0.8586 -1.3401
 3370TIP3    H210117   0.901   3.862   3.339  0.5704 -0.1038 -0.7190
 3371TIP3   OH210118   0.385   2.069   2.892  0.1904  0.0396  0.4616
 3371TIP3    H110119   0.335   2.101   2.817 -0.4686 -1.7366  0.0896
 3371TIP3    H210120   0.447   2.139   2.911  0.2915  0.6180 -1.6640
 3372TIP3   OH210121   2.279   3.822   1.409 -0.2711 -0.1088  0.1283
 3372TIP3    H110122   2.185   3.826   1.422 -0.0240  0.7584  1.8472
 3372TIP3    H210123   2.293   3.861   1.323 -1.5642 -1.4086 -0.7145
 3373TIP3   OH210124   3.761   1.823   3.850  0.0118  0.0262  0.1812
 3373TIP3    H110125   3.730   1.897   3.797 -0.3645  0.5111  1.0671
 3373TIP3    H210126   3.682   1.772   3.868  0.0731  0.0853  0.6181
 3374TIP3   OH210127   4.533   5.792   1.859  0.2124 -0.2537  0.2864
 3374TIP3    H110128   4.496   5.766   1.943 -0.4779 -0.4751 -0.0802
 3374TIP3    H210129   4.564   5.711   1.820  0.9712 -0.0886  0.5257
 3375TIP3   OH210130   0.074   3.858   1.078 -0.4304 -0.0353  0.6711
 3375TIP3    H110131   0.057   3.764   1.070 -0.3229 -0.1246  1.4343
 3375TIP3    H210132   0.150   3.873   1.023 -0.8327 -0.2796  0.0381
 3376TIP3   OH210133   2.346   4.133   0.971 -0.1992 -0.2599  0.7343
 3376TIP3    H110134   2.285   4.072   0.929  0.1056 -0.1727  0.1579
 3376TIP3    H210135   2.431   4.088   0.967 -0.1571 -0.2287  1.2166
 3377TIP3   OH210136   0.863   3.509   2.160  0.3466  0.3166  0.1327
 3377TIP3    H110137   0.791   3.451   2.136  0.2756  0.6366 -0.4444
 3377TIP3    H210138   0.872   3.568   2.086  0.7995  0.6761  0.4667
 3378TIP3   OH210139   5.181   5.695   4.345  0.4116 -0.0445  0.8046
 3378TIP3    H110140   5.233   5.661   4.417  1.7827  1.1996  0.4410
 3378TIP3    H210141   5.231   5.770   4.312 -2.5444  2.5803  1.7793
 3379TIP3   OH210142   5.103   1.883   4.071  0.3369 -0.6143 -0.1222
 3379TIP3    H110143   5.143   1.806   4.111  0.0407 -0.9241 -0.4104
 3379TIP3    H210144   5.008   1.867   4.078  0.2683 -0.0600  0.2325
 3380TIP3   OH210145   6.092   0.135   2.320  0.3943 -0.4992 -0.3177
 3380TIP3    H110146   6.178   0.097   2.302 -0.1089 -1.3632 -0.9383
 3380TIP3    H210147   6.034   0.099   2.253  0.2245  2.7937 -2.1698
 3381TIP3   OH210148   2.141   1.135   0.709  0.1776 -0.0477 -0.2041
 3381TIP3    H110149   2.108   1.085   0.634 -2.1285 -2.0977  1.9913
 3381TIP3    H210150   2.129   1.227   0.684 -1.7054 -0.6779 -1.8682
 3382TIP3   OH210151   3.208   2.914   1.761  0.2919 -0.9232  0.0660
 3382TIP3    H110152   3.245   2.968   1.831  1.7117 -2.4016  0.5314
 3382TIP3    H210153   3.283   2.898   1.702 -1.0599  1.1518 -2.4706
 3383TIP3   OH210154   4.049   0.272   2.957 -0.0969 -0.1613 -0.1559
 3383TIP3    H110155   4.011   0.337   2.897  1.3386  1.2563  0.4202
 3383TIP3    H210156   4.111   0.224   2.903 -0.0269 -0.0151 -0.2068
 3384TIP3   OH210157   5.293   2.855   1.881 -0.1853 -0.5434 -0.7960
 3384TIP3    H110158   5.299   2.946   1.854 -1.5757 -0.1284  0.1454
 3384TIP3    H210159   5.374   2.838   1.928 -0.4752  0.6346  0.1718
 3385TIP3   OH210160   5.116   1.367   1.894 -0.2551  0.4807  0.1657
 3385TIP3    H110161   5.138   1.320   1.814 -0.5013  1.5497 -0.5498
 3385TIP3    H210162   5.034   1.327   1.923  0.4531 -0.7413  0.5922
 3386TIP3   OH210163   5.652   2.289   3.532  0.4724  0.4747  0.2043
 3386TIP3    H110164   5.604   2.318   3.454 -1.8345 -1.0754  0.9302
 3386TIP3    H210165   5.741   2.273   3.500 -0.5565 -0.8793 -2.3863
 3387TIP3   OH210166   3.209   0.242   3.794 -0.0980  0.4170 -0.4139
 3387TIP3    H110167   3.271   0.315   3.786 -0.9338  1.3073  0.8740
 3387TIP3    H210168   3.135   0.278   3.843 -0.7579 -1.1689 -0.1749
 3388TIP3   OH210169   6.202   1.143   1.564 -0.0987  0.6750  0.0201
 3388TIP3    H110170   6.269   1.195   1.521  1.0271  0.3646  1.3200
 3388TIP3    H210171   6.152   1.105   1.493  0.8644  1.2285 -0.9837
 3389TIP3   OH210172   1.744   5.044   0.246 -0.1072 -0.5529 -0.3121
 3389TIP3    H110173   1.711   4.978   0.307 -0.0395 -0.9039 -0.6555
 3389TIP3    H210174   1.731   5.127   0.292 -0.7741 -0.7506 -0.1354
 3390TIP3   OH210175   3.125   2.675   2.582 -0.3200  0.3585  0.2818
 3390TIP3    H110176   3.109   2.761   2.622  0.4921  0.8359 -0.3847
 3390TIP3    H210177   3.059   2.618   2.622 -1.3035  1.4279  0.2584
 3391TIP3   OH210178   5.008   2.581   4.500  0.0995 -0.2761  0.5757
 3391TIP3    H110179   5.102   2.568   4.504 -0.0659 -2.5031 -1.2249
 3391TIP3    H210180   4.997   2.676   4.512  2.7358  0.4124 -1.5246
 3392TIP3   OH210181   5.638   5.427   4.926  0.2974  0.2613 -0.5216
 3392TIP3    H110182   5.723   5.435   4.968 -0.0644  1.4591  0.0027
 3392TIP3    H210183   5.575   5.437   4.997 -0.3053 -1.9398 -0.6751
 3393TIP3   OH210184   4.770   1.086   3.166 -0.7081 -1.1106 -0.1121
 3393TIP3    H110185   4.691   1.134   3.188 -0.4150  0.7278 -2.5625
 3393TIP3    H210186   4.760   1.000   3.207 -2.0079  0.4516  3.1240
 3394TIP3   OH210187   3.768   1.192   3.053  0.0768 -0.0813  0.1551
 3394TIP3    H110188   3.817   1.168   3.132 -1.6761  0.4244  1.4675
 3394TIP3    H210189   3.680   1.157   3.068 -0.5505  0.8576 -1.1620
 3395TIP3   OH210190   6.255   4.973   1.143 -0.0426 -0.1823 -0.1992
 3395TIP3    H110191   6.300   5.017   1.071 -0.2600  0.9622  0.3522
 3395TIP3    H210192   6.186   4.922   1.099 -0.2154  0.5511 -0.8019
 3396TIP3   OH210193   5.877   0.510   2.681 -0.2944  0.3478 -0.0611
 3396TIP3    H110194   5.848   0.567   2.752 -1.3864  0.2090 -0.3860
 3396TIP3    H210195   5.946   0.456   2.720 -1.1164  0.0286  0.9914
 3397TIP3   OH210196   1.742   3.669   4.638 -0.1708  0.6680 -0.9556
 3397TIP3    H110197   1.714   3.761   4.645  0.9770  0.9503  0.4259
 3397TIP3    H210198   1.662   3.619   4.646 -0.5421  1.4894  1.3896
 3398TIP3   OH210199   1.018   2.656   5.042 -0.2509  0.0108  0.2926
 3398TIP3    H110200   0.960   2.721   5.003 -0.7410  1.2285  2.8296
 3398TIP3    H210201   1.103   2.700   5.048 -0.2149 -0.1065  0.6806
 3399TIP3   OH210202   1.729   0.044   3.860 -0.0381  0.3472  0.1552
 3399TIP3    H110203   1.822   0.056   3.880  0.1769 -1.5607  0.5660
 3399TIP3    H210204   1.725  -0.042   3.816 -1.7334 -0.2685  1.3922
 3400TIP3   OH210205   5.725   2.545   0.003 -0.7107  0.2053 -0.0172
 3400TIP3    H110206   5.734   2.485   0.078 -0.1266  1.0129  0.5831
 3400TIP3    H210207   5.631   2.548  -0.014 -0.9067  0.4102  1.0239
 3401TIP3   OH210208   3.489   0.414   3.281 -0.0413 -0.3095  0.0692
 3401TIP3    H110209   3.500   0.459   3.198 -1.0663  1.1528  0.6924
 3401TIP3    H210210   3.478   0.322   3.257 -2.2780  0.3190 -1.5951
 3402TIP3   OH210211   0.248   2.070   1.270  0.0053 -0.0617 -0.0444
 3402TIP3    H110212   0.251   2.159   1.235  1.6973  0.4959  1.3978
 3402TIP3    H210213   0.330   2.060   1.318 -0.8674 -1.8367  1.1806
 3403TIP3   OH210214   0.309   1.994   1.737 -0.2100  0.0098 -0.0169
 3403TIP3    H110215   0.386   1.945   1.709 -0.0814  0.3587 -0.2790
 3403TIP3    H210216   0.334   2.029   1.823  0.2209  0.7600 -0.4316
 3404TIP3   OH210217   4.841   1.318   4.039  0.5239  0.3776 -0.7283
 3404TIP3    H110218   4.925   1.311   3.993  1.2547 -1.4973  0.7280
 3404TIP3    H210219   4.801   1.231   4.030 -0.4004  0.6851  0.1435
 3405TIP3   OH210220   3.491   3.321   2.208  0.1043 -0.0037  0.4008
 3405TIP3    H110221   3.549   3.246   2.197 -2.4744 -2.0387 -0.2664
 3405TIP3    H210222   3.482   3.330   2.303 -0.3925 -1.2473  0.4866
 3406TIP3   OH210223   3.319   5.531   0.108  0.5676  0.6942  0.5532
 3406TIP3    H110224   3.411   5.533   0.137  0.9108  1.1129 -0.5028
 3406TIP3    H210225   3.325   5.531   0.013 -0.4251 -3.4568  0.2970
 3407TIP3   OH210226   2.260   5.331   1.510  0.6080  0.5276  0.5088
 3407TIP3    H110227   2.180   5.375   1.481 -0.0559 -1.3922 -0.7712
 3407TIP3    H210228   2.328   5.362   1.449 -0.1022 -0.9769 -1.1568
 3408TIP3   OH210229   5.822   0.499   4.678 -0.1472 -0.0373  0.5890
 3408TIP3    H110230   5.848   0.414   4.642  1.2378  0.5441  0.1467
 3408TIP3    H210231   5.837   0.491   4.772 -0.4681 -0.4358  0.6064
 3409TIP3   OH210232   1.332   4.838   1.026  0.0639 -0.3532 -0.2161
 3409TIP3    H110233   1.305   4.918   0.980  2.3463  1.0970  0.7896
 3409TIP3    H210234   1.333   4.862   1.118  2.6729 -0.8442 -0.0297
 3410TIP3   OH210235   3.569   5.915   1.624  0.1894  0.1524  0.1072
 3410TIP3    H110236   3.652   5.958   1.604 -0.6844  2.7500  1.5191
 3410TIP3    H210237   3.591   5.851   1.691  1.5033 -1.5848 -1.8621
 3411TIP3   OH210238   4.053   2.130   2.181 -1.0487  0.0440 -0.0871
 3411TIP3    H110239   4.086   2.112   2.269 -0.0338  2.1681  0.0224
 3411TIP3    H210240   4.130   2.126   2.125 -1.0593  2.1144 -0.3093
 3412TIP3   OH210241   3.076   3.012   0.337  0.0832 -0.0354 -0.2064
 3412TIP3    H110242   3.064   3.037   0.428 -2.7017 -0.3227 -0.4011
 3412TIP3    H210243   3.168   2.988   0.330  0.8919  2.0941  1.9628
 3413TIP3   OH210244   5.558   0.680   0.565 -0.1161 -0.1483  0.3719
 3413TIP3    H110245   5.471   0.645   0.547  0.2210 -1.2031  0.6895
 3413TIP3    H210246   5.597   0.694   0.479  0.0799 -1.4845  0.2289
 3414TIP3   OH210247   4.472   3.173   0.248  0.1667 -0.4063  0.1262
 3414TIP3    H110248   4.416   3.097   0.261  0.3880 -0.7408 -0.7628
 3414TIP3    H210249   4.551   3.154   0.299  0.4201 -1.0100 -0.4691
 3415TIP3   OH210250   5.927   0.175   1.273 -0.3534  0.2338 -0.5233
 3415TIP3    H110251   5.832   0.183   1.268 -0.3282  1.2872  0.4095
 3415TIP3    H210252   5.956   0.173   1.182 -1.3684 -1.7348 -0.8590
 3416TIP3   OH210253   4.968   5.499   4.367  0.3132  0.0490 -0.3071
 3416TIP3    H110254   4.931   5.472   4.283  2.2848  0.7160 -1.4706
 3416TIP3    H210255   5.012   5.582   4.348 -2.1679  2.1439  2.2539
 3417TIP3   OH210256   2.031   3.146   4.048 -0.1318  0.4743  0.3288
 3417TIP3    H110257   2.000   3.201   4.120 -0.2928  1.9260 -0.7848
 3417TIP3    H210258   1.989   3.061   4.062 -0.0307  0.6737  2.0057
 3418TIP3   OH210259   6.180   4.460   0.552  0.3300 -0.4654 -0.1035
 3418TIP3    H110260   6.252   4.409   0.589 -0.8529 -2.5906 -0.5236
 3418TIP3    H210261   6.189   4.449   0.457  0.1372  0.2756 -0.2149
 3419TIP3   OH210262   3.632   3.202   4.560 -0.7394 -0.3256 -0.3332
 3419TIP3    H110263   3.662   3.118   4.525 -1.4376 -1.2482  1.2080
 3419TIP3    H210264   3.561   3.180   4.619  0.5928  1.0964  1.9474
 3420TIP3   OH210265   4.593   2.849   2.959 -0.1153  0.2537 -0.2965
 3420TIP3    H110266   4.499   2.837   2.975  0.3859 -1.9996  1.4770
 3420TIP3    H210267   4.623   2.903   3.031  0.3810 -1.3190  0.7148
 3421TIP3   OH210268   2.125   0.701   5.031 -0.6567 -0.4816  0.1280
 3421TIP3    H110269   2.088   0.781   4.994  1.0516  0.5681  0.5951
 3421TIP3    H210270   2.216   0.701   5.002  0.0725 -0.8822  2.2763
 3422TIP3   OH210271   1.562   3.814   3.125 -0.1785  0.0136  0.0245
 3422TIP3    H110272   1.651   3.808   3.091 -0.1624  0.5581 -0.0413
 3422TIP3    H210273   1.567   3.882   3.192 -0.4220 -0.3602  0.4197
 3423TIP3   OH210274   6.098   3.335   2.439  0.0476 -0.3234  0.2172
 3423TIP3    H110275   6.027   3.365   2.382  1.0949  0.1814 -0.8908
 3423TIP3    H210276   6.157   3.410   2.444  0.8275 -0.9450  0.5549
 3424TIP3   OH210277   0.891   4.576   2.918  0.2156  0.3292  0.0837
 3424TIP3    H110278   0.849   4.502   2.874  0.5193  0.7060 -0.8715
 3424TIP3    H210279   0.827   4.605   2.983 -0.7285  0.4630 -0.8707
 3425TIP3   OH210280   5.592   4.582   0.256  0.2482  0.3151 -0.0396
 3425TIP3    H110281   5.664   4.543   0.305  0.2985 -0.4346 -0.6957
 3425TIP3    H210282   5.607   4.677   0.263  1.2272  0.1738 -0.0607
 3426TIP3   OH210283   2.260   0.609   3.237  0.0258 -0.3528  0.1977
 3426TIP3    H110284   2.336   0.663   3.215 -1.7059  0.9112 -3.5949
 3426TIP3    H210285   2.274   0.527   3.191 -1.4245  0.4239 -1.7589
 3427TIP3   OH210286   2.295   3.504   2.180 -0.4666  0.1414 -0.4295
 3427TIP3    H110287   2.254   3.420   2.199  1.2151 -0.4923  0.7077
 3427TIP3    H210288   2.233   3.549   2.123 -1.7160 -1.5889 -0.5251
 3428TIP3   OH210289   2.116   3.048   0.362 -0.4638  0.6751 -0.1969
 3428TIP3    H110290   2.145   2.998   0.285 -0.6329  1.2925 -0.6742
 3428TIP3    H210291   2.180   3.119   0.370 -1.1697  1.3761 -0.5711
 3429TIP3   OH210292   4.829   3.783   1.072  0.1112  0.6670  0.1004
 3429TIP3    H110293   4.856   3.822   1.155  0.2029 -0.8174  0.8102
 3429TIP3    H210294   4.876   3.832   1.005  0.2669  1.6951  0.9329
 3430TIP3   OH210295   2.526   2.725   2.996  0.5233 -0.0257  0.4565
 3430TIP3    H110296   2.511   2.664   3.068  0.2966  0.7699  1.1013
 3430TIP3    H210297   2.438   2.754   2.970  0.6565  0.5587  0.6365
 3431TIP3   OH210298   2.437   4.819   3.242  0.3428 -0.6862 -0.5413
 3431TIP3    H110299   2.376   4.844   3.174  0.3115  1.6525  0.2260
 3431TIP3    H210300   2.417   4.878   3.315  1.5300 -1.8903  0.8351
 3432TIP3   OH210301   4.443   2.119   0.454  0.1568  0.2702 -0.2517
 3432TIP3    H110302   4.374   2.155   0.399 -0.1178  0.4435  0.1970
 3432TIP3    H210303   4.484   2.051   0.401 -0.5981 -0.0810 -0.3993
 3433TIP3   OH210304   5.884   1.519   0.362  0.1421 -0.7119 -1.0758
 3433TIP3    H110305   5.921   1.607   0.355 -0.5366 -0.2233  0.8870
 3433TIP3    H210306   5.938   1.476   0.428 -1.3163 -0.7667  0.1169
 3434TIP3   OH210307   5.089   3.112   2.460 -0.1127 -0.2264  0.0354
 3434TIP3    H110308   5.118   3.068   2.380  1.2434  0.9583 -0.1571
 3434TIP3    H210309   4.998   3.083   2.471 -0.2366 -0.6526 -1.7477
 3435TIP3   OH210310   4.694   2.325   1.027 -0.3059  0.1114 -0.2472
 3435TIP3    H110311   4.666   2.374   0.950  0.1022  1.2919  0.3218
 3435TIP3    H210312   4.777   2.365   1.052 -0.3363 -0.3777  0.6866
 3436TIP3   OH210313   0.171   5.721   3.844 -0.0597  0.4007 -0.2820
 3436TIP3    H110314   0.169   5.628   3.819  1.3738  0.0792  0.7260
 3436TIP3    H210315   0.243   5.758   3.793  1.0583  0.3569  1.2074
 3437TIP3   OH210316   2.019   2.644   1.214 -0.0807  0.3547  0.1298
 3437TIP3    H110317   2.107   2.636   1.250 -0.7051 -1.8438  1.3417
 3437TIP3    H210318   2.024   2.601   1.128 -0.7162 -3.1871  1.7259
 3438TIP3   OH210319   3.927   2.918   1.967 -0.1069 -0.1828  0.1032
 3438TIP3    H110320   3.898   2.885   1.882  1.6980 -1.8111  0.0672
 3438TIP3    H210321   3.922   2.843   2.025  2.2898 -0.1246  0.4861
 3439TIP3   OH210322   3.958   3.793   3.715 -0.1037 -0.8495  0.0356
 3439TIP3    H110323   3.992   3.828   3.798  2.0387  0.6227 -1.3604
 3439TIP3    H210324   4.006   3.841   3.648 -1.3434 -2.4305 -2.0868
 3440TIP3   OH210325   0.425   1.834   5.096 -0.0492  0.2951  0.4058
 3440TIP3    H110326   0.384   1.760   5.142  0.3367 -0.6007 -0.6281
 3440TIP3    H210327   0.462   1.888   5.165 -1.8724  0.4733  1.3015
 3441TIP3   OH210328   1.350   3.269   2.973  0.3275 -0.0950 -0.0964
 3441TIP3    H110329   1.376   3.185   3.010  1.7091 -0.1350 -1.0897
 3441TIP3    H210330   1.335   3.326   3.049 -0.3248 -1.1369  0.5755
 3442TIP3   OH210331   1.380   1.438   0.635  0.3034 -0.2456  0.2234
 3442TIP3    H110332   1.379   1.522   0.588 -1.4231  0.0140  0.6873
 3442TIP3    H210333   1.403   1.461   0.725 -0.5963 -0.1970  0.4499
 3443TIP3   OH210334   1.445   3.570   1.519  0.5569 -0.7511  0.0480
 3443TIP3    H110335   1.469   3.550   1.610  0.8184 -2.0915 -0.2856
 3443TIP3    H210336   1.526   3.601   1.479  0.5490 -0.5901  0.1559
 3444TIP3   OH210337   4.800   5.537   1.670  0.1732 -0.1887 -0.4287
 3444TIP3    H110338   4.817   5.622   1.710  2.0645  0.0326 -1.6056
 3444TIP3    H210339   4.719   5.507   1.712  1.4964  0.4057  2.8576
 3445TIP3   OH210340   6.243   3.314   1.725 -0.0281 -0.0268 -0.2756
 3445TIP3    H110341   6.317   3.310   1.665 -0.4498  1.8170 -0.9700
 3445TIP3    H210342   6.282   3.335   1.810  0.4079 -0.9987 -0.2234
 3446TIP3   OH210343   5.301   5.058   2.375  0.1802  0.3719  0.1734
 3446TIP3    H110344   5.364   5.012   2.320  0.7905  1.2129  0.1340
 3446TIP3    H210345   5.218   5.052   2.328  0.3928 -0.1202 -0.1445
 3447TIP3   OH210346   3.981   3.882   1.902 -0.0090  0.0041 -0.2836
 3447TIP3    H110347   4.076   3.883   1.901  0.0759 -2.5771 -0.4285
 3447TIP3    H210348   3.957   3.908   1.992  0.8419 -0.1575 -0.0090
 3448TIP3   OH210349   2.393   5.895   5.082  0.1884  0.0936  0.4942
 3448TIP3    H110350   2.448   5.855   5.015 -1.9991  0.5076 -1.7249
 3448TIP3    H210351   2.416   5.987   5.081  0.0585  0.1227  0.1915
 3449TIP3   OH210352   1.251   1.156   3.231  0.0167  0.9213 -0.0633
 3449TIP3    H110353   1.223   1.221   3.296  0.2360 -0.5485  1.5988
 3449TIP3    H210354   1.187   1.085   3.241  0.2750  0.5148 -1.2231
 3450TIP3   OH210355   5.599   1.514   2.433 -0.8397  0.3276 -0.5980
 3450TIP3    H110356   5.601   1.524   2.529  0.4331  0.9255 -0.6578
 3450TIP3    H210357   5.509   1.535   2.409 -0.6849  2.3054  0.2885
 3451TIP3   OH210358   1.617   3.492   3.748  0.1369 -0.5734  0.5283
 3451TIP3    H110359   1.672   3.561   3.787 -0.6439 -0.6000  1.7121
 3451TIP3    H210360   1.661   3.411   3.772  0.4522 -0.5382  0.0834
 3452TIP3   OH210361   0.567   5.431   4.146 -0.1335 -0.1769 -0.1545
 3452TIP3    H110362   0.612   5.494   4.202 -1.1217  0.2700  0.1657
 3452TIP3    H210363   0.507   5.485   4.093 -2.0766 -0.9383  1.1649
 3453TIP3   OH210364   0.964   1.310   2.993 -0.1256 -0.2596  0.7348
 3453TIP3    H110365   1.027   1.372   2.956  0.4326 -0.1164  1.8794
 3453TIP3    H210366   0.935   1.258   2.918  0.5320  0.3951  0.0064
 3454TIP3   OH210367   1.417   4.281   0.166 -0.6393 -0.2817 -0.2818
 3454TIP3    H110368   1.466   4.273   0.084 -1.1556 -2.0861 -0.4581
 3454TIP3    H210369   1.344   4.219   0.157 -3.1637  2.4507 -0.1222
 3455TIP3   OH210370   5.267   3.477   2.633 -0.3006 -0.0679  0.5325
 3455TIP3    H110371   5.297   3.435   2.553  0.8162 -1.6120  1.7014
 3455TIP3    H210372   5.320   3.556   2.641  1.4681 -1.2562  1.0512
 3456TIP3   OH210373   4.928   2.241   3.256  0.5706  0.1725 -0.0626
 3456TIP3    H110374   4.961   2.218   3.169  0.2143  1.2126 -0.4918
 3456TIP3    H210375   4.833   2.230   3.250  0.5814 -0.1158  0.3050
 3457TIP3   OH210376   0.781   3.004   1.569  0.5997 -0.0380 -0.1435
 3457TIP3    H110377   0.868   3.033   1.542 -0.0879  1.5885 -0.7565
 3457TIP3    H210378   0.731   2.999   1.488  0.0418 -0.6673  0.2325
 3458TIP3   OH210379   1.968   5.465   5.107 -0.1054  0.3035 -0.1432
 3458TIP3    H110380   1.879   5.501   5.116 -0.1453 -0.1603  1.8308
 3458TIP3    H210381   1.954   5.373   5.088 -0.0879 -0.0308  1.3708
 3459TIP3   OH210382   6.277   5.650   3.443  0.0316 -0.3263 -0.2815
 3459TIP3    H110383   6.256   5.675   3.353  1.2868  1.0948 -0.2279
 3459TIP3    H210384   6.367   5.681   3.456  0.4550 -1.9103  0.9647
 3460TIP3   OH210385   5.615   3.106   4.688 -0.1440 -0.6295 -0.5392
 3460TIP3    H110386   5.662   3.168   4.743 -3.9659  2.4978 -0.2624
 3460TIP3    H210387   5.656   3.114   4.602 -0.4704  2.5680 -0.5226
 3461TIP3   OH210388   2.938   3.208   2.758 -0.1928 -0.3475 -0.1944
 3461TIP3    H110389   3.026   3.174   2.769 -0.5532 -1.4215 -0.5389
 3461TIP3    H210390   2.916   3.190   2.667 -0.3370  0.9923 -0.4531
 3462TIP3   OH210391   1.416   3.148   1.056 -0.0317  0.4834  0.0994
 3462TIP3    H110392   1.357   3.196   0.998  2.0137  0.0279 -2.5399
 3462TIP3    H210393   1.470   3.216   1.096 -1.9326  0.8679  2.2296
 3463TIP3   OH210394   1.980   2.535   2.934 -0.0967 -0.0348 -0.4813
 3463TIP3    H110395   2.015   2.535   3.023  1.4796 -0.1563 -1.0513
 3463TIP3    H210396   1.906   2.595   2.937  1.0704  1.4589  0.5192
 3464TIP3   OH210397   0.328   1.762   0.619 -0.0484 -0.1049  0.1326
 3464TIP3    H110398   0.247   1.731   0.657 -0.5189  1.4460  0.4918
 3464TIP3    H210399   0.397   1.712   0.663 -0.7790 -1.3611 -0.1087
 3465TIP3   OH210400   1.031   4.351   4.073 -0.4125  0.2780 -0.1387
 3465TIP3    H110401   1.079   4.419   4.026  2.0238 -1.7714 -0.8576
 3465TIP3    H210402   1.032   4.275   4.014  0.4868 -1.5946  2.0988
 3466TIP3   OH210403   5.426   1.931   0.854 -0.0667 -0.3721  0.0647
 3466TIP3    H110404   5.510   1.896   0.883  0.5010  1.6880  1.1270
 3466TIP3    H210405   5.418   2.015   0.900 -0.4519  1.8015 -3.5598
 3467TIP3   OH210406   5.370   3.620   2.899 -0.0906 -0.3725  0.0446
 3467TIP3    H110407   5.417   3.604   2.817  0.5906  0.5285  0.2474
 3467TIP3    H210408   5.373   3.536   2.944 -0.5405 -0.9044 -0.8804
 3468TIP3   OH210409   2.226   0.860   0.934 -0.3988 -0.0790 -0.1219
 3468TIP3    H110410   2.183   0.898   1.010 -0.7548 -1.8342  0.5866
 3468TIP3    H210411   2.158   0.857   0.867  0.1784  2.4510 -0.9486
 3469TIP3   OH210412   1.584   2.656   4.418  0.0509  0.1654  0.7323
 3469TIP3    H110413   1.646   2.588   4.392 -0.1004  0.1859  0.3214
 3469TIP3    H210414   1.578   2.647   4.514  2.6164  1.8085  1.1587
 3470TIP3   OH210415   0.588   5.395   1.253  0.1338  0.4860  0.2106
 3470TIP3    H110416   0.640   5.358   1.182  0.2808 -0.4413  0.7830
 3470TIP3    H210417   0.640   5.381   1.332 -0.3771  0.7884  0.6115
 3471TIP3   OH210418   5.774   0.605   1.840 -0.7230 -0.4668  0.9186
 3471TIP3    H110419   5.806   0.636   1.755 -2.2073 -0.7791  0.2149
 3471TIP3    H210420   5.728   0.524   1.820 -3.5924  0.9012  1.5345
 3472TIP3   OH210421   4.153   4.876   0.977 -0.5201  0.4546 -0.0258
 3472TIP3    H110422   4.191   4.890   1.063  0.1441  0.3983 -0.3059
 3472TIP3    H210423   4.185   4.791   0.949  3.0999  2.2606 -2.2389
 3473TIP3   OH210424   6.047   0.551   1.965  0.0846  0.2902  0.1989
 3473TIP3    H110425   6.003   0.466   1.962 -0.6952  0.6636  0.8683
 3473TIP3    H210426   5.980   0.614   1.942  0.3931  0.8157  0.7099
 3474TIP3   OH210427   4.982   4.516   3.035  0.3687 -0.0807 -0.1855
 3474TIP3    H110428   5.070   4.533   3.001  0.5263 -0.8702 -0.1981
 3474TIP3    H210429   4.926   4.576   2.986  0.7632 -0.3316 -0.9695
 3475TIP3   OH210430   6.030   1.035   5.148 -0.8348 -0.4699  0.1522
 3475TIP3    H110431   6.110   1.020   5.097  0.0033 -0.3527  1.3689
 3475TIP3    H210432   5.996   0.947   5.165 -0.3184 -0.5907  0.5920
 3476TIP3   OH210433   2.991   5.315   5.183  0.2679 -0.1427  0.8427
 3476TIP3    H110434   2.974   5.359   5.100 -0.8607 -1.4360  0.3381
 3476TIP3    H210435   3.031   5.381   5.238  1.7339  0.5518 -0.9691
 3477TIP3   OH210436   2.824   4.246   3.059  0.2239  0.2964  0.6623
 3477TIP3    H110437   2.750   4.209   3.106 -0.3709 -0.3220 -0.7103
 3477TIP3    H210438   2.786   4.280   2.977  0.9883  2.5722  1.1675
 3478TIP3   OH210439   3.766   3.142   0.793 -0.4337  0.0606  0.2141
 3478TIP3    H110440   3.750   3.228   0.754 -0.7994  0.7789  1.8280
 3478TIP3    H210441   3.732   3.080   0.730  0.8247  1.0205 -1.4988
 3479TIP3   OH210442   0.290   2.061   4.770 -0.2727 -0.2529  0.2166
 3479TIP3    H110443   0.197   2.082   4.777 -0.7549 -2.1912  0.2902
 3479TIP3    H210444   0.332   2.144   4.750 -2.1358  0.4789 -0.9091
 3480TIP3   OH210445   6.359   0.019   2.863 -0.7174 -0.0735 -0.4002
 3480TIP3    H110446   6.300   0.088   2.891 -0.8622  0.0237 -0.9355
 3480TIP3    H210447   6.355  -0.046   2.933 -3.0335 -1.0262 -1.3101
 3481TIP3   OH210448   2.354   4.475   0.243  0.4008 -0.4116  0.1157
 3481TIP3    H110449   2.335   4.433   0.327 -2.0360 -0.1444 -0.2310
 3481TIP3    H210450   2.383   4.403   0.187 -2.5140 -1.5533 -0.1132
 3482TIP3   OH210451   0.661   0.592   1.916  0.4051  0.1311  0.0919
 3482TIP3    H110452   0.624   0.509   1.889 -0.5100  0.7918 -0.7591
 3482TIP3    H210453   0.624   0.608   2.003 -0.1313  0.0750 -0.1231
 3483TIP3   OH210454   3.941   1.413   3.791  0.7123  0.5647 -0.1818
 3483TIP3    H110455   3.919   1.423   3.883  0.5494 -0.8038 -0.0437
 3483TIP3    H210456   3.972   1.499   3.763 -0.1375  1.2384  0.8989
 3484TIP3   OH210457   4.653   3.607   1.928 -0.5732  0.0595 -0.2049
 3484TIP3    H110458   4.675   3.646   1.843  0.9383 -1.0498 -0.3699
 3484TIP3    H210459   4.698   3.522   1.928 -1.2549 -0.3416  1.3643
 3485TIP3   OH210460   1.948   4.377   1.168  0.3043  0.1236  0.7404
 3485TIP3    H110461   1.971   4.420   1.250  1.7102  0.1035  0.3952
 3485TIP3    H210462   2.022   4.397   1.109  0.8384 -2.4047  0.4448
 3486TIP3   OH210463   2.127   3.411   4.701 -0.1017 -0.1559  0.0709
 3486TIP3    H110464   2.088   3.346   4.759 -1.7604  0.4172 -0.3346
 3486TIP3    H210465   2.063   3.422   4.631  1.1829  0.2517 -1.0870
 3487TIP3   OH210466   2.614   5.477   2.031 -0.1392  0.4018 -0.0131
 3487TIP3    H110467   2.642   5.416   1.963  1.5610  0.8038  0.2761
 3487TIP3    H210468   2.546   5.430   2.080  1.7665 -1.6507  0.8026
 3488TIP3   OH210469   1.712   0.453   2.138 -0.1844  0.4115  0.5624
 3488TIP3    H110470   1.740   0.479   2.051 -0.1370 -0.7488  0.2049
 3488TIP3    H210471   1.758   0.512   2.197  1.4388 -0.1193 -0.1048
 3489TIP3   OH210472   3.792   0.898   1.812 -0.2023 -0.1981 -0.4601
 3489TIP3    H110473   3.805   0.877   1.719  2.2560  0.5175 -0.3517
 3489TIP3    H210474   3.821   0.820   1.859 -1.4360 -0.5563 -0.2533
 3490TIP3   OH210475   1.783   1.132   4.890 -0.2303  0.2867 -0.1229
 3490TIP3    H110476   1.838   1.077   4.945  0.9790  0.8152 -0.7620
 3490TIP3    H210477   1.734   1.187   4.952 -0.3976 -0.5199  0.4642
 3491TIP3   OH210478   1.314   5.370   4.559  0.3076  0.6219 -0.8326
 3491TIP3    H110479   1.224   5.401   4.548  0.0422  0.4172  0.5860
 3491TIP3    H210480   1.368   5.445   4.534 -0.2319  0.6754 -1.9244
 3492TIP3   OH210481   5.648   3.617   0.421 -0.0630 -0.0148  0.3426
 3492TIP3    H110482   5.667   3.696   0.473  3.3082 -0.4934  0.0587
 3492TIP3    H210483   5.672   3.544   0.479  0.1790 -0.7044 -0.6053
 3493TIP3   OH210484   4.912   5.034   0.202 -0.3697 -0.3838  0.2067
 3493TIP3    H110485   4.879   5.094   0.269 -3.7345 -0.3751 -1.2541
 3493TIP3    H210486   4.974   5.086   0.151 -1.7163  1.2883  0.1891
 3494TIP3   OH210487   1.706   3.966   3.963 -0.2187  0.9940 -0.1264
 3494TIP3    H110488   1.725   3.885   3.915  0.5249  0.1902  1.4253
 3494TIP3    H210489   1.629   3.945   4.016  1.7519  0.1470  2.6382
 3495TIP3   OH210490   0.545   2.897   3.614 -0.2975 -0.0781  0.5376
 3495TIP3    H110491   0.492   2.969   3.648  0.1929  0.2874  0.5395
 3495TIP3    H210492   0.552   2.836   3.687 -1.0478 -0.3259  0.4140
 3496TIP3   OH210493   0.752   2.245   0.640  0.2346  0.2908  0.1305
 3496TIP3    H110494   0.777   2.333   0.612 -4.4681  1.4707 -1.3930
 3496TIP3    H210495   0.759   2.192   0.560  0.4984 -0.0233  0.3621
 3497TIP3   OH210496   5.205   5.435   0.886 -0.6454  0.7287 -0.3577
 3497TIP3    H110497   5.290   5.473   0.910  0.5392 -1.0486 -1.4401
 3497TIP3    H210498   5.210   5.424   0.791 -0.8725 -1.9720 -0.1520
 3498TIP3   OH210499   0.963   1.445   0.394  0.3724 -0.2878 -0.4379
 3498TIP3    H110500   0.984   1.426   0.485 -0.8820  0.2216 -0.0187
 3498TIP3    H210501   0.929   1.362   0.360 -1.5158  0.1225  0.3052
 3499TIP3   OH210502   3.658   3.643   3.726  0.0389 -0.3703 -0.3695
 3499TIP3    H110503   3.601   3.706   3.682  0.9408  1.1967  0.6141
 3499TIP3    H210504   3.728   3.626   3.663 -0.1973 -0.3941 -0.6296
 3500TIP3   OH210505   6.280   1.449   0.828  0.1238 -0.3036 -0.2015
 3500TIP3    H110506   6.190   1.455   0.858  0.1508 -0.6436 -0.0459
 3500TIP3    H210507   6.294   1.529   0.777 -0.2481 -0.2284 -0.1879
 3501TIP3   OH210508   6.129   5.177   2.773 -0.0575 -0.0560  0.1587
 3501TIP3    H110509   6.112   5.094   2.728  0.2555 -1.0080  1.7202
 3501TIP3    H210510   6.187   5.225   2.713 -0.6795 -0.7203 -1.0102
 3502TIP3   OH210511   0.832   1.544   2.047  0.3651  0.8252 -0.2582
 3502TIP3    H110512   0.845   1.632   2.010 -0.4084  0.5526 -1.2073
 3502TIP3    H210513   0.862   1.484   1.979  1.0573  0.3422  0.4577
 3503TIP3   OH210514   5.138   5.170   3.675  0.2540 -0.2914  0.0243
 3503TIP3    H110515   5.216   5.115   3.679  0.5044  0.0772  0.3134
 3503TIP3    H210516   5.143   5.224   3.754  0.2514  0.4614 -0.4749
 3504TIP3   OH210517   3.998   5.085   0.036  0.3642  0.0923  0.2106
 3504TIP3    H110518   4.051   5.155  -0.003 -0.5199  1.0854  0.7365
 3504TIP3    H210519   4.017   5.091   0.130  1.5673 -1.4989  0.0995
 3505TIP3   OH210520   2.471   1.235   1.983  0.1295  0.2397  0.0049
 3505TIP3    H110521   2.427   1.298   1.925 -0.6560 -0.4840 -0.2045
 3505TIP3    H210522   2.405   1.212   2.048  0.3253 -0.5653 -0.0739
 3506TIP3   OH210523   1.243   0.471   3.309  0.2404  0.6357  0.2255
 3506TIP3    H110524   1.149   0.461   3.294  0.0867  0.6222  1.1243
 3506TIP3    H210525   1.275   0.521   3.234 -0.6023  1.1926  0.2257
 3507TIP3   OH210526   0.640   1.461   1.480 -0.1386 -0.4408 -0.5806
 3507TIP3    H110527   0.552   1.426   1.466  0.4014 -1.3886 -1.7258
 3507TIP3    H210528   0.627   1.555   1.494 -1.3039 -0.5364 -0.9711
 3508TIP3   OH210529   1.284   4.741   2.212  0.3576 -0.2264  0.3180
 3508TIP3    H110530   1.195   4.712   2.229  0.3134 -0.4416 -0.2480
 3508TIP3    H210531   1.275   4.829   2.176  0.2129 -0.9967 -1.6621
 3509TIP3   OH210532   0.573   3.099   4.002 -0.0217 -0.6786 -0.4266
 3509TIP3    H110533   0.479   3.079   4.004  0.3362 -2.4978  0.0947
 3509TIP3    H210534   0.590   3.121   3.910 -0.9751 -0.2252 -0.5066
 3510TIP3   OH210535   5.285   0.441   3.569  0.1649 -0.5000 -0.5299
 3510TIP3    H110536   5.308   0.495   3.644 -0.4287  0.5457 -1.0720
 3510TIP3    H210537   5.260   0.356   3.607 -2.8448  0.8176  0.7865
 3511TIP3   OH210538   6.370   2.309   1.735 -0.2791  0.1626  0.4629
 3511TIP3    H110539   6.291   2.258   1.752 -1.0547  0.9353 -0.6177
 3511TIP3    H210540   6.393   2.287   1.644  1.1792 -0.6017  0.9984
 3512TIP3   OH210541   5.668   4.527   3.354 -0.6649 -0.0423 -0.2009
 3512TIP3    H110542   5.613   4.597   3.390 -1.3176 -0.5335 -0.2303
 3512TIP3    H210543   5.672   4.546   3.260 -1.6974 -0.6101 -0.3751
 3513TIP3   OH210544   3.151   2.036   1.228  0.3202  0.6860 -0.0570
 3513TIP3    H110545   3.146   2.131   1.236  0.9779  0.6453  1.0454
 3513TIP3    H210546   3.166   2.005   1.317  0.0554 -0.4649 -0.3898
 3514TIP3   OH210547   1.818   0.677   2.302  0.1864 -0.2451 -0.4597
 3514TIP3    H110548   1.847   0.636   2.383 -0.9144  0.0072  0.0881
 3514TIP3    H210549   1.792   0.765   2.328  2.1969  0.7521 -1.5559
 3515TIP3   OH210550   3.790   0.415   4.716 -0.6490  0.1246 -0.0134
 3515TIP3    H110551   3.809   0.356   4.642 -0.3308  0.0953  0.0923
 3515TIP3    H210552   3.843   0.493   4.699 -0.7236  0.1963  0.0850
 3516TIP3   OH210553   1.087   1.806   3.148 -0.0350  0.2138 -0.8837
 3516TIP3    H110554   0.993   1.816   3.162  0.0600 -0.2895  0.1820
 3516TIP3    H210555   1.126   1.882   3.190  0.1600 -0.6470  0.5721
 3517TIP3   OH210556   4.826   3.407   3.861  0.0897  0.1616  0.8913
 3517TIP3    H110557   4.746   3.437   3.903 -0.1734  0.9446 -0.1146
 3517TIP3    H210558   4.895   3.465   3.892  0.3577 -0.7264  2.0236
 3518TIP3   OH210559   4.517   3.990   4.592 -0.3035 -0.0647 -0.2059
 3518TIP3    H110560   4.594   4.033   4.629 -0.2711 -0.0453 -0.2958
 3518TIP3    H210561   4.548   3.905   4.563 -0.8022 -1.0240  1.8936
 3519TIP3   OH210562   1.576   1.014   3.777  0.1706 -0.1175 -0.3513
 3519TIP3    H110563   1.487   1.045   3.759  0.4910  2.0323  1.2559
 3519TIP3    H210564   1.565   0.947   3.845 -0.2540 -0.1100 -0.4114
 3520TIP3   OH210565   1.803   3.764   1.882 -0.2335  0.4391 -0.6060
 3520TIP3    H110566   1.716   3.798   1.902  0.1482  0.4919  1.1798
 3520TIP3    H210567   1.788   3.697   1.815 -1.6407  0.4508 -0.3288
 3521TIP3   OH210568   0.440   0.588   1.637 -0.1998 -0.1860 -0.2123
 3521TIP3    H110569   0.395   0.652   1.692  1.6829 -0.3370  1.6278
 3521TIP3    H210570   0.441   0.508   1.690  0.8301 -0.6175 -0.8596
 3522TIP3   OH210571   1.833   4.824   2.501 -0.0658  0.5079  0.4753
 3522TIP3    H110572   1.812   4.752   2.441  0.2682  0.1422  0.7873
 3522TIP3    H210573   1.772   4.813   2.574  1.3712 -0.7745  1.5573
 3523TIP3   OH210574   4.576   2.948   3.650  0.1813 -0.4242  0.3907
 3523TIP3    H110575   4.665   2.984   3.651 -0.0680  0.5852 -2.5951
 3523TIP3    H210576   4.538   2.976   3.733  1.1029  3.5383 -0.3271
 3524TIP3   OH210577   6.178   3.378   4.888 -0.8867 -0.4830 -0.6194
 3524TIP3    H110578   6.187   3.425   4.970  1.3765  1.0627 -1.6669
 3524TIP3    H210579   6.128   3.437   4.832  0.7288  0.1232 -1.4782
 3525TIP3   OH210580   2.030   1.031   0.483 -0.2356  0.5363 -0.4379
 3525TIP3    H110581   1.939   1.013   0.459 -0.7295  1.3698  0.7013
 3525TIP3    H210582   2.080   1.013   0.403 -1.4436  0.4674 -1.2061
 3526TIP3   OH210583   4.132   3.859   3.532  0.5991 -0.4200  0.0880
 3526TIP3    H110584   4.209   3.915   3.541  0.1747  0.4413 -1.2400
 3526TIP3    H210585   4.096   3.883   3.446 -1.3703 -0.5204  0.8484
 3527TIP3   OH210586   3.517   5.055   3.690  0.2606 -0.4458  0.4709
 3527TIP3    H110587   3.446   5.116   3.709  0.3672  0.4972 -1.8882
 3527TIP3    H210588   3.597   5.105   3.705  0.4990 -1.3042  2.4592
 3528TIP3   OH210589   5.173   3.334   0.238 -0.5408  0.1588  0.0968
 3528TIP3    H110590   5.134   3.417   0.265 -2.2175 -0.2730 -0.8736
 3528TIP3    H210591   5.257   3.332   0.283  0.1087  2.9255 -0.7969
 3529TIP3   OH210592   5.693   0.006   0.283  0.4922  0.4508 -0.1994
 3529TIP3    H110593   5.783   0.035   0.267  0.6576 -0.8324 -1.8600
 3529TIP3    H210594   5.640   0.064   0.229  0.3960  0.6198  0.0743
 3530TIP3   OH210595   2.839   5.260   2.747 -0.2289 -0.2742 -0.1761
 3530TIP3    H110596   2.850   5.308   2.665  2.0191 -0.7976 -0.2367
 3530TIP3    H210597   2.833   5.169   2.721 -0.9188 -0.3370  0.1725
 3531TIP3   OH210598   4.705   0.801   4.023 -0.3591  0.9191 -0.2366
 3531TIP3    H110599   4.617   0.839   4.027  0.4108  2.8347 -0.4547
 3531TIP3    H210600   4.691   0.709   3.998 -2.2973  1.0981  0.0813
 3532TIP3   OH210601   1.193   0.211   4.569  0.0408  0.3127  0.3603
 3532TIP3    H110602   1.213   0.221   4.476  0.0695  0.1279  0.3462
 3532TIP3    H210603   1.253   0.271   4.613  0.1973  0.2210  0.2743
 3533TIP3   OH210604   6.322   0.172   2.119 -0.2857 -0.1533 -0.2923
 3533TIP3    H110605   6.418   0.173   2.120 -0.2391  1.4565  2.2169
 3533TIP3    H210606   6.297   0.264   2.122 -1.8830 -0.5876  1.0379
 3534TIP3   OH210607   3.856   4.299   2.038  0.2890  0.1863 -0.6806
 3534TIP3    H110608   3.875   4.222   2.092  1.9712 -0.6879 -2.3974
 3534TIP3    H210609   3.762   4.313   2.048  0.4548 -0.2146  2.0285
 3535TIP3   OH210610   6.231   3.115   4.991  0.6745  0.1319  0.0816
 3535TIP3    H110611   6.206   3.123   5.083  0.8383  0.8549  0.0685
 3535TIP3    H210612   6.187   3.189   4.948  2.1071  0.9143 -0.0971
 3536TIP3   OH210613   0.315   5.344   5.077  0.4350 -1.0476  0.4704
 3536TIP3    H110614   0.357   5.326   4.993  0.7300  0.7717  0.1813
 3536TIP3    H210615   0.306   5.440   5.080  0.9592 -0.9917  2.7483
 3537TIP3   OH210616   3.022   4.884   3.416 -0.1453 -0.0654  0.7608
 3537TIP3    H110617   2.949   4.941   3.391  0.9827  1.4842  0.8404
 3537TIP3    H210618   2.991   4.796   3.398 -0.7006  0.7181 -2.9532
 3538TIP3   OH210619   2.217   4.870   3.078  0.1066 -0.0918  0.1369
 3538TIP3    H110620   2.214   4.899   2.987  1.6913 -0.4851 -0.0696
 3538TIP3    H210621   2.164   4.934   3.126 -0.2184  0.4819 -0.9620
 3539TIP3   OH210622   1.195   4.843   2.624  0.5958  0.1372  0.3280
 3539TIP3    H110623   1.128   4.863   2.560  3.7781  0.8274 -3.1016
 3539TIP3    H210624   1.238   4.927   2.642  1.4204 -0.4721  1.3814
 3540TIP3   OH210625   0.062   5.221   5.183 -0.0017  0.1602  0.0679
 3540TIP3    H110626   0.081   5.129   5.167  0.2370  0.1637  0.3182
 3540TIP3    H210627   0.147   5.265   5.176  0.0144  0.2470  0.7094
 3541TIP3   OH210628   3.432   5.220   2.631  0.3514  0.1467 -0.0522
 3541TIP3    H110629   3.482   5.291   2.593 -1.5175  1.1837 -0.7204
 3541TIP3    H210630   3.340   5.245   2.618 -0.3747 -1.2634  1.7997
 3542TIP3   OH210631   4.094   3.010   4.890  0.0157  0.7697 -0.6715
 3542TIP3    H110632   4.152   2.939   4.920 -0.8609  1.2114  2.4995
 3542TIP3    H210633   4.137   3.090   4.921 -1.3484  1.2193  0.1204
 3543TIP3   OH210634   0.296   4.951   3.756  0.3167 -0.1604 -0.3667
 3543TIP3    H110635   0.297   4.986   3.845 -1.7039  1.5823 -0.9472
 3543TIP3    H210636   0.373   4.990   3.714  0.1771  0.6324  0.0836
 3544TIP3   OH210637   2.227   1.997   1.459 -0.3249 -0.2494 -0.0236
 3544TIP3    H110638   2.182   1.996   1.374 -2.3234 -0.9219  0.9776
 3544TIP3    H210639   2.208   2.084   1.495 -1.7449 -0.8734  0.8211
 3545TIP3   OH210640   1.922   3.926   4.951  0.0384  0.3191 -0.1496
 3545TIP3    H110641   1.949   3.848   4.901  2.6977  1.3545 -0.5191
 3545TIP3    H210642   1.871   3.891   5.024  0.9412 -1.7823 -0.4481
 3546TIP3   OH210643   0.135   4.180   2.702 -0.9720  0.1760  0.2634
 3546TIP3    H110644   0.090   4.212   2.623  0.1560 -0.6574 -0.7544
 3546TIP3    H210645   0.093   4.097   2.721  0.4192 -0.8893 -1.0314
 3547TIP3   OH210646   2.607   3.796   0.441  0.6687 -0.2344 -0.4048
 3547TIP3    H110647   2.525   3.795   0.392  0.5024  1.5390 -0.2203
 3547TIP3    H210648   2.629   3.889   0.450  1.6849 -0.5858  1.2260
 3548TIP3   OH210649   0.400   4.165   1.278  0.6534 -0.5373  0.6751
 3548TIP3    H110650   0.348   4.245   1.280  0.7803 -0.4060 -0.5885
 3548TIP3    H210651   0.373   4.117   1.356 -0.8584 -0.1525  0.4121
 3549TIP3   OH210652   6.322   5.827   1.779  0.5343 -0.0885 -0.6703
 3549TIP3    H110653   6.230   5.821   1.801  0.2259  1.9808 -1.2004
 3549TIP3    H210654   6.360   5.744   1.809 -1.3281 -0.6498  0.2369
 3550TIP3   OH210655   3.488   2.643   2.219 -0.3168 -0.1321  0.1432
 3550TIP3    H110656   3.509   2.675   2.132  2.3675  0.6201  0.9519
 3550TIP3    H210657   3.429   2.709   2.255 -0.2713  0.3206 -0.5925
 3551TIP3   OH210658   3.116   2.622   1.008  0.4842  0.3900  0.1045
 3551TIP3    H110659   3.093   2.594   0.920  0.4555 -0.7432  0.4555
 3551TIP3    H210660   3.197   2.577   1.027 -1.1387 -2.0481  1.8548
 3552TIP3   OH210661   1.249   1.561   2.148  0.0869 -0.8433  0.0367
 3552TIP3    H110662   1.312   1.596   2.211 -0.6596 -1.1706  0.9773
 3552TIP3    H210663   1.164   1.578   2.187 -0.3693 -1.5383 -0.6338
 3553TIP3   OH210664   0.236   2.704   4.614  0.3063 -0.2899  0.3725
 3553TIP3    H110665   0.204   2.619   4.647  0.1014  0.1503  1.3487
 3553TIP3    H210666   0.326   2.687   4.586 -0.4829 -1.3816 -1.7136
 3554TIP3   OH210667   5.434   3.149   2.491 -0.6677 -0.1318  0.9417
 3554TIP3    H110668   5.403   3.214   2.428  2.5428 -1.5140 -2.4597
 3554TIP3    H210669   5.390   3.068   2.465  0.1213 -0.5552  0.8814
 3555TIP3   OH210670   1.216   2.304   4.062 -0.2656 -0.2558 -0.0084
 3555TIP3    H110671   1.153   2.342   4.123 -2.6716 -1.7438 -1.3886
 3555TIP3    H210672   1.302   2.321   4.101 -1.4432  2.3395  1.7165
 3556TIP3   OH210673   2.617   0.085   4.384  0.0317  0.4102  0.2746
 3556TIP3    H110674   2.563   0.163   4.371 -1.5724 -0.9012 -1.7485
 3556TIP3    H210675   2.604   0.061   4.475  0.0386  2.1127  0.7508
 3557TIP3   OH210676   4.644   4.176   0.418  0.1999 -0.3666  0.1375
 3557TIP3    H110677   4.714   4.241   0.421  0.1399 -0.2188 -1.3099
 3557TIP3    H210678   4.589   4.203   0.345 -1.3818 -0.4867  1.2168
 3558TIP3   OH210679   2.777   3.101   4.750  0.1078 -0.1962 -0.0237
 3558TIP3    H110680   2.791   3.182   4.702  0.4391 -0.0829  0.2594
 3558TIP3    H210681   2.769   3.129   4.842  1.3657 -0.5834  0.2246
 3559TIP3   OH210682   4.718   0.750   0.726  0.5767 -0.0112 -0.5901
 3559TIP3    H110683   4.714   0.845   0.722  1.6827  0.1750  1.2648
 3559TIP3    H210684   4.680   0.720   0.644  0.3166  2.0285 -1.2578
 3560TIP3   OH210685   0.869   3.868   1.465  0.0181 -0.3440 -0.5285
 3560TIP3    H110686   0.808   3.804   1.428  0.0911 -0.7451  0.0288
 3560TIP3    H210687   0.815   3.922   1.523  0.1690 -0.6150 -0.1363
 3561TIP3   OH210688   0.938   3.484   0.883  0.1283 -0.3702  0.1051
 3561TIP3    H110689   0.956   3.571   0.920  3.8786 -1.1240  0.4024
 3561TIP3    H210690   0.897   3.502   0.798  1.1352  1.7107 -0.0033
 3562TIP3   OH210691   1.372   5.909   3.991  0.1125  0.4376 -0.4171
 3562TIP3    H110692   1.403   5.917   3.900  1.6799 -0.9917 -0.0566
 3562TIP3    H210693   1.451   5.892   4.042 -0.8583  0.2360  1.0884
 3563TIP3   OH210694   1.397   1.603   2.369  0.6821 -0.1824  0.1965
 3563TIP3    H110695   1.388   1.561   2.454 -0.8222 -0.6997 -0.1760
 3563TIP3    H210696   1.491   1.610   2.355  1.0376 -3.4061  0.3190
 3564TIP3   OH210697   3.347   1.464   1.091  0.0496 -0.0947  0.2657
 3564TIP3    H110698   3.319   1.455   1.000 -0.3203  1.0558  0.2450
 3564TIP3    H210699   3.300   1.541   1.122  2.0332  0.9800  0.7071
 3565TIP3   OH210700   0.858   4.200   5.140  0.1528  0.0918  0.4306
 3565TIP3    H110701   0.782   4.186   5.084  0.4187 -1.3692  0.3786
 3565TIP3    H210702   0.933   4.174   5.085  0.4153 -1.3852  1.4147
 3566TIP3   OH210703   3.683   3.581   0.146  0.7223 -0.6299  0.7335
 3566TIP3    H110704   3.662   3.673   0.129 -1.4023 -1.2826 -0.4380
 3566TIP3    H210705   3.736   3.584   0.226  0.5907  1.5887  0.8124
 3567TIP3   OH210706   0.467   1.079   2.723 -0.2965  0.5355 -0.2421
 3567TIP3    H110707   0.511   1.072   2.638 -0.4292 -1.1309 -0.2141
 3567TIP3    H210708   0.407   1.004   2.725 -0.7083  0.8705  1.0995
 3568TIP3   OH210709   5.241   2.172   2.199 -0.0830  0.5675  0.1233
 3568TIP3    H110710   5.242   2.208   2.110 -0.1867 -1.1387 -0.6092
 3568TIP3    H210711   5.261   2.079   2.188  2.8624  0.8050  2.1610
 3569TIP3   OH210712   4.360   4.746   3.247 -0.5159  0.3320 -0.6090
 3569TIP3    H110713   4.387   4.697   3.325 -1.7023  0.4582 -0.0963
 3569TIP3    H210714   4.405   4.830   3.255  1.3547 -0.5327 -1.3757
 3570TIP3   OH210715   2.268   5.427   2.822  0.2198  0.1031  0.4029
 3570TIP3    H110716   2.262   5.365   2.750 -1.4310 -0.4747  1.0104
 3570TIP3    H210717   2.349   5.476   2.805  0.5129 -0.8762 -1.1336
 3571TIP3   OH210718   4.297   3.843   1.950 -0.6435  0.2760  0.3570
 3571TIP3    H110719   4.274   3.834   2.043  0.4127 -0.0279  0.6088
 3571TIP3    H210720   4.376   3.898   1.951 -0.2616 -0.2446 -0.3118
 3572TIP3   OH210721   0.497   5.537   3.853 -0.0491  0.1632  0.4824
 3572TIP3    H110722   0.562   5.590   3.807 -1.1324 -0.5364 -1.9892
 3572TIP3    H210723   0.446   5.599   3.904  0.5912  1.1059 -0.0048
 3573TIP3   OH210724   1.862   3.640   0.699  0.1825  1.1343  0.2327
 3573TIP3    H110725   1.777   3.678   0.722 -0.5168  1.2253 -2.2453
 3573TIP3    H210726   1.840   3.556   0.659  1.4782 -0.0689  1.8894
 3574TIP3   OH210727   3.509   3.848   3.147 -0.0815 -0.3342 -0.1598
 3574TIP3    H110728   3.544   3.864   3.235  1.5783 -1.4476 -0.5573
 3574TIP3    H210729   3.507   3.934   3.106 -0.7239  0.1741  0.9051
 3575TIP3   OH210730   3.549   3.651   2.177 -0.2211 -0.0196 -0.6032
 3575TIP3    H110731   3.579   3.705   2.104 -0.1240  0.0110 -0.5402
 3575TIP3    H210732   3.573   3.562   2.152  0.4582  0.0667 -0.2885
 3576TIP3   OH210733   5.928   4.054   2.966  0.0630 -0.3015 -0.4739
 3576TIP3    H110734   5.980   4.002   3.027  0.5024  0.4322 -0.2127
 3576TIP3    H210735   5.837   4.042   2.995  0.3904  1.7712  1.7512
 3577TIP3   OH210736   3.595   3.844   0.078 -0.9062  0.4254  0.4636
 3577TIP3    H110737   3.657   3.911   0.048  1.7015 -1.1199  1.9658
 3577TIP3    H210738   3.575   3.869   0.168  1.4656 -1.5307  1.6624
 3578TIP3   OH210739   1.609   1.485   3.016  0.0726  0.2564 -0.1503
 3578TIP3    H110740   1.643   1.407   3.060 -1.4809 -0.8540 -0.8366
 3578TIP3    H210741   1.541   1.518   3.075  1.1187  1.4780  0.4194
 3579TIP3   OH210742   0.310   5.218   0.908 -0.2364  0.1852  0.1492
 3579TIP3    H110743   0.389   5.273   0.904 -0.8946  1.1374 -0.1542
 3579TIP3    H210744   0.328   5.145   0.849  0.1558  0.7566 -0.4538
 3580TIP3   OH210745   2.284   4.734   0.944 -0.1287  0.7133  0.6556
 3580TIP3    H110746   2.320   4.792   0.877 -0.0603 -0.6009 -0.5091
 3580TIP3    H210747   2.360   4.693   0.984 -0.2058  0.7431  0.8355
 3581TIP3   OH210748   5.432   0.366   4.728  0.7943 -0.3771 -0.4076
 3581TIP3    H110749   5.383   0.427   4.672  0.7536  0.5471  0.5943
 3581TIP3    H210750   5.492   0.322   4.669  1.5442  1.3923 -1.0217
 3582TIP3   OH210751   1.699   2.776   1.470  0.1740  0.4795 -0.4730
 3582TIP3    H110752   1.616   2.728   1.468  0.8507 -0.7540 -0.0028
 3582TIP3    H210753   1.681   2.856   1.421 -0.9917 -0.2582 -1.3139
 3583TIP3   OH210754   1.221   2.262   1.394  0.2965  0.2623  0.5223
 3583TIP3    H110755   1.230   2.221   1.308  1.4088 -2.6129  1.8651
 3583TIP3    H210756   1.129   2.253   1.415 -0.5276  3.2391 -1.2752
 3584TIP3   OH210757   4.581   4.794   1.980 -0.4549 -0.2554 -0.0002
 3584TIP3    H110758   4.592   4.722   2.041 -0.3440  0.0769  0.3750
 3584TIP3    H210759   4.605   4.872   2.030 -0.2096  0.0006 -0.5149
 3585TIP3   OH210760   4.297   4.849   5.175 -0.1527  0.3402 -0.0328
 3585TIP3    H110761   4.315   4.757   5.191 -0.1757  0.4637  0.7444
 3585TIP3    H210762   4.203   4.853   5.159 -0.4297  0.4014  1.4198
 3586TIP3   OH210763   5.727   1.348   0.183 -0.2264 -0.2026 -0.7827
 3586TIP3    H110764   5.757   1.401   0.258 -0.5755 -0.7727 -0.2308
 3586TIP3    H210765   5.634   1.369   0.175 -0.4862 -1.1037 -0.2366
 3587TIP3   OH210766   2.014   1.291   3.533  0.2698 -0.4039  0.7521
 3587TIP3    H110767   1.945   1.224   3.536 -1.2285  1.0936  2.7205
 3587TIP3    H210768   2.057   1.277   3.449 -1.0728 -2.7515  0.3640
 3588TIP3   OH210769   1.693   4.235   0.897  0.0364 -0.0379  0.0588
 3588TIP3    H110770   1.783   4.266   0.883 -0.2700  0.3447 -1.2461
 3588TIP3    H210771   1.638   4.306   0.862 -0.7204 -1.0530 -0.8714
 3589TIP3   OH210772   3.134   0.776   0.031 -0.8165  0.3291 -0.2401
 3589TIP3    H110773   3.204   0.778  -0.034 -0.7018 -0.5737 -0.1612
 3589TIP3    H210774   3.102   0.866   0.035  0.1987  0.7134 -0.4337
 3590TIP3   OH210775   4.876   1.472   1.338  0.3930  0.2222  0.3807
 3590TIP3    H110776   4.967   1.465   1.364  0.6918  0.7211 -0.4922
 3590TIP3    H210777   4.876   1.537   1.267 -0.6823  0.4946  0.6137
 3591TIP3   OH210778   3.255   4.538  -0.004 -0.0817 -0.1058  0.0192
 3591TIP3    H110779   3.209   4.614   0.031 -0.7224  0.4534 -1.8900
 3591TIP3    H210780   3.233   4.466   0.055 -0.4900  0.9218  1.1448
 3592TIP3   OH210781   3.192   0.463   2.580  0.1488 -0.2614 -0.2428
 3592TIP3    H110782   3.158   0.374   2.585 -1.5036  0.1242 -2.6341
 3592TIP3    H210783   3.222   0.472   2.489  0.5809  1.5034  0.0319
 3593TIP3   OH210784   2.507   3.680   4.565  0.1272  0.0184  0.1488
 3593TIP3    H110785   2.484   3.594   4.598  0.5552  0.2783  1.1575
 3593TIP3    H210786   2.470   3.742   4.628 -1.3970  0.6529 -1.2978
 3594TIP3   OH210787   6.134   5.887   2.480 -0.0903  0.0835  0.0869
 3594TIP3    H110788   6.184   5.881   2.399 -2.2165  2.2280 -1.5263
 3594TIP3    H210789   6.131   5.981   2.499 -0.3438 -0.3096  2.2270
 3595TIP3   OH210790   2.893   3.246   3.387 -0.0009  0.3491  0.2135
 3595TIP3    H110791   2.884   3.152   3.403  1.3903  0.0263 -0.7043
 3595TIP3    H210792   2.889   3.255   3.291  0.4305  1.1521  0.2592
 3596TIP3   OH210793   2.878   0.073   0.901 -0.3065  0.1696 -0.2102
 3596TIP3    H110794   2.799   0.067   0.955 -0.5304  0.8689 -0.4518
 3596TIP3    H210795   2.944   0.111   0.959 -0.8730  2.0616 -0.7373
 3597TIP3   OH210796   4.312   5.417   1.559  0.2138  0.0353 -0.0345
 3597TIP3    H110797   4.366   5.439   1.483  0.3220  1.4640  0.4214
 3597TIP3    H210798   4.222   5.417   1.526  0.3239 -0.1457 -0.3319
 3598TIP3   OH210799   0.867   0.250   2.710 -0.1527  0.2003  0.1111
 3598TIP3    H110800   0.925   0.179   2.738  0.4107  0.7656  0.3892
 3598TIP3    H210801   0.926   0.316   2.674 -0.8356 -0.8327 -3.2958
 3599TIP3   OH210802   4.227   0.383   1.643  0.1426  0.2763  0.9684
 3599TIP3    H110803   4.313   0.418   1.619  1.8852 -3.0819  1.7066
 3599TIP3    H210804   4.198   0.335   1.565 -0.0171 -0.3839  1.4212
 3600TIP3   OH210805   4.884   2.071   0.049 -0.1336 -0.2320  0.6213
 3600TIP3    H110806   4.939   2.072  -0.029 -0.5028  0.8631  0.3641
 3600TIP3    H210807   4.889   1.980   0.080  2.1345 -0.0677  0.8597
 3601TIP3   OH210808   4.491   5.523   4.322 -1.1476 -0.1527 -0.8473
 3601TIP3    H110809   4.560   5.563   4.268 -0.7432 -1.8357 -1.6574
 3601TIP3    H210810   4.418   5.511   4.262 -1.9952  1.1763 -0.1088
 3602TIP3   OH210811   5.588   5.477   2.481 -0.0043 -0.4367 -0.6177
 3602TIP3    H110812   5.631   5.536   2.543  1.7743  0.6896 -2.8139
 3602TIP3    H210813   5.636   5.394   2.490  1.7889  0.3799 -1.9840
 3603TIP3   OH210814   2.694   3.439   4.709 -0.5952 -0.1092  0.8269
 3603TIP3    H110815   2.757   3.511   4.713  0.9589 -1.2220 -1.3210
 3603TIP3    H210816   2.730   3.380   4.642 -2.7798 -1.9405  1.1571
 3604TIP3   OH210817   1.697   1.586   2.407 -0.9898 -0.1498 -0.0371
 3604TIP3    H110818   1.713   1.534   2.485 -2.7328  0.6813  0.9362
 3604TIP3    H210819   1.724   1.675   2.431  0.7036 -0.3022 -1.2197
 3605TIP3   OH210820   6.147   3.005   3.449 -0.6557 -0.9640 -0.4788
 3605TIP3    H110821   6.163   2.996   3.543 -0.5138 -1.2315 -0.5268
 3605TIP3    H210822   6.077   2.943   3.430 -1.1195 -0.4547 -0.4376
 3606TIP3   OH210823   6.109   2.794   2.686  0.3069  0.4681 -0.0277
 3606TIP3    H110824   6.049   2.822   2.754  1.0619  0.7176  0.5556
 3606TIP3    H210825   6.153   2.874   2.658  0.4595  0.2736 -0.3541
 3607TIP3   OH210826   1.784   1.944   4.443 -0.6121 -0.3600  0.2120
 3607TIP3    H110827   1.844   2.002   4.489 -0.9248  0.0747  0.0802
 3607TIP3    H210828   1.696   1.976   4.466 -0.7903 -0.8509  0.2303
 3608TIP3   OH210829   2.542   0.525   3.693  0.2909  0.2951  0.3302
 3608TIP3    H110830   2.539   0.479   3.777  2.0669  0.6622  0.6301
 3608TIP3    H210831   2.510   0.613   3.713 -1.3318 -0.2080  0.1369
 3609TIP3   OH210832   1.477   4.880   4.239  0.6766  0.1109  0.0738
 3609TIP3    H110833   1.428   4.814   4.289  0.5945 -0.5305 -0.8316
 3609TIP3    H210834   1.409   4.926   4.189  0.8212  0.3256  0.0777
 3610TIP3   OH210835   5.409   2.761   0.910 -0.1212 -0.1284  0.0768
 3610TIP3    H110836   5.373   2.675   0.891 -1.9994  0.4743  0.7189
 3610TIP3    H210837   5.334   2.820   0.905  0.8827  1.2781  0.9750
 3611TIP3   OH210838   3.437   1.314   4.382 -0.6458 -0.0913  0.2280
 3611TIP3    H110839   3.462   1.406   4.387 -0.4117 -0.1856  0.9038
 3611TIP3    H210840   3.395   1.295   4.466  1.2800 -1.1413  1.0378
 3612TIP3   OH210841   3.721   5.558   2.129 -0.2173 -0.3946 -0.3248
 3612TIP3    H110842   3.759   5.578   2.044 -1.7151 -0.6206 -1.0736
 3612TIP3    H210843   3.667   5.634   2.150  0.4338 -0.1766  0.6064
 3613TIP3   OH210844   1.773   1.146   1.341 -1.2503  0.1515  0.0995
 3613TIP3    H110845   1.768   1.176   1.432 -1.0971 -1.1351  0.5467
 3613TIP3    H210846   1.866   1.130   1.326 -1.0920  1.6656 -0.7447
 3614TIP3   OH210847   0.522   2.142   4.911 -0.1737  0.4317 -0.0284
 3614TIP3    H110848   0.471   2.062   4.894 -0.8931  0.8850 -0.0500
 3614TIP3    H210849   0.529   2.184   4.825  4.0754 -1.7579 -1.0299
 3615TIP3   OH210850   4.842   4.118   0.913  0.5237 -0.4655  0.1863
 3615TIP3    H110851   4.937   4.121   0.918  0.4635  1.2392  1.0338
 3615TIP3    H210852   4.823   4.038   0.864  2.3292 -1.4817  1.0694
 3616TIP3   OH210853   6.245   1.005   2.979  0.0070 -0.2942  0.6262
 3616TIP3    H110854   6.333   1.036   2.998 -0.3804  0.5363  1.1372
 3616TIP3    H210855   6.199   1.013   3.063 -1.1989  1.5367 -0.1501
 3617TIP3   OH210856   2.979   2.282   1.661 -0.0813 -0.2642 -1.0375
 3617TIP3    H110857   3.020   2.333   1.731 -0.6511 -0.1569 -0.7815
 3617TIP3    H210858   2.929   2.214   1.707 -1.9309  0.8860 -1.2523
 3618TIP3   OH210859   0.058   1.862   4.671 -0.0879 -0.0482 -0.1571
 3618TIP3    H110860   0.023   1.813   4.746  0.9122  0.5581  0.7397
 3618TIP3    H210861   0.150   1.836   4.667 -0.0595  0.1603 -1.0025
 3619TIP3   OH210862   4.041   2.226   0.848 -0.3491  0.0182 -0.2077
 3619TIP3    H110863   4.044   2.322   0.849  3.0358  0.0409  0.4791
 3619TIP3    H210864   4.092   2.201   0.771 -0.6512 -1.2211 -0.0214
 3620TIP3   OH210865   4.618   5.064   0.815  0.7668  0.6197 -0.0828
 3620TIP3    H110866   4.571   4.984   0.791  0.8706  1.2621 -2.7041
 3620TIP3    H210867   4.557   5.134   0.797  1.7607  1.3071 -0.8775
 3621TIP3   OH210868   3.124   2.560   5.196 -0.0925 -0.3260  0.6557
 3621TIP3    H110869   3.093   2.530   5.111  2.0265  1.2278 -0.7794
 3621TIP3    H210870   3.215   2.529   5.201  0.6213  1.6620  1.1994
 3622TIP3   OH210871   0.312   0.007   1.011  0.6493 -0.7962 -0.0135
 3622TIP3    H110872   0.283  -0.036   0.932  0.0501 -0.3154 -0.0624
 3622TIP3    H210873   0.241   0.067   1.034  0.4960 -1.4281  1.2777
 3623TIP3   OH210874   0.612   3.949   1.181  0.2520  0.4742 -0.3021
 3623TIP3    H110875   0.617   3.937   1.086  0.6538 -0.9466 -0.1286
 3623TIP3    H210876   0.642   4.038   1.196 -0.7170  1.0399 -1.5842
 3624TIP3   OH210877   4.195   4.686   1.590  0.1035  0.2011  0.4581
 3624TIP3    H110878   4.267   4.710   1.649  1.4176 -0.4354 -0.7988
 3624TIP3    H210879   4.211   4.594   1.570 -0.5048  0.3145 -0.6165
 3625TIP3   OH210880   2.496   2.286   1.870  0.0484  0.1676 -0.3726
 3625TIP3    H110881   2.561   2.333   1.923 -1.0171 -0.8661  2.0382
 3625TIP3    H210882   2.540   2.204   1.848  0.4889  0.5904 -1.1142
 3626TIP3   OH210883   1.642   4.638   3.804 -0.0846  0.3924 -0.3327
 3626TIP3    H110884   1.597   4.720   3.825 -2.2430 -0.4521 -1.3490
 3626TIP3    H210885   1.662   4.645   3.710 -1.5837 -0.7653 -0.7764
 3627TIP3   OH210886   5.947   0.077   4.168  0.1638  0.3982 -0.0290
 3627TIP3    H110887   5.888   0.002   4.157 -0.0022  0.5726 -0.3329
 3627TIP3    H210888   6.018   0.060   4.105 -0.5383  1.1515 -1.0552
 3628TIP3   OH210889   0.141   0.833   4.460 -0.6759  0.3449  0.1709
 3628TIP3    H110890   0.079   0.899   4.430 -0.3815  0.4553 -0.1992
 3628TIP3    H210891   0.092   0.781   4.524 -1.4499 -0.1849 -0.8357
 3629TIP3   OH210892   0.382   2.554   2.395  0.6195  0.4819  0.0322
 3629TIP3    H110893   0.360   2.599   2.314  0.4476  1.1924  0.4652
 3629TIP3    H210894   0.425   2.621   2.449  1.9985 -0.3343 -0.0027
 3630TIP3   OH210895   5.238   5.410   1.978 -0.1616 -0.2186  0.1833
 3630TIP3    H110896   5.309   5.347   1.990 -1.5144 -1.5980  1.2543
 3630TIP3    H210897   5.249   5.442   1.889  2.3439  0.3252  0.6201
 3631TIP3   OH210898   2.107   3.364   3.913 -0.4785  0.0599 -0.7514
 3631TIP3    H110899   2.074   3.286   3.958 -1.8927  0.3854 -1.1568
 3631TIP3    H210900   2.168   3.331   3.848  1.1360 -0.4727  0.9530
 3632TIP3   OH210901   5.244   3.802   3.814  0.1110 -0.2165 -0.2088
 3632TIP3    H110902   5.308   3.841   3.873  1.9622 -1.1967 -1.4637
 3632TIP3    H210903   5.195   3.740   3.868  0.4138  0.3175  0.6991
 3633TIP3   OH210904   2.555   2.007   1.831 -0.4438 -0.3127  0.5088
 3633TIP3    H110905   2.488   1.984   1.896  0.9039 -0.0412  2.0638
 3633TIP3    H210906   2.627   1.945   1.848 -0.3165 -0.6712 -1.1964
 3634TIP3   OH210907   3.406   5.336   2.982 -0.1761  0.3730 -0.2309
 3634TIP3    H110908   3.480   5.291   2.942  0.3342  0.3120  0.7503
 3634TIP3    H210909   3.410   5.312   3.075  0.7580  3.1981  0.5800
 3635TIP3   OH210910   5.967   2.993   0.942  0.1061 -0.5039  0.3900
 3635TIP3    H110911   5.940   2.981   0.851 -2.3069 -0.8682  1.0765
 3635TIP3    H210912   6.033   3.062   0.939  0.7842 -1.1660 -1.7036
 3636TIP3   OH210913   6.132   4.164   3.554  0.2018 -0.0713 -0.5450
 3636TIP3    H110914   6.139   4.202   3.641  2.0041 -0.4199 -0.5043
 3636TIP3    H210915   6.040   4.140   3.546  0.0636 -0.3874  1.4169
 3637TIP3   OH210916   2.322   5.540   3.308  0.1391  0.0536 -0.2122
 3637TIP3    H110917   2.252   5.506   3.252  0.0002  0.1911 -0.1269
 3637TIP3    H210918   2.282   5.615   3.352 -0.2737 -0.9851  1.2781
 3638TIP3   OH210919   6.097   3.572   4.580  0.1224  0.3566  0.4817
 3638TIP3    H110920   6.131   3.506   4.520 -2.4986 -0.9781  0.3067
 3638TIP3    H210921   6.113   3.655   4.537  0.0548 -0.4416 -1.1447
 3639TIP3   OH210922   1.863   5.289   1.327 -0.1371  0.0483  0.0171
 3639TIP3    H110923   1.943   5.298   1.275  0.4355 -1.6599  0.5292
 3639TIP3    H210924   1.843   5.195   1.325 -0.6290  0.0572  2.0794
 3640TIP3   OH210925   2.344   2.117   4.800 -0.4944  0.1083  0.6695
 3640TIP3    H110926   2.302   2.040   4.838  0.7887 -0.7864  0.3414
 3640TIP3    H210927   2.399   2.151   4.871  0.4362 -0.4428  0.2327
 3641TIP3   OH210928   3.284   3.533   1.454  0.5126  0.5203 -0.2422
 3641TIP3    H110929   3.256   3.445   1.480 -0.9719  1.6652  2.4516
 3641TIP3    H210930   3.206   3.573   1.415  0.1838  1.6498  1.4787
 3642TIP3   OH210931   3.788   2.783   1.436 -0.1914  0.4743 -0.3579
 3642TIP3    H110932   3.834   2.865   1.452 -0.7310  0.9182 -1.0399
 3642TIP3    H210933   3.715   2.783   1.499  0.0370  0.3286 -0.0906
 3643TIP3   OH210934   1.449   5.665   3.833  0.5222  0.1152 -0.1694
 3643TIP3    H110935   1.403   5.749   3.843 -0.9390 -0.7687  0.7603
 3643TIP3    H210936   1.425   5.634   3.746 -0.5615 -0.2758  0.2594
 3644TIP3   OH210937   6.137   3.030   4.527  0.4160 -0.0199 -0.7027
 3644TIP3    H110938   6.064   3.091   4.516 -0.4089 -0.9440 -0.5354
 3644TIP3    H210939   6.207   3.083   4.564  0.7289  1.4829 -3.2370
 3645TIP3   OH210940   3.677   4.866   0.363  0.0994  0.3462  0.1357
 3645TIP3    H110941   3.598   4.921   0.366 -0.5436 -0.5900  1.0740
 3645TIP3    H210942   3.732   4.908   0.298 -0.8653  1.4460 -0.0193
 3646TIP3   OH210943   0.622   0.010   1.514  0.2709  0.2623 -0.4470
 3646TIP3    H110944   0.565   0.065   1.568  1.1754  0.1336  0.6769
 3646TIP3    H210945   0.562  -0.044   1.463 -0.6392 -0.2690  1.1029
 3647TIP3   OH210946   4.940   5.496   4.075 -0.7921  0.8621  0.3163
 3647TIP3    H110947   4.956   5.587   4.102 -0.7444  1.0830 -0.4464
 3647TIP3    H210948   4.904   5.503   3.987 -1.1475  0.1518  0.3988
 3648TIP3   OH210949   0.401   2.067   2.439  0.1468  0.2147  0.1209
 3648TIP3    H110950   0.393   2.155   2.476  1.1240 -0.2415  1.4878
 3648TIP3    H210951   0.373   2.077   2.348  0.1945  1.9189  0.2565
 3649TIP3   OH210952   6.309   0.493   3.055  0.0144  0.2365 -0.0930
 3649TIP3    H110953   6.262   0.430   3.001 -0.1580 -1.5147  1.9789
 3649TIP3    H210954   6.251   0.570   3.058 -1.9413 -1.1845  0.9133
 3650TIP3   OH210955   3.952   2.667   4.467  0.5801  0.0742  0.2559
 3650TIP3    H110956   3.880   2.701   4.414  0.9288 -0.8395 -0.8418
 3650TIP3    H210957   3.954   2.724   4.544 -0.0093  1.3846 -0.6521
 3651TIP3   OH210958   5.346   3.926   1.870 -0.0549  0.1154  0.4124
 3651TIP3    H110959   5.374   4.013   1.842  2.4851 -1.3173 -1.9819
 3651TIP3    H210960   5.399   3.908   1.948 -0.4885  0.6243  0.8341
 3652TIP3   OH210961   0.464   5.821   2.289  0.6182  0.1280 -0.4533
 3652TIP3    H110962   0.520   5.843   2.215  1.5050 -0.1972  0.1085
 3652TIP3    H210963   0.477   5.893   2.351  0.7879 -0.1823 -0.1211
 3653TIP3   OH210964   1.047   0.568   3.862  0.3327  0.5608 -0.1267
 3653TIP3    H110965   1.091   0.532   3.785  0.4151  0.4349 -0.0187
 3653TIP3    H210966   1.117   0.586   3.924  0.0915 -1.3344  0.7599
 3654TIP3   OH210967   0.824   5.614   0.307  0.7315  0.4697  0.4903
 3654TIP3    H110968   0.867   5.529   0.313  1.3353  0.6150 -1.3242
 3654TIP3    H210969   0.786   5.628   0.394  1.2389 -1.3120  1.0289
 3655TIP3   OH210970   0.282   4.127   3.806  0.4204  0.1822 -0.1595
 3655TIP3    H110971   0.197   4.126   3.762  0.3151  2.0429 -0.0664
 3655TIP3    H210972   0.272   4.189   3.877  1.3252 -0.9778  1.0421
 3656TIP3   OH210973   2.366   3.421   2.615  0.1766  0.3563 -0.4396
 3656TIP3    H110974   2.334   3.492   2.671  0.8266 -0.4510  1.0216
 3656TIP3    H210975   2.286   3.381   2.580 -0.3063  0.3622  0.6018
 3657TIP3   OH210976   4.942   1.717   2.343 -0.5142  0.1147  0.0083
 3657TIP3    H110977   4.958   1.812   2.342  0.3996 -0.0237  0.7339
 3657TIP3    H210978   4.899   1.700   2.260 -0.8815  1.2024 -0.0478
 3658TIP3   OH210979   2.532   0.015   0.496  0.0327  0.0856 -0.0920
 3658TIP3    H110980   2.618   0.027   0.536  0.6100  0.9269 -1.5097
 3658TIP3    H210981   2.471   0.054   0.558  0.7806  0.3655  0.4786
 3659TIP3   OH210982   4.116   0.715   3.839  0.0325  0.2500  0.8103
 3659TIP3    H110983   4.067   0.634   3.857  0.1882 -0.4750 -1.6658
 3659TIP3    H210984   4.203   0.685   3.814 -0.4946  0.9205 -2.2709
 3660TIP3   OH210985   2.011   3.138   2.656 -0.1395 -0.7722  0.2976
 3660TIP3    H110986   1.956   3.093   2.592  0.8429 -2.2017  0.4091
 3660TIP3    H210987   1.949   3.167   2.723 -1.0470 -0.1920 -0.7586
 3661TIP3   OH210988   3.205   1.679   3.654 -0.7717  0.2609 -0.1205
 3661TIP3    H110989   3.285   1.642   3.617 -0.6454 -1.0759  1.3857
 3661TIP3    H210990   3.136   1.645   3.597 -0.4590 -0.5899 -0.0158
 3662TIP3   OH210991   2.033   2.417   4.107  0.1706  0.3783  0.1182
 3662TIP3    H110992   1.995   2.444   4.191 -0.8172 -1.9715  0.4889
 3662TIP3    H210993   1.991   2.473   4.042  1.5137  2.7887  1.1691
 3663TIP3   OH210994   2.910   5.069   2.395  0.2554  0.0401 -0.3296
 3663TIP3    H110995   2.967   5.019   2.337  0.1519  0.2403 -0.6070
 3663TIP3    H210996   2.937   5.160   2.382 -0.3446  0.1646 -0.7021
 3664TIP3   OH210997   0.756   2.230   3.902 -0.1105 -0.3461 -0.2784
 3664TIP3    H110998   0.697   2.304   3.918 -0.1867 -0.6053  0.7104
 3664TIP3    H210999   0.797   2.214   3.987  0.4142 -1.0009 -0.6536
 3665TIP3   OH211000   6.263   0.511   4.055 -0.5499  0.0940 -0.2196
 3665TIP3    H111001   6.274   0.423   4.091  0.3793 -0.0612 -0.8543
 3665TIP3    H211002   6.342   0.558   4.081  0.2732 -0.0914 -2.1874
 3666TIP3   OH211003   1.726   0.198   2.238  0.2293  0.0171 -0.9544
 3666TIP3    H111004   1.720   0.292   2.252  2.2774  0.0067  0.3835
 3666TIP3    H211005   1.803   0.186   2.182 -0.9366 -0.8018 -2.4735
 3667TIP3   OH211006   0.225   4.205   1.822  0.1590 -0.2132 -0.2905
 3667TIP3    H111007   0.200   4.114   1.808 -2.2819  0.2481  0.6557
 3667TIP3    H211008   0.203   4.249   1.740 -0.1080 -0.1806 -0.1991
 3668TIP3   OH211009   3.647   5.994   4.960 -0.4918  0.4789  0.4320
 3668TIP3    H111010   3.637   5.911   4.913 -0.8783  0.8517 -0.1509
 3668TIP3    H211011   3.568   6.003   5.012 -1.2879  1.3291 -0.8681
 3669TIP3   OH211012   6.327   5.639   2.751  0.1850 -0.0145 -0.1328
 3669TIP3    H111013   6.389   5.608   2.685 -0.9238 -0.1082 -1.1719
 3669TIP3    H211014   6.326   5.570   2.817  1.0664 -0.0764 -0.1635
 3670TIP3   OH211015   5.510   5.688   1.234 -0.8584 -0.4321 -0.0821
 3670TIP3    H111016   5.592   5.735   1.216  0.4172 -1.7739  1.8233
 3670TIP3    H211017   5.460   5.749   1.288  0.4558 -0.8624  1.7269
 3671TIP3   OH211018   4.951   0.309   3.640 -0.0865 -0.1439  0.9932
 3671TIP3    H111019   4.931   0.223   3.676 -1.0744  0.6828  2.5148
 3671TIP3    H211020   5.025   0.294   3.581  0.1990 -1.9071  1.7483
 3672TIP3   OH211021   0.436   1.445   3.543 -0.1932 -0.2246  0.0259
 3672TIP3    H111022   0.353   1.429   3.500 -0.1097  1.9184 -1.0982
 3672TIP3    H211023   0.499   1.451   3.471  0.2047  2.0188  0.4962
 3673TIP3   OH211024   0.584   2.497   1.823  0.0230 -0.1433 -0.0341
 3673TIP3    H111025   0.630   2.529   1.745  1.3007 -0.7938  0.4300
 3673TIP3    H211026   0.507   2.553   1.829  0.0707  0.1520 -1.5647
 3674TIP3   OH211027   2.645   4.556   3.084 -0.0606 -0.1455 -0.4442
 3674TIP3    H111028   2.560   4.513   3.079 -0.0638 -0.0526 -1.2636
 3674TIP3    H211029   2.674   4.562   2.993  1.1839 -0.9222 -0.1316
 3675TIP3   OH211030   1.858   4.656   1.092 -0.2363 -0.3642  0.0049
 3675TIP3    H111031   1.849   4.565   1.121 -0.8413 -0.5717 -0.8023
 3675TIP3    H211032   1.779   4.699   1.125 -2.1279 -1.1179 -3.1251
 3676TIP3   OH211033   4.586   3.957   3.861  0.1374 -0.2181  0.2609
 3676TIP3    H111034   4.495   3.957   3.830  0.0037 -1.8206  0.5932
 3676TIP3    H211035   4.584   3.906   3.942  1.5109 -1.1597 -0.2732
 3677TIP3   OH211036   1.591   4.545   2.329 -0.6117  0.2543  0.4622
 3677TIP3    H111037   1.653   4.608   2.293 -0.6435  1.0059  1.6629
 3677TIP3    H211038   1.552   4.590   2.404 -0.1066 -1.4319  1.8035
 3678TIP3   OH211039   5.270   1.250   2.909 -0.1759  0.2443 -0.0105
 3678TIP3    H111040   5.342   1.230   2.968 -0.4298  0.6647  0.4536
 3678TIP3    H211041   5.210   1.175   2.918 -0.8625  0.9093  1.3073
 3679TIP3   OH211042   4.750   4.150   3.931 -0.2566  0.0045 -0.0400
 3679TIP3    H111043   4.819   4.094   3.966 -1.2754 -0.3256  1.5404
 3679TIP3    H211044   4.703   4.094   3.870  0.1818 -0.1126 -0.2755
 3680TIP3   OH211045   1.915   0.543   1.721 -0.7055 -0.4562  0.0800
 3680TIP3    H111046   1.938   0.510   1.634  2.0494  0.3444  0.4149
 3680TIP3    H211047   1.892   0.635   1.706 -0.1640 -0.3000  0.1942
 3681TIP3   OH211048   4.196   3.453   0.747 -0.2208  0.0399 -0.3134
 3681TIP3    H111049   4.266   3.421   0.804  0.9134  1.1530 -0.9957
 3681TIP3    H211050   4.136   3.498   0.806  0.7361  0.8489  0.0911
 3682TIP3   OH211051   0.947   5.032   4.785 -0.1677 -0.1285 -0.2078
 3682TIP3    H111052   1.036   5.067   4.781 -0.7433  1.3184 -1.2003
 3682TIP3    H211053   0.959   4.937   4.786  1.3941  0.0410  0.1886
 3683TIP3   OH211054   0.116   4.913   4.175 -0.1884  0.0898  0.0723
 3683TIP3    H111055   0.073   4.841   4.131  0.5266 -0.2867 -0.0229
 3683TIP3    H211056   0.171   4.953   4.108  0.4339 -0.1070  0.4602
 3684TIP3   OH211057   0.150   5.187   3.510  0.0466  0.3602 -0.0073
 3684TIP3    H111058   0.236   5.163   3.544 -1.3511 -2.3039  2.0319
 3684TIP3    H211059   0.158   5.176   3.415  2.2191  1.3991 -0.0165
 3685TIP3   OH211060   2.842   5.840   3.896 -0.6596 -0.1116  1.4107
 3685TIP3    H111061   2.805   5.774   3.836 -1.0208  0.7406  0.6734
 3685TIP3    H211062   2.800   5.822   3.980 -1.3823 -0.3000  1.0188
 3686TIP3   OH211063   4.177   2.646   2.643 -0.6729  0.1330 -0.0033
 3686TIP3    H111064   4.144   2.736   2.640 -0.3218  0.4325  2.6073
 3686TIP3    H211065   4.242   2.647   2.714 -0.5438 -2.1403 -0.0152
 3687TIP3   OH211066   2.068   0.072   3.159 -0.1952 -0.2785 -0.0609
 3687TIP3    H111067   2.129   0.028   3.219  0.4328  1.5020  0.6678
 3687TIP3    H211068   1.986   0.024   3.169  0.4868 -1.3532  0.5990
 3688TIP3   OH211069   5.162   5.300   3.934 -0.5214  0.0635  0.1783
 3688TIP3    H111070   5.104   5.376   3.923 -2.6206 -1.1134  2.2257
 3688TIP3    H211071   5.210   5.318   4.015  0.0337 -0.1936 -0.0859
 3689TIP3   OH211072   4.129   5.073   4.619 -0.2639 -0.2725 -0.7000
 3689TIP3    H111073   4.200   5.084   4.682  0.6254 -0.7782 -1.5654
 3689TIP3    H211074   4.073   5.006   4.657 -0.4244  0.3106  0.1155
 3690TIP3   OH211075   4.638   3.337   4.641  0.5345 -0.7943 -0.4584
 3690TIP3    H111076   4.710   3.275   4.652  0.6533 -0.5047  0.5460
 3690TIP3    H211077   4.680   3.418   4.614  0.6484 -0.5032  0.5553
 3691TIP3   OH211078   1.474   2.776   2.924  0.0311  0.4290 -0.5136
 3691TIP3    H111079   1.382   2.771   2.949  0.0208 -0.1454 -0.6505
 3691TIP3    H211080   1.480   2.719   2.847  0.4119  0.8035 -0.7610
 3692TIP3   OH211081   5.978   0.951   3.458 -0.2076  0.0050  0.3431
 3692TIP3    H111082   6.070   0.961   3.485 -0.1010 -1.6022  0.7371
 3692TIP3    H211083   5.928   1.000   3.523  0.3341  0.3418  0.5138
 3693TIP3   OH211084   4.826   4.897   4.640 -0.2209 -0.7517 -0.1167
 3693TIP3    H111085   4.857   4.872   4.727 -0.9506  2.4282  1.1930
 3693TIP3    H211086   4.747   4.844   4.627 -0.8675 -0.3501  1.8110
 3694TIP3   OH211087   2.282   0.544   2.844 -0.2870 -0.0828  0.3078
 3694TIP3    H111088   2.220   0.488   2.891 -1.4743  0.5425 -0.4728
 3694TIP3    H211089   2.256   0.633   2.868  3.2021  0.2945  3.6988
 3695TIP3   OH211090   4.428   1.480   1.389  0.1957  0.0014  0.1554
 3695TIP3    H111091   4.393   1.498   1.476 -1.1459 -2.4287  0.2104
 3695TIP3    H211092   4.389   1.547   1.332  1.4152  1.8779  1.3945
 3696TIP3   OH211093   3.349   3.429   0.526  0.6052  0.0968  0.6069
 3696TIP3    H111094   3.387   3.353   0.483  0.1677  1.2017 -1.8532
 3696TIP3    H211095   3.292   3.392   0.594 -0.6730 -1.8540 -1.4301
 3697TIP3   OH211096   0.192   4.946   1.163  0.2256  0.0972 -0.3106
 3697TIP3    H111097   0.123   4.913   1.105  1.0750  2.7865 -3.1168
 3697TIP3    H211098   0.156   4.935   1.251 -2.3616 -1.6219 -1.4498
 3698TIP3   OH211099   5.803   4.285   2.412  0.7810 -0.3265 -0.5523
 3698TIP3    H111100   5.728   4.298   2.354 -0.4119 -0.8370  0.8061
 3698TIP3    H211101   5.836   4.373   2.430  0.8882 -0.1410 -1.6257
 3699TIP3   OH211102   0.321   2.818   3.484 -0.1821  0.5138 -1.1330
 3699TIP3    H111103   0.409   2.840   3.515 -0.2799 -0.3776 -0.1861
 3699TIP3    H211104   0.336   2.760   3.409  0.0476 -0.3464 -0.4354
 3700TIP3   OH211105   0.491   2.742   0.673  0.8440  0.3159  0.5730
 3700TIP3    H111106   0.455   2.671   0.621 -0.1456  0.7464  0.6290
 3700TIP3    H211107   0.440   2.740   0.754  1.6639  0.2961  1.0965
 3701TIP3   OH211108   3.313   3.786   0.772 -0.1697  0.6150 -0.1384
 3701TIP3    H111109   3.375   3.790   0.698 -0.2543  0.6736 -0.2070
 3701TIP3    H211110   3.237   3.740   0.737 -0.6474  1.5857 -0.4157
 3702TIP3   OH211111   4.776   2.119   1.822  0.8827 -0.4320  0.2766
 3702TIP3    H111112   4.729   2.202   1.834 -2.0889 -1.7956 -0.8854
 3702TIP3    H211113   4.710   2.060   1.785  3.4442 -2.7358 -0.9294
 3703TIP3   OH211114   4.996   5.029   0.556 -0.1995 -0.5312  0.0558
 3703TIP3    H111115   4.950   4.955   0.594 -0.2882 -0.9316 -0.7976
 3703TIP3    H211116   5.088   5.001   0.554 -0.1233 -0.3154  0.4155
 3704TIP3   OH211117   2.324   0.432   1.921  0.5048  0.0931 -0.2004
 3704TIP3    H111118   2.401   0.378   1.901 -0.0453 -0.4508 -0.9248
 3704TIP3    H211119   2.350   0.484   1.996  1.1229 -1.0780  0.4257
 3705TIP3   OH211120   3.307   2.617   0.731 -0.4250  0.3665  0.2008
 3705TIP3    H111121   3.299   2.528   0.696  1.0572  0.7905 -1.3593
 3705TIP3    H211122   3.342   2.668   0.659 -0.3035  2.0232  1.3727
 3706TIP3   OH211123   5.644   4.058   1.359 -0.0413  0.5415  0.2328
 3706TIP3    H111124   5.571   4.069   1.298 -0.4128  0.8942  0.7328
 3706TIP3    H211125   5.719   4.098   1.314 -0.3449  0.9375  0.0735
 3707TIP3   OH211126   3.016   2.871   2.745 -0.1470 -0.3125  0.1592
 3707TIP3    H111127   3.077   2.942   2.767  0.6221 -0.6814 -0.7056
 3707TIP3    H211128   2.942   2.884   2.803 -0.9401  2.3847 -1.2973
 3708TIP3   OH211129   4.740   1.899   0.853  0.5498  0.8998 -0.0288
 3708TIP3    H111130   4.707   1.896   0.943  2.6782  1.3616  0.8362
 3708TIP3    H211131   4.661   1.905   0.799 -0.8067  0.2413  1.7666
 3709TIP3   OH211132   1.578   3.320   1.154 -0.1868  0.3911  0.1499
 3709TIP3    H111133   1.602   3.410   1.131 -0.0081  0.8214  1.8426
 3709TIP3    H211134   1.661   3.272   1.149 -0.0651  0.5772  0.3467
 3710TIP3   OH211135   3.371   4.304   2.857  0.0023 -0.0952  0.2345
 3710TIP3    H111136   3.299   4.331   2.800  0.4095  1.1950  0.2959
 3710TIP3    H211137   3.353   4.348   2.940  0.4458 -0.3856  0.4852
 3711TIP3   OH211138   2.018   5.716   3.423  0.2129  0.5996  0.0334
 3711TIP3    H111139   1.961   5.773   3.372 -0.1754 -0.3799 -0.6492
 3711TIP3    H211140   2.104   5.756   3.417 -0.0250  1.0296 -0.5569
 3712TIP3   OH211141   5.104   3.777   0.622 -0.2343  0.2819 -0.4174
 3712TIP3    H111142   5.081   3.832   0.547 -1.6722 -0.5815 -0.6457
 3712TIP3    H211143   5.091   3.687   0.592  0.6677 -0.1362  0.3955
 3713TIP3   OH211144   4.004   5.650   0.391 -0.3361 -0.3905  0.0203
 3713TIP3    H111145   4.000   5.661   0.296  0.4504 -1.0305 -0.0975
 3713TIP3    H211146   4.081   5.699   0.418 -0.2954 -0.5922  0.2696
 3714TIP3   OH211147   2.611   2.320   0.647  0.0103  0.0646  0.3830
 3714TIP3    H111148   2.566   2.235   0.650 -0.8383  0.5187  1.2661
 3714TIP3    H211149   2.592   2.354   0.560  0.0449 -0.4887  0.1550
 3715TIP3   OH211150   5.697   2.586   4.737  0.8529  0.1365  0.5401
 3715TIP3    H111151   5.737   2.670   4.756  0.2059  1.1689 -2.2200
 3715TIP3    H211152   5.761   2.521   4.767  2.9993  1.6825 -0.4660
 3716TIP3   OH211153   2.002   0.008   3.635 -0.2132 -0.0391  0.4909
 3716TIP3    H111154   1.993   0.048   3.722  1.7661 -1.4789  1.4394
 3716TIP3    H211155   2.084   0.043   3.601  0.0957 -1.0875  0.1183
 3717TIP3   OH211156   6.151   0.806   4.933  0.2243  0.0176 -0.5951
 3717TIP3    H111157   6.186   0.717   4.929  0.1174 -0.0737  0.3690
 3717TIP3    H211158   6.226   0.861   4.910  0.2278 -0.3225 -1.4470
 3718TIP3   OH211159   1.535   1.835   3.259  0.2082  0.5323  0.3799
 3718TIP3    H111160   1.518   1.929   3.256 -2.5144  0.1102 -0.3266
 3718TIP3    H211161   1.466   1.800   3.317 -1.1562 -1.3835 -2.1790
 3719TIP3   OH211162   5.524   3.004   2.918 -0.3089  0.1798 -0.1338
 3719TIP3    H111163   5.528   3.079   2.860 -0.6520  0.6110  0.3887
 3719TIP3    H211164   5.467   2.942   2.874 -1.5754  1.0107  0.2987
 3720TIP3   OH211165   3.018   3.954   2.472 -0.1697  0.1079  0.0730
 3720TIP3    H111166   3.057   3.992   2.394 -1.2944  0.9328 -0.1105
 3720TIP3    H211167   3.021   3.860   2.457  1.4543  0.1532 -0.0565
 3721TIP3   OH211168   0.962   4.497   4.494 -0.1358 -0.0556 -1.0170
 3721TIP3    H111169   0.889   4.542   4.450  0.2873  1.1934 -0.4923
 3721TIP3    H211170   1.015   4.568   4.530  1.2458 -0.9593 -1.2173
 3722TIP3   OH211171   1.539   0.901   3.144  0.0512  0.1511  0.0937
 3722TIP3    H111172   1.537   0.910   3.240 -0.5823  0.4087  0.0588
 3722TIP3    H211173   1.632   0.891   3.123  0.3405  1.5288  0.6172
 3723TIP3   OH211174   1.674   2.873   2.503 -0.3086  0.1751  0.1662
 3723TIP3    H111175   1.742   2.937   2.483 -0.8069  0.2248 -1.4669
 3723TIP3    H211176   1.607   2.923   2.549 -0.8450  0.9285 -1.3905
 3724TIP3   OH211177   2.934   2.199   2.388 -0.2233 -0.0189  0.0598
 3724TIP3    H111178   3.027   2.187   2.410 -0.3270  0.4393  0.7941
 3724TIP3    H211179   2.915   2.289   2.415 -0.4564  0.4880 -1.6678
 3725TIP3   OH211180   5.990   3.076   3.133 -0.3027  0.0050 -0.4098
 3725TIP3    H111181   5.917   3.050   3.077 -1.0275 -0.9165  0.9128
 3725TIP3    H211182   6.060   3.014   3.112 -0.4519 -0.1211 -0.5410
 3726TIP3   OH211183   4.100   0.786   1.739  0.3351  0.0654  0.9057
 3726TIP3    H111184   4.178   0.807   1.687  0.7575 -0.3809  1.3500
 3726TIP3    H211185   4.034   0.764   1.673  0.5835  0.4469  0.5225
 3727TIP3   OH211186   4.539   0.176   5.029 -0.5326  0.2926  0.5464
 3727TIP3    H111187   4.557   0.231   4.953 -0.6200 -1.8586 -1.0991
 3727TIP3    H211188   4.469   0.223   5.076 -0.9097  1.3662 -1.0217
 3728TIP3   OH211189   2.322   4.209   5.186  0.1870  0.0623  0.8175
 3728TIP3    H111190   2.320   4.167   5.100  2.7716  0.3466  0.5309
 3728TIP3    H211191   2.401   4.175   5.227  0.3748  1.8437  2.0461
 3729TIP3   OH211192   0.318   0.752   3.517 -0.0161 -0.0324  0.6409
 3729TIP3    H111193   0.352   0.837   3.546  0.4920  0.3972 -1.1076
 3729TIP3    H211194   0.243   0.774   3.462 -0.4728 -0.7884  0.9425
 3730TIP3   OH211195   0.313   4.330   4.637  0.8145  0.2481 -0.7831
 3730TIP3    H111196   0.239   4.334   4.696  1.1064 -0.2631 -0.3662
 3730TIP3    H211197   0.348   4.241   4.649 -0.4584 -0.7175 -3.3505
 3731TIP3   OH211198   3.324   3.789   5.086  0.0257  0.1096 -0.0323
 3731TIP3    H111199   3.314   3.697   5.065  2.3451 -0.1517 -0.3206
 3731TIP3    H211200   3.243   3.830   5.057 -1.1568 -1.8506  0.3347
 3732TIP3   OH211201   0.244   5.457   1.668 -0.7067  0.0168  0.1888
 3732TIP3    H111202   0.253   5.460   1.763 -1.8383  1.0197  0.3024
 3732TIP3    H211203   0.190   5.534   1.648 -2.5054 -1.4942 -1.0138
 3733TIP3   OH211204   5.312   2.132   2.743  0.2111 -0.2972  0.6806
 3733TIP3    H111205   5.360   2.049   2.735  1.0716  0.2330  0.1286
 3733TIP3    H211206   5.318   2.171   2.656 -0.4588  0.2100  0.8534
 3734TIP3   OH211207   1.484   5.933   1.390  0.1726 -0.8981 -0.3212
 3734TIP3    H111208   1.442   5.876   1.454  0.4908  1.3018  2.0215
 3734TIP3    H211209   1.574   5.900   1.384 -0.0169 -1.4652 -0.0838
 3735TIP3   OH211210   5.347   2.733   3.234  0.1314  0.1158 -0.0482
 3735TIP3    H111211   5.405   2.721   3.159 -2.1375 -0.8255 -1.7692
 3735TIP3    H211212   5.261   2.705   3.202 -0.9595 -0.1595  2.8748
 3736TIP3   OH211213   0.913   2.017   1.968 -0.3441 -0.1177 -0.6505
 3736TIP3    H111214   0.847   2.052   2.027  0.1549  1.0179 -0.7282
 3736TIP3    H211215   0.906   2.072   1.889  0.3597 -0.2936 -0.8416
 3737TIP3   OH211216   0.614   3.696   2.253  0.3576 -0.0664  0.4313
 3737TIP3    H111217   0.658   3.749   2.320 -0.5946  1.0816  0.1899
 3737TIP3    H211218   0.631   3.743   2.171  1.8826 -1.6910 -0.2332
 3738TIP3   OH211219   5.044   1.081   2.536  0.2082  0.3974 -0.1759
 3738TIP3    H111220   5.019   1.147   2.471  0.8180 -0.2583 -1.1036
 3738TIP3    H211221   5.050   0.999   2.487  2.1676  0.1550  0.3753
 3739TIP3   OH211222   3.156   4.789   0.156  0.2686  0.0968 -0.2084
 3739TIP3    H111223   3.217   4.855   0.122 -0.3406  2.4328  2.7849
 3739TIP3    H211224   3.074   4.836   0.167  0.2741 -0.4816  3.7680
 3740TIP3   OH211225   2.566   2.036   2.723 -0.0010  0.2962 -0.4948
 3740TIP3    H111226   2.540   2.032   2.815 -0.4875  1.8505 -0.5498
 3740TIP3    H211227   2.576   1.944   2.698 -0.8833 -0.1860  0.8138
 3741TIP3   OH211228   0.458   2.271   5.152 -0.5837  0.7646 -0.2343
 3741TIP3    H111229   0.476   2.238   5.064 -1.0444  1.3915 -0.5720
 3741TIP3    H211230   0.362   2.280   5.155 -0.5942  0.5246  0.4174
 3742TIP3   OH211231   3.751   2.473   5.173 -0.0891 -0.0094 -0.0163
 3742TIP3    H111232   3.685   2.466   5.242 -1.0519 -0.6447 -0.9553
 3742TIP3    H211233   3.715   2.537   5.112  0.0292 -0.5514 -0.6710
 3743TIP3   OH211234   2.422   2.734   4.969  0.0494 -0.3340 -0.5868
 3743TIP3    H111235   2.442   2.700   5.056 -2.1806 -2.2120 -0.7061
 3743TIP3    H211236   2.451   2.825   4.972  0.7281 -0.5461  1.8525
 3744TIP3   OH211237   5.372   0.628   1.416  0.4589  0.0861 -0.5222
 3744TIP3    H111238   5.290   0.675   1.405 -0.8041 -2.1333 -1.2179
 3744TIP3    H211239   5.427   0.659   1.344  0.0999  1.2785 -0.3120
 3745TIP3   OH211240   1.555   3.819   4.368 -0.5706  0.0921 -0.0335
 3745TIP3    H111241   1.565   3.724   4.379  0.4577  0.2139  0.1710
 3745TIP3    H211242   1.466   3.837   4.399  0.5629 -0.2221  3.9744
 3746TIP3   OH211243   1.795   2.864   1.741 -0.5588  0.4278 -1.0899
 3746TIP3    H111244   1.852   2.789   1.749 -0.2795  0.6549 -0.9346
 3746TIP3    H211245   1.781   2.874   1.646 -0.8884 -0.0302 -1.0926
 3747TIP3   OH211246   1.015   3.478   5.119  0.0803 -0.0730 -0.0801
 3747TIP3    H111247   1.070   3.404   5.092 -0.5274  0.1327 -2.0354
 3747TIP3    H211248   0.937   3.470   5.066 -1.1957  0.4798  1.6113
 3748TIP3   OH211249   1.853   0.778   1.557 -0.0324  0.2373 -0.0077
 3748TIP3    H111250   1.913   0.777   1.483  0.4083 -1.6520  0.3232
 3748TIP3    H211251   1.766   0.777   1.518  0.1942 -0.3158 -0.5146
 3749TIP3   OH211252   0.102   4.997   1.831 -0.2460 -0.1991 -0.1132
 3749TIP3    H111253   0.136   5.051   1.759 -0.4059 -0.5218 -0.4331
 3749TIP3    H211254   0.013   5.028   1.845 -0.3879 -0.4761 -0.3950
 3750TIP3   OH211255   0.631   2.470   4.900  0.3408 -0.4218  0.4148
 3750TIP3    H111256   0.605   2.381   4.879 -0.9863 -0.1301  0.7184
 3750TIP3    H211257   0.553   2.510   4.939  1.3100  0.4562  1.5597
 3751TIP3   OH211258   2.942   4.618   3.063 -0.1406  0.2133 -0.0414
 3751TIP3    H111259   3.013   4.558   3.040 -1.1638 -1.0129 -0.1315
 3751TIP3    H211260   2.919   4.593   3.152 -0.4099  0.6548  0.0122
 3752TIP3   OH211261   0.966   2.187   1.414  0.2036  0.4491  0.2252
 3752TIP3    H111262   0.941   2.232   1.333  1.8594  0.4007 -0.3601
 3752TIP3    H211263   0.943   2.096   1.398 -0.4608  0.6096  0.2427
 3753TIP3   OH211264   1.649   4.785   0.354  0.8359 -0.6517 -0.1987
 3753TIP3    H111265   1.592   4.841   0.301  2.3099  1.3364  0.1765
 3753TIP3    H211266   1.604   4.701   0.358 -1.0959  0.2525 -1.5004
 3754TIP3   OH211267   0.724   5.677   1.370  0.3273 -0.9523  0.0627
 3754TIP3    H111268   0.631   5.698   1.381  0.5961  0.2572  0.1518
 3754TIP3    H211269   0.733   5.587   1.403 -0.2121  0.0245  3.1030
 3755TIP3   OH211270   3.451   2.320   2.202  0.0885  0.2393 -0.3120
 3755TIP3    H111271   3.531   2.283   2.241 -0.3559 -0.5146 -0.0986
 3755TIP3    H211272   3.416   2.378   2.271  0.4522  0.5860 -0.4126
 3756TIP3   OH211273   1.103   3.065   4.837 -0.3050 -0.4579  0.0762
 3756TIP3    H111274   1.182   3.011   4.844 -0.6280 -0.9127  0.2745
 3756TIP3    H211275   1.081   3.062   4.744  0.7796  0.9440 -0.2563
 3757TIP3   OH211276   2.496   4.211   1.818 -0.1883  0.1977  0.0824
 3757TIP3    H111277   2.402   4.222   1.806 -0.0850  2.0692  0.5367
 3757TIP3    H211278   2.505   4.182   1.909 -0.3068  1.2302  0.4433
 3758TIP3   OH211279   2.186   0.632   0.127  0.1801  0.5180  0.4280
 3758TIP3    H111280   2.279   0.628   0.104  0.3752  0.7913  1.1409
 3758TIP3    H211281   2.162   0.541   0.142 -0.0712  0.2797 -1.2611
 3759TIP3   OH211282   3.891   4.882   4.659 -0.0258 -0.1501  0.3816
 3759TIP3    H111283   3.915   4.791   4.643  0.8664  0.4061 -1.8259
 3759TIP3    H211284   3.799   4.888   4.630 -0.0600 -0.3178  0.4539
 3760TIP3   OH211285   2.164   2.683   4.512 -0.0325 -0.2618  0.1935
 3760TIP3    H111286   2.238   2.743   4.512 -0.3561  0.3989 -3.5886
 3760TIP3    H211287   2.186   2.617   4.446 -1.5886 -1.7732  1.0848
 3761TIP3   OH211288   5.421   3.032   0.311  0.5397  0.6393  0.3038
 3761TIP3    H111289   5.415   3.006   0.219 -0.0236 -0.4853  0.6342
 3761TIP3    H211290   5.338   3.001   0.349  1.0272  0.5500  1.3142
 3762TIP3   OH211291   1.981   4.122   3.082  0.3324 -0.3061 -0.1058
 3762TIP3    H111292   2.027   4.110   2.999 -2.0202 -1.7805 -1.3068
 3762TIP3    H211293   1.945   4.210   3.077  0.3991 -0.3002 -0.5425
 3763TIP3   OH211294   2.384   1.425   1.211  0.0044  0.0408  0.1346
 3763TIP3    H111295   2.353   1.334   1.208 -0.4851  0.1943  0.4877
 3763TIP3    H211296   2.365   1.459   1.123  0.8491 -0.4060 -0.2331
 3764TIP3   OH211297   3.565   5.779   1.873 -0.7200 -0.2440 -0.0736
 3764TIP3    H111298   3.592   5.689   1.852 -0.5679  0.1290 -1.6032
 3764TIP3    H211299   3.528   5.773   1.961 -0.1463 -1.6875  0.0993
 3765TIP3   OH211300   5.034   3.351   3.189  0.2990  0.1914 -0.0208
 3765TIP3    H111301   4.950   3.330   3.230  0.8954  2.3979  2.7009
 3765TIP3    H211302   5.011   3.392   3.106 -1.1177 -1.8865 -0.7427
 3766TIP3   OH211303   1.373   1.208   1.880 -0.4771 -0.2127 -0.1017
 3766TIP3    H111304   1.445   1.272   1.889 -1.2072  0.4576  1.3017
 3766TIP3    H211305   1.308   1.254   1.827 -0.3160 -0.4312 -0.4939
 3767TIP3   OH211306   0.389   5.757   4.705  0.5184 -1.0129 -0.7674
 3767TIP3    H111307   0.442   5.691   4.748  1.5151  0.1222 -0.2011
 3767TIP3    H211308   0.300   5.720   4.705  0.9909 -2.1990 -0.2088
 3768TIP3   OH211309   5.355   3.107   4.524 -0.0399 -0.0133  0.4001
 3768TIP3    H111310   5.371   3.021   4.486 -2.2784 -1.4379  2.3832
 3768TIP3    H211311   5.408   3.109   4.603 -0.3955  0.2211  0.6351
 3769TIP3   OH211312   1.673   2.473   4.105 -0.2182 -0.2210  0.0404
 3769TIP3    H111313   1.584   2.446   4.125 -0.6237  1.2596  0.3698
 3769TIP3    H211314   1.722   2.458   4.186  0.2242 -2.4543 -0.5875
 3770TIP3   OH211315   0.208   0.530   2.670  0.1647  0.5018  0.2005
 3770TIP3    H111316   0.126   0.510   2.625 -0.9016 -0.2884  2.3142
 3770TIP3    H211317   0.262   0.452   2.656  0.8994  1.3030 -1.7778
 3771TIP3   OH211318   4.627   3.175   4.910  0.3515 -0.1703  0.7645
 3771TIP3    H111319   4.601   3.263   4.939  1.6991  0.1749  1.0061
 3771TIP3    H211320   4.719   3.184   4.886  1.0462 -1.9321  2.5531
 3772TIP3   OH211321   1.680   5.016   3.709  0.2815  0.7515  0.2216
 3772TIP3    H111322   1.676   5.020   3.805 -0.7775 -1.9469  0.3917
 3772TIP3    H211323   1.768   4.982   3.690 -0.0479 -0.2237  0.3713
 3773TIP3   OH211324   3.143   0.687   2.766  0.2615  0.3530 -0.0735
 3773TIP3    H111325   3.228   0.676   2.809  0.1150 -1.7911 -0.2302
 3773TIP3    H211326   3.134   0.609   2.711 -2.1806  0.1030  0.5787
 3774TIP3   OH211327   1.855   1.770   3.413  0.0266  0.0575  0.2921
 3774TIP3    H111328   1.863   1.681   3.378 -1.0587  0.1746 -0.3131
 3774TIP3    H211329   1.829   1.823   3.338  0.5569  0.8708  0.6732
 3775TIP3   OH211330   2.361   2.848   0.751  0.1654 -0.3937  0.2284
 3775TIP3    H111331   2.272   2.858   0.717 -0.9617 -0.9414  2.8013
 3775TIP3    H211332   2.393   2.767   0.710  0.9746  1.5417 -3.4606
 3776TIP3   OH211333   4.742   2.907   1.548  0.0019 -0.0778  0.1711
 3776TIP3    H111334   4.836   2.889   1.543 -0.1525 -1.3253  1.3102
 3776TIP3    H211335   4.725   2.923   1.640 -1.2743 -2.1631  0.3550
 3777TIP3   OH211336   2.951   4.270   2.327 -0.7025  0.3462 -0.6911
 3777TIP3    H111337   2.988   4.343   2.279  0.7445  0.1034 -0.0053
 3777TIP3    H211338   3.003   4.194   2.300 -0.6373  0.0017  0.3319
 3778TIP3   OH211339   6.032   0.429   0.283  0.0693  0.2480  0.3103
 3778TIP3    H111340   6.089   0.505   0.290  0.0895  0.2798 -0.1692
 3778TIP3    H211341   6.009   0.407   0.374  1.8377 -0.5233  0.6179
 3779TIP3   OH211342   6.145   1.170   4.567  0.0721 -0.5762  0.0877
 3779TIP3    H111343   6.158   1.188   4.474 -0.5862 -0.0312  0.0971
 3779TIP3    H211344   6.076   1.103   4.569 -0.1558 -0.3364  0.1993
 3780TIP3   OH211345   5.982   4.807   1.767 -0.6262 -0.5267  0.5481
 3780TIP3    H111346   5.982   4.800   1.863 -2.2207 -0.3630  0.5867
 3780TIP3    H211347   5.973   4.717   1.737 -0.5665 -0.5349  0.5537
 3781TIP3   OH211348   0.247   5.640   0.446 -0.9093  0.2975  0.2027
 3781TIP3    H111349   0.230   5.609   0.535 -2.6162  1.7175  0.4358
 3781TIP3    H211350   0.217   5.569   0.389 -1.9221  0.2748  0.7431
 3782TIP3   OH211351   5.712   2.979   1.360  0.1952 -0.3129 -0.0031
 3782TIP3    H111352   5.620   2.958   1.377  0.0281  0.8457  0.6334
 3782TIP3    H211353   5.721   2.970   1.265 -0.4224 -0.9805 -0.0115
 3783TIP3   OH211354   5.783   2.154   2.361 -0.0021  0.2864 -0.2133
 3783TIP3    H111355   5.850   2.220   2.380 -0.6180  1.1323 -0.9390
 3783TIP3    H211356   5.706   2.204   2.333 -0.9630 -0.6709  0.6327
 3784TIP3   OH211357   2.129   0.277   4.441 -0.2336  0.1353  0.7098
 3784TIP3    H111358   2.197   0.321   4.390  0.9027 -0.6862  1.4678
 3784TIP3    H211359   2.074   0.348   4.474 -1.0477  0.6823 -1.6778
 3785TIP3   OH211360   3.657   1.614   0.437 -0.2679 -0.1187 -0.1776
 3785TIP3    H111361   3.740   1.609   0.484 -0.7115  0.1541  0.6488
 3785TIP3    H211362   3.661   1.697   0.390 -0.5418  0.4607  0.7903
 3786TIP3   OH211363   1.372   0.610   3.110 -0.5299 -0.0146 -0.2441
 3786TIP3    H111364   1.415   0.696   3.108 -0.3924 -0.0553  0.5884
 3786TIP3    H211365   1.433   0.552   3.065 -1.1198  0.5244 -1.7991
 3787TIP3   OH211366   1.204   1.146   2.081  0.5604  0.1215 -0.1699
 3787TIP3    H111367   1.277   1.143   2.019  1.3580 -0.6211  0.7698
 3787TIP3    H211368   1.194   1.055   2.110  0.2680  0.4644  0.8420
 3788TIP3   OH211369   0.954   0.316   0.065  0.0260  0.4308 -0.4378
 3788TIP3    H111370   0.957   0.398   0.114  0.6927 -0.2854  0.7746
 3788TIP3    H211371   0.905   0.256   0.122 -1.7259  0.3456 -1.9235
 3789TIP3   OH211372   5.912   0.944   0.361  0.0878 -0.0490  0.3274
 3789TIP3    H111373   5.887   0.996   0.437  1.7552  0.5807  0.4897
 3789TIP3    H211374   5.985   0.991   0.322  0.8022 -1.5851 -0.2991
 3790TIP3   OH211375   3.821   3.059   4.278 -0.3283  0.0648  0.3343
 3790TIP3    H111376   3.833   2.970   4.311 -0.4249 -0.1916 -0.3073
 3790TIP3    H211377   3.727   3.076   4.287 -0.4732 -0.2696 -0.4395
 3791TIP3   OH211378   3.953   1.886   2.847 -0.6386 -0.0131  0.0132
 3791TIP3    H111379   4.043   1.871   2.815  0.0193  0.9336  1.3192
 3791TIP3    H211380   3.945   1.827   2.923  0.2512  2.4691  2.1848
 3792TIP3   OH211381   4.539   2.269   2.363 -0.2547 -0.0187 -0.5750
 3792TIP3    H111382   4.457   2.225   2.340 -1.1793  0.5625  1.3640
 3792TIP3    H211383   4.528   2.292   2.455  1.4321  1.5805 -0.7275
 3793TIP3   OH211384   1.783   3.285   3.865 -0.3242  0.0412 -0.0963
 3793TIP3    H111385   1.865   3.327   3.839 -1.1636  1.0365 -1.2629
 3793TIP3    H211386   1.771   3.215   3.800  0.4645 -1.2995  1.1360
 3794TIP3   OH211387   0.364   0.813   2.542  0.2978 -0.2871  0.1876
 3794TIP3    H111388   0.302   0.810   2.615 -1.0549 -2.8604 -0.9623
 3794TIP3    H211389   0.438   0.760   2.571  0.2512 -0.4086  0.0813
 3795TIP3   OH211390   1.279   5.417   3.622 -0.7547  0.3556  0.0055
 3795TIP3    H111391   1.338   5.350   3.659 -1.1281 -0.3499 -0.6597
 3795TIP3    H211392   1.227   5.370   3.557 -0.7242  1.3965 -0.7902
 3796TIP3   OH211393   0.587   4.362   3.219 -0.2191  0.2880 -0.1126
 3796TIP3    H111394   0.658   4.425   3.206 -0.5542  0.2662 -2.4560
 3796TIP3    H211395   0.507   4.410   3.195 -1.1774  0.5423  3.1839
 3797TIP3   OH211396   3.084   1.950   0.141 -0.4664  0.0349  0.0788
 3797TIP3    H111397   3.176   1.964   0.162 -0.3009  1.6125 -1.4469
 3797TIP3    H211398   3.038   1.955   0.225  0.7019  0.4984  0.7035
 3798TIP3   OH211399   4.839   2.241   2.978 -0.7898  0.5350 -0.4915
 3798TIP3    H111400   4.866   2.181   2.909 -0.0232  0.9559 -0.5694
 3798TIP3    H211401   4.745   2.226   2.989 -0.0834 -3.4186  2.1035
 3799TIP3   OH211402   3.458   2.136   3.995 -0.7391 -0.6833  0.1175
 3799TIP3    H111403   3.376   2.088   3.984 -0.6627 -0.7447 -0.1733
 3799TIP3    H211404   3.445   2.185   4.077 -1.4228  0.0387 -0.4066
 3800TIP3   OH211405   0.259   4.492   0.691  0.7032 -0.4275 -0.0339
 3800TIP3    H111406   0.200   4.449   0.629  0.3672  2.8379 -2.2440
 3800TIP3    H211407   0.333   4.522   0.638  2.1223 -0.3797  1.8354
 3801TIP3   OH211408   1.821   1.124   4.625 -0.0424 -0.1852  0.2618
 3801TIP3    H111409   1.813   1.125   4.721 -2.9651 -0.3691  0.1323
 3801TIP3    H211410   1.796   1.213   4.598 -1.3648 -0.7249 -0.3788
 3802TIP3   OH211411   1.862   4.947   4.814  0.0868 -0.0856 -0.2180
 3802TIP3    H111412   1.778   4.905   4.797  0.7370 -1.2803 -0.6270
 3802TIP3    H211413   1.885   4.990   4.732  1.0099 -1.8663 -0.9487
 3803TIP3   OH211414   1.289   2.521   1.415  0.1852  0.0004  0.2801
 3803TIP3    H111415   1.272   2.428   1.430 -2.1133  0.0530 -1.5309
 3803TIP3    H211416   1.262   2.537   1.325  0.6005  2.4384  0.5138
 3804TIP3   OH211417   5.429   4.148   3.564  0.1329 -0.1870  0.1478
 3804TIP3    H111418   5.509   4.201   3.572 -0.4515  1.0031 -1.3933
 3804TIP3    H211419   5.460   4.064   3.529  0.7649  0.1226 -0.0594
 3805TIP3   OH211420   1.985   3.229   3.054  0.3412  0.1044 -0.3662
 3805TIP3    H111421   2.075   3.198   3.044 -0.5228 -2.5528 -0.5769
 3805TIP3    H211422   1.971   3.232   3.148  0.2367 -0.8561 -0.3430
 3806TIP3   OH211423   2.314   1.346   0.565 -0.4059 -0.0592 -0.3227
 3806TIP3    H111424   2.242   1.360   0.627 -0.0981 -0.5765  0.1536
 3806TIP3    H211425   2.303   1.256   0.535 -0.1498 -0.0334 -0.4974
 3807TIP3   OH211426   2.817   1.294   4.005  0.2908  0.1566  0.0361
 3807TIP3    H111427   2.781   1.341   4.080 -2.3124 -0.7588 -0.5235
 3807TIP3    H211428   2.790   1.203   4.019  2.1957 -0.5630 -0.6396
 3808TIP3   OH211429   2.579   3.742   1.966 -0.4060 -0.6638  0.4454
 3808TIP3    H111430   2.539   3.773   2.047 -1.6746 -0.4933 -0.2263
 3808TIP3    H211431   2.515   3.762   1.898  0.5666 -0.9532 -0.5863
 3809TIP3   OH211432   4.271   1.579   4.606 -0.6856  0.5704 -0.5901
 3809TIP3    H111433   4.347   1.611   4.558 -0.3892 -0.9904 -1.2302
 3809TIP3    H211434   4.236   1.656   4.651  0.4424  1.5869 -1.4033
 3810TIP3   OH211435   4.609   1.433   4.299 -0.4247  0.0267 -0.1460
 3810TIP3    H111436   4.671   1.383   4.352  0.3637 -1.3828 -2.2664
 3810TIP3    H211437   4.523   1.399   4.325  0.0467 -1.8881 -0.9206
 3811TIP3   OH211438  -0.010   1.813   3.591  0.1274 -0.1104  0.9115
 3811TIP3    H111439   0.063   1.867   3.560 -2.8008  2.6345 -1.9405
 3811TIP3    H211440   0.002   1.729   3.548  1.2029  0.5700 -0.1804
 3812TIP3   OH211441   5.840   0.908   3.859  0.6170  0.5430 -0.7645
 3812TIP3    H111442   5.935   0.919   3.853  0.7175 -0.3849 -0.9029
 3812TIP3    H211443   5.814   0.874   3.774  0.1989  0.4796 -0.6130
 3813TIP3   OH211444   5.348   0.513   0.259  0.3569 -0.4502 -0.1415
 3813TIP3    H111445   5.300   0.549   0.334 -0.1701 -0.4198 -0.4926
 3813TIP3    H211446   5.320   0.567   0.185  0.8946 -0.4690 -0.3580
 3814TIP3   OH211447   3.693   0.714   2.613  0.1807  0.6659 -0.3224
 3814TIP3    H111448   3.730   0.729   2.700 -1.2232  1.5290  0.1499
 3814TIP3    H211449   3.635   0.789   2.598  0.0350  0.2859 -1.8040
 3815TIP3   OH211450   2.862   0.224   3.637  0.1718 -0.4215 -0.5489
 3815TIP3    H111451   2.875   0.141   3.683  1.1574 -1.1566 -2.0735
 3815TIP3    H211452   2.944   0.238   3.590 -0.0575  1.3277 -0.4938
 3816TIP3   OH211453   2.359   2.610   1.945  0.2404  0.0521 -0.4652
 3816TIP3    H111454   2.302   2.678   1.980 -0.6405 -1.2680  0.7909
 3816TIP3    H211455   2.439   2.618   1.996  0.6026  0.8978 -1.1474
 3817TIP3   OH211456   2.061   1.170   1.357  0.3403 -0.3215 -0.2801
 3817TIP3    H111457   2.047   1.264   1.357  0.6537 -0.2703  0.3018
 3817TIP3    H211458   2.155   1.160   1.340  0.1749 -0.5535 -1.0779
 3818TIP3   OH211459   1.516   2.170   1.795  0.4989 -0.1673 -0.1652
 3818TIP3    H111460   1.437   2.224   1.790  0.2126 -0.6725 -1.6246
 3818TIP3    H211461   1.504   2.116   1.873 -0.1877  0.3750  0.1113
 3819TIP3   OH211462   6.020   3.246   1.355  0.4292 -0.0073  0.1073
 3819TIP3    H111463   6.035   3.183   1.425 -2.9025  0.2227  1.1933
 3819TIP3    H211464   6.080   3.318   1.374  2.0367 -1.4287  0.6576
 3820TIP3   OH211465   2.554   1.496   0.619 -0.2239 -0.1489  0.2312
 3820TIP3    H111466   2.612   1.421   0.602  0.5268  0.3805  0.4010
 3820TIP3    H211467   2.466   1.461   0.606  0.1148 -1.0482  0.2393
 3821TIP3   OH211468   6.186   2.861   4.856 -0.2736 -0.1904 -0.1821
 3821TIP3    H111469   6.254   2.878   4.790 -1.0193  0.8964 -0.6955
 3821TIP3    H211470   6.195   2.933   4.918  0.2329 -1.0522  0.7773
 3822TIP3   OH211471   3.208   2.351   4.358 -0.1596 -0.0280 -0.4728
 3822TIP3    H111472   3.155   2.297   4.415 -1.0488  0.9891 -0.3112
 3822TIP3    H211473   3.169   2.438   4.363  0.6134  0.4077 -1.5193
 3823TIP3   OH211474   3.535   1.157   0.978 -0.3116 -0.1074 -0.1790
 3823TIP3    H111475   3.604   1.169   1.044 -0.3198  2.0048 -0.5007
 3823TIP3    H211476   3.560   1.077   0.932  1.2041 -0.0982  0.5656
 3824TIP3   OH211477   1.232   2.794   2.584 -0.0220  0.3730 -0.3252
 3824TIP3    H111478   1.235   2.890   2.586 -0.6603  0.4067  1.9303
 3824TIP3    H211479   1.142   2.773   2.610  0.1015 -0.8650 -0.8326
 3825TIP3   OH211480   5.304   2.499   0.876  0.0239 -0.2953  0.3802
 3825TIP3    H111481   5.218   2.458   0.871  0.5374 -1.6079  1.6796
 3825TIP3    H211482   5.364   2.434   0.837  0.6146 -0.0283  0.8202
 3826TIP3   OH211483   4.624   5.264   1.656 -1.1841 -0.9079 -0.1405
 3826TIP3    H111484   4.588   5.343   1.697  0.8225  0.2370 -0.4521
 3826TIP3    H211485   4.575   5.192   1.696 -1.5984  0.3580  1.7818
 3827TIP3   OH211486   4.187   2.061   1.645 -0.1577  0.9642  0.3508
 3827TIP3    H111487   4.226   2.129   1.700  0.5109  0.7149  0.1836
 3827TIP3    H211488   4.213   2.084   1.556 -0.0537  0.5726  0.2806
 3828TIP3   OH211489   6.133   5.485   3.733  0.1957 -0.3424  0.3324
 3828TIP3    H111490   6.196   5.443   3.675 -0.2459 -0.4630 -0.0720
 3828TIP3    H211491   6.070   5.416   3.754  0.4251 -0.3373  1.0718
 3829TIP3   OH211492   2.484   5.641   3.118 -0.3492 -0.6045  0.2391
 3829TIP3    H111493   2.422   5.656   3.189  0.2602 -0.3819  0.7328
 3829TIP3    H211494   2.570   5.647   3.160  0.0119 -0.5534 -0.5023
 3830TIP3   OH211495   2.696   3.711   0.073 -0.3532  0.2467  0.2657
 3830TIP3    H111496   2.642   3.666   0.008 -0.6890 -0.4825  1.0379
 3830TIP3    H211497   2.681   3.804   0.055  0.4846  0.0929 -1.4539
 3831TIP3   OH211498   0.985   5.622   2.482 -0.0913  0.0244 -0.1784
 3831TIP3    H111499   0.916   5.558   2.498 -0.2238  0.4915  1.2413
 3831TIP3    H211500   0.944   5.707   2.503  1.3592  0.1764  2.4645
 3832TIP3   OH211501   4.155   5.847   0.963  0.0135  0.6584  0.9152
 3832TIP3    H111502   4.104   5.774   0.997 -0.7853  1.4900  1.5569
 3832TIP3    H211503   4.104   5.880   0.889 -0.8273  1.9948  2.0543
 3833TIP3   OH211504   5.341   5.251   4.387  0.4244  0.1339 -0.0625
 3833TIP3    H111505   5.360   5.336   4.427 -0.3088  0.5557 -0.5710
 3833TIP3    H211506   5.273   5.270   4.322  0.4810 -0.7916 -0.4113
 3834TIP3   OH211507   5.287   0.477   0.544 -0.3960  0.5045 -0.2086
 3834TIP3    H111508   5.232   0.402   0.519  0.1778  0.3878 -1.2063
 3834TIP3    H211509   5.227   0.550   0.549 -0.8863  0.0727  0.2594
 3835TIP3   OH211510   1.100   0.955   3.637 -0.1318 -0.0855  0.3742
 3835TIP3    H111511   1.086   0.931   3.545 -0.3266  0.5652  0.2269
 3835TIP3    H211512   1.012   0.968   3.672 -0.0321  0.4709  0.4285
 3836TIP3   OH211513   5.568   3.670   1.575  0.1843 -1.0077 -0.1826
 3836TIP3    H111514   5.619   3.602   1.619 -0.0008  0.4870  2.5883
 3836TIP3    H211515   5.486   3.672   1.624 -0.3965  0.2260 -1.1716
 3837TIP3   OH211516   4.626   2.685   0.303  0.6683  0.0522  0.4731
 3837TIP3    H111517   4.646   2.661   0.394  1.8947 -0.5937  0.0478
 3837TIP3    H211518   4.702   2.656   0.253  1.0324  2.3920 -0.4703
 3838TIP3   OH211519   4.971   3.914   4.791  0.1591 -0.2117 -0.7741
 3838TIP3    H111520   4.981   3.853   4.863 -0.9380 -1.3339 -1.5226
 3838TIP3    H211521   5.059   3.922   4.753  0.7021  0.2566  0.5542
 3839TIP3   OH211522   1.085   4.530   0.191 -0.2757  0.1955 -0.3346
 3839TIP3    H111523   1.176   4.550   0.170 -0.4581  1.4248 -0.0402
 3839TIP3    H211524   1.075   4.438   0.168  1.0987 -0.0214 -0.1753
 3840TIP3   OH211525   1.761   5.643   5.125  0.2318  0.1853  0.0603
 3840TIP3    H111526   1.778   5.733   5.150  0.3722  0.1935 -0.0669
 3840TIP3    H211527   1.686   5.617   5.179  0.8837  0.0215  0.9181
 3841TIP3   OH211528   3.759   2.821   0.974  0.0496  0.0735 -0.0807
 3841TIP3    H111529   3.816   2.787   1.042 -1.0770 -1.4818  0.1455
 3841TIP3    H211530   3.688   2.757   0.968 -2.8080  2.8311  1.0638
 3842TIP3   OH211531   2.603   3.216   0.422  0.3934 -0.0473  0.3821
 3842TIP3    H111532   2.669   3.156   0.385 -0.2217 -0.7559  0.4107
 3842TIP3    H211533   2.610   3.294   0.368  0.1038 -0.7502 -0.7052
 3843TIP3   OH211534   3.595   2.844   0.274 -0.2562 -0.2070 -0.1995
 3843TIP3    H111535   3.634   2.928   0.296 -1.6246  0.2625  0.5899
 3843TIP3    H211536   3.669   2.784   0.266  0.6007  0.5573  1.5348
 3844TIP3   OH211537   5.122   0.936   3.994  0.4220  0.3559  0.2885
 3844TIP3    H111538   5.135   0.851   4.036  0.3589  0.9677  1.6076
 3844TIP3    H211539   5.185   0.994   4.038  0.9373  0.8562 -1.0519
 3845TIP3   OH211540   3.021   0.075   2.002 -0.1086  0.5114 -0.2334
 3845TIP3    H111541   3.024   0.067   2.097 -1.3639  0.0687 -0.2082
 3845TIP3    H211542   3.074   0.002   1.971 -1.3557 -0.5970  0.1340
 3846TIP3   OH211543   3.110   4.894   1.205  0.1663 -0.0578  0.3140
 3846TIP3    H111544   3.141   4.848   1.127 -0.8035  0.4110 -0.3667
 3846TIP3    H211545   3.190   4.911   1.255  0.8159 -0.3260 -0.5924
 3847TIP3   OH211546   2.984   2.914   4.755 -0.1631  0.3951  0.0604
 3847TIP3    H111547   2.929   2.992   4.749  0.7812  1.1535  0.9911
 3847TIP3    H211548   3.070   2.943   4.725  0.2164 -0.2669  0.5019
 3848TIP3   OH211549   1.733   3.117   3.443  0.5930 -0.1744  0.5094
 3848TIP3    H111550   1.744   3.036   3.493  0.4193  0.5106  1.6707
 3848TIP3    H211551   1.655   3.158   3.479  0.2717  0.1860 -0.5489
 3849TIP3   OH211552   1.654   1.496   1.346 -0.4546 -0.4034 -0.5030
 3849TIP3    H111553   1.636   1.491   1.439 -0.0722  1.6542 -0.2743
 3849TIP3    H211554   1.582   1.448   1.304 -1.0549 -0.6575  0.7916
 3850TIP3   OH211555   2.082   3.330   2.137 -0.1554 -0.3128 -0.1115
 3850TIP3    H111556   1.992   3.361   2.150 -0.0738  0.5885 -1.5274
 3850TIP3    H211557   2.095   3.331   2.042  1.9565  1.3935  0.1088
 3851TIP3   OH211558   6.172   2.355   4.966  0.2887 -0.5287  0.4236
 3851TIP3    H111559   6.246   2.303   4.998  0.7566  0.0361  0.2598
 3851TIP3    H211560   6.098   2.324   5.018  1.0978  0.6620  2.4126
 3852TIP3   OH211561   3.063   1.449   2.176 -1.0380 -0.4822 -0.0359
 3852TIP3    H111562   3.114   1.498   2.112  0.4068 -1.6865  0.1335
 3852TIP3    H211563   3.098   1.475   2.261 -0.7739 -1.2297  0.0932
 3853TIP3   OH211564   0.300   3.506   3.612 -0.4753  0.4943  0.2124
 3853TIP3    H111565   0.370   3.572   3.613 -0.9134  0.9676 -0.0606
 3853TIP3    H211566   0.230   3.546   3.562 -1.1489  0.2259  0.9255
 3854TIP3   OH211567   2.295   0.313   0.486  0.3739  0.0152  0.6375
 3854TIP3    H111568   2.333   0.335   0.401 -0.5085 -3.8696 -0.9749
 3854TIP3    H211569   2.208   0.352   0.484  0.6246  0.5709  0.0867
 3855TIP3   OH211570   4.180   1.368   1.009 -0.1203  0.0820 -0.6346
 3855TIP3    H111571   4.236   1.389   1.084 -0.3885 -0.2033 -0.3561
 3855TIP3    H211572   4.142   1.283   1.030 -0.9855  0.4632 -0.6331
 3856TIP3   OH211573   1.188   2.196   4.412  0.6044 -0.1451  0.1734
 3856TIP3    H111574   1.116   2.133   4.417  0.2877  0.2018 -0.0056
 3856TIP3    H211575   1.258   2.148   4.367  0.0219 -0.0622 -0.8583
 3857TIP3   OH211576   2.636   1.939   1.119 -0.4230 -0.4841 -0.0069
 3857TIP3    H111577   2.631   1.844   1.113  0.9714 -0.5994  0.1958
 3857TIP3    H211578   2.675   1.955   1.205 -0.6894  0.2740 -0.0187
 3858TIP3   OH211579   5.364   1.783   0.632 -0.1103  0.0175  0.5057
 3858TIP3    H111580   5.363   1.821   0.720  0.1749  0.2424  0.4147
 3858TIP3    H211581   5.317   1.846   0.578 -0.6851 -0.3382  0.5780
 3859TIP3   OH211582   0.049   4.540   2.227 -0.3062  0.5212 -0.4835
 3859TIP3    H111583   0.092   4.474   2.172  0.4948  0.5877  0.0557
 3859TIP3    H211584   0.112   4.559   2.296 -1.1453  0.7251  0.2484
 3860TIP3   OH211585   6.156   4.233   3.813  0.1078  0.0720  0.2949
 3860TIP3    H111586   6.073   4.279   3.825  0.4112  0.7591 -0.1540
 3860TIP3    H211587   6.203   4.246   3.896  0.4205  1.0728 -0.0224
 3861TIP3   OH211588   4.194   5.404   1.220  0.3143  0.2618 -0.1678
 3861TIP3    H111589   4.128   5.451   1.271  0.3502 -0.1011  0.2188
 3861TIP3    H211590   4.238   5.348   1.283 -0.8391 -1.5422 -0.8657
 3862TIP3   OH211591   4.071   1.485   2.425  0.0088 -0.6987  0.0818
 3862TIP3    H111592   4.069   1.531   2.509  0.2990 -0.4747 -0.0343
 3862TIP3    H211593   3.984   1.445   2.417 -0.3764  0.1417  0.0026
 3863TIP3   OH211594   1.618   3.206   0.504  0.5308  0.3098 -0.4918
 3863TIP3    H111595   1.560   3.184   0.577  0.2306  0.0740 -0.7983
 3863TIP3    H211596   1.563   3.198   0.426 -0.1978  4.1857 -0.5443
 3864TIP3   OH211597   0.700   1.448   4.098 -0.1236 -0.0126 -0.8572
 3864TIP3    H111598   0.768   1.429   4.163 -1.9050 -3.0707  0.3071
 3864TIP3    H211599   0.652   1.522   4.134  0.5456  0.0248 -0.0136
 3865TIP3   OH211600   3.197   3.177   1.087  0.0412 -0.0431  0.0185
 3865TIP3    H111601   3.284   3.212   1.105 -0.2766  0.5691  0.4446
 3865TIP3    H211602   3.170   3.137   1.170  0.1347 -0.7286 -0.2759
 3866TIP3   OH211603   0.894   3.302   1.428  0.1445 -0.4143 -0.2193
 3866TIP3    H111604   0.971   3.338   1.384 -0.3703 -2.0875 -2.6513
 3866TIP3    H211605   0.865   3.230   1.372 -1.8423 -1.3318  1.8273
 3867TIP3   OH211606   0.180   5.180   0.551  0.5378  0.8982  0.1958
 3867TIP3    H111607   0.094   5.147   0.527  0.9376 -0.4788  0.5733
 3867TIP3    H211608   0.214   5.116   0.614  2.4589  0.5603 -1.0832
 3868TIP3   OH211609   2.127   3.170   2.370  0.5004 -0.0818 -0.0736
 3868TIP3    H111610   2.120   3.259   2.405  1.4727 -0.4940  1.2604
 3868TIP3    H211611   2.119   3.180   2.275  0.4565  1.3974  0.0714
 3869TIP3   OH211612   6.258   4.450   0.943 -0.2441  0.2266 -0.3679
 3869TIP3    H111613   6.347   4.483   0.951 -0.2414 -0.1343  1.9108
 3869TIP3    H211614   6.261   4.388   0.870  1.1410  0.8543 -0.8728
 3870TIP3   OH211615   6.062   5.225   3.332 -0.2464 -0.3571 -0.5262
 3870TIP3    H111616   6.120   5.262   3.266  0.4536 -1.6244 -0.6498
 3870TIP3    H211617   6.018   5.153   3.288 -0.1816 -0.8702  0.2333
 3871TIP3   OH211618   1.670   5.095   2.506 -1.1372  0.6051 -0.4450
 3871TIP3    H111619   1.703   5.118   2.593  0.5656  2.1440 -1.4294
 3871TIP3    H211620   1.709   5.010   2.488 -2.1157 -0.0835  0.5721
 3872TIP3   OH211621   3.833   4.346   5.179 -0.1650 -0.2044 -0.1542
 3872TIP3    H111622   3.877   4.264   5.201 -0.4758 -0.1459  0.7171
 3872TIP3    H211623   3.739   4.326   5.185 -0.2444  0.1454 -0.2035
 3873TIP3   OH211624   2.241   5.444   4.411 -0.4931 -0.1336 -0.4618
 3873TIP3    H111625   2.186   5.387   4.465 -0.6997 -0.2466 -0.7872
 3873TIP3    H211626   2.331   5.421   4.435 -0.5389  1.6306  1.7498
 3874TIP3   OH211627   4.706   4.834   3.936 -0.1688  0.2016  0.5013
 3874TIP3    H111628   4.734   4.758   3.884 -1.8067 -0.6998  0.8634
 3874TIP3    H211629   4.783   4.892   3.937  1.9173 -2.3571  1.9753
 3875TIP3   OH211630   5.115   3.394   1.267 -0.1796 -0.4312  0.2456
 3875TIP3    H111631   5.055   3.438   1.208  0.1375 -2.4555 -1.7183
 3875TIP3    H211632   5.143   3.462   1.329 -1.8787  1.3393 -0.8457
 3876TIP3   OH211633   0.600   4.142   5.073 -0.0479 -0.4431  0.5313
 3876TIP3    H111634   0.598   4.104   4.985 -0.4579  0.6984  0.0306
 3876TIP3    H211635   0.514   4.124   5.109 -1.1931  2.1927 -0.6915
 3877TIP3   OH211636   5.848   1.198   3.638  0.0307  0.3082 -0.3372
 3877TIP3    H111637   5.909   1.243   3.697 -0.5643 -1.9581  2.2125
 3877TIP3    H211638   5.762   1.212   3.678 -0.5500 -0.2874 -1.3411
 3878TIP3   OH211639   2.305   1.143   1.195  0.6336  0.2848  0.1604
 3878TIP3    H111640   2.265   1.105   1.116  0.6083 -0.5288  0.5503
 3878TIP3    H211641   2.342   1.067   1.240 -1.9104  0.2629  2.4515
 3879TIP3   OH211642   0.895   3.235   0.970  0.4220 -0.0668  0.1540
 3879TIP3    H111643   0.830   3.256   1.036 -1.1667 -1.1638 -0.9938
 3879TIP3    H211644   0.913   3.319   0.927 -0.3219  0.2370  0.4249
 3880TIP3   OH211645   4.149   0.881   2.523 -0.0145 -0.0375 -0.6300
 3880TIP3    H111646   4.085   0.815   2.495 -0.5778  0.7423 -1.2221
 3880TIP3    H211647   4.113   0.915   2.605  0.0826 -0.2048 -0.5181
 3881TIP3   OH211648   3.911   2.434   3.428 -0.7802 -0.0022 -0.1440
 3881TIP3    H111649   3.914   2.523   3.394 -1.3106  0.4923  1.0299
 3881TIP3    H211650   3.818   2.414   3.435 -0.8177  0.6632  2.7179
 3882TIP3   OH211651   5.714   5.258   3.901 -0.1314  0.2893 -0.0694
 3882TIP3    H111652   5.632   5.307   3.901 -0.6027 -0.4792  0.2165
 3882TIP3    H211653   5.719   5.220   3.989 -0.5534 -1.4003 -0.7235
 3883TIP3   OH211654   0.817   3.171   5.092  0.3316  0.2590  0.4645
 3883TIP3    H111655   0.827   3.240   5.157 -0.2849  1.0800 -0.2781
 3883TIP3    H211656   0.731   3.133   5.109 -0.3162  1.2203 -0.5272
 3884TIP3   OH211657   5.453   4.178   0.612 -0.2361 -0.5110  0.1235
 3884TIP3    H111658   5.476   4.173   0.519 -1.5199 -1.4765 -0.1767
 3884TIP3    H211659   5.510   4.246   0.648  0.4726 -0.3190 -1.3079
 3885TIP3   OH211660   1.128   2.972   2.216 -0.1322  0.3341  0.1563
 3885TIP3    H111661   1.149   2.944   2.127  0.3283 -1.1270  0.6850
 3885TIP3    H211662   1.034   2.990   2.214 -0.1426  0.2101 -0.6106
 3886TIP3   OH211663   2.450   4.952   4.980 -0.3210  0.1806 -0.5834
 3886TIP3    H111664   2.436   4.859   4.966  1.2215 -0.5331  1.8958
 3886TIP3    H211665   2.513   4.956   5.052  2.5798  3.0755 -2.9338
 3887TIP3   OH211666   6.024   5.518   2.094  0.2489 -0.1409  0.4863
 3887TIP3    H111667   6.115   5.548   2.105 -0.3402  0.9144  3.0258
 3887TIP3    H211668   5.972   5.597   2.098 -0.7938 -0.4855 -2.9050
 3888TIP3   OH211669   5.184   2.566   1.604  0.0442  0.1190  0.2638
 3888TIP3    H111670   5.128   2.489   1.614 -1.9248  1.5100  0.5977
 3888TIP3    H211671   5.248   2.560   1.675 -0.9693 -0.5082  1.1467
 3889TIP3   OH211672   2.224   4.456   4.737  0.1527  0.0505 -0.1050
 3889TIP3    H111673   2.181   4.394   4.677 -1.6410 -0.5001  1.6389
 3889TIP3    H211674   2.227   4.538   4.689 -0.3363 -0.6115 -1.3115
 3890TIP3   OH211675   1.892   2.178   4.097 -0.2380  0.0842  0.0378
 3890TIP3    H111676   1.954   2.248   4.078  0.8072 -0.5100  1.1368
 3890TIP3    H211677   1.946   2.100   4.107 -1.1537 -0.4387  1.0868
 3891TIP3   OH211678   2.431   2.752   1.263 -0.2285  0.1338 -0.0677
 3891TIP3    H111679   2.522   2.751   1.233  0.0286 -0.3535  0.6828
 3891TIP3    H211680   2.380   2.753   1.183  0.4295  1.7507 -0.5015
 3892TIP3   OH211681   5.925   4.305   2.757  0.4128 -0.5677 -0.4102
 3892TIP3    H111682   5.981   4.347   2.822 -0.3084  0.8991 -0.6796
 3892TIP3    H211683   5.872   4.243   2.807 -1.3106  1.7275  0.7611
 3893TIP3   OH211684   4.280   5.687   0.116 -0.4525 -0.9002 -0.7264
 3893TIP3    H111685   4.281   5.611   0.173  1.1722  0.3702  1.0804
 3893TIP3    H211686   4.367   5.726   0.126 -0.9833  0.8101 -2.1302
 3894TIP3   OH211687   2.071   5.711   2.568 -0.0157  0.1947 -0.4676
 3894TIP3    H111688   1.983   5.746   2.558  0.6715  1.5967 -2.0880
 3894TIP3    H211689   2.069   5.626   2.524 -0.0135  1.2406 -2.6206
 3895TIP3   OH211690   3.312   0.527   1.136 -0.0811 -0.3343 -0.0366
 3895TIP3    H111691   3.246   0.459   1.145 -0.2556  0.0242  1.8249
 3895TIP3    H211692   3.354   0.532   1.222 -0.2300  2.0356 -0.0219
 3896TIP3   OH211693   4.579   3.532   3.926 -0.2199 -0.5275  0.5732
 3896TIP3    H111694   4.528   3.500   3.852 -1.5664 -0.9638  1.6526
 3896TIP3    H211695   4.547   3.621   3.940  0.2912 -0.3173  0.4013
 3897TIP3   OH211696   6.272   3.964   3.403 -0.1687 -0.3877  0.6099
 3897TIP3    H111697   6.205   4.004   3.458 -0.3418  0.0314  0.1027
 3897TIP3    H211698   6.222   3.909   3.342 -0.0719  0.1434  0.0504
 3898TIP3   OH211699   5.183   3.299   2.834  0.5697 -0.0510 -0.4561
 3898TIP3    H111700   5.174   3.349   2.753 -1.6707 -0.1809 -0.3557
 3898TIP3    H211701   5.114   3.334   2.891  2.1271  0.0997  1.4578
 3899TIP3   OH211702   3.246   4.137   1.699 -0.1896 -0.2984  0.1733
 3899TIP3    H111703   3.157   4.167   1.679  0.5779  1.7057 -0.4240
 3899TIP3    H211704   3.233   4.068   1.765 -2.3148 -1.8012 -1.6338
 3900TIP3   OH211705   2.705   4.129   2.405  0.9281  0.5514 -0.6791
 3900TIP3    H111706   2.742   4.065   2.344 -0.4132  0.1372 -1.0865
 3900TIP3    H211707   2.698   4.209   2.354  0.2564  0.3340 -0.9383
 3901TIP3   OH211708   4.905   0.055   0.986  0.3606  0.0391  0.0288
 3901TIP3    H111709   4.991   0.014   0.995  0.3888 -0.4230 -1.8949
 3901TIP3    H211710   4.854  -0.008   0.936 -1.6983 -0.4530  2.5461
 3902TIP3   OH211711   1.996   0.283   2.652  0.0367 -0.4940 -0.0977
 3902TIP3    H111712   1.998   0.249   2.742 -1.4434 -0.4318 -0.0230
 3902TIP3    H211713   1.938   0.223   2.605  0.1797 -0.0680 -0.8321
 3903TIP3   OH211714   0.149   4.903   4.447 -0.1670  0.5285 -0.6133
 3903TIP3    H111715   0.137   4.880   4.355 -0.8383  2.1558 -0.9693
 3903TIP3    H211716   0.123   4.995   4.453 -0.0746  0.4883  1.1970
 3904TIP3   OH211717   3.644   2.965   0.598 -0.6944  0.3716 -0.3599
 3904TIP3    H111718   3.584   2.896   0.625 -1.1842 -0.0423 -2.2999
 3904TIP3    H211719   3.587   3.035   0.566 -0.1796  0.3553 -1.3589
 3905TIP3   OH211720   0.521   0.950   1.668  0.1673  0.2855 -0.4334
 3905TIP3    H111721   0.476   0.974   1.587  0.5765  0.7673 -0.5190
 3905TIP3    H211722   0.599   1.006   1.670  0.1712  0.2621  0.2778
 3906TIP3   OH211723   1.523   5.449   1.563  0.2339 -0.3781  0.1247
 3906TIP3    H111724   1.583   5.436   1.489  0.7137 -1.3852  0.6630
 3906TIP3    H211725   1.441   5.410   1.535  0.0899  0.2052 -0.2772
 3907TIP3   OH211726   5.163   3.542   4.374  0.0016  0.2628 -0.2442
 3907TIP3    H111727   5.176   3.532   4.469  2.3338 -0.8692 -0.6344
 3907TIP3    H211728   5.086   3.488   4.355  0.2707 -0.5401  0.8231
 3908TIP3   OH211729   2.004   3.698   3.317  0.4301 -0.0259  0.2123
 3908TIP3    H111730   1.916   3.660   3.324  0.8616 -0.7652  2.8868
 3908TIP3    H211731   2.063   3.624   3.335  1.4376  1.0869  1.6757
 3909TIP3   OH211732   2.276   2.885   4.292  0.0267 -0.2269 -0.7164
 3909TIP3    H111733   2.242   2.802   4.257  0.7869 -0.5944 -0.5956
 3909TIP3    H211734   2.367   2.888   4.263  0.2027  0.2348 -0.1390
 3910TIP3   OH211735   0.439   1.855   2.601  0.4727  0.2918  0.0503
 3910TIP3    H111736   0.534   1.849   2.592  0.5119  0.8593  0.0831
 3910TIP3    H211737   0.413   1.922   2.537 -0.2751 -2.0404 -2.3059
 3911TIP3   OH211738   3.382   2.826   1.560 -0.2665  0.3316 -0.4963
 3911TIP3    H111739   3.371   2.753   1.498  0.3580  0.4786 -0.7815
 3911TIP3    H211740   3.371   2.905   1.508  2.0497  0.4984 -0.8122
 3912TIP3   OH211741   1.483   4.035   2.859  0.0707 -0.4822  0.5392
 3912TIP3    H111742   1.530   4.026   2.941  0.6720 -0.1035  0.2396
 3912TIP3    H211743   1.395   4.064   2.884  0.3709  0.0109  1.0184
 3913TIP3   OH211744   3.359   3.837   4.644 -0.2302 -0.1142  0.1393
 3913TIP3    H111745   3.348   3.921   4.600 -2.8640 -0.0286  0.8007
 3913TIP3    H211746   3.399   3.781   4.577 -1.2783  0.8486 -1.3858
 3914TIP3   OH211747   0.612   3.890   3.472  0.2908  0.5854 -0.4338
 3914TIP3    H111748   0.610   3.939   3.555 -0.2302  0.1600 -0.1888
 3914TIP3    H211749   0.594   3.956   3.405  3.7853  1.5851 -0.5641
 3915TIP3   OH211750   0.455   4.641   4.341 -0.0817  0.6261 -0.1374
 3915TIP3    H111751   0.373   4.620   4.297 -0.1347  0.9758 -0.2118
 3915TIP3    H211752   0.438   4.623   4.434  0.5364 -1.6831 -0.4032
 3916TIP3   OH211753   3.826   2.537   3.721  0.3980  0.0583  0.2212
 3916TIP3    H111754   3.891   2.537   3.791 -0.6893  0.7490  1.2586
 3916TIP3    H211755   3.752   2.488   3.756 -0.8839  1.9504  0.3151
 3917TIP3   OH211756   1.101   4.611   1.739 -0.4984  0.0515  0.4217
 3917TIP3    H111757   1.047   4.651   1.671  0.8785  0.5583 -0.4206
 3917TIP3    H211758   1.185   4.597   1.697 -0.1543 -1.3313  1.4980
 3918TIP3   OH211759   2.390   1.544   1.483  0.6972  0.0184 -0.3559
 3918TIP3    H111760   2.385   1.498   1.400 -0.1222 -1.1068  0.2841
 3918TIP3    H211761   2.302   1.580   1.496  0.5086 -0.6834  0.4726
 3919TIP3   OH211762   4.360   5.802   4.384  0.1250  0.3225 -0.5235
 3919TIP3    H111763   4.417   5.733   4.417  0.9092  0.6837 -1.0941
 3919TIP3    H211764   4.405   5.883   4.405  0.7864  0.5668 -2.6426
 3920TIP3   OH211765   0.728   4.424   4.179 -0.6406  0.4734  0.0748
 3920TIP3    H111766   0.686   4.369   4.113  0.1680  0.5963 -0.5576
 3920TIP3    H211767   0.822   4.406   4.169 -0.5274  0.2004  1.4632
 3921TIP3   OH211768   3.565   4.811   2.542  0.2598  0.0148 -0.4965
 3921TIP3    H111769   3.583   4.894   2.498 -0.7790  0.0276 -0.9321
 3921TIP3    H211770   3.642   4.757   2.525  0.3286  0.3928 -1.4300
 3922TIP3   OH211771   0.632   4.088   3.251  0.2027  0.0462  0.7042
 3922TIP3    H111772   0.726   4.079   3.266  0.3612 -0.6926 -0.5149
 3922TIP3    H211773   0.619   4.182   3.236  0.9066  0.0552  0.0415
 3923TIP3   OH211774   5.648   2.598   2.019 -0.4598  0.1967  0.1703
 3923TIP3    H111775   5.642   2.507   1.989 -2.1581 -0.4463  2.1914
 3923TIP3    H211776   5.740   2.607   2.047 -0.2094 -0.8191 -0.2813
 3924TIP3   OH211777   4.161   2.686   1.593  0.4855  0.2045 -0.5312
 3924TIP3    H111778   4.142   2.689   1.499 -0.5145 -0.7694 -0.3905
 3924TIP3    H211779   4.120   2.765   1.628  0.0028  0.0751 -0.7894
 3925TIP3   OH211780   0.646   3.794   5.089 -0.0501 -0.3228 -0.2800
 3925TIP3    H111781   0.709   3.810   5.159 -0.2398  0.0356 -0.1885
 3925TIP3    H211782   0.680   3.844   5.014 -1.9253  2.7389  0.6945
 3926TIP3   OH211783   5.230   4.875   0.567  0.0574 -0.3449 -0.2295
 3926TIP3    H111784   5.221   4.828   0.484 -0.7563 -1.7538  0.6215
 3926TIP3    H211785   5.247   4.807   0.632 -1.6409  0.4243  1.1294
 3927TIP3   OH211786   0.206   4.340   0.467  0.0309  0.1487 -1.0840
 3927TIP3    H111787   0.238   4.381   0.387 -1.0890 -1.2031 -2.2888
 3927TIP3    H211788   0.276   4.282   0.494  0.0874 -0.0296 -1.5934
 3928TIP3   OH211789   1.181   5.992   2.441  0.5200 -0.1537  0.4273
 3928TIP3    H111790   1.101   5.942   2.455  0.2095  0.7286  2.0573
 3928TIP3    H211791   1.217   5.957   2.359 -1.8738 -0.0618 -0.7363
 3929TIP3   OH211792   1.105   1.147  -0.006 -0.0645  0.5875  0.2356
 3929TIP3    H111793   1.099   1.233   0.037 -0.5753  0.0524  1.2759
 3929TIP3    H211794   1.014   1.124  -0.025  0.1956  1.1124 -1.7877
 3930TIP3   OH211795   3.188   4.974   4.931 -0.1862 -0.0638  0.0678
 3930TIP3    H111796   3.165   4.989   4.840  0.5349 -1.3960 -0.3529
 3930TIP3    H211797   3.281   4.996   4.936  0.1109 -1.2826  0.1527
 3931TIP3   OH211798   2.787   3.120   3.938  0.0422  0.0930  0.2617
 3931TIP3    H111799   2.834   3.190   3.894  0.1589  0.1205  0.4283
 3931TIP3    H211800   2.825   3.117   4.026 -1.0046  0.8405  0.7496
 3932TIP3   OH211801   2.675   5.023   3.139  0.4843  0.1994  0.6572
 3932TIP3    H111802   2.669   4.939   3.185 -2.3152  0.6811  1.3985
 3932TIP3    H211803   2.677   5.000   3.046 -0.2990 -0.7284  0.8499
 3933TIP3   OH211804   3.763   0.375   2.650  0.8215 -0.0867 -0.2557
 3933TIP3    H111805   3.725   0.287   2.648 -0.6792  0.4763  1.0338
 3933TIP3    H211806   3.715   0.423   2.583 -0.7713  0.5808  1.2657
 3934TIP3   OH211807   1.307   1.277   1.494 -0.4068  0.2419 -0.2913
 3934TIP3    H111808   1.357   1.215   1.441  1.4227 -0.1060  1.6877
 3934TIP3    H211809   1.236   1.225   1.532 -1.0735  0.2449 -1.5074
 3935TIP3   OH211810   3.730   3.451   2.038  0.2959  0.6164  0.4747
 3935TIP3    H111811   3.814   3.440   1.993 -0.1585 -0.3464 -0.1642
 3935TIP3    H211812   3.665   3.424   1.974 -0.6293  2.6636  0.4729
 3936TIP3   OH211813   2.477   3.558   4.075 -0.6266 -0.6553  0.4014
 3936TIP3    H111814   2.419   3.634   4.065  0.6041  0.1389 -1.1692
 3936TIP3    H211815   2.488   3.548   4.170 -2.1828  0.0308  0.6839
 3937TIP3   OH211816   3.533   2.959   3.633 -0.2001  0.2297  0.2675
 3937TIP3    H111817   3.586   2.884   3.605 -2.0798 -0.3038 -2.1735
 3937TIP3    H211818   3.499   2.933   3.719  1.8777 -0.2010  1.0243
 3938TIP3   OH211819   4.403   2.607   2.853 -0.9587  0.0826 -0.5319
 3938TIP3    H111820   4.420   2.519   2.821 -0.7800  0.3235 -1.1195
 3938TIP3    H211821   4.440   2.609   2.941 -0.9945 -0.4355 -0.5044
 3939TIP3   OH211822   6.012   4.018   0.770  0.1150 -0.5289  0.2880
 3939TIP3    H111823   6.055   3.957   0.830  0.5419 -0.4218  0.0926
 3939TIP3    H211824   5.919   4.007   0.788  0.2706  0.2657  1.7190
 3940TIP3   OH211825   1.066   2.055   4.078 -0.1234 -0.4532  0.4915
 3940TIP3    H111826   1.104   2.143   4.073  0.3596 -0.6764  0.1707
 3940TIP3    H211827   0.986   2.067   4.129 -0.8322  0.4542 -0.7488
 3941TIP3   OH211828   1.217   4.884   3.240  1.1055  0.1398 -0.7912
 3941TIP3    H111829   1.152   4.954   3.232  2.9582  1.9034 -1.4265
 3941TIP3    H211830   1.188   4.817   3.178 -0.0764  0.9026 -1.0870
 3942TIP3   OH211831   0.804   5.218   0.565 -0.3341 -0.1655 -0.7700
 3942TIP3    H111832   0.812   5.163   0.487  0.7678  0.5036 -1.1457
 3942TIP3    H211833   0.822   5.159   0.638 -0.3766 -0.5654 -1.0805
 3943TIP3   OH211834   3.066   5.614   4.314  0.8132 -0.3865 -0.0595
 3943TIP3    H111835   2.980   5.587   4.347  0.8509 -0.2587  0.1447
 3943TIP3    H211836   3.129   5.565   4.368  0.8646 -2.0696 -1.5441
 3944TIP3   OH211837   2.937   2.735   0.733  0.0467 -0.0437 -0.5604
 3944TIP3    H111838   2.904   2.793   0.664 -0.7870 -0.3928 -0.4706
 3944TIP3    H211839   2.858   2.697   0.772  0.5792 -1.3891 -0.7416
 3945TIP3   OH211840   5.840   2.584   2.598 -0.1600  0.2557  0.4842
 3945TIP3    H111841   5.795   2.500   2.600 -0.0524  0.1800  0.0288
 3945TIP3    H211842   5.931   2.561   2.576  0.0666  0.4180  1.2334
 3946TIP3   OH211843   1.650   2.334   3.058  0.2108  0.3574 -0.1354
 3946TIP3    H111844   1.670   2.422   3.089 -0.0439  0.6357 -0.7390
 3946TIP3    H211845   1.634   2.345   2.964 -0.3033 -0.2495 -0.1238
 3947TIP3   OH211846   4.107   0.380   1.398  0.4906 -0.5254  0.4600
 3947TIP3    H111847   4.062   0.463   1.409 -0.6160 -1.0220 -0.2075
 3947TIP3    H211848   4.149   0.386   1.312  0.0371 -0.8239  0.2160
 3948TIP3   OH211849   4.806   3.367   0.830  0.6889  0.0083 -0.1229
 3948TIP3    H111850   4.805   3.272   0.842  1.3486  0.0120  0.0265
 3948TIP3    H211851   4.744   3.401   0.894  1.7438 -0.2084  1.0588
 3949TIP3   OH211852   0.667   0.720   4.452  0.6983  0.3344 -0.1690
 3949TIP3    H111853   0.676   0.643   4.508 -1.0523  2.0982  2.7590
 3949TIP3    H211854   0.573   0.736   4.448  1.0583  2.9062  0.1871
 3950TIP3   OH211855   5.398   4.238   4.713  0.3039  0.2358 -0.1496
 3950TIP3    H111856   5.413   4.168   4.776 -0.9063  0.6643  0.6446
 3950TIP3    H211857   5.328   4.205   4.657  1.2154 -0.0496 -1.1657
 3951TIP3   OH211858   2.178   1.557   1.011 -0.8712  0.5970  0.4254
 3951TIP3    H111859   2.122   1.480   1.017 -1.5513  1.1003  0.5994
 3951TIP3    H211860   2.231   1.542   0.933  0.4316 -0.9872  1.5411
 3952TIP3   OH211861   3.836   4.280   3.749 -0.3219  0.5251  0.0329
 3952TIP3    H111862   3.772   4.348   3.770 -1.9687 -1.5372  2.2770
 3952TIP3    H211863   3.828   4.217   3.821  1.9685 -1.4485 -1.3061
 3953TIP3   OH211864   2.878   2.371   3.498  0.2480  0.3841 -0.1468
 3953TIP3    H111865   2.909   2.295   3.449 -1.6131 -0.1986 -0.4857
 3953TIP3    H211866   2.863   2.438   3.431  0.2252  0.4688 -0.0573
 3954TIP3   OH211867   4.056   0.577   2.140 -0.0723 -0.1669  0.9216
 3954TIP3    H111868   4.130   0.577   2.078 -0.3023 -0.6701  0.6406
 3954TIP3    H211869   4.069   0.498   2.192 -1.7156 -1.6221 -0.7295
 3955TIP3   OH211870   1.751   0.832   2.544  0.2891 -0.2335  0.1541
 3955TIP3    H111871   1.754   0.882   2.626 -0.8710 -2.9073  1.9852
 3955TIP3    H211872   1.742   0.898   2.476  0.0759  2.0805  2.2665
 3956TIP3   OH211873   1.060   2.179   3.155  0.3294 -0.4263 -0.0199
 3956TIP3    H111874   1.062   2.094   3.200  1.8436  0.1951  1.1767
 3956TIP3    H211875   1.113   2.167   3.077 -2.8249 -1.6966 -2.1819
 3957TIP3   OH211876   4.696   3.878   3.476 -0.4017  0.0583 -0.5572
 3957TIP3    H111877   4.776   3.840   3.513 -1.3749  0.6495  2.3797
 3957TIP3    H211878   4.626   3.821   3.507 -1.3033  0.5157 -1.6896
 3958TIP3   OH211879   3.646   2.932   1.617 -0.5139  0.0276 -0.4412
 3958TIP3    H111880   3.562   2.889   1.634 -0.6271  0.4122 -0.0337
 3958TIP3    H211881   3.625   3.025   1.615  0.1506  0.2541  1.2656
 3959TIP3   OH211882   2.741   2.933   1.876 -0.1550 -1.1359 -0.1999
 3959TIP3    H111883   2.787   2.851   1.859  1.9609 -0.2617  0.9470
 3959TIP3    H211884   2.700   2.921   1.962 -1.4678 -1.6358 -0.8754
 3960TIP3   OH211885   2.914   4.733   1.349 -0.2783 -0.6614  0.3549
 3960TIP3    H111886   3.001   4.756   1.318  0.1150 -2.1913  0.2596
 3960TIP3    H211887   2.913   4.761   1.441  1.1205 -2.5264  1.0143
 3961TIP3   OH211888   3.051   4.428   3.593 -0.0704 -0.2864  0.7143
 3961TIP3    H111889   3.116   4.381   3.644  1.2836 -1.0148 -1.5543
 3961TIP3    H211890   2.974   4.371   3.593  0.3400 -0.8494  0.9369
 3962TIP3   OH211891   0.365   4.515   5.171  0.1205  0.1801  0.3341
 3962TIP3    H111892   0.426   4.588   5.176  1.1076 -0.6413  0.7083
 3962TIP3    H211893   0.281   4.551   5.200  0.4244  1.3172 -0.1568
 3963TIP3   OH211894   3.869   0.645   1.130  0.5103 -0.1864  0.2191
 3963TIP3    H111895   3.884   0.681   1.218 -0.1067  0.2302  0.1582
 3963TIP3    H211896   3.778   0.618   1.130  0.5574 -0.3486 -0.2382
 3964TIP3   OH211897   2.931   3.390   1.894 -0.0532 -0.0407 -0.3540
 3964TIP3    H111898   3.009   3.399   1.839  0.7025 -0.0727  0.6845
 3964TIP3    H211899   2.952   3.440   1.973 -1.8073  1.4664 -0.7802
 3965TIP3   OH211900   5.051   1.966   2.562  0.0566 -0.7728 -0.0175
 3965TIP3    H111901   5.010   2.000   2.482 -0.7531 -1.4337  0.1058
 3965TIP3    H211902   5.121   1.910   2.530  2.5853  2.2100 -0.2433
 3966TIP3   OH211903   5.140   2.792   4.280  0.3625  0.9023 -0.1720
 3966TIP3    H111904   5.176   2.712   4.242 -1.2919 -0.2636  0.6130
 3966TIP3    H211905   5.213   2.829   4.330  2.4002  2.1475 -3.7248
 3967TIP3   OH211906   2.808   2.546   0.965  0.1462 -0.1978  0.1260
 3967TIP3    H111907   2.795   2.634   1.000 -0.5060  0.0209 -0.6404
 3967TIP3    H211908   2.733   2.496   0.996 -0.4250 -0.0083 -0.9188
 3968TIP3   OH211909   4.201   0.526   1.887  0.4246  0.2033 -0.3918
 3968TIP3    H111910   4.212   0.621   1.878 -1.0315  0.4454  0.0029
 3968TIP3    H211911   4.186   0.495   1.798  0.3914  0.4301 -0.4665
 3969TIP3   OH211912   4.487   5.541   4.603 -0.1952 -0.4225  0.1521
 3969TIP3    H111913   4.542   5.467   4.627 -0.9099 -0.5671  1.4515
 3969TIP3    H211914   4.488   5.542   4.508  2.0871 -0.3762  0.1196
 3970TIP3   OH211915   3.741   1.606   2.774 -0.8126  0.3745 -0.5699
 3970TIP3    H111916   3.711   1.553   2.848  0.4534 -0.3547 -0.5466
 3970TIP3    H211917   3.668   1.665   2.756 -2.1525 -1.1228 -0.3460
 3971TIP3   OH211918   2.470   2.213   5.011 -0.0990 -0.2329 -0.0818
 3971TIP3    H111919   2.505   2.288   5.059  0.2593 -0.3898 -0.0939
 3971TIP3    H211920   2.409   2.172   5.073  0.6575 -0.6660  0.3913
 3972TIP3   OH211921   3.900   0.488   0.592  0.9939 -0.2444  0.4012
 3972TIP3    H111922   3.862   0.401   0.582  0.3520  0.1832 -1.3229
 3972TIP3    H211923   3.990   0.478   0.561  0.1935  0.1761 -2.3593
 3973TIP3   OH211924   5.599   3.955   3.490  0.2443  0.2000 -0.7135
 3973TIP3    H111925   5.690   3.980   3.506 -0.3966  2.5937 -0.4251
 3973TIP3    H211926   5.601   3.904   3.409  1.7238  1.1152 -1.2832
 3974TIP3   OH211927   5.794   3.510   1.221 -0.4563 -0.2542 -0.5141
 3974TIP3    H111928   5.847   3.451   1.167  2.0905  0.5416  0.9448
 3974TIP3    H211929   5.747   3.452   1.280 -0.5576 -0.9581 -1.2680
 3975TIP3   OH211930   1.758   1.833   0.408 -0.6362  0.1401 -0.0836
 3975TIP3    H111931   1.844   1.843   0.449 -0.1205 -0.1467 -1.0714
 3975TIP3    H211932   1.700   1.809   0.480  0.2683 -0.4530  0.4599
 3976TIP3   OH211933   5.412   0.245   1.091  0.0012 -0.0735 -0.2135
 3976TIP3    H111934   5.489   0.299   1.070  0.0662 -0.6529 -1.5941
 3976TIP3    H211935   5.353   0.305   1.137  0.0942  1.1960 -1.6606
 3977TIP3   OH211936   3.534   4.760   1.541  0.3124 -0.2017  0.0537
 3977TIP3    H111937   3.578   4.675   1.546  2.3372  0.8374  1.1683
 3977TIP3    H211938   3.557   4.803   1.623 -0.5764  1.4927 -0.5458
 3978TIP3   OH211939   5.755   5.440   4.106  0.2756  0.4252  0.4936
 3978TIP3    H111940   5.826   5.484   4.154  0.0075  1.1888  0.2155
 3978TIP3    H211941   5.797   5.408   4.026  0.6208 -0.4341  1.0114
 3979TIP3   OH211942   3.292   3.629   2.279 -0.0220  0.3882 -0.4964
 3979TIP3    H111943   3.292   3.623   2.375 -0.8600  2.9067 -0.2682
 3979TIP3    H211944   3.384   3.635   2.255  0.1926 -0.2561  0.1425
 3980TIP3   OH211945   3.575   3.187   4.161  0.1709  0.0820  0.2452
 3980TIP3    H111946   3.609   3.230   4.082  1.0503 -0.3758  0.3639
 3980TIP3    H211947   3.550   3.260   4.218 -2.5327  0.4665 -1.2491
 3981TIP3   OH211948   2.120   3.937   2.507 -0.4788  0.1331  0.0316
 3981TIP3    H111949   2.085   4.025   2.523 -1.9083 -0.2164 -0.9168
 3981TIP3    H211950   2.158   3.943   2.419  0.1241 -0.0054  0.2800
 3982TIP3   OH211951   4.973   4.134   1.479 -0.1846  0.1484 -0.5201
 3982TIP3    H111952   5.045   4.179   1.436 -1.8297  1.4828 -2.0790
 3982TIP3    H211953   4.960   4.181   1.561 -1.1311  1.9150 -1.6011
 3983TIP3   OH211954   4.698   2.389   1.468 -0.1574 -0.4048  0.1475
 3983TIP3    H111955   4.701   2.479   1.502 -0.0696 -0.7744  1.1624
 3983TIP3    H211956   4.634   2.393   1.397 -0.5565  0.3544  0.5306
 3984TIP3   OH211957   0.840   4.525   2.050  0.6397 -0.1014  0.2298
 3984TIP3    H111958   0.852   4.589   1.979  1.2451 -0.7703 -0.2834
 3984TIP3    H211959   0.922   4.476   2.051 -0.3352 -1.8239 -0.3333
 3985TIP3   OH211960   4.391   4.497   1.563  0.2591  0.2203 -0.0387
 3985TIP3    H111961   4.331   4.436   1.606  0.2020  0.6636  0.5321
 3985TIP3    H211962   4.435   4.445   1.497  2.2608 -1.2175  2.2637
 3986TIP3   OH211963   5.337   1.040   0.370 -0.0239  0.5801  0.0229
 3986TIP3    H111964   5.364   1.092   0.294 -0.4428 -0.3889 -0.8202
 3986TIP3    H211965   5.407   1.054   0.434  0.3837  1.3545 -0.5657
 3987TIP3   OH211966   0.324   5.442   1.299  0.4700 -0.1479  0.3360
 3987TIP3    H111967   0.265   5.368   1.312 -0.5361  0.3525 -1.1594
 3987TIP3    H211968   0.410   5.402   1.288  0.7050 -0.8219  3.7256
 3988TIP3   OH211969   2.894   2.709   2.346 -0.3441  0.0180 -0.3096
 3988TIP3    H111970   2.866   2.673   2.262 -0.2392  2.3265 -1.4115
 3988TIP3    H211971   2.819   2.760   2.376 -0.2878 -0.5861  0.8992
 3989TIP3   OH211972   1.250   5.026   0.824 -0.0496  0.0953  0.2395
 3989TIP3    H111973   1.327   5.021   0.768 -0.8406 -0.8813 -0.7883
 3989TIP3    H211974   1.192   5.088   0.780  0.0543  0.7032  0.9284
 3990TIP3   OH211975   4.903   3.137   5.149  0.0491  0.1327  0.6586
 3990TIP3    H111976   4.958   3.159   5.225  1.3663 -3.9416  1.1057
 3990TIP3    H211977   4.951   3.174   5.074  0.5611  1.1965  1.4714
 3991TIP3   OH211978   2.849   0.613   0.548  0.0424  0.1063 -0.2062
 3991TIP3    H111979   2.849   0.537   0.606  0.2614 -1.4192 -2.0868
 3991TIP3    H211980   2.898   0.680   0.596 -0.4695 -0.8033  1.6578
 3992TIP3   OH211981   2.054   1.149   0.207  0.0126 -0.3882  0.0377
 3992TIP3    H111982   2.014   1.194   0.281  0.7019 -0.7355  0.6394
 3992TIP3    H211983   2.127   1.206   0.182 -0.2686 -0.2302 -0.4336
 3993TIP3   OH211984   3.444   2.845   0.829 -0.3919 -0.3412  0.1054
 3993TIP3    H111985   3.511   2.786   0.863 -1.4561 -0.2135  2.6756
 3993TIP3    H211986   3.366   2.790   0.820 -0.5789  0.0207 -0.5332
 3994TIP3   OH211987   5.427   3.711   2.629  0.1184 -0.1309 -0.5880
 3994TIP3    H111988   5.415   3.803   2.608  2.2119  0.8603  1.8804
 3994TIP3    H211989   5.520   3.704   2.650  0.0975 -2.9214 -1.1036
 3995TIP3   OH211990   4.895   5.995   0.395 -0.2684  0.1719 -0.5081
 3995TIP3    H111991   4.957   5.935   0.353  1.0525  0.8987  0.3215
 3995TIP3    H211992   4.812   5.947   0.397  0.2430 -0.8160 -1.6883
 3996TIP3   OH211993   2.911   1.550   2.862  0.0955 -0.6289  0.0368
 3996TIP3    H111994   2.843   1.516   2.920 -0.4461 -1.9707 -1.3352
 3996TIP3    H211995   2.952   1.472   2.824  1.7574  0.1718  0.0708
 3997TIP3   OH211996   4.722   3.166   2.348  0.2221 -0.4718 -0.6313
 3997TIP3    H111997   4.721   3.262   2.359  1.4718 -0.4918 -0.2254
 3997TIP3    H211998   4.669   3.134   2.421  1.7765 -0.1825  0.6909
 3998TIP3   OH211999   3.977   0.590   0.228  0.5023 -0.4473  0.0582
 3998TIP3    H112000   3.946   0.516   0.176  0.2694  1.4433 -2.6886
 3998TIP3    H212001   4.072   0.576   0.235  0.6709 -0.3421 -1.6555
 3999TIP3   OH212002   2.011   0.084   3.938 -0.4124  0.1976  0.0038
 3999TIP3    H112003   2.087   0.107   3.885 -0.6551  0.0751 -0.4050
 3999TIP3    H212004   2.034   0.000   3.978  0.5946  1.2198  1.7308
 4000TIP3   OH212005   3.941   0.485   2.828 -0.3842  0.2837 -0.0142
 4000TIP3    H112006   3.919   0.575   2.852  1.2156  0.5330  0.6496
 4000TIP3    H212007   3.866   0.455   2.776 -1.6304  1.4721  1.0114
 4001TIP3   OH212008   3.982   0.164   2.128 -0.5631 -0.9062 -0.4284
 4001TIP3    H112009   3.898   0.189   2.167 -0.2944  1.0937 -1.0188
 4001TIP3    H212010   3.982   0.206   2.041  1.5459  0.2828  0.0573
 4002TIP3   OH212011   0.455   6.016   4.685 -0.2460  0.2586 -0.0976
 4002TIP3    H112012   0.431   5.925   4.704 -2.7264  1.0949  1.2487
 4002TIP3    H212013   0.539   6.028   4.730 -0.1820 -1.1963  0.2287
 4003TIP3   OH212014   1.860   2.640   0.791  0.1077  0.2779  0.0298
 4003TIP3    H112015   1.791   2.704   0.810  0.1269  0.6218 -1.0126
 4003TIP3    H212016   1.886   2.658   0.701 -0.0753 -1.3781 -0.3918
 4004TIP3   OH212017   3.497   3.372   0.815  0.3804 -0.0456 -0.0325
 4004TIP3    H112018   3.472   3.280   0.818  0.7902 -0.1769  2.9525
 4004TIP3    H212019   3.464   3.404   0.731 -0.6950 -2.6346 -0.6821
 4005TIP3   OH212020   5.238   1.571   2.083  0.4709  0.0089 -0.2881
 4005TIP3    H112021   5.315   1.544   2.034  0.0223 -2.7952  0.3441
 4005TIP3    H212022   5.187   1.490   2.093 -1.7654  1.4442  0.6746
 4006TIP3   OH212023   5.047   4.781   4.424 -0.6314 -0.1061 -0.6628
 4006TIP3    H112024   4.998   4.711   4.467 -1.4401  1.3386  0.8793
 4006TIP3    H212025   4.991   4.808   4.351 -0.9416 -0.1520 -0.4426
 4007TIP3   OH212026   3.937   1.157   1.663  0.2076 -0.0004  0.8632
 4007TIP3    H112027   4.013   1.098   1.665  0.0265 -0.3765 -1.3313
 4007TIP3    H212028   3.974   1.245   1.667  0.9537 -0.1151 -1.6924
 4008TIP3   OH212029   5.533   2.178   2.518  0.6148 -0.2780  0.6245
 4008TIP3    H112030   5.539   2.092   2.477 -0.8552 -0.3055  0.4013
 4008TIP3    H212031   5.453   2.216   2.482 -0.6947 -0.2420  3.3168
 4009TIP3   OH212032   3.113   3.003   2.386  0.0031 -0.2649  0.3974
 4009TIP3    H112033   3.055   3.024   2.460 -1.4187 -0.2191 -0.6851
 4009TIP3    H212034   3.131   2.910   2.395 -0.7555 -0.4161  0.4140
 4010TIP3   OH212035   6.146   3.754   3.742  0.0140  0.5048 -0.1794
 4010TIP3    H112036   6.151   3.830   3.799 -3.5815 -0.9440  2.4951
 4010TIP3    H212037   6.065   3.767   3.693 -0.0516 -1.0338 -0.5313
 4011TIP3   OH212038   2.180   2.199   2.922  0.3211  0.6070 -0.4657
 4011TIP3    H112039   2.154   2.216   2.832  0.6444 -1.0345 -0.8995
 4011TIP3    H212040   2.099   2.175   2.967  0.2615  0.8234 -0.4530
 4012TIP3   OH212041   2.663   0.367   4.796 -0.0721  0.7018 -0.1257
 4012TIP3    H112042   2.753   0.336   4.797 -0.5728 -0.9043 -1.0530
 4012TIP3    H212043   2.612   0.296   4.836 -0.7716  2.3070  2.0737
 4013TIP3   OH212044   3.896   5.843   2.813  0.2323  0.1886  0.1907
 4013TIP3    H112045   3.954   5.790   2.867  0.4746  1.7328  1.5275
 4013TIP3    H212046   3.897   5.801   2.728  2.5490 -0.3955  0.4486
 4014TIP3   OH212047   3.826   3.538   3.023  0.5908 -0.0387  0.6377
 4014TIP3    H112048   3.896   3.555   2.959 -1.1341 -0.0533 -1.3744
 4014TIP3    H212049   3.754   3.593   2.994  0.2025  1.1161  3.5448
 4015TIP3   OH212050   4.297   4.905   1.212 -0.7866  1.0565 -0.0323
 4015TIP3    H112051   4.367   4.962   1.241 -0.7007  0.6852  0.5120
 4015TIP3    H212052   4.273   4.855   1.290  1.5263 -2.1903 -1.1933
 4016TIP3   OH212053   6.388   5.170   3.835  0.4159 -0.2840  0.2964
 4016TIP3    H112054   6.386   5.236   3.765  1.6243 -0.9168 -0.3659
 4016TIP3    H212055   6.297   5.163   3.864  0.1096  0.9517 -0.2989
 4017TIP3   OH212056   1.474   1.104   4.762  0.6939 -0.1594  0.0421
 4017TIP3    H112057   1.528   1.177   4.730 -1.2233  1.1251 -0.4461
 4017TIP3    H212058   1.534   1.029   4.763  2.3680  1.0779 -0.8529
 4018TIP3   OH212059   1.768   0.182   1.921 -0.2543 -0.4032  0.1308
 4018TIP3    H112060   1.693   0.196   1.979 -0.7881 -1.7617 -0.1938
 4018TIP3    H212061   1.842   0.223   1.966 -0.9280 -0.2558  1.1251
 4019TIP3   OH212062   0.269   5.937   5.103  0.6955  0.0151 -0.0528
 4019TIP3    H112063   0.258   6.033   5.099  0.0642 -0.0737 -0.6368
 4019TIP3    H212064   0.194   5.903   5.055  1.1890 -0.7681 -0.2763
 4020TIP3   OH212065   1.184   2.462   3.600  0.0329  0.0137  0.0175
 4020TIP3    H112066   1.189   2.449   3.694 -0.3920  1.2330  0.2224
 4020TIP3    H212067   1.091   2.448   3.579  0.0700  0.0502 -0.1725
 4021TIP3   OH212068   4.004   2.933   3.339 -0.2783  0.1886 -0.4061
 4021TIP3    H112069   3.982   3.017   3.300  1.2590 -0.0589 -1.9464
 4021TIP3    H212070   4.073   2.954   3.403  2.3550 -0.1100 -2.9271
 4022TIP3   OH212071   5.995   3.173   5.146 -0.7224  0.2760 -0.0320
 4022TIP3    H112072   5.975   3.082   5.168 -0.2459  0.1842  0.0251
 4022TIP3    H212073   5.917   3.203   5.099 -0.4446 -0.5087 -1.0513
 4023TIP3   OH212074   0.390   5.716   4.034 -0.4934 -0.4642 -0.1427
 4023TIP3    H112075   0.367   5.766   4.112  0.7261  1.8344 -1.1663
 4023TIP3    H212076   0.316   5.730   3.974 -0.2928 -0.1507 -0.3165
 4024TIP3   OH212077   3.075   1.316   1.048 -0.1254  0.4258 -0.5428
 4024TIP3    H112078   3.144   1.252   1.032 -0.2992 -0.1217  0.7996
 4024TIP3    H212079   3.087   1.342   1.139 -1.5015  0.5552 -0.3765
 4025TIP3   OH212080   1.521   0.589   0.705  0.3394 -0.1915  0.1653
 4025TIP3    H112081   1.562   0.659   0.654 -0.5996 -0.2214 -0.6655
 4025TIP3    H212082   1.497   0.631   0.788 -1.0885  0.7574 -0.6900
 4026TIP3   OH212083   1.846   1.259   1.580  0.5975  0.0555 -0.3136
 4026TIP3    H112084   1.903   1.241   1.655 -0.4900  0.5027  0.6485
 4026TIP3    H212085   1.873   1.346   1.551  0.2988  0.3546  0.2707
 4027TIP3   OH212086   4.224   3.501   1.017  0.4310  0.3191  0.1292
 4027TIP3    H112087   4.143   3.540   1.049  0.4924  0.6746 -0.1422
 4027TIP3    H212088   4.200   3.412   0.994  0.5836 -0.2618  2.0169
 4028TIP3   OH212089   1.857   0.235   4.785  0.1982 -0.0531  0.3290
 4028TIP3    H112090   1.771   0.240   4.827  0.2675  1.1869  0.3482
 4028TIP3    H212091   1.839   0.249   4.692  0.5242  1.8954  0.5202
 4029TIP3   OH212092   1.914   2.618   4.681  0.1997 -0.6706 -0.0976
 4029TIP3    H112093   2.000   2.652   4.656  0.0134 -0.6758 -0.7795
 4029TIP3    H212094   1.901   2.542   4.624 -0.6040 -0.1923 -0.5731
 4030TIP3   OH212095   2.005   1.028   2.980 -0.3478 -0.0093  0.4769
 4030TIP3    H112096   2.054   1.110   2.974 -1.6990  0.9616  1.9210
 4030TIP3    H212097   2.020   0.998   3.070 -2.1665  0.2146  0.8985
 4031TIP3   OH212098   2.999   4.356   0.563  0.6398 -0.3208  0.1243
 4031TIP3    H112099   3.061   4.352   0.490 -1.1688  1.3264 -1.6341
 4031TIP3    H212100   2.943   4.432   0.543  0.0413  0.2036  3.2499
 4032TIP3   OH212101   4.138   4.185   1.288 -0.1742 -0.5064  0.4399
 4032TIP3    H112102   4.183   4.155   1.367 -0.0328 -0.6827  0.2934
 4032TIP3    H212103   4.151   4.280   1.288  0.4235 -0.5889  0.2581
 4033TIP3   OH212104   5.174   4.463   2.292  0.2547  0.1517 -0.0232
 4033TIP3    H112105   5.166   4.421   2.377  0.1944 -0.1842 -0.1941
 4033TIP3    H212106   5.204   4.552   2.312 -0.9179  0.4641  0.4385
 4034TIP3   OH212107   5.399   4.373   2.691  0.4876 -0.1266  0.0368
 4034TIP3    H112108   5.495   4.374   2.699  0.5030  1.7022 -0.1065
 4034TIP3    H212109   5.382   4.401   2.601 -0.1966  1.6939  0.6914
 4035TIP3   OH212110   1.477   3.592   0.668  0.1749 -0.1311  0.1473
 4035TIP3    H112111   1.405   3.628   0.617  1.1851  1.9099  0.0309
 4035TIP3    H212112   1.452   3.501   0.686 -2.8452  0.7495  0.9737
 4036TIP3   OH212113   2.343   2.953   3.670 -0.0240  0.9949 -0.3645
 4036TIP3    H112114   2.253   2.968   3.696  0.1943 -0.9406  1.8036
 4036TIP3    H212115   2.395   3.004   3.733  0.4280 -1.2671  1.2296
 4037TIP3   OH212116   5.212   1.993   3.861  0.1029  0.1156 -0.0685
 4037TIP3    H112117   5.139   2.040   3.822 -0.5453  0.3171  1.2985
 4037TIP3    H212118   5.172   1.945   3.934  1.0449 -1.1675 -0.3575
 4038TIP3   OH212119   3.815   0.738   2.849 -0.3196  0.0112 -0.3051
 4038TIP3    H112120   3.818   0.756   2.943 -0.0260  0.3324 -0.3700
 4038TIP3    H212121   3.904   0.760   2.819 -0.0429 -1.2611 -0.4503
 4039TIP3   OH212122   0.047   4.304   0.200 -0.3960 -0.3407 -0.3699
 4039TIP3    H112123   0.009   4.258   0.125  1.2180 -0.4955 -1.1248
 4039TIP3    H212124   0.067   4.236   0.263  0.9445 -0.5842 -1.0240
 4040TIP3   OH212125   2.794   2.403   0.295 -0.2533 -0.1992 -0.0789
 4040TIP3    H112126   2.730   2.378   0.229 -0.5570 -0.8891  0.4581
 4040TIP3    H212127   2.850   2.326   0.305  0.1288  0.0945  0.0746
 4041TIP3   OH212128   6.043   2.617   4.008 -0.1338 -0.2045 -0.5785
 4041TIP3    H112129   6.063   2.710   4.005  1.7534 -0.5443  0.0168
 4041TIP3    H212130   6.017   2.595   3.919 -1.4065  1.0276 -0.5425
 4042TIP3   OH212131   0.582   3.992   0.666 -0.5457 -0.4370 -0.1658
 4042TIP3    H112132   0.541   4.070   0.627 -0.6455 -0.5398 -0.2664
 4042TIP3    H212133   0.594   3.932   0.592 -0.8892 -0.7019 -0.0108
 4043TIP3   OH212134   1.536   2.071   4.500  0.1573 -0.4045  0.0427
 4043TIP3    H112135   1.500   1.984   4.511 -1.0943 -0.1308 -1.5350
 4043TIP3    H212136   1.500   2.122   4.573 -1.7654 -0.4267 -0.8496
 4044TIP3   OH212137   0.600   4.427   0.138 -0.2634  0.5801  0.3406
 4044TIP3    H112138   0.544   4.482   0.083  0.5681  0.8428 -0.2607
 4044TIP3    H212139   0.671   4.399   0.080  0.1318  0.1056  1.0390
 4045TIP3   OH212140   3.688   1.498   1.649 -0.0345  0.4908 -0.2604
 4045TIP3    H112141   3.649   1.569   1.700  0.8044  1.1400 -0.5016
 4045TIP3    H212142   3.734   1.444   1.713 -1.4405 -0.3963  0.0569
 4046TIP3   OH212143   3.478   2.168   0.174  0.4755  0.1892  0.1676
 4046TIP3    H112144   3.489   2.209   0.260  1.4089 -0.8185  0.5617
 4046TIP3    H212145   3.422   2.092   0.192  0.2679  0.2535 -0.2089
 4047TIP3   OH212146   2.140   0.638   3.506 -0.7226  0.3866  0.4892
 4047TIP3    H112147   2.128   0.733   3.498  0.0128  0.5139  0.8704
 4047TIP3    H212148   2.211   0.618   3.445  3.3828  1.0204  4.5036
 4048TIP3   OH212149   4.899   3.682   0.038  0.2725  0.5920  0.6813
 4048TIP3    H112150   4.834   3.738  -0.005  0.4226  0.8545  0.7943
 4048TIP3    H212151   4.848   3.613   0.079  0.1362  0.2281 -0.0820
 4049TIP3   OH212152   3.838   2.099   2.426 -0.4092 -0.4789  0.1859
 4049TIP3    H112153   3.777   2.128   2.358  0.7887  2.2242  0.1528
 4049TIP3    H212154   3.922   2.138   2.401  0.4973 -1.0493  2.1878
 4050TIP3   OH212155   2.406   1.485   0.883  0.1162  0.0175  0.6488
 4050TIP3    H112156   2.468   1.419   0.853 -1.3292 -0.2936 -1.9381
 4050TIP3    H212157   2.460   1.561   0.903  1.4166 -0.4988 -0.7185
 4051TIP3   OH212158   5.806   3.900   1.602  0.0783 -0.4282 -0.4051
 4051TIP3    H112159   5.856   3.953   1.664  0.9876 -1.0364 -0.5956
 4051TIP3    H212160   5.867   3.883   1.531 -1.4308  1.7369 -2.3972
 4052TIP3   OH212161   1.069   0.570   4.225  0.1550  0.3025 -0.5460
 4052TIP3    H112162   1.078   0.625   4.302  0.6600 -0.9135  0.2902
 4052TIP3    H212163   1.067   0.481   4.259 -2.4132 -0.1792 -1.7068
 4053TIP3   OH212164   0.428   1.523   0.540  0.3393 -0.0005 -0.1457
 4053TIP3    H112165   0.511   1.559   0.506  0.6705  0.1394  0.7956
 4053TIP3    H212166   0.393   1.473   0.466  2.6049 -2.3674  0.2419
 4054TIP3   OH212167   3.636   5.840   4.258  0.0750  0.3693 -0.1628
 4054TIP3    H112168   3.574   5.884   4.200 -0.0077 -1.6864 -1.7587
 4054TIP3    H212169   3.640   5.750   4.225  2.2848 -0.1254  1.2297
 4055TIP3   OH212170   2.440   0.165   3.465  0.1034 -0.4701 -0.2412
 4055TIP3    H112171   2.473   0.157   3.375  0.8536  0.4539 -0.0644
 4055TIP3    H212172   2.439   0.259   3.481  2.8693 -0.6585  1.7308
 4056TIP3   OH212173   0.506   2.437   0.777 -0.2149  0.3996  0.0502
 4056TIP3    H112174   0.582   2.387   0.808  1.3489  2.4869 -0.1686
 4056TIP3    H212175   0.509   2.427   0.682  1.9064  3.1198 -0.2940
 4057TIP3   OH212176   1.458   4.980   0.246 -0.1337 -0.7492 -0.0532
 4057TIP3    H112177   1.400   5.056   0.249 -0.5510 -1.0149 -0.9798
 4057TIP3    H212178   1.451   4.948   0.156  0.1782 -1.7723  0.2709
 4058TIP3   OH212179   0.985   5.383   0.357 -0.3764  0.0638 -0.3065
 4058TIP3    H112180   1.030   5.373   0.273  1.0872  0.1101  0.4466
 4058TIP3    H212181   0.984   5.296   0.395  0.5084  0.3268  0.3656
 4059TIP3   OH212182   5.297   3.442   3.251  0.6033 -0.5359 -0.0591
 4059TIP3    H112183   5.352   3.377   3.207  1.8766 -0.1866  0.9596
 4059TIP3    H212184   5.208   3.421   3.221  0.9524 -2.7452  0.2305
 4060TIP3   OH212185   2.197   0.512   2.279  0.3231  0.1305  0.3828
 4060TIP3    H112186   2.204   0.423   2.314 -0.1755  0.3733  1.1143
 4060TIP3    H212187   2.113   0.514   2.234  0.1022  0.3817  0.8046
 4061TIP3   OH212188   4.960   3.192   1.594  0.2175 -0.3728 -0.0566
 4061TIP3    H112189   4.883   3.230   1.552 -0.6315 -1.7624  0.1893
 4061TIP3    H212190   5.008   3.268   1.628 -0.9626  0.5347 -0.3380
 4062TIP3   OH212191   2.775   1.176   1.652  0.6323  0.1651 -0.4310
 4062TIP3    H112192   2.702   1.234   1.633 -0.5400 -1.2935 -0.5012
 4062TIP3    H212193   2.735   1.095   1.683  2.2770  0.0334  1.5779
 4063TIP3   OH212194   3.384   2.414   3.852  0.3184  0.2065  0.1054
 4063TIP3    H112195   3.291   2.395   3.841  0.6673 -1.4334 -0.1932
 4063TIP3    H212196   3.389   2.460   3.936 -0.8636  1.3120 -0.3933
 4064TIP3   OH212197   3.324   4.280   2.521 -0.1310  0.1340  0.4310
 4064TIP3    H112198   3.406   4.232   2.527 -0.0463  0.3578  1.2178
 4064TIP3    H212199   3.281   4.265   2.606 -0.9216 -0.0120  0.0202
 4065TIP3   OH212200   3.769   0.148   2.311  0.5772 -0.1165  0.3316
 4065TIP3    H112201   3.675   0.166   2.319  0.8926  0.8441  3.4625
 4065TIP3    H212202   3.775   0.052   2.308 -0.5217 -0.1665 -0.9638
 4066TIP3   OH212203   0.928   2.496   4.487  0.9157 -0.3093  0.0124
 4066TIP3    H112204   0.864   2.475   4.554 -0.0349 -0.3105 -0.8649
 4066TIP3    H212205   0.914   2.589   4.469  0.4801 -0.5247 -0.8543
 4067TIP3   OH212206   1.864   2.428   1.691 -0.3173 -0.4951 -0.2158
 4067TIP3    H112207   1.894   2.509   1.732  1.6920 -1.9014  1.3547
 4067TIP3    H212208   1.861   2.447   1.597 -0.0623  1.4165  0.1299
 4068TIP3   OH212209   5.652   3.591   3.367 -0.6275  0.2286  0.0260
 4068TIP3    H112210   5.662   3.499   3.342  1.7993  0.4244  0.0058
 4068TIP3    H212211   5.643   3.637   3.284 -0.1448  0.1694 -0.0599
 4069TIP3   OH212212   4.810   0.459   4.899 -0.0774 -0.6018  0.5688
 4069TIP3    H112213   4.792   0.553   4.906  0.7981 -0.4706  1.1309
 4069TIP3    H212214   4.734   0.424   4.851  0.2905  0.6032 -0.9506
 4070TIP3   OH212215   4.912   1.179   4.641 -0.1494 -0.1270  0.1357
 4070TIP3    H112216   4.950   1.091   4.638  0.0269 -0.0453 -1.7768
 4070TIP3    H212217   4.853   1.178   4.716  0.9557 -1.3974  1.0179
 4071TIP3   OH212218   5.441   4.512   4.662  0.1278 -0.5216  0.8088
 4071TIP3    H112219   5.389   4.575   4.712  2.9997  1.4769  1.5125
 4071TIP3    H212220   5.400   4.428   4.679 -4.2145  1.0519 -0.5245
 4072TIP3   OH212221   4.861   3.912   4.244 -0.0526 -0.8509 -0.2932
 4072TIP3    H112222   4.768   3.893   4.234 -1.4512  3.2754  2.1217
 4072TIP3    H212223   4.884   3.959   4.164 -1.6829  2.5043  0.9867
 4073TIP3   OH212224   5.595   0.760   0.090 -0.1863 -0.2284  0.0158
 4073TIP3    H112225   5.617   0.690   0.029 -2.5584 -0.5891 -0.5281
 4073TIP3    H212226   5.501   0.775   0.076 -0.2679  1.3459  1.8811
 4074TIP3   OH212227   5.014   2.062   4.295  0.4599 -0.8590  0.3256
 4074TIP3    H112228   5.035   1.969   4.288 -0.4147 -1.0522  0.0818
 4074TIP3    H212229   4.954   2.068   4.369  0.6573 -0.4604  0.4555
 4075TIP3   OH212230   3.212   0.438   0.667  0.1810 -0.1870 -0.1972
 4075TIP3    H112231   3.271   0.362   0.662 -0.4176 -0.6654 -0.0783
 4075TIP3    H212232   3.124   0.400   0.665 -0.1386  0.4036  1.1284
 4076TIP3   OH212233   4.904   0.482   0.050 -0.3966  0.5053 -0.2088
 4076TIP3    H112234   4.936   0.508  -0.037  0.1067  2.1945  0.4413
 4076TIP3    H212235   4.965   0.414   0.078  1.1413  1.8843 -0.0592
 4077TIP3   OH212236   5.703   2.976   1.076 -0.0813 -0.0934  0.0999
 4077TIP3    H112237   5.624   3.014   1.040 -0.4454  0.1542  1.1322
 4077TIP3    H212238   5.769   2.987   1.008 -1.1169 -1.0261 -1.0982
 4078TIP3   OH212239   5.040   0.557   0.960 -0.7605  0.2110  0.4927
 4078TIP3    H112240   4.992   0.474   0.965 -1.0167  0.3871  1.1001
 4078TIP3    H212241   5.044   0.577   0.867 -1.6404  0.0595  0.4160
 4079TIP3   OH212242   0.365   1.119   1.437 -0.1567 -0.4684  0.2277
 4079TIP3    H112243   0.410   1.099   1.355 -1.0626  0.0514 -0.4110
 4079TIP3    H212244   0.370   1.215   1.444  1.3472 -0.5922  1.6366
 4080TIP3   OH212245   3.271   4.039   2.698 -0.4532  0.4153 -0.2414
 4080TIP3    H112246   3.337   4.034   2.628 -0.1194  0.9679  0.0272
 4080TIP3    H212247   3.286   3.960   2.750  0.2323  0.7088  0.0171
 4081TIP3   OH212248   1.498   1.766   5.186 -0.1641  0.1591  0.1407
 4081TIP3    H112249   1.535   1.678   5.184 -0.2064  0.1258 -2.7304
 4081TIP3    H212250   1.574   1.823   5.200 -0.0443 -0.2617  1.3071
 4082TIP3   OH212251   1.557   5.970   4.435  0.1829  0.2450  0.4175
 4082TIP3    H112252   1.583   5.880   4.453 -1.5267 -0.4149 -0.1215
 4082TIP3    H212253   1.625   6.024   4.474  1.1902 -1.2810  0.8422
 4083TIP3   OH212254   1.165   0.240   3.046  0.2238 -0.3923 -0.2968
 4083TIP3    H112255   1.213   0.213   3.124  1.0671 -0.5175 -0.8535
 4083TIP3    H212256   1.073   0.244   3.075  0.8662  3.4013  1.7821
 4084TIP3   OH212257   1.900   4.550   2.298 -0.2300 -0.2800  0.2082
 4084TIP3    H112258   1.877   4.634   2.259  1.9011  1.2315  1.9653
 4084TIP3    H212259   1.868   4.485   2.236  0.8978  1.8918 -2.8657
 4085TIP3   OH212260   0.550   1.205   4.005  0.0110 -0.3062  0.0096
 4085TIP3    H112261   0.612   1.268   4.044  0.6651 -0.7859 -0.2376
 4085TIP3    H212262   0.526   1.244   3.921  3.3873 -2.0546 -2.0029
 4086TIP3   OH212263   1.303   2.905   1.520 -0.1763  0.0394  0.0677
 4086TIP3    H112264   1.275   2.958   1.595 -1.7246 -0.1711 -0.3195
 4086TIP3    H212265   1.377   2.953   1.483  1.4798 -0.4946  2.4435
 4087TIP3   OH212266   4.315   2.031   5.164 -0.1653 -0.7202  0.3904
 4087TIP3    H112267   4.251   2.082   5.115  0.8571 -0.4325 -0.6727
 4087TIP3    H212268   4.363   2.095   5.216 -1.3984 -1.0420  2.0366
 4088TIP3   OH212269   6.047   3.608   0.034  0.6512  0.2051 -0.0633
 4088TIP3    H112270   6.012   3.680   0.086  1.2723 -0.5494  1.4843
 4088TIP3    H212271   5.971   3.570  -0.010 -0.1772 -0.0863  1.5532
 4089TIP3   OH212272   5.450   2.879   4.907 -0.5024  0.0864 -0.0163
 4089TIP3    H112273   5.396   2.896   4.984  0.4703 -0.7662  0.8853
 4089TIP3    H212274   5.395   2.827   4.849 -0.3855 -1.5721  1.2930
 4090TIP3   OH212275   2.694   1.483   4.166 -0.2725 -0.2328  0.2267
 4090TIP3    H112276   2.696   1.541   4.242  1.3073  0.7516 -0.5094
 4090TIP3    H212277   2.604   1.453   4.160 -0.4965 -0.1336  2.3309
 4091TIP3   OH212278   3.388   3.631   2.750  0.4461 -0.5131 -0.6642
 4091TIP3    H112279   3.362   3.540   2.734 -0.4434 -0.5749  0.9176
 4091TIP3    H212280   3.370   3.676   2.667 -0.5703 -1.4725 -0.9842
 4092TIP3   OH212281   2.668   4.505   2.586 -0.2182  0.2926 -0.2494
 4092TIP3    H112282   2.711   4.480   2.504  1.4976  0.2753  0.5936
 4092TIP3    H212283   2.575   4.510   2.565  0.2474  0.9031 -2.3279
 4093TIP3   OH212284   0.484   4.766   0.723  0.2173  0.2423 -0.6658
 4093TIP3    H112285   0.558   4.705   0.726 -1.7906 -2.4019 -1.3659
 4093TIP3    H212286   0.418   4.726   0.780 -2.1698  0.3169 -3.1915
 4094TIP3   OH212287   1.628   2.205   4.242 -0.8943 -0.7411  0.3212
 4094TIP3    H112288   1.658   2.264   4.311 -1.3099  0.0017 -0.1117
 4094TIP3    H212289   1.701   2.203   4.179 -0.6651 -1.1215  0.5964
 4095TIP3   OH212290   0.751   1.817   2.103  0.1559 -0.0939 -0.0267
 4095TIP3    H112291   0.670   1.867   2.092  1.6030  2.8151  1.2679
 4095TIP3    H212292   0.796   1.825   2.019 -0.1451 -0.2518 -0.2043
 4096TIP3   OH212293   1.703   0.639   4.495  0.1244  0.4963 -0.3896
 4096TIP3    H112294   1.703   0.714   4.435  0.0574  0.1311 -0.8528
 4096TIP3    H212295   1.763   0.576   4.455 -1.6086 -0.6751 -1.2570
 4097TIP3   OH212296   4.656   2.676   2.248  0.4332 -0.0716 -0.0467
 4097TIP3    H112297   4.707   2.637   2.319  1.3371  3.4597  1.4923
 4097TIP3    H212298   4.583   2.720   2.292  0.3030  1.1873 -1.4320
 4098TIP3   OH212299   5.878   5.787   0.936  0.1382  0.2503 -0.0972
 4098TIP3    H112300   5.921   5.711   0.975 -0.5024  1.2774  2.8743
 4098TIP3    H212301   5.790   5.757   0.914  0.4778 -0.3242 -0.7190
 4099TIP3   OH212302   1.813   2.146   0.050  0.1138 -0.1881 -0.2249
 4099TIP3    H112303   1.875   2.093  -0.000 -0.0308  0.5814 -1.2467
 4099TIP3    H212304   1.763   2.082   0.101  0.7481 -0.9301 -0.5166
 4100TIP3   OH212305   0.769   1.455   3.137 -0.4036 -0.2422  0.0118
 4100TIP3    H112306   0.805   1.388   3.078 -0.7086  1.6804 -2.5173
 4100TIP3    H212307   0.846   1.497   3.175 -0.1350 -0.1991 -0.5696
 4101TIP3   OH212308   0.334   3.627   0.106  0.3669 -0.0212  0.2064
 4101TIP3    H112309   0.272   3.554   0.101 -0.6866  0.8665 -0.0414
 4101TIP3    H212310   0.410   3.597   0.056 -0.4401 -0.5827 -0.7307
 4102TIP3   OH212311   4.711   1.645   1.085  0.0370  0.4022 -0.1505
 4102TIP3    H112312   4.647   1.635   1.014  1.0435 -0.2536 -0.9921
 4102TIP3    H212313   4.680   1.721   1.134 -0.5533  1.0367 -1.4438
 4103TIP3   OH212314   4.106   2.713   0.451 -0.2143 -0.3738  0.2087
 4103TIP3    H112315   4.109   2.788   0.509  0.1465 -1.3654  1.5235
 4103TIP3    H212316   4.197   2.686   0.441 -0.5005 -2.0529  1.7022
 4104TIP3   OH212317   4.866   1.440   4.850 -0.0054 -0.2923  0.0317
 4104TIP3    H112318   4.856   1.523   4.803 -1.1924 -0.1509  0.5013
 4104TIP3    H212319   4.960   1.420   4.843  0.4964  1.5750  0.7257
 4105TIP3   OH212320   4.668   0.956   0.398 -0.0288  0.0720  0.7390
 4105TIP3    H112321   4.589   0.948   0.344  1.2567 -2.8851 -0.9483
 4105TIP3    H212322   4.732   0.997   0.341  0.7135 -1.0787  0.7123
 4106TIP3   OH212323   0.231   5.112   4.027  0.8575 -0.5479  0.6302
 4106TIP3    H112324   0.167   5.160   3.973  0.5246 -1.6525  0.0002
 4106TIP3    H212325   0.311   5.165   4.022 -0.4751  2.0026  3.1356
 4107TIP3   OH212326   3.461   2.349   4.907  0.0362  0.3012 -0.2113
 4107TIP3    H112327   3.391   2.392   4.859 -0.4405 -0.8579 -0.5759
 4107TIP3    H212328   3.507   2.421   4.951 -0.1132  1.2777 -1.5962
 4108TIP3   OH212329   4.049   3.867   3.971 -0.0558 -0.3413 -0.4233
 4108TIP3    H112330   4.098   3.924   4.030  1.3062 -1.0823 -0.8146
 4108TIP3    H212331   3.999   3.810   4.029 -1.8503  1.5028 -0.0124
 4109TIP3   OH212332   2.300   3.212   4.199 -0.2579 -0.4876  0.1506
 4109TIP3    H112333   2.316   3.122   4.170  1.0640 -0.4606  0.7328
 4109TIP3    H212334   2.376   3.233   4.253 -0.9205  0.7235  0.6339
 4110TIP3   OH212335   1.967   5.999   1.155  0.2431 -0.5944 -0.6650
 4110TIP3    H112336   1.998   5.910   1.138  0.5924 -0.1799 -2.3201
 4110TIP3    H212337   2.031   6.055   1.112 -0.5765  0.4207 -0.5902
 4111TIP3   OH212338   1.538   3.407   2.014  0.3359  0.2300 -0.8248
 4111TIP3    H112339   1.473   3.338   2.022  0.3040  0.3813  0.4115
 4111TIP3    H212340   1.488   3.484   1.987 -0.1623  0.5599  0.9422
 4112TIP3   OH212341   4.835   3.698   2.365 -0.1242 -0.2377 -0.5673
 4112TIP3    H112342   4.890   3.725   2.439 -1.0213  0.7207 -0.2311
 4112TIP3    H212343   4.845   3.769   2.301  0.7963 -1.1501 -1.4660
 4113TIP3   OH212344   1.418   5.514   4.148 -0.2359 -0.0954  0.4616
 4113TIP3    H112345   1.480   5.553   4.087  1.1274  0.3477  2.0522
 4113TIP3    H212346   1.421   5.571   4.225 -1.9671 -0.5767  0.9312
 4114TIP3   OH212347   5.871   3.835   0.482 -0.2391  0.0115  0.3366
 4114TIP3    H112348   5.845   3.921   0.448  2.6152  1.0869  0.6536
 4114TIP3    H212349   5.920   3.795   0.410  2.3011  0.5876  1.6556
 4115TIP3   OH212350   0.314   3.914   2.229  0.4526 -0.1124 -0.5316
 4115TIP3    H112351   0.246   3.952   2.285 -0.7150 -1.0932 -1.2280
 4115TIP3    H212352   0.391   3.969   2.244 -0.0565  0.1629  1.3976
 4116TIP3   OH212353   1.000   1.322   3.836  0.2070 -0.4923 -0.1704
 4116TIP3    H112354   1.079   1.347   3.884  1.7811 -1.9848 -1.8756
 4116TIP3    H212355   0.936   1.390   3.859  2.3656  1.5218  0.2119
 4117TIP3   OH212356   5.083   2.154   0.374  0.0584 -0.2141 -0.4744
 4117TIP3    H112357   5.064   2.245   0.396  2.7214  0.6137 -1.1950
 4117TIP3    H212358   5.127   2.159   0.289  1.3009 -2.0240  0.0094
 4118TIP3   OH212359   4.588   1.887   2.772 -0.4885 -0.0048 -0.0265
 4118TIP3    H112360   4.568   1.849   2.858 -0.4125  0.6419  0.2858
 4118TIP3    H212361   4.677   1.859   2.754 -0.0738  0.8221  0.6588
 4119TIP3   OH212362   4.665   0.330   4.283  0.2949 -0.0361 -0.3109
 4119TIP3    H112363   4.727   0.402   4.290  0.0809  0.0236  1.3469
 4119TIP3    H212364   4.619   0.329   4.367 -1.7171 -0.3043 -1.3394
 4120TIP3   OH212365   1.591   5.853   2.615 -0.0857 -0.2644  0.4946
 4120TIP3    H112366   1.645   5.807   2.680  0.4564 -0.3082  0.0270
 4120TIP3    H212367   1.504   5.816   2.626  0.5078 -2.1297 -0.4722
 4121TIP3   OH212368   5.976   2.757   4.713  0.0291  0.3680 -0.3029
 4121TIP3    H112369   5.899   2.811   4.734 -0.6410  0.5718 -2.8393
 4121TIP3    H212370   6.048   2.798   4.761 -1.3521  0.3217  1.9585
 4122TIP3   OH212371   1.051   2.379   4.267  0.5081  0.2166  0.4336
 4122TIP3    H112372   0.997   2.438   4.321  1.1860  1.4023 -0.1358
 4122TIP3    H212373   1.086   2.315   4.330 -0.8581 -0.0685  0.9441
 4123TIP3   OH212374   5.530   5.714   4.132 -0.2289 -0.4043 -0.2168
 4123TIP3    H112375   5.577   5.631   4.129  1.7195  0.6378 -0.5054
 4123TIP3    H212376   5.578   5.771   4.071 -1.7559  0.8089 -0.3401
 4124TIP3   OH212377   3.736   4.581   3.574  0.3472  0.5290 -0.2892
 4124TIP3    H112378   3.717   4.551   3.663  0.4386 -1.9466 -1.0124
 4124TIP3    H212379   3.655   4.621   3.544 -0.2433 -0.1316  0.3660
 4125TIP3   OH212380   5.099   4.656   1.458 -0.5801  0.2791  0.6737
 4125TIP3    H112381   5.123   4.747   1.476 -1.6325  1.0080 -1.2015
 4125TIP3    H212382   5.028   4.638   1.519 -0.8168  0.9668  0.6170
 4126TIP3   OH212383   3.045   5.980   0.218  0.0673  0.3311 -0.3382
 4126TIP3    H112384   2.989   5.950   0.289  0.7302  1.2789  0.6184
 4126TIP3    H212385   2.986   5.990   0.143 -0.5419 -1.2262 -0.1094
 4127TIP3   OH212386   5.992   1.220   0.253 -0.8473  0.3441 -0.1632
 4127TIP3    H112387   6.040   1.275   0.191 -1.5003 -0.0113 -1.0167
 4127TIP3    H212388   5.902   1.254   0.250 -1.2459 -0.6902 -0.6497
 4128TIP3   OH212389   1.933   0.114   1.259  0.5144 -0.4696  0.1736
 4128TIP3    H112390   1.921   0.062   1.179 -3.6378  0.4874 -0.0739
 4128TIP3    H212391   1.949   0.203   1.227  2.6284 -0.6671  0.5487
 4129TIP3   OH212392   2.879   5.104   3.304  0.0736 -0.0439  0.2932
 4129TIP3    H112393   2.850   5.091   3.394  0.7475 -2.4225  0.2336
 4129TIP3    H212394   2.803   5.082   3.250  0.1843 -0.3700  0.2649
 4130TIP3   OH212395   0.694   3.304   1.133 -0.5232 -0.5157  0.1856
 4130TIP3    H112396   0.647   3.357   1.068 -0.9726 -0.4483  0.5639
 4130TIP3    H212397   0.640   3.307   1.211 -0.2210 -0.9924  0.4214
 4131TIP3   OH212398   3.996   2.790   0.027 -0.0658  0.4437 -0.3696
 4131TIP3    H112399   3.921   2.849   0.029 -0.0420  0.4682 -0.1937
 4131TIP3    H212400   3.980   2.734  -0.050 -1.1026 -0.6378  0.5796
 4132TIP3   OH212401   4.343   1.728   2.522 -0.2442  0.4663 -0.1707
 4132TIP3    H112402   4.320   1.801   2.579 -0.9757 -0.2481  0.4685
 4132TIP3    H212403   4.334   1.764   2.433  1.7409  1.8404  0.1163
 4133TIP3   OH212404  -0.014   0.754   3.609 -0.5732  0.0260 -0.2276
 4133TIP3    H112405   0.036   0.799   3.677  0.7924  0.5511 -1.5367
 4133TIP3    H212406  -0.003   0.661   3.629 -0.9777  0.1760  0.7933
 4134TIP3   OH212407   1.304   4.358   0.557  0.2031 -0.3806 -0.1168
 4134TIP3    H112408   1.259   4.284   0.515 -0.0900  1.0015 -2.4300
 4134TIP3    H212409   1.363   4.391   0.489  0.0650  1.7066  0.7140
 4135TIP3   OH212410   0.100   1.287   3.726  0.2310  0.5508  0.3420
 4135TIP3    H112411   0.006   1.303   3.728 -0.2921 -2.0419  0.3282
 4135TIP3    H212412   0.139   1.366   3.764 -1.8307  2.2077 -0.7813
 4136TIP3   OH212413   3.163   0.596   4.528  0.1456 -0.1434  0.6475
 4136TIP3    H112414   3.181   0.687   4.550 -0.1839  0.2026 -0.4366
 4136TIP3    H212415   3.248   0.552   4.530  0.4517  0.4205  0.1778
 4137TIP3   OH212416   3.254   3.228   4.617 -0.1970  0.3518 -0.1258
 4137TIP3    H112417   3.234   3.161   4.553  1.4216 -0.5951  0.2962
 4137TIP3    H212418   3.206   3.305   4.588 -2.0755 -0.9553 -0.6422
 4138TIP3   OH212419   3.473   4.019   0.264  0.1575 -0.2239 -0.3600
 4138TIP3    H112420   3.536   4.090   0.256 -1.7393  1.3567 -2.3595
 4138TIP3    H212421   3.388   4.061   0.256 -1.0546 -2.6941 -1.6456
 4139TIP3   OH212422   4.650   4.589   3.510 -0.5439  0.5674  0.5963
 4139TIP3    H112423   4.729   4.566   3.558 -0.8378 -2.3290 -0.1743
 4139TIP3    H212424   4.677   4.598   3.419 -1.1979 -1.3535  0.1769
 4140TIP3   OH212425   4.142   5.799   4.648 -0.4487  0.4320  0.0462
 4140TIP3    H112426   4.157   5.704   4.650 -1.8343  0.0596 -2.3771
 4140TIP3    H212427   4.056   5.811   4.686 -0.6024  0.6017 -0.3448
 4141TIP3   OH212428   3.667   0.868   1.283  0.2938 -0.1210 -0.0863
 4141TIP3    H112429   3.707   0.878   1.370 -2.1960  1.4768  1.0209
 4141TIP3    H212430   3.691   0.948   1.236  2.3729 -1.3715 -1.2992
 4142TIP3   OH212431   4.474   0.629   2.923  0.5887 -0.4452  0.3156
 4142TIP3    H112432   4.380   0.648   2.916  0.5398 -0.7092  0.2516
 4142TIP3    H212433   4.488   0.556   2.863  0.6083 -1.1913  1.2029
 4143TIP3   OH212434   2.510   3.861   2.237 -0.0977 -0.0071  0.1772
 4143TIP3    H112435   2.477   3.821   2.318 -1.6976  2.6746  0.9858
 4143TIP3    H212436   2.601   3.883   2.256 -0.4175  0.4749  1.2368
 4144TIP3   OH212437   3.989   3.268   3.480  0.5030  0.0465  0.4817
 4144TIP3    H112438   3.900   3.254   3.450  0.2158 -4.2455  2.5080
 4144TIP3    H212439   4.044   3.237   3.408  0.3261  0.9296 -0.0453
 4145TIP3   OH212440   2.917   2.347   2.126 -0.1093 -0.1215  0.2839
 4145TIP3    H112441   2.979   2.387   2.065 -0.7439 -0.1117 -0.3677
 4145TIP3    H212442   2.970   2.323   2.202  0.3057  1.8945  0.6804
 4146TIP3   OH212443   2.408   3.244   2.384  0.3625 -0.0641  0.5572
 4146TIP3    H112444   2.470   3.249   2.457 -0.7834 -0.5735  1.6058
 4146TIP3    H212445   2.337   3.188   2.417  0.4174 -1.3943 -1.4015
 4147TIP3   OH212446   1.142   3.306   2.036  0.0924 -0.3692 -0.2374
 4147TIP3    H112447   1.217   3.249   2.021 -0.2362 -0.9651  0.3363
 4147TIP3    H212448   1.142   3.322   2.130  1.3786  2.2828 -0.6144
 4148TIP3   OH212449   2.098   4.159   3.506  0.7433 -0.0706  0.3696
 4148TIP3    H112450   2.052   4.092   3.455 -0.1559  1.3471 -0.7363
 4148TIP3    H212451   2.157   4.200   3.444  1.3322  0.1405  1.0584
 4149TIP3   OH212452   0.067   0.048   4.727  0.1785  0.0417  0.1532
 4149TIP3    H112453   0.043  -0.021   4.665  3.2429 -2.1731  1.2093
 4149TIP3    H212454   0.002   0.040   4.797 -0.2740 -0.9486 -0.3492
 4150TIP3   OH212455   2.624   1.643   1.615 -0.2350  0.4147 -0.2785
 4150TIP3    H112456   2.554   1.581   1.593 -0.7562  1.6249 -2.2456
 4150TIP3    H212457   2.605   1.720   1.562  1.6501  1.4319  0.4445
 4151TIP3   OH212458   4.127   5.902   2.014  0.0302  0.0481 -0.4433
 4151TIP3    H112459   4.038   5.894   2.048  0.0765  0.3683 -0.2396
 4151TIP3    H212460   4.167   5.973   2.066  0.5807 -0.4560 -0.1672
 4152TIP3   OH212461   5.807   4.554   0.898  0.4307 -0.4830 -0.3421
 4152TIP3    H112462   5.866   4.486   0.929 -1.8875 -1.2952  2.7319
 4152TIP3    H212463   5.813   4.549   0.802  2.5195 -2.9617 -0.1825
 4153TIP3   OH212464   5.133   5.825   1.885 -0.2880 -0.3868  0.1845
 4153TIP3    H112465   5.108   5.911   1.919 -1.8283 -0.9406  0.5224
 4153TIP3    H212466   5.137   5.769   1.962 -1.6995 -1.1630 -0.2855
 4154TIP3   OH212467   1.152   3.280   5.031  0.1796 -0.2163 -0.5072
 4154TIP3    H112468   1.084   3.216   5.008 -0.0956  0.5452 -1.9440
 4154TIP3    H212469   1.220   3.267   4.965  0.6892  0.1392 -0.0597
 4155TIP3   OH212470   5.973   3.121   2.807 -0.0030  0.0800  0.6645
 4155TIP3    H112471   5.915   3.113   2.731 -2.2297  0.4078  2.2209
 4155TIP3    H212472   5.985   3.032   2.838 -0.8574  0.1282  1.1517
 4156TIP3   OH212473   1.591   4.374   5.109  0.5468  0.2034 -0.0823
 4156TIP3    H112474   1.678   4.337   5.121 -0.3960 -1.9870  0.5220
 4156TIP3    H212475   1.549   4.366   5.195 -0.1611  1.5189 -0.2771
 4157TIP3   OH212476   1.332   5.776   2.685 -0.3728  0.5125  0.3048
 4157TIP3    H112477   1.273   5.840   2.725 -1.4321 -1.4295  2.0378
 4157TIP3    H212478   1.366   5.725   2.759  1.3614 -0.2005 -0.9103
 4158TIP3   OH212479   2.205   0.652   1.349  0.0384 -0.1092  0.2093
 4158TIP3    H112480   2.191   0.598   1.427  0.2813  0.7556  0.8757
 4158TIP3    H212481   2.151   0.730   1.364  0.9087  0.5430  0.0158
 4159TIP3   OH212482   5.316   4.513   1.285 -0.7787  0.2106  0.7065
 4159TIP3    H112483   5.258   4.555   1.348 -1.9246  2.3229 -1.5723
 4159TIP3    H212484   5.402   4.517   1.325 -1.3455  2.1383  1.8605
 4160TIP3   OH212485   1.011   0.219   4.172 -0.2893  0.2236 -0.1404
 4160TIP3    H112486   0.957   0.289   4.208  1.4042  0.3260  2.4698
 4160TIP3    H212487   1.034   0.249   4.084 -1.1000  2.0825  0.2455
 4161TIP3   OH212488   0.526   5.099   0.444 -0.1969  0.0456 -0.3161
 4161TIP3    H112489   0.565   5.176   0.402 -1.2015  0.3538 -0.7154
 4161TIP3    H212490   0.599   5.040   0.459  0.5413  0.9286 -0.3351
 4162TIP3   OH212491   5.991   3.829   1.006  0.0885  0.0992 -0.5683
 4162TIP3    H112492   5.977   3.802   0.915  0.9661  0.1495 -0.7246
 4162TIP3    H212493   6.058   3.897   1.001  0.4501 -0.1962  0.1583
 4163TIP3   OH212494   4.737   4.717   2.564  0.3468 -0.0411  0.2436
 4163TIP3    H112495   4.708   4.751   2.648 -0.2614 -0.0767  0.0559
 4163TIP3    H212496   4.658   4.720   2.509  0.2050 -1.8907  0.2792
 4164TIP3   OH212497   4.608   1.705   2.449  0.4007 -0.5074 -0.0421
 4164TIP3    H112498   4.519   1.700   2.485  0.2120 -0.7281 -0.5291
 4164TIP3    H212499   4.613   1.631   2.389  0.6911 -0.1155 -0.5096
 4165TIP3   OH212500   4.067   2.481   3.066 -0.3785 -0.2506 -0.2819
 4165TIP3    H112501   3.975   2.482   3.091 -0.1698 -0.2220  0.5078
 4165TIP3    H212502   4.066   2.478   2.970 -1.1969 -0.4269 -0.2738
 4166TIP3   OH212503   0.362   5.805   3.673  0.1810  0.4682 -0.0378
 4166TIP3    H112504   0.449   5.783   3.641 -0.5706 -0.6394 -1.4325
 4166TIP3    H212505   0.369   5.895   3.703  1.4709  0.8486 -1.3914
 4167TIP3   OH212506   3.482   1.010   4.023 -0.9511 -0.0265  0.3871
 4167TIP3    H112507   3.486   0.974   4.112  1.2270 -0.8430  0.0298
 4167TIP3    H212508   3.424   1.085   4.030  0.6274  1.0958  2.9732
 4168TIP3   OH212509   0.500   3.323   1.339  0.1408 -0.2028 -0.3860
 4168TIP3    H112510   0.463   3.264   1.404  1.1361 -0.5840 -0.1479
 4168TIP3    H212511   0.547   3.389   1.391  0.7796 -0.4001 -0.7114
 4169TIP3   OH212512   4.849   2.126   1.149 -0.3969 -0.1750 -0.1436
 4169TIP3    H112513   4.781   2.178   1.104 -1.4064 -1.0806  0.2920
 4169TIP3    H212514   4.931   2.162   1.117 -1.0609  1.6096  0.0364
 4170TIP3   OH212515   4.460   1.885   4.964 -0.6666  0.0823 -0.0657
 4170TIP3    H112516   4.441   1.916   5.052 -0.9994  0.0130 -0.1132
 4170TIP3    H212517   4.463   1.965   4.910  0.5892  0.2361  0.1879
 4171TIP3   OH212518   0.952   0.574   1.356 -0.2641 -0.5435 -0.2874
 4171TIP3    H112519   0.885   0.584   1.288 -1.0885 -3.1383  0.0451
 4171TIP3    H212520   0.908   0.601   1.437 -0.0985  0.1231 -0.4169
 4172TIP3   OH212521   1.395   5.235   4.137  0.0156 -0.4513 -0.0472
 4172TIP3    H112522   1.361   5.224   4.226  1.5482 -0.6072  0.5554
 4172TIP3    H212523   1.407   5.330   4.128 -1.1827 -0.3318 -0.5153
 4173TIP3   OH212524   5.971   5.538   1.035 -0.4141 -0.3356 -0.1270
 4173TIP3    H112525   6.054   5.538   0.986 -0.8320 -1.0482 -0.8615
 4173TIP3    H212526   5.991   5.490   1.115 -0.1180 -0.5550 -0.3267
 4174TIP3   OH212527   3.687   3.223   3.657  0.3443 -0.3552 -0.4291
 4174TIP3    H112528   3.678   3.253   3.566  0.2434  0.2990 -0.2054
 4174TIP3    H212529   3.627   3.148   3.663  2.4575 -2.2850 -1.6934
 4175TIP3   OH212530   4.723   2.220   3.555 -0.5093 -0.1528  0.2291
 4175TIP3    H112531   4.649   2.162   3.570 -1.3288  0.2126 -2.0360
 4175TIP3    H212532   4.742   2.258   3.641 -0.4086 -3.1459  1.6486
 4176TIP3   OH212533   4.838   0.690   5.120 -0.6585  0.3951 -0.0247
 4176TIP3    H112534   4.805   0.716   5.034  0.8250  0.6614 -0.5322
 4176TIP3    H212535   4.802   0.756   5.180 -3.6935 -1.1155  0.0092
 4177TIP3   OH212536   3.677   3.094   2.451 -0.3984 -0.7656 -0.4082
 4177TIP3    H112537   3.583   3.102   2.442 -0.1600  0.1533 -2.7050
 4177TIP3    H212538   3.709   3.082   2.362  1.7467  0.0222  0.1906
 4178TIP3   OH212539   4.142   4.955   3.416 -0.3185  0.3832 -0.4605
 4178TIP3    H112540   4.179   5.043   3.426 -1.0622  0.9068 -1.9502
 4178TIP3    H212541   4.102   4.956   3.329 -0.0047 -1.5680 -0.6772
 4179TIP3   OH212542   5.386   3.680   3.414  0.0733  0.0679  0.4571
 4179TIP3    H112543   5.351   3.648   3.332 -1.8609  2.3543  0.2930
 4179TIP3    H212544   5.480   3.660   3.409 -0.1927 -0.9558 -1.7118
 4180TIP3   OH212545   3.952   3.368   0.996  0.2919 -0.1656  0.1331
 4180TIP3    H112546   3.944   3.455   1.035 -1.8875 -0.7940  1.2974
 4180TIP3    H212547   3.938   3.382   0.902 -0.8995  0.6663  0.4126
 4181TIP3   OH212548   0.927   3.096   3.450  0.5950  0.1517  0.1504
 4181TIP3    H112549   0.852   3.077   3.394  1.7218 -0.6573 -1.1379
 4181TIP3    H212550   0.917   3.034   3.523  1.0678 -1.4172 -1.0540
 4182TIP3   OH212551   5.467   5.038   0.454  0.2668  0.1166  0.2888
 4182TIP3    H112552   5.459   5.057   0.548  0.5224  0.8668  0.1632
 4182TIP3    H212553   5.380   5.007   0.429  0.2588 -0.3083  0.8205
 4183TIP3   OH212554   5.794   5.788   1.255 -0.4705 -0.0023 -0.0576
 4183TIP3    H112555   5.758   5.866   1.296  0.4906  1.2381 -1.4285
 4183TIP3    H212556   5.855   5.822   1.189  0.7173 -1.9286 -0.0453
 4184TIP3   OH212557   1.330   3.073   2.327 -0.1341 -0.2001 -0.6993
 4184TIP3    H112558   1.243   3.044   2.304 -0.0613  0.2672 -1.6065
 4184TIP3    H212559   1.336   3.059   2.422 -1.3023  0.0590 -0.5717
 4185TIP3   OH212560   0.463   0.336   4.679  0.0985  0.1512  0.3476
 4185TIP3    H112561   0.495   0.257   4.722 -0.0449  0.8635  1.8333
 4185TIP3    H212562   0.407   0.304   4.609  0.0933 -1.0614  0.8800
 4186TIP3   OH212563   1.687   0.330   0.881 -0.2329  0.1682  0.0687
 4186TIP3    H112564   1.671   0.236   0.891 -0.8610  0.1836 -0.6964
 4186TIP3    H212565   1.743   0.336   0.803 -0.0048  0.4186  0.2497
 4187TIP3   OH212566   6.170   5.378   0.902 -0.7040 -0.2913  0.2109
 4187TIP3    H112567   6.153   5.284   0.898 -0.9424 -0.2332 -0.2182
 4187TIP3    H212568   6.261   5.385   0.931 -0.3599 -0.6810 -0.7286
 4188TIP3   OH212569   0.312   0.224   0.706  0.0932  0.0335 -0.4480
 4188TIP3    H112570   0.386   0.220   0.766  0.1392 -1.1771 -0.5668
 4188TIP3    H212571   0.310   0.315   0.676  0.5428  0.4651  0.7830
 4189TIP3   OH212572   1.062   2.903   0.685  0.8923 -0.1130 -0.2161
 4189TIP3    H112573   1.111   2.833   0.727  0.5076  0.0449  0.5070
 4189TIP3    H212574   1.078   2.891   0.591  2.8381  0.3067  0.0095
 4190TIP3   OH212575   5.667   5.861   2.986 -0.1130 -0.3036 -0.0773
 4190TIP3    H112576   5.757   5.890   3.000  0.4268 -1.3673 -1.1775
 4190TIP3    H212577   5.670   5.766   3.002 -1.0005 -0.3748 -0.2947
 4191TIP3   OH212578   4.989   2.670   1.316  0.3571 -0.5384  0.6146
 4191TIP3    H112579   4.957   2.660   1.406  0.8036  0.1600  0.8559
 4191TIP3    H212580   4.984   2.765   1.299  0.8524 -0.5985  0.1159
 4192TIP3   OH212581   3.980   5.702   0.121  0.2670  0.3516 -0.0371
 4192TIP3    H112582   4.075   5.697   0.122  0.2187 -1.4854  1.3691
 4192TIP3    H212583   3.952   5.620   0.080 -0.7057  0.1982  0.8979
 4193TIP3   OH212584   1.145   5.262   0.637 -0.6709  0.9780 -0.2424
 4193TIP3    H112585   1.144   5.352   0.670  0.6523  1.7738 -2.2529
 4193TIP3    H212586   1.075   5.259   0.572 -1.5083  0.1619  0.6446
 4194TIP3   OH212587   2.014   0.346   1.905  0.9260  0.2485 -0.3702
 4194TIP3    H112588   1.995   0.410   1.974  1.5901 -1.3871  1.4487
 4194TIP3    H212589   1.981   0.386   1.825 -1.9380  1.3459  1.1925
 4195TIP3   OH212590   5.590   0.954   5.121  0.9335 -0.1732  0.1179
 4195TIP3    H112591   5.615   1.044   5.104  0.0472  0.1100  0.2704
 4195TIP3    H212592   5.499   0.948   5.092  0.4077 -0.5248  1.7502
 4196TIP3   OH212593   5.468   0.140   3.804 -0.0620 -0.1290 -0.3718
 4196TIP3    H112594   5.377   0.149   3.776 -0.6503 -0.3736  1.3481
 4196TIP3    H212595   5.508   0.083   3.738 -0.8772  0.7414 -1.6717
 4197TIP3   OH212596   0.654   4.389   4.776  0.1331  0.1753  0.5118
 4197TIP3    H112597   0.639   4.478   4.742  0.3278  0.0261  0.0210
 4197TIP3    H212598   0.569   4.362   4.809 -0.6189 -0.4408 -1.7099
 4198TIP3   OH212599   2.272   0.224   0.014 -0.5514  0.0018  0.2216
 4198TIP3    H112600   2.357   0.222  -0.032 -0.6880  1.0581 -0.1185
 4198TIP3    H212601   2.294   0.211   0.106  0.0239  0.5300  0.1695
 4199TIP3   OH212602   5.398   3.270   0.413 -0.1898  0.2703  0.3926
 4199TIP3    H112603   5.392   3.196   0.352  1.1458  1.2796 -1.0339
 4199TIP3    H212604   5.476   3.253   0.465  1.6941  1.8556 -1.7215
 4200TIP3   OH212605   5.546   0.618   3.603 -0.6722  0.2055  0.6329
 4200TIP3    H112606   5.499   0.534   3.601 -2.7091  1.2769  0.3676
 4200TIP3    H212607   5.544   0.644   3.695 -0.9699  0.4439  0.5597
 4201TIP3   OH212608   4.999   0.177   1.914 -0.1780 -0.6239 -0.1079
 4201TIP3    H112609   4.924   0.144   1.865 -1.1356  2.1512 -0.6913
 4201TIP3    H212610   5.076   0.151   1.863 -0.7976 -2.1895 -0.2981
 4202TIP3   OH212611   5.961   2.827   1.691  0.0805  0.2633  0.2482
 4202TIP3    H112612   5.875   2.796   1.718 -0.0239  0.3464  0.0063
 4202TIP3    H212613   5.945   2.883   1.615  0.3213  0.4943  0.3643
 4203TIP3   OH212614   1.685   2.062   1.362 -0.2370 -0.2330  0.2321
 4203TIP3    H112615   1.623   1.993   1.386 -1.8500  1.5543  1.4153
 4203TIP3    H212616   1.765   2.014   1.340 -1.5092 -2.5247  0.2252
 4204TIP3   OH212617   3.043   3.265   4.814 -0.1642  0.2819  0.2838
 4204TIP3    H112618   3.043   3.179   4.858 -1.9490 -0.2159 -0.6215
 4204TIP3    H212619   3.133   3.275   4.782  0.0679 -1.2790  0.3621
 4205TIP3   OH212620   4.631   4.470   2.752  0.6207  0.1771 -0.5811
 4205TIP3    H112621   4.713   4.429   2.724  0.2842 -0.4185 -0.7032
 4205TIP3    H212622   4.572   4.397   2.770  0.4882  0.5740  0.6808
 4206TIP3   OH212623   5.808   2.289   1.309  0.0180 -0.8565 -0.0876
 4206TIP3    H112624   5.731   2.317   1.358 -2.0925  1.5736 -4.2248
 4206TIP3    H212625   5.774   2.262   1.223  3.5956 -2.0041 -1.3444
 4207TIP3   OH212626   0.027   0.926   4.874  0.6114  0.7567  0.1665
 4207TIP3    H112627   0.042   0.995   4.810  0.3427  0.9093  0.2662
 4207TIP3    H212628   0.088   0.947   4.946  1.5060  0.1244 -0.3809
 4208TIP3   OH212629   2.699   3.486   3.786  0.4254 -0.1217  0.5999
 4208TIP3    H112630   2.747   3.488   3.703  0.0943 -1.4750  0.3626
 4208TIP3    H212631   2.762   3.522   3.850  0.8285  0.5366 -0.1457
 4209TIP3   OH212632   5.150   4.409   2.018 -0.3415 -0.0927  0.3583
 4209TIP3    H112633   5.156   4.403   2.114 -0.5370  0.6386  0.4243
 4209TIP3    H212634   5.134   4.502   2.001 -0.3480 -0.2243 -0.3855
 4210TIP3   OH212635   5.375   4.822   1.807 -0.2180 -0.1737 -0.1831
 4210TIP3    H112636   5.368   4.908   1.765 -0.8846 -0.2350 -0.2182
 4210TIP3    H212637   5.433   4.773   1.750 -0.9645 -0.1936 -0.9479
 4211TIP3   OH212638   2.669   5.947   3.110  0.2069 -0.3309 -0.2185
 4211TIP3    H112639   2.674   5.944   3.206 -1.0190 -1.4521 -0.1619
 4211TIP3    H212640   2.732   5.881   3.081  1.3086  0.6989 -0.2422
 4212TIP3   OH212641   6.113   4.815   4.185 -0.4514 -0.1481  0.0658
 4212TIP3    H112642   6.096   4.788   4.276  2.2260 -0.8012  0.4558
 4212TIP3    H212643   6.073   4.746   4.132 -2.3616  0.4259  0.6867
 4213TIP3   OH212644   0.889   0.183   2.127  0.4983  0.3658 -0.1234
 4213TIP3    H112645   0.941   0.235   2.188  0.9146 -2.0335  1.7259
 4213TIP3    H212646   0.813   0.154   2.179 -1.4610  1.7115 -2.0389
 4214TIP3   OH212647   4.692   0.319   1.748  0.3769  0.3720 -0.0428
 4214TIP3    H112648   4.694   0.223   1.755  0.5927  0.3792 -0.0027
 4214TIP3    H212649   4.623   0.346   1.809  1.5081  0.3572  1.2915
 4215TIP3   OH212650   2.383   0.998   5.081  0.0016 -0.1417 -0.4369
 4215TIP3    H112651   2.301   1.009   5.034  0.3423  0.7462 -0.8546
 4215TIP3    H212652   2.433   1.077   5.060  1.3651 -1.1214 -1.0125
 4216TIP3   OH212653   3.317   0.086   1.727 -0.1804  0.1291  0.3694
 4216TIP3    H112654   3.295   0.006   1.776 -0.9546  0.7152  1.0185
 4216TIP3    H212655   3.261   0.082   1.649  0.6879 -0.5602 -0.2334
 4217TIP3   OH212656   3.742   4.704   1.317 -0.2339 -0.5937 -0.2128
 4217TIP3    H112657   3.706   4.621   1.348  0.3219  0.1569  2.6634
 4217TIP3    H212658   3.742   4.761   1.393 -0.9509  2.2411 -2.1608
 4218TIP3   OH212659   3.285   0.163   2.668  0.2472  0.2622  0.8042
 4218TIP3    H112660   3.293   0.125   2.580  0.2356  0.9449  0.5063
 4218TIP3    H212661   3.297   0.088   2.727  1.0878 -0.0728  0.2391
 4219TIP3   OH212662   0.277  -0.008   4.541  0.4096  0.7705  0.6609
 4219TIP3    H112663   0.285   0.080   4.506 -0.5507  0.2167 -1.0825
 4219TIP3    H212664   0.367  -0.036   4.560  0.9799  1.1886 -1.2440
 4220TIP3   OH212665   3.594   4.334   1.658  0.6161 -0.3127  0.0045
 4220TIP3    H112666   3.600   4.250   1.703  0.4801 -0.8667 -0.9669
 4220TIP3    H212667   3.500   4.344   1.639  0.2344  1.3177  2.3687
 4221TIP3   OH212668   2.838   5.134   1.570 -0.0571  0.1870 -0.0319
 4221TIP3    H112669   2.878   5.057   1.609 -0.0676 -0.1983 -0.7765
 4221TIP3    H212670   2.830   5.114   1.477  3.2681  2.4204 -0.9849
 4222TIP3   OH212671   3.651   4.595   2.889  0.0407  0.1394 -0.0649
 4222TIP3    H112672   3.718   4.533   2.862  0.6464  1.3492 -1.4571
 4222TIP3    H212673   3.694   4.680   2.885 -1.7354  1.0341 -1.7417
 4223TIP3   OH212674   3.834   0.759   0.670 -0.4727 -0.4283  0.5346
 4223TIP3    H112675   3.867   0.672   0.648 -1.0874 -0.3167 -0.9740
 4223TIP3    H212676   3.739   0.751   0.657 -0.6239  0.2331  1.2316
 4224TIP3   OH212677   5.553   0.651   5.185 -0.5056 -0.6509  0.0757
 4224TIP3    H112678   5.519   0.594   5.116  0.4563 -1.5583  0.3261
 4224TIP3    H212679   5.558   0.737   5.144  0.3113 -1.2244 -1.1006
 4225TIP3   OH212680   0.736   1.777   0.289  0.8370  0.7783  0.2756
 4225TIP3    H112681   0.747   1.741   0.201  1.6006  2.8050 -0.5159
 4225TIP3    H212682   0.655   1.828   0.283 -1.0423 -1.7743  1.7812
 4226TIP3   OH212683   6.012   5.531   3.394  0.3593  0.3148  0.2173
 4226TIP3    H112684   5.992   5.460   3.456  2.0904 -0.7378 -0.3503
 4226TIP3    H212685   6.103   5.553   3.412  0.2981  1.3306 -0.6689
 4227TIP3   OH212686   1.378   5.222   0.421  0.0718  0.0940  0.0884
 4227TIP3    H112687   1.352   5.263   0.339  0.5210  0.6374  0.2092
 4227TIP3    H212688   1.305   5.165   0.444  0.2263 -0.6103 -1.0469
 4228TIP3   OH212689   1.658   2.175   5.045 -0.1778 -0.0006  0.2632
 4228TIP3    H112690   1.584   2.211   5.093 -0.4483  0.6356 -0.6210
 4228TIP3    H212691   1.712   2.133   5.113  0.1485  2.0245  1.3415
 4229TIP3   OH212692   5.349   2.139   3.655  0.1754  0.2074  0.2705
 4229TIP3    H112693   5.303   2.216   3.690  0.0277 -0.2633  1.1290
 4229TIP3    H212694   5.325   2.068   3.714 -1.1788 -0.9353 -1.5527
 4230TIP3   OH212695   4.806   2.531   3.620  0.4010 -0.0522  0.0725
 4230TIP3    H112696   4.736   2.589   3.591  0.0918 -0.1346  0.6431
 4230TIP3    H212697   4.845   2.497   3.539 -2.1955 -2.4284 -0.3321
 4231TIP3   OH212698   2.642   3.925   1.108 -0.2085  0.0536  0.5026
 4231TIP3    H112699   2.576   3.882   1.053 -1.0639 -0.1801  1.6775
 4231TIP3    H212700   2.602   3.929   1.195  1.1657  0.3107  1.1450
 4232TIP3   OH212701   3.991   3.047   4.016  0.2556 -0.5182 -0.4257
 4232TIP3    H112702   3.990   3.107   3.941  0.2433 -0.6540 -0.5358
 4232TIP3    H212703   3.907   3.062   4.060  1.0501  0.9242  0.6656
 4233TIP3   OH212704   6.089   4.521   0.174 -0.2682 -0.5443  0.3840
 4233TIP3    H112705   6.052   4.594   0.124  1.7981 -1.3071 -2.5208
 4233TIP3    H212706   6.076   4.444   0.119  0.6781 -1.7602  1.7737
 4234TIP3   OH212707   1.098   1.609   4.243 -0.7295 -0.0018 -0.1815
 4234TIP3    H112708   1.157   1.655   4.183  0.3495 -0.4227  0.5246
 4234TIP3    H212709   1.017   1.600   4.194  0.0851 -0.2443 -1.5478
 4235TIP3   OH212710   3.561   1.836   2.770  0.2811  0.0881  0.1710
 4235TIP3    H112711   3.608   1.916   2.791 -0.3227 -0.0254  2.1607
 4235TIP3    H212712   3.477   1.867   2.734  0.4343  0.3346  0.0236
 4236TIP3   OH212713   0.828   1.541   3.877 -0.7314 -0.0976  0.3690
 4236TIP3    H112714   0.770   1.596   3.825 -2.3560 -3.0759 -1.2547
 4236TIP3    H212715   0.775   1.511   3.950 -0.4272 -0.7748  0.3220
 4237TIP3   OH212716   3.271   3.773   2.541 -0.0421  0.0686 -0.0199
 4237TIP3    H112717   3.175   3.768   2.544 -0.0349 -0.0217  0.0606
 4237TIP3    H212718   3.289   3.847   2.483 -0.1609 -0.3991 -0.6621
 4238TIP3   OH212719   4.631   2.209   2.649  0.3858  0.0377 -0.7838
 4238TIP3    H112720   4.720   2.237   2.627  0.6700 -0.9902 -0.9862
 4238TIP3    H212721   4.618   2.128   2.600 -0.8336  0.4037 -1.1160
 4239TIP3   OH212722   4.136   1.845   3.088 -0.3489 -0.0169  0.0258
 4239TIP3    H112723   4.056   1.792   3.081 -1.2465  0.9685  1.8155
 4239TIP3    H212724   4.103   1.935   3.098  0.9720  0.4028  0.7881
 4240TIP3   OH212725   4.825   3.558   4.608 -0.3275 -0.2865  0.1498
 4240TIP3    H112726   4.822   3.585   4.516  0.9802 -1.6769 -0.3450
 4240TIP3    H212727   4.919   3.554   4.628 -0.5910  0.3074  1.6665
 4241TIP3   OH212728   4.804   5.487   2.258 -0.1407 -0.0632 -0.1354
 4241TIP3    H112729   4.813   5.576   2.224  0.3285 -0.1552 -0.2629
 4241TIP3    H212730   4.877   5.438   2.219 -1.0343 -0.7845 -0.9459
 4242TIP3   OH212731   0.078   3.561   3.152 -0.0166  0.6699  0.1980
 4242TIP3    H112732   0.015   3.632   3.159  0.0961  0.6436  1.8994
 4242TIP3    H212733   0.162   3.605   3.137 -0.1319  0.8175 -0.0195
 4243TIP3   OH212734   5.757   0.555   3.423  0.3476 -0.4243  0.5035
 4243TIP3    H112735   5.836   0.522   3.465  1.4458  1.0515 -0.3106
 4243TIP3    H212736   5.694   0.566   3.494 -0.3833 -4.7645  0.7681
 4244TIP3   OH212737   2.697   5.602   2.679 -0.2441  0.0444  0.5877
 4244TIP3    H112738   2.776   5.572   2.723 -0.6272 -1.3028  0.4209
 4244TIP3    H212739   2.627   5.589   2.743 -0.6318 -0.8456  0.0076
 4245TIP3   OH212740   2.026   2.370   0.182 -0.1258 -0.0185  0.0426
 4245TIP3    H112741   1.978   2.445   0.217 -2.2125 -0.3715 -1.8764
 4245TIP3    H212742   1.964   2.297   0.188  1.6346 -1.5252  1.2774
 4246TIP3   OH212743   4.772   2.347   4.492 -0.6533  0.2095  0.4535
 4246TIP3    H112744   4.703   2.282   4.478 -0.0438 -0.3633  0.0625
 4246TIP3    H212745   4.734   2.408   4.556 -1.5631 -0.0221  0.1590
 4247TIP3   OH212746   0.783   4.934   3.270 -0.1082  0.2779  0.3037
 4247TIP3    H112747   0.697   4.963   3.300  0.5985  0.4817  2.3444
 4247TIP3    H212748   0.774   4.840   3.256 -0.3319  0.0228  1.9618
 4248TIP3   OH212749   6.047   0.240   0.533 -0.0770 -0.7204  0.2001
 4248TIP3    H112750   5.972   0.297   0.517  1.2409  1.1136  0.1102
 4248TIP3    H212751   6.019   0.154   0.504 -2.2002 -0.1503  0.3790
 4249TIP3   OH212752   4.877   0.053   3.718  0.2939  0.2948 -0.0079
 4249TIP3    H112753   4.909  -0.009   3.784  1.7922  0.9049 -0.1282
 4249TIP3    H212754   4.796   0.013   3.686 -0.9904  0.3871  2.7816
 4250TIP3   OH212755   6.218   0.234   0.227 -0.5668 -0.2180  0.1340
 4250TIP3    H112756   6.246   0.242   0.136 -1.0215 -1.0797 -0.0925
 4250TIP3    H212757   6.131   0.274   0.228 -1.5206 -2.1557 -0.3253
 4251TIP3   OH212758   3.510   1.863   2.134  0.3005  0.2017 -0.4283
 4251TIP3    H112759   3.492   1.778   2.175  0.0529  0.3603 -0.1990
 4251TIP3    H212760   3.427   1.911   2.142  1.0255  1.2495  1.3905
 4252TIP3   OH212761   4.528   5.842   3.082 -0.3164 -0.3867  0.4043
 4252TIP3    H112762   4.433   5.831   3.071 -0.6121  1.6467  0.5611
 4252TIP3    H212763   4.566   5.766   3.038 -1.9526 -0.2561 -1.3666
 4253TIP3   OH212764   2.656   4.247   3.973  0.1700  0.7940 -0.0273
 4253TIP3    H112765   2.567   4.218   3.956 -0.1911  1.7112  0.2144
 4253TIP3    H212766   2.711   4.171   3.954 -0.7682 -0.1999  1.1118
 4254TIP3   OH212767   2.609   2.360   3.010  0.2895 -0.3067  0.2028
 4254TIP3    H112768   2.626   2.308   2.931  0.9641  0.4912 -0.1906
 4254TIP3    H212769   2.649   2.446   2.992 -0.2665  0.1532  1.0821
 4255TIP3   OH212770   0.225   1.034   4.138 -0.1201 -0.6863 -0.4521
 4255TIP3    H112771   0.249   0.944   4.115  1.0477 -0.3149 -0.7610
 4255TIP3    H212772   0.258   1.044   4.228  0.6904 -0.2536 -0.7863
 4256TIP3   OH212773   2.634   4.760   1.521  0.4638 -0.7156  0.4099
 4256TIP3    H112774   2.714   4.797   1.558 -0.3344 -1.1201  2.7500
 4256TIP3    H212775   2.656   4.668   1.504  0.7356 -0.6197  0.2383
 4257TIP3   OH212776   3.539   0.939   2.588  0.2284 -0.1197  0.5090
 4257TIP3    H112777   3.592   1.018   2.588 -0.1381  0.1327  1.3161
 4257TIP3    H212778   3.449   0.971   2.591 -0.0719 -0.5014 -2.2117
 4258TIP3   OH212779   1.105   2.015   2.886 -0.2366  0.1657  0.4485
 4258TIP3    H112780   1.012   2.036   2.876  0.4448  2.5896 -1.7739
 4258TIP3    H212781   1.140   2.017   2.797  2.1489  0.3585  1.3113
 4259TIP3   OH212782   2.626   5.873   0.864 -0.2444  0.5920  0.2739
 4259TIP3    H112783   2.632   5.917   0.779 -1.8131  2.1042  0.9128
 4259TIP3    H212784   2.556   5.809   0.853 -0.4357  0.7759  0.4206
 4260TIP3   OH212785   4.800   0.492   0.711 -0.1290 -0.1650  0.5245
 4260TIP3    H112786   4.797   0.459   0.800  0.6069  0.0213  0.6275
 4260TIP3    H212787   4.783   0.586   0.720 -0.6135 -0.2396  0.4062
 4261TIP3   OH212788   3.650   0.627   5.066 -0.1026  0.3870 -0.3020
 4261TIP3    H112789   3.635   0.690   5.136 -0.5067  0.2093 -0.2231
 4261TIP3    H212790   3.721   0.664   5.015  1.3190 -0.2609  1.1328
 4262TIP3   OH212791   3.991   0.822   2.237  0.3391  0.1389  0.0045
 4262TIP3    H112792   4.007   0.745   2.183  0.6306  0.0510  0.2108
 4262TIP3    H212793   4.021   0.797   2.324  0.8331  0.6197 -0.0173
 4263TIP3   OH212794   1.615   1.326   4.662  0.4485 -0.0648 -0.4168
 4263TIP3    H112795   1.653   1.364   4.741  0.1518 -1.1909  0.2953
 4263TIP3    H212796   1.567   1.398   4.621 -0.9844  0.1194  1.4379
 4264TIP3   OH212797   1.451   1.797   0.738 -0.0671 -0.3737  0.4447
 4264TIP3    H112798   1.421   1.887   0.754 -0.5733 -0.5512  0.5034
 4264TIP3    H212799   1.405   1.770   0.658 -0.2497 -0.7373  0.6735
 4265TIP3   OH212800   0.850   0.746   0.535 -0.0441  0.0296 -0.0695
 4265TIP3    H112801   0.927   0.716   0.583 -0.2897 -0.1423  0.2156
 4265TIP3    H212802   0.800   0.797   0.599 -0.3339 -0.1340 -0.1647
 4266TIP3   OH212803   1.766   4.305   2.469  0.2274  0.0014  0.2448
 4266TIP3    H112804   1.747   4.387   2.423 -1.1576 -0.1495  0.5022
 4266TIP3    H212805   1.722   4.313   2.553 -2.5242 -2.1437 -0.8412
 4267TIP3   OH212806   4.680   4.930   5.084 -0.0175  0.3822  0.3423
 4267TIP3    H112807   4.764   4.901   5.049  0.2249  1.4433  0.0050
 4267TIP3    H212808   4.702   4.969   5.169 -0.6173 -2.3116  1.8479
 4268TIP3   OH212809   5.263   3.909   1.328  0.1878 -0.5078  0.0447
 4268TIP3    H112810   5.282   4.002   1.342 -1.3273 -0.1430 -0.1598
 4268TIP3    H212811   5.202   3.908   1.254  1.2573 -1.7734 -0.8638
 4269TIP3   OH212812   4.903   3.367   0.527  0.3100 -0.7193  0.4759
 4269TIP3    H112813   4.968   3.437   0.529  1.4667 -1.7714  0.8965
 4269TIP3    H212814   4.865   3.367   0.615  0.2783 -0.5947  0.4625
 4270TIP3   OH212815   5.394   0.635   4.096  0.2112  0.4295  0.9561
 4270TIP3    H112816   5.401   0.715   4.149  1.1600  0.7191  0.4195
 4270TIP3    H212817   5.480   0.594   4.104  0.1377  0.1172  0.1910
 4271TIP3   OH212818   4.534   4.887   2.358  0.3403 -0.0638  0.1383
 4271TIP3    H112819   4.466   4.919   2.299  0.3044  1.3348  0.8871
 4271TIP3    H212820   4.489   4.826   2.416 -0.2647  0.7396  0.5325
 4272TIP3   OH212821   1.192   0.794   0.840  0.5402 -0.6114 -0.3252
 4272TIP3    H112822   1.270   0.748   0.873  0.1927  0.1475  1.7269
 4272TIP3    H212823   1.153   0.734   0.778  2.0293 -1.5734 -0.3912
 4273TIP3   OH212824   3.194   3.865   1.786 -0.5479  0.0891  0.5164
 4273TIP3    H112825   3.224   3.901   1.702 -1.5937  1.2783  0.6279
 4273TIP3    H212826   3.167   3.775   1.765 -1.5740  0.6317 -0.6081
 4274TIP3   OH212827   4.493   2.815   0.697 -0.2313  0.2505  0.2292
 4274TIP3    H112828   4.428   2.781   0.636 -0.4163 -0.5638  0.8689
 4274TIP3    H212829   4.446   2.822   0.780  0.4223 -0.0738  0.6342
 4275TIP3   OH212830   0.161   0.758   3.237  0.4120 -0.5347  0.4994
 4275TIP3    H112831   0.176   0.671   3.274  1.0611  0.2428  2.1509
 4275TIP3    H212832   0.083   0.790   3.282  0.9436  0.2409  0.8989
 4276TIP3   OH212833   4.517   1.432   1.890 -0.1672  0.7425 -0.0467
 4276TIP3    H112834   4.463   1.387   1.955 -0.0790  0.0589 -0.4355
 4276TIP3    H212835   4.602   1.445   1.933  0.3803 -1.0326 -0.4905
 4277TIP3   OH212836   0.932   2.451   1.982  0.3331 -0.3940  0.2383
 4277TIP3    H112837   0.986   2.454   2.061  0.4429 -0.1038  0.1517
 4277TIP3    H212838   0.956   2.529   1.933  2.3208 -1.9768 -1.4647
 4278TIP3   OH212839   0.958   2.723   2.617 -0.2462 -0.4046 -0.7304
 4278TIP3    H112840   0.889   2.725   2.683  0.4428 -0.4188 -0.0002
 4278TIP3    H212841   0.948   2.638   2.574 -0.5799 -0.4750 -0.5166
 4279TIP3   OH212842   1.045   1.378   3.390 -0.1513 -0.0770  0.4075
 4279TIP3    H112843   1.003   1.433   3.456 -1.4814  0.8987 -1.1885
 4279TIP3    H212844   1.069   1.438   3.320  1.6442 -1.0126  0.1494
 4280TIP3   OH212845   6.278   1.318   2.793  0.3469 -0.5010  0.1912
 4280TIP3    H112846   6.366   1.303   2.826  0.1869 -1.5608  0.1661
 4280TIP3    H212847   6.252   1.235   2.753 -0.5536 -0.1221 -0.0545
 4281TIP3   OH212848   3.194   5.015   4.205  0.5522  0.0622  0.1173
 4281TIP3    H112849   3.285   4.994   4.185  0.5896  1.0634 -0.8984
 4281TIP3    H212850   3.151   4.931   4.219  1.4138 -0.4800 -0.4422
 4282TIP3   OH212851   1.707   0.969   2.299  0.2269  0.2735 -0.1587
 4282TIP3    H112852   1.734   0.982   2.208 -0.5489 -0.2197 -0.4762
 4282TIP3    H212853   1.617   1.002   2.302 -0.1881 -0.8253  0.1088
 4283TIP3   OH212854   0.177   4.314   4.400  0.1702 -0.3591  0.2418
 4283TIP3    H112855   0.105   4.254   4.422 -0.3534  0.5601  1.0949
 4283TIP3    H212856   0.237   4.309   4.474  0.5007 -0.3745 -0.0213
 4284TIP3   OH212857   6.084   5.930   3.372  0.9451  0.0128  0.6898
 4284TIP3    H112858   6.153   5.874   3.336  1.4458  0.6931  0.5658
 4284TIP3    H212859   6.109   5.943   3.463 -0.2249 -1.5568  1.2992
 4285TIP3   OH212860   4.104   0.843   2.815  0.2665  0.3349 -0.0531
 4285TIP3    H112861   4.173   0.903   2.844  0.9608 -0.1589 -0.6590
 4285TIP3    H212862   4.147   0.757   2.812 -0.0989  0.1927 -1.4357
 4286TIP3   OH212863   1.260   4.372   1.703 -0.5743  0.4661  0.6136
 4286TIP3    H112864   1.318   4.402   1.773 -0.1951  0.4942  0.2902
 4286TIP3    H212865   1.277   4.433   1.631 -0.3825 -0.0356  0.2265
 4287TIP3   OH212866   4.904   4.579   4.569 -0.3101 -0.2113  0.3357
 4287TIP3    H112867   4.885   4.485   4.560  1.2819 -0.5668  0.2652
 4287TIP3    H212868   4.876   4.600   4.658 -0.0253 -0.9498  0.6125
 4288TIP3   OH212869   3.012   3.077   1.606  0.4177 -0.0480  0.3571
 4288TIP3    H112870   2.923   3.064   1.637  0.2795  1.9388  0.9179
 4288TIP3    H212871   3.064   3.012   1.654 -0.5117 -0.3145  1.0259
 4289TIP3   OH212872   1.611   0.523   1.036  0.1369  0.9408 -0.4609
 4289TIP3    H112873   1.663   0.514   1.116 -0.9417 -0.5836  0.1351
 4289TIP3    H212874   1.638   0.448   0.983  0.4658  1.6573 -1.3188
 4290TIP3   OH212875   1.342   3.266   4.541 -0.6064  0.2718 -0.0013
 4290TIP3    H112876   1.383   3.352   4.537 -0.3568  0.1827  0.5615
 4290TIP3    H212877   1.254   3.280   4.505 -1.4528  1.3039  2.2393
 4291TIP3   OH212878   5.458   2.522   2.424 -0.3819 -0.0648 -0.3768
 4291TIP3    H112879   5.489   2.598   2.376 -2.1480  1.1381  0.2751
 4291TIP3    H212880   5.368   2.509   2.393 -0.6410 -0.9156  0.6501
 4292TIP3   OH212881   5.230   4.732   4.658  0.2717 -0.0269 -0.3170
 4292TIP3    H112882   5.295   4.788   4.615 -0.0938 -1.0369 -2.2667
 4292TIP3    H212883   5.149   4.747   4.609 -0.0008 -1.7512 -0.4475
 4293TIP3   OH212884   3.268   4.407   0.430  0.7852 -0.0598  0.2975
 4293TIP3    H112885   3.348   4.458   0.440  0.2225  0.8139  0.4914
 4293TIP3    H212886   3.198   4.472   0.432  0.1182 -0.7065 -0.7781
 4294TIP3   OH212887   1.501   1.819   4.608 -0.1785  0.7071  0.0000
 4294TIP3    H112888   1.535   1.742   4.562  1.6745  2.0080 -0.9184
 4294TIP3    H212889   1.535   1.810   4.697 -1.9185 -0.6662  0.5989
 4295TIP3   OH212890   2.731   4.595   2.008 -0.2931 -0.1445 -0.1176
 4295TIP3    H112891   2.752   4.630   2.095  1.0676 -0.6790 -0.2086
 4295TIP3    H212892   2.713   4.503   2.023 -1.2689  0.0038 -0.2593
 4296TIP3   OH212893   0.714   1.600   0.477 -0.1707 -0.1580  0.4642
 4296TIP3    H112894   0.731   1.665   0.409  1.0201 -0.8638  0.0381
 4296TIP3    H212895   0.797   1.593   0.525 -0.6284 -0.5394  1.2331
 4297TIP3   OH212896   0.726   0.147   3.515  0.1010 -0.3543  0.2703
 4297TIP3    H112897   0.715   0.154   3.420 -0.0600  1.8943  0.3998
 4297TIP3    H212898   0.799   0.087   3.526  0.7687  0.1123 -1.3195
 4298TIP3   OH212899   1.113   4.233   2.596 -0.6747 -0.3406 -0.6732
 4298TIP3    H112900   1.134   4.323   2.621  0.0814 -0.5612 -0.5058
 4298TIP3    H212901   1.170   4.214   2.522  0.4663 -1.2781  0.4001
 4299TIP3   OH212902   6.259   3.239   3.831 -0.2797 -0.2137  0.3289
 4299TIP3    H112903   6.187   3.288   3.791 -0.9387 -1.2491  0.2261
 4299TIP3    H212904   6.338   3.286   3.803 -0.9384  1.6433  1.4277
 4300TIP3   OH212905   2.329   5.069   2.528  0.6334 -0.4936 -0.4448
 4300TIP3    H112906   2.413   5.047   2.567  0.2950 -0.6026  0.2273
 4300TIP3    H212907   2.265   5.052   2.597  0.0675 -0.3280 -0.9213
 4301TIP3   OH212908   4.507   0.620   5.024 -0.1884 -0.0913 -0.4291
 4301TIP3    H112909   4.420   0.614   5.063 -0.4327 -1.1827 -1.0795
 4301TIP3    H212910   4.567   0.622   5.098 -0.7962  2.1751  0.0655
 4302TIP3   OH212911   5.973   1.772   0.316 -0.4389  0.0123 -0.1069
 4302TIP3    H112912   6.017   1.750   0.235 -0.8524 -0.3474 -0.2353
 4302TIP3    H212913   6.001   1.862   0.335  0.6968 -0.3725  0.0557
 4303TIP3   OH212914   5.732   0.068   2.242 -0.5759 -0.1752 -0.4539
 4303TIP3    H112915   5.692   0.128   2.304 -0.0665 -0.5712  0.2633
 4303TIP3    H212916   5.731  -0.018   2.285  0.3582 -0.3363 -0.7124
 4304TIP3   OH212917   1.175   1.937   1.991  0.1118  0.4648 -0.5476
 4304TIP3    H112918   1.190   1.954   2.084 -1.4271 -1.0249  0.0295
 4304TIP3    H212919   1.093   1.983   1.972 -0.5865 -0.7668 -0.6429
 4305TIP3   OH212920   3.438   2.097   0.994 -0.1941 -0.3748 -0.4591
 4305TIP3    H112921   3.376   2.151   0.945  1.9368  1.0272 -1.7937
 4305TIP3    H212922   3.461   2.150   1.070 -0.8318 -1.0134  0.1856
 4306TIP3   OH212923   0.020   4.705   2.525  0.1466 -0.0871 -0.2749
 4306TIP3    H112924  -0.001   4.793   2.496 -1.1921  0.3227  1.6770
 4306TIP3    H212925   0.116   4.700   2.521  0.2675  1.5767 -0.1090
 4307TIP3   OH212926   4.388   4.288   4.018 -0.3821 -0.5426 -0.2867
 4307TIP3    H112927   4.476   4.319   4.036 -0.9223  0.3918  0.8679
 4307TIP3    H212928   4.374   4.217   4.081 -0.2924 -1.0520 -0.8191
 4308TIP3   OH212929   5.294   0.727   4.864 -0.0277  0.4517  0.6161
 4308TIP3    H112930   5.375   0.692   4.901 -1.1709 -0.8648  2.0374
 4308TIP3    H212931   5.283   0.681   4.781  1.3892  1.7220 -0.3199
 4309TIP3   OH212932   1.268   2.124   1.156  0.0079  0.3490 -0.0296
 4309TIP3    H112933   1.299   2.142   1.067 -2.0188  0.2372 -0.7971
 4309TIP3    H212934   1.331   2.061   1.191  0.8422  0.3949 -1.3813
 4310TIP3   OH212935   4.684   1.826   0.346  0.0280  0.3957 -0.0716
 4310TIP3    H112936   4.725   1.816   0.432  1.6672  0.8914 -0.7569
 4310TIP3    H212937   4.660   1.737   0.320  0.2814  0.1422  0.5539
 4311TIP3   OH212938   5.774   2.566   4.119  0.0392 -0.1057  0.4625
 4311TIP3    H112939   5.856   2.590   4.077  0.5956 -1.7124  0.5762
 4311TIP3    H212940   5.778   2.606   4.206  1.5015 -1.5910  1.1230
 4312TIP3   OH212941   1.463   2.249   2.714  0.3018 -0.2273  0.3903
 4312TIP3    H112942   1.430   2.217   2.798  1.7923 -1.9141  0.3917
 4312TIP3    H212943   1.515   2.326   2.737  0.2729 -0.3711  0.9528
 4313TIP3   OH212944   4.731   4.355   0.791 -0.0578  0.1344 -0.5062
 4313TIP3    H112945   4.782   4.276   0.811  0.5814  0.7385  0.3289
 4313TIP3    H212946   4.738   4.408   0.871  0.1493  1.3593 -1.3140
 4314TIP3   OH212947   1.127   2.648   1.064 -0.1862 -0.1010  0.4255
 4314TIP3    H112948   1.160   2.709   1.130  0.0711 -0.4121  0.5910
 4314TIP3    H212949   1.167   2.564   1.088  1.8884  0.2203 -1.5422
 4315TIP3   OH212950   5.158   0.801   4.428 -1.0604 -0.5103  0.1497
 4315TIP3    H112951   5.197   0.887   4.414  0.5273 -1.2201 -0.0778
 4315TIP3    H212952   5.145   0.766   4.340  1.5592 -1.8395  0.2009
 4316TIP3   OH212953   4.687   0.421   1.340  0.3278 -0.2531  1.0386
 4316TIP3    H112954   4.766   0.380   1.376  0.1134  0.6103  2.5856
 4316TIP3    H212955   4.714   0.510   1.317 -0.2295  0.1226  1.7911
 4317TIP3   OH212956   3.980   3.666   1.697 -0.1831 -0.4158 -0.4155
 4317TIP3    H112957   3.977   3.747   1.748  1.6574  0.4404 -1.5895
 4317TIP3    H212958   3.950   3.599   1.758  0.4822  0.7891  1.3186
 4318TIP3   OH212959   3.008   4.063   2.927  0.1677  0.0765 -0.4707
 4318TIP3    H112960   3.093   4.042   2.964  0.0065 -0.3222 -0.3194
 4318TIP3    H212961   2.968   4.123   2.990 -0.3051 -0.9801  0.2588
 4319TIP3   OH212962   1.595   0.062   4.385  0.4627 -0.2130 -0.6916
 4319TIP3    H112963   1.513   0.012   4.376 -0.2078  0.9774 -1.3975
 4319TIP3    H212964   1.569   0.142   4.429  1.8895 -1.3222  2.5219
 4320TIP3   OH212965   5.936   0.143   1.564  0.1446  0.0266  0.1869
 4320TIP3    H112966   6.004   0.103   1.617 -0.4457 -1.0535  0.1666
 4320TIP3    H212967   5.971   0.144   1.475  0.1780 -0.4545  0.1908
 4321TIP3   OH212968   3.030   2.458   2.399  0.1118  0.0489 -0.2497
 4321TIP3    H112969   3.111   2.452   2.449  0.1874 -1.7753 -0.5216
 4321TIP3    H212970   3.011   2.551   2.395  0.7935  0.3318  2.0501
 4322TIP3   OH212971   1.998   3.804   4.529  0.4636  0.6411 -0.3186
 4322TIP3    H112972   1.951   3.731   4.569 -0.1357  1.8535  1.3138
 4322TIP3    H212973   2.001   3.784   4.436 -1.3069 -0.5525 -0.1462
 4323TIP3   OH212974   3.374   2.461   2.002  0.1915 -0.2342  0.2346
 4323TIP3    H112975   3.357   2.550   2.034 -0.1027  0.0948 -0.8009
 4323TIP3    H212976   3.394   2.411   2.081 -1.8734  0.2235  1.1002
 4324TIP3   OH212977   0.063   2.498   5.167 -0.0506  0.2670  0.6309
 4324TIP3    H112978  -0.020   2.539   5.141 -0.9045 -0.3648  2.2071
 4324TIP3    H212979   0.066   2.416   5.118  0.3765  0.9544 -0.5300
 4325TIP3   OH212980   3.064   3.583   2.698 -0.0699 -0.6404  0.1011
 4325TIP3    H112981   3.015   3.546   2.624  0.0580  1.0005 -0.8705
 4325TIP3    H212982   3.138   3.525   2.709  0.2240 -0.6224 -1.4869
 4326TIP3   OH212983   4.352   3.915   2.967  0.1829 -0.1867  0.0934
 4326TIP3    H112984   4.318   3.956   2.887 -0.4361  0.2887  0.5878
 4326TIP3    H212985   4.326   3.974   3.038  0.8666 -0.5145  0.6385
 4327TIP3   OH212986   1.942   4.453   3.714  0.1503 -0.3091  0.2747
 4327TIP3    H112987   1.952   4.518   3.783 -0.0736  1.0343 -0.8956
 4327TIP3    H212988   2.027   4.411   3.707  0.3894  0.0749  0.8466
 4328TIP3   OH212989   3.920   4.142   2.500  0.3999  0.4248  0.0900
 4328TIP3    H112990   3.853   4.081   2.532 -0.7013  0.3441 -2.2212
 4328TIP3    H212991   3.943   4.194   2.577 -0.2645 -1.3833  1.5917
 4329TIP3   OH212992   4.079   3.078   0.191  0.4987  0.2308  0.4395
 4329TIP3    H112993   4.174   3.071   0.201  0.7130  1.0585 -0.8503
 4329TIP3    H212994   4.066   3.119   0.106 -1.0517 -1.0473  0.0019
 4330TIP3   OH212995   1.938   5.464   2.857  0.8092 -0.6501 -0.3482
 4330TIP3    H112996   1.910   5.387   2.907  0.0537 -1.1506 -1.4996
 4330TIP3    H212997   2.028   5.445   2.832  0.6365 -1.1483 -0.5984
 4331TIP3   OH212998   1.492   0.223   3.793  0.2711  0.1783 -0.4462
 4331TIP3    H112999   1.564   0.163   3.813  0.1211 -0.1953 -0.9969
 4331TIP3    H213000   1.532   0.292   3.740 -0.0292 -0.8153 -2.0496
 4332TIP3   OH213001   3.970   0.655   4.674  0.1213 -0.6945 -0.1844
 4332TIP3    H113002   4.059   0.622   4.676  0.6545  0.6521  1.3474
 4332TIP3    H213003   3.953   0.675   4.582  1.6714 -0.3215 -0.4124
 4333TIP3   OH213004   1.866   2.150   3.384 -0.1426 -0.1893  0.4930
 4333TIP3    H113005   1.889   2.243   3.386  0.9377 -0.3851 -1.2560
 4333TIP3    H213006   1.930   2.109   3.443  0.6333 -0.0516 -0.2319
 4334TIP3   OH213007   5.003   2.712   5.021  0.2857  0.2996 -0.3166
 4334TIP3    H113008   5.028   2.776   4.955 -0.9932  1.3431  0.1573
 4334TIP3    H213009   4.993   2.763   5.102 -1.0388 -0.4250  0.0096
 4335TIP3   OH213010   0.541   2.309   1.290  0.0891 -0.1048 -0.5046
 4335TIP3    H113011   0.512   2.230   1.336 -0.9293  0.3116 -0.4259
 4335TIP3    H213012   0.468   2.333   1.234  0.5420  0.5614 -0.8241
 4336TIP3   OH213013   4.295   2.949   2.527  0.4286  0.3911 -0.4010
 4336TIP3    H113014   4.228   2.960   2.459  0.1577  1.9393  0.0836
 4336TIP3    H213015   4.245   2.951   2.609  0.9200  0.0416 -0.0906
 4337TIP3   OH213016   0.528   2.263   1.657  0.0992 -0.0190 -0.2637
 4337TIP3    H113017   0.477   2.342   1.676  0.3617  0.1197 -0.1376
 4337TIP3    H213018   0.616   2.295   1.637  0.2041 -0.2779 -0.2201
 4338TIP3   OH213019   6.189   0.142   1.731  0.2914  0.5372  0.0342
 4338TIP3    H113020   6.213   0.062   1.685  0.2692  0.4310  0.2076
 4338TIP3    H213021   6.265   0.163   1.784  0.2087  0.5027  0.1668
 4339TIP3   OH213022   2.992   1.301   2.747  0.0693  0.0571 -0.5952
 4339TIP3    H113023   2.906   1.280   2.784  0.0978  0.8886 -0.0226
 4339TIP3    H213024   2.991   1.261   2.660 -1.6119  1.6134 -1.3492
 4340TIP3   OH213025   2.362   0.519   5.010  0.3091  0.0250 -0.6767
 4340TIP3    H113026   2.309   0.455   4.964 -1.1915  1.2932 -0.7932
 4340TIP3    H213027   2.325   0.522   5.098  0.0344  1.0484 -0.8091
 4341TIP3   OH213028   4.882   5.067   3.663  0.0449 -0.3842 -0.0304
 4341TIP3    H113029   4.879   5.057   3.759  0.1201 -2.2086 -0.1791
 4341TIP3    H213030   4.975   5.065   3.642  0.1038  1.3860 -0.0535
 4342TIP3   OH213031   5.378   2.180   4.404 -0.2478  0.5095 -0.1228
 4342TIP3    H113032   5.463   2.137   4.415 -0.9214 -0.3318  2.3115
 4342TIP3    H213033   5.393   2.270   4.433 -0.2928  0.1995  0.9129
 4343TIP3   OH213034   5.841   5.083   2.300  0.4308  0.4289  0.2699
 4343TIP3    H113035   5.771   5.139   2.332  0.4134  0.1455  0.7334
 4343TIP3    H213036   5.916   5.142   2.290 -0.0059  0.8346 -0.7211
 4344TIP3   OH213037   2.675   1.340   0.107 -0.0870 -0.0608  0.1601
 4344TIP3    H113038   2.691   1.262   0.159 -0.5759 -0.1749  0.1430
 4344TIP3    H213039   2.681   1.310   0.016  2.1534  0.4111  0.1061
 4345TIP3   OH213040   1.851   1.316   0.372  0.0409 -0.3622 -0.4116
 4345TIP3    H113041   1.766   1.360   0.382  0.2407  0.1650 -0.9675
 4345TIP3    H213042   1.855   1.256   0.446 -1.7659 -1.9611 -1.5043
 4346TIP3   OH213043   4.209   4.300   3.196  0.2011  0.0208 -0.4046
 4346TIP3    H113044   4.212   4.373   3.258  0.0074  1.5263 -2.0840
 4346TIP3    H213045   4.142   4.241   3.232  0.4205  0.6046  1.0369
 4347TIP3   OH213046   3.155   0.073   4.095  0.6819  0.2651  0.2901
 4347TIP3    H113047   3.150   0.161   4.133 -0.4694  1.2806 -2.0119
 4347TIP3    H213048   3.247   0.064   4.068  0.5745  1.2679 -0.4835
 4348TIP3   OH213049   1.458   3.824   4.000  0.0756 -0.1021  0.3440
 4348TIP3    H113050   1.471   3.740   4.043  0.2342  0.3530  1.2130
 4348TIP3    H213051   1.468   3.806   3.907  3.0310 -0.5395  0.6453
 4349TIP3   OH213052   5.910   2.534   0.646  0.2691  0.4032 -0.2707
 4349TIP3    H113053   5.962   2.496   0.717  0.8097 -0.8599 -1.3061
 4349TIP3    H213054   5.856   2.462   0.614  0.0454  0.9423 -1.1355
 4350TIP3   OH213055   1.874   0.520   2.533  0.8085 -0.5946  0.1058
 4350TIP3    H113056   1.915   0.440   2.566 -0.2436 -1.8779 -1.4987
 4350TIP3    H213057   1.783   0.495   2.518  0.5570  0.7941 -0.8370
 4351TIP3   OH213058   5.438   0.999   1.524  0.7157 -0.0641 -0.1703
 4351TIP3    H113059   5.497   1.074   1.514 -0.5803  0.8392 -1.2751
 4351TIP3    H213060   5.493   0.932   1.566  2.0744  1.2691  0.2984
 4352TIP3   OH213061   2.394   1.119   2.714 -0.1359 -0.5335 -0.1590
 4352TIP3    H113062   2.367   1.075   2.633 -0.7459 -0.1933 -0.1461
 4352TIP3    H213063   2.395   1.049   2.780  0.5826 -0.8549 -0.5039
 4353TIP3   OH213064   4.923   3.518   1.589 -0.0849 -0.1358 -0.4375
 4353TIP3    H113065   4.896   3.459   1.518 -0.8332 -0.0627 -0.2199
 4353TIP3    H213066   5.018   3.515   1.587 -0.1088 -0.9258 -0.7884
 4354TIP3   OH213067   1.946   3.781   2.927  0.1487 -0.8438  0.1694
 4354TIP3    H113068   1.953   3.689   2.954 -2.7694 -1.6553 -1.3323
 4354TIP3    H213069   1.906   3.777   2.840 -2.5289  1.8401  1.0824
 4355TIP3   OH213070   0.852   1.699   4.132 -0.3418  0.5397  0.6195
 4355TIP3    H113071   0.807   1.680   4.215  0.2735  1.2069  1.1213
 4355TIP3    H213072   0.782   1.713   4.069 -0.8285  0.8099  1.2141
 4356TIP3   OH213073   2.055   1.042   3.924 -0.2087  0.3878  0.0638
 4356TIP3    H113074   2.004   1.113   3.962 -0.0923  0.3431  0.3089
 4356TIP3    H213075   2.110   1.084   3.858 -2.0956  0.1442 -1.7740
 4357TIP3   OH213076   2.970   4.672   1.913  0.4796 -0.5680 -0.7968
 4357TIP3    H113077   2.878   4.646   1.924  0.7708 -0.5604  3.3663
 4357TIP3    H213078   2.969   4.735   1.841 -2.5802 -1.3113 -1.5606
 4358TIP3   OH213079   0.973   2.362   3.394 -0.6938  0.2527 -0.8972
 4358TIP3    H113080   0.962   2.291   3.457 -2.4497  0.1331 -1.2880
 4358TIP3    H213081   0.918   2.336   3.320  1.6301  0.1596 -2.7126
 4359TIP3   OH213082   1.952   5.482   3.292  0.3487  0.5178 -0.4552
 4359TIP3    H113083   1.937   5.527   3.209 -0.0261  0.2252 -0.5546
 4359TIP3    H213084   1.956   5.552   3.357  0.8200  0.7602 -0.7427
 4360TIP3   OH213085   5.180   5.009   1.143 -0.1405 -0.3282 -0.1313
 4360TIP3    H113086   5.100   5.054   1.170  0.5326 -0.4099  2.3072
 4360TIP3    H213087   5.152   4.921   1.121 -0.5122 -1.3742  3.7423
 4361TIP3   OH213088   1.096   4.172   1.957 -0.0503  0.7454  0.3819
 4361TIP3    H113089   1.012   4.188   1.915 -0.9406  0.0392  1.8032
 4361TIP3    H213090   1.127   4.090   1.919 -0.1110  0.8871  0.0256
 4362TIP3   OH213091   5.410   3.509   3.750  0.2980  0.1412 -0.1553
 4362TIP3    H113092   5.393   3.419   3.723  0.9793  0.2074 -0.8428
 4362TIP3    H213093   5.329   3.556   3.728 -0.2369 -0.3840  0.6440
 4363TIP3   OH213094   4.815   4.616   4.810 -0.4225  0.1202 -0.9458
 4363TIP3    H113095   4.739   4.671   4.830 -1.2595 -1.4308  0.4007
 4363TIP3    H213096   4.855   4.600   4.896  0.7243 -0.0758 -1.5061
 4364TIP3   OH213097   1.539   4.025   3.289 -0.1845 -0.2761 -0.1988
 4364TIP3    H113098   1.446   4.043   3.282  0.0258  1.2312  0.3653
 4364TIP3    H213099   1.563   4.057   3.376  1.1178  0.7236 -0.8905
 4365TIP3   OH213100   1.863   0.480   4.355  0.4673 -0.1897 -0.3847
 4365TIP3    H113101   1.868   0.415   4.285  1.3082 -1.9388  1.1950
 4365TIP3    H213102   1.947   0.524   4.354  1.1210 -1.3558  0.5044
 4366TIP3   OH213103   1.050   1.616   3.727  0.0846  0.0556  0.1453
 4366TIP3    H113104   1.068   1.692   3.782  3.0682 -0.1362 -0.4218
 4366TIP3    H213105   1.005   1.554   3.785  0.3245  1.0720  1.4585
 4367TIP3   OH213106   3.409   5.364   4.701  0.0602 -0.5914 -0.1596
 4367TIP3    H113107   3.411   5.313   4.782 -0.2613 -0.6043 -0.1598
 4367TIP3    H213108   3.475   5.323   4.645  0.9193 -0.0480  0.4101
 4368TIP3   OH213109   1.889   0.803   4.810 -0.1430  0.0638 -0.0036
 4368TIP3    H113110   1.925   0.826   4.724 -1.4328  0.5817 -0.4224
 4368TIP3    H213111   1.906   0.879   4.865  1.4163 -0.5787  0.4669
 4369TIP3   OH213112   2.982   5.051   4.488  0.7856 -0.1417 -0.3467
 4369TIP3    H113113   3.047   4.992   4.526  0.6707 -0.8313 -1.1948
 4369TIP3    H213114   3.034   5.120   4.446  0.9401 -0.0818 -0.0592
 4370TIP3   OH213115   5.314   2.280   1.913 -0.1935  0.3331  0.2480
 4370TIP3    H113116   5.294   2.199   1.866  1.5706  0.1182 -0.1903
 4370TIP3    H213117   5.319   2.347   1.845  0.6530  0.3489  0.3132
 4371TIP3   OH213118   2.764   3.806   0.746  0.0454 -0.0497  0.4301
 4371TIP3    H113119   2.680   3.761   0.744 -0.8321  1.5617  0.1167
 4371TIP3    H213120   2.828   3.736   0.731 -1.1617 -1.4078  1.3434
 4372TIP3   OH213121   4.792   2.223   4.109 -0.3412 -0.3241 -0.1504
 4372TIP3    H113122   4.775   2.145   4.057 -1.0285 -0.4040  0.1707
 4372TIP3    H213123   4.864   2.199   4.167  0.5794 -0.1604 -1.1970
 4373TIP3   OH213124   4.534   0.320   0.511 -0.4809  0.5283 -0.1204
 4373TIP3    H113125   4.469   0.287   0.450  1.4711  0.9527 -2.6104
 4373TIP3    H213126   4.618   0.288   0.476  0.8426  1.9435  1.5537
 4374TIP3   OH213127   5.595   1.261   3.777 -0.0523  0.6372  0.1409
 4374TIP3    H113128   5.555   1.306   3.702  0.2469 -2.1725 -1.8796
 4374TIP3    H213129   5.535   1.189   3.796  1.2986 -0.3702  0.7174
 4375TIP3   OH213130   2.139   1.219   3.302 -0.3606  0.5333  0.0080
 4375TIP3    H113131   2.231   1.228   3.328 -0.7603 -0.0429  1.8110
 4375TIP3    H213132   2.140   1.223   3.207  1.9129 -2.3474 -0.2291
 4376TIP3   OH213133   0.994   0.284   1.769 -0.4193  0.0027  0.5215
 4376TIP3    H113134   1.068   0.240   1.811 -0.4119 -0.2127  0.2893
 4376TIP3    H213135   0.928   0.216   1.760 -0.2405 -0.0775 -0.2476
 4377TIP3   OH213136   4.038   5.113   4.939 -0.0032 -0.0730 -1.3963
 4377TIP3    H113137   4.091   5.155   5.007 -2.0122  0.8966 -0.3278
 4377TIP3    H213138   4.095   5.046   4.902  1.9735  0.9541 -0.3953
 4378TIP3   OH213139   3.592   2.295   1.586 -0.8734  0.6416  0.0111
 4378TIP3    H113140   3.552   2.217   1.547 -3.2204  2.1405 -0.8283
 4378TIP3    H213141   3.570   2.290   1.679 -0.3826 -0.0607  0.0874
 4379TIP3   OH213142   5.889   5.892   0.138 -0.6607 -0.0073  0.5101
 4379TIP3    H113143   5.902   5.984   0.161  1.9393 -0.3191  0.6663
 4379TIP3    H213144   5.844   5.855   0.214  0.7415  0.6227  1.7270
 4380TIP3   OH213145   3.408   4.807   4.696 -0.0741 -0.1935 -0.1875
 4380TIP3    H113146   3.409   4.736   4.760  0.2835 -0.8916 -0.9373
 4380TIP3    H213147   3.492   4.851   4.709  1.7349 -2.6078 -2.5554
 4381TIP3   OH213148   2.689   1.954   1.415  0.2268  0.0864  0.0822
 4381TIP3    H113149   2.602   1.914   1.420 -0.2296  0.0732 -4.1362
 4381TIP3    H213150   2.749   1.883   1.438 -0.7913 -0.2702  1.8014
 4382TIP3   OH213151   3.103   1.626   1.635 -0.2407  0.5556  0.2947
 4382TIP3    H113152   3.100   1.586   1.722 -0.4900 -0.0786  0.0029
 4382TIP3    H213153   3.162   1.570   1.585 -0.7838  0.3998 -0.1905
 4383TIP3   OH213154   1.872   2.718   0.530  0.0410 -0.3748  0.0244
 4383TIP3    H113155   1.864   2.812   0.513  0.6211 -0.3465 -0.0942
 4383TIP3    H213156   1.791   2.681   0.495 -0.6247  0.1924  0.9244
 4384TIP3   OH213157   4.856   5.222   4.113  0.0523 -0.0150  0.0789
 4384TIP3    H113158   4.794   5.234   4.185  0.1565  2.1286 -0.1207
 4384TIP3    H213159   4.876   5.311   4.084  1.0105 -0.7820 -1.7584
 4385TIP3   OH213160   1.868   2.965   0.420  0.3514  0.1916  0.0321
 4385TIP3    H113161   1.832   2.985   0.334  1.1944  0.5496 -0.2460
 4385TIP3    H213162   1.963   2.969   0.408  0.4971 -0.6819  0.7588
 4386TIP3   OH213163   3.333   4.234   3.281 -0.1692 -0.5722 -0.2328
 4386TIP3    H113164   3.424   4.252   3.260 -0.4422  1.1291 -0.0722
 4386TIP3    H213165   3.289   4.319   3.275 -1.5262 -1.1590  0.7745
 4387TIP3   OH213166   2.133   1.309   4.928  0.0510 -0.1555  0.4184
 4387TIP3    H113167   2.201   1.316   4.860 -1.9017 -0.2034 -1.6638
 4387TIP3    H213168   2.100   1.219   4.919 -1.4336  0.3835  0.1614
 4388TIP3   OH213169   2.419   3.846   0.947 -0.2198 -0.2171  0.5091
 4388TIP3    H113170   2.363   3.783   0.992 -1.4586  0.2404 -0.3456
 4388TIP3    H213171   2.454   3.798   0.871 -0.0562 -0.2781  0.6225
 4389TIP3   OH213172   5.591   1.714   4.530 -0.3734 -0.4466  0.1524
 4389TIP3    H113173   5.593   1.789   4.589 -2.4748  0.2918 -0.5989
 4389TIP3    H213174   5.559   1.750   4.447  2.9272 -1.3588 -1.6617
 4390TIP3   OH213175   3.329   4.410   3.728 -0.3532  0.0615 -0.6807
 4390TIP3    H113176   3.413   4.455   3.738 -0.2322 -0.3228  0.1435
 4390TIP3    H213177   3.266   4.468   3.772 -0.2073 -0.5207  0.3279
 4391TIP3   OH213178   5.259   5.308   2.286  0.2220  0.2888 -0.1940
 4391TIP3    H113179   5.313   5.358   2.225  0.7079 -1.6176 -1.4058
 4391TIP3    H213180   5.315   5.235   2.314 -0.7023 -0.0182  0.9331
 4392TIP3   OH213181   1.782   1.167   4.024 -0.7696 -0.0246 -0.3911
 4392TIP3    H113182   1.732   1.113   4.085  0.7043  2.4892  3.3499
 4392TIP3    H213183   1.755   1.257   4.043  0.4159  0.9649 -2.9087
 4393TIP3   OH213184   0.909   5.701   0.789 -0.2234 -0.1195  0.0839
 4393TIP3    H113185   0.968   5.752   0.845  0.5158 -2.4455  1.5873
 4393TIP3    H213186   0.825   5.746   0.795 -0.0619  0.0025  2.7898
 4394TIP3   OH213187   3.958   1.038   0.580 -0.1018  0.0801 -0.1163
 4394TIP3    H113188   3.913   0.958   0.609  1.1318 -0.9991 -1.0333
 4394TIP3    H213189   4.043   1.007   0.548  0.7929  1.8886  0.3723
 4395TIP3   OH213190   1.885   3.000   2.416  0.0967  0.7279  0.0909
 4395TIP3    H113191   1.964   2.984   2.365 -1.0370  0.3954 -1.6574
 4395TIP3    H213192   1.839   3.070   2.369 -1.6452 -0.5240 -0.1712
 4396TIP3   OH213193   1.151   0.852   3.225 -0.2021  0.5353  0.3261
 4396TIP3    H113194   1.103   0.858   3.142 -0.1432  2.0060  0.3597
 4396TIP3    H213195   1.084   0.827   3.289 -0.7075  1.4357  0.1722
 4397TIP3   OH213196   5.818   4.107   1.806 -0.2029 -0.0956 -0.1690
 4397TIP3    H113197   5.746   4.126   1.866 -1.2877  2.5616 -2.0656
 4397TIP3    H213198   5.895   4.148   1.846 -0.2561 -0.8073  0.6936
 4398TIP3   OH213199   5.857   4.324   3.342  0.4790  0.4778  0.0651
 4398TIP3    H113200   5.926   4.346   3.279  0.0144  0.1775 -0.5533
 4398TIP3    H213201   5.800   4.401   3.343  1.2053  1.0423  1.1386
 4399TIP3   OH213202   3.230   4.136   0.317 -0.5812  0.3657  0.1371
 4399TIP3    H113203   3.177   4.074   0.368 -1.9142 -0.5018 -2.1416
 4399TIP3    H213204   3.238   4.213   0.373  0.5925 -1.5643  2.8355
 4400TIP3   OH213205   3.993   1.834   2.385 -0.2085  0.5121  0.2373
 4400TIP3    H113206   4.023   1.775   2.454 -3.2922 -2.0037 -0.3468
 4400TIP3    H213207   3.941   1.900   2.430 -0.4821  0.1059  0.5209
 4401TIP3   OH213208   1.390   3.339   1.353 -0.2857  0.3359 -0.1863
 4401TIP3    H113209   1.436   3.345   1.270 -2.5739  0.0456 -1.5616
 4401TIP3    H213210   1.410   3.422   1.398  0.9775  0.4932 -1.0148
 4402TIP3   OH213211   0.320   3.537   4.006 -0.1259 -0.2869  0.0508
 4402TIP3    H113212   0.286   3.531   4.095 -0.1580 -2.3610 -0.0363
 4402TIP3    H213213   0.409   3.570   4.017 -1.0162  2.1319  0.5554
 4403TIP3   OH213214   0.909   5.649   3.871 -0.2756 -0.3912 -0.0082
 4403TIP3    H113215   0.892   5.734   3.912 -1.1879 -0.0086 -1.1068
 4403TIP3    H213216   1.003   5.648   3.855 -0.2613  0.4507 -0.0336
 4404TIP3   OH213217   6.060   2.354   1.215  0.5715  0.0805 -0.3484
 4404TIP3    H113218   5.979   2.336   1.262  0.3560  0.3933 -0.5997
 4404TIP3    H213219   6.062   2.289   1.145  1.3696 -1.0227  0.6531
 4405TIP3   OH213220   5.738   5.064   2.671 -0.0885 -0.1312 -0.2463
 4405TIP3    H113221   5.725   4.974   2.641  0.7723  0.1861 -1.6848
 4405TIP3    H213222   5.668   5.114   2.629 -0.9852 -0.2214  1.1064
 4406TIP3   OH213223   0.751   3.449   0.036 -0.8206  0.4692  0.0494
 4406TIP3    H113224   0.706   3.490  -0.038 -0.8702  1.5425  0.6530
 4406TIP3    H213225   0.701   3.478   0.113 -1.1967 -1.2010  0.4693
 4407TIP3   OH213226   3.033   5.879   3.667  0.4892  0.7054  0.3893
 4407TIP3    H113227   2.979   5.891   3.745 -1.2551  1.3946 -0.8497
 4407TIP3    H213228   3.084   5.800   3.684 -0.8795  0.0552  1.6540
 4408TIP3   OH213229   2.961   2.052   1.464 -0.1052  0.2473 -0.4447
 4408TIP3    H113230   2.966   2.117   1.534 -1.1566 -2.0759  2.0244
 4408TIP3    H213231   2.868   2.048   1.442  0.1585  0.6054 -1.6549
 4409TIP3   OH213232   5.747   2.698   2.818 -0.0440 -0.3536 -0.4969
 4409TIP3    H113233   5.766   2.652   2.736 -1.9098 -2.3505  0.1146
 4409TIP3    H213234   5.682   2.763   2.794 -0.1322 -0.5197 -0.7120
 4410TIP3   OH213235   2.326   2.312   1.118 -0.2902  0.0023  0.4047
 4410TIP3    H113236   2.233   2.329   1.126 -0.1961  0.0645  1.4131
 4410TIP3    H213237   2.345   2.248   1.186  0.4940  0.3436  0.5193
 4411TIP3   OH213238   2.268   1.986   3.877  0.1384 -0.2436 -0.0759
 4411TIP3    H113239   2.273   2.044   3.953  0.0311  1.3377 -1.2382
 4411TIP3    H213240   2.360   1.969   3.854  0.2853  2.3194 -1.7766
 4412TIP3   OH213241   4.075   2.791   4.200 -0.4607 -0.4617  0.0515
 4412TIP3    H113242   4.085   2.847   4.277  2.3440 -0.3568 -0.2690
 4412TIP3    H213243   4.029   2.713   4.233 -0.4474  0.1202  1.5360
 4413TIP3   OH213244   6.208   3.247   2.915  0.4148 -0.1271  0.1433
 4413TIP3    H113245   6.178   3.247   3.006  0.7357  0.1300  0.2518
 4413TIP3    H213246   6.130   3.225   2.864 -0.0980  1.0487  0.3776
 4414TIP3   OH213247   0.106   4.290   1.131  0.1526 -0.2090 -0.2147
 4414TIP3    H113248   0.152   4.310   1.213  0.8487  1.6083 -1.0100
 4414TIP3    H213249   0.112   4.370   1.079 -2.1460 -0.5931 -1.2055
 4415TIP3   OH213250   1.445   0.962   2.698  0.5234  0.3037  0.3887
 4415TIP3    H113251   1.426   0.983   2.790  1.8473  0.2289  0.7099
 4415TIP3    H213252   1.471   0.870   2.699 -1.2380 -0.2303 -0.3720
 4416TIP3   OH213253   1.676   5.333   4.922 -0.4216 -0.0161 -0.1929
 4416TIP3    H113254   1.687   5.401   4.989 -4.0088 -0.4321  1.0460
 4416TIP3    H213255   1.636   5.378   4.848 -0.5623 -0.3188 -0.3045
 4417TIP3   OH213256   2.385   5.704   1.212  0.1341  0.7869 -0.3477
 4417TIP3    H113257   2.394   5.616   1.175  0.2570  1.3918 -1.8515
 4417TIP3    H213258   2.447   5.757   1.161 -0.5430  1.8969 -0.0420
 4418TIP3   OH213259   1.661   0.436   3.745 -0.1590  0.3194 -0.1318
 4418TIP3    H113260   1.609   0.506   3.705 -0.1924  0.1912 -0.3134
 4418TIP3    H213261   1.751   0.457   3.723 -0.1619  0.3473 -0.1177
 4419TIP3   OH213262   4.028   0.215   3.901 -0.4807  0.2176  0.0910
 4419TIP3    H113263   4.112   0.243   3.864 -0.7807 -0.7658 -1.4086
 4419TIP3    H213264   4.030   0.119   3.895 -2.1026  0.2150 -0.9002
 4420TIP3   OH213265   1.691   2.147   3.915  0.3371 -1.0186 -0.2395
 4420TIP3    H113266   1.715   2.195   3.995  0.4801 -0.5048 -0.5874
 4420TIP3    H213267   1.750   2.181   3.848 -0.2566 -0.9359 -0.7285
 4421TIP3   OH213268   0.771   0.618   1.165 -0.4184  0.0508 -0.1496
 4421TIP3    H113269   0.701   0.683   1.175  0.6618  0.9399  2.4908
 4421TIP3    H213270   0.725   0.535   1.150 -2.1746  0.4122  2.5216
 4422TIP3   OH213271   2.116   2.237   1.579 -0.1352 -1.0165  0.4286
 4422TIP3    H113272   2.165   2.285   1.646 -1.5594 -0.9273  1.4550
 4422TIP3    H213273   2.027   2.232   1.614 -0.6582 -1.9479 -0.9665
 4423TIP3   OH213274   3.107   2.869   3.126  0.1570  0.4182 -0.0695
 4423TIP3    H113275   3.019   2.867   3.089  0.2736 -0.3309 -0.3249
 4423TIP3    H213276   3.098   2.913   3.210 -0.2620  1.3851 -0.6081
 4424TIP3   OH213277   5.694   5.325   2.957 -0.0957 -0.3397  0.5963
 4424TIP3    H113278   5.778   5.315   2.913  2.0549  3.0445  3.3850
 4424TIP3    H213279   5.697   5.263   3.030  0.0311 -0.2098  0.7033
 4425TIP3   OH213280   4.241   0.015   4.391  0.0786  0.6228 -0.0340
 4425TIP3    H113281   4.326   0.011   4.348  0.8509  1.7903  1.3147
 4425TIP3    H213282   4.187   0.068   4.331  0.7586  1.1641 -0.1888
 4426TIP3   OH213283   3.539   4.998   3.149  0.2494  0.3094  0.5143
 4426TIP3    H113284   3.485   4.922   3.172  1.4321 -0.2787  1.4495
 4426TIP3    H213285   3.501   5.071   3.199 -1.1079  0.4505 -0.6608
 4427TIP3   OH213286   3.768   5.174   3.603 -0.5531 -0.0824 -0.3589
 4427TIP3    H113287   3.747   5.160   3.511  0.8211  1.8139 -1.0294
 4427TIP3    H213288   3.843   5.117   3.620  0.8083  1.3544 -1.1980
 4428TIP3   OH213289   1.741   5.459   0.076  0.5998  0.1312 -0.1132
 4428TIP3    H113290   1.834   5.462   0.095  0.3434  1.1230  1.0761
 4428TIP3    H213291   1.698   5.484   0.158 -0.6821  0.5959 -0.8893
 4429TIP3   OH213292   3.670   3.890   0.732 -0.3304 -0.4786 -0.2116
 4429TIP3    H113293   3.607   3.941   0.681 -0.5456  0.4139  0.8881
 4429TIP3    H213294   3.639   3.897   0.823  0.8003 -0.8342  0.2272
 4430TIP3   OH213295   2.611   0.850   2.599  0.1391  0.7376 -0.2004
 4430TIP3    H113296   2.703   0.826   2.605 -0.3614 -0.9771  1.5242
 4430TIP3    H213297   2.576   0.834   2.687 -1.7572  1.5469 -0.7572
 4431TIP3   OH213298   4.132   3.633   2.492 -0.0304  0.1764  0.1347
 4431TIP3    H113299   4.158   3.597   2.577  1.4735 -0.6270 -0.6289
 4431TIP3    H213300   4.095   3.559   2.445 -2.1091  0.9003  0.5121
 4432TIP3   OH213301   2.102   2.703   3.635  0.4106  0.3796 -0.4483
 4432TIP3    H113302   2.062   2.777   3.681 -1.0556 -0.0334 -0.9943
 4432TIP3    H213303   2.171   2.743   3.581 -2.4699  1.9413 -3.3286
 4433TIP3   OH213304   4.116   4.701   2.594  0.4290 -0.0419 -0.4356
 4433TIP3    H113305   4.167   4.667   2.667  0.1295 -1.2530 -0.7659
 4433TIP3    H213306   4.064   4.771   2.632 -0.4302 -1.2721  0.7575
 4434TIP3   OH213307   4.522   3.720   3.622  0.1674  0.1402  0.3885
 4434TIP3    H113308   4.442   3.671   3.601 -0.5722 -0.0607  3.2305
 4434TIP3    H213309   4.508   3.750   3.712  2.8607  1.0500  0.5744
 4435TIP3   OH213310   3.078   1.359   4.172 -0.3021 -0.2084 -0.4236
 4435TIP3    H113311   3.006   1.299   4.152 -0.2606  0.1611 -1.8402
 4435TIP3    H213312   3.070   1.377   4.265  0.2574 -3.1507  0.2841
 4436TIP3   OH213313   2.380   5.928   0.492  0.1454  0.3647 -0.3378
 4436TIP3    H113314   2.392   5.958   0.402 -0.6214  2.5196  0.2033
 4436TIP3    H213315   2.452   5.969   0.541 -0.5393  0.8034  0.3313
 4437TIP3   OH213316   0.660   3.102   1.796 -0.4019  0.0250 -0.0986
 4437TIP3    H113317   0.740   3.105   1.849 -1.4616  1.1440  1.5453
 4437TIP3    H213318   0.687   3.060   1.714  1.6432 -0.4640  0.7571
 4438TIP3   OH213319   5.315   2.904   2.395 -0.4953  0.1820  0.3578
 4438TIP3    H113320   5.344   2.818   2.367  1.0859  0.7663  0.0974
 4438TIP3    H213321   5.234   2.888   2.443 -1.3317 -1.2166 -1.4101
 4439TIP3   OH213322   2.408   1.409   4.186 -0.2070 -0.7591  0.2011
 4439TIP3    H113323   2.427   1.377   4.274 -0.7126 -1.0484  0.2045
 4439TIP3    H213324   2.355   1.340   4.146 -0.3692 -0.4191 -0.1749
 4440TIP3   OH213325   0.091   2.864   2.898  0.3789 -0.0742  0.6981
 4440TIP3    H113326   0.164   2.883   2.957  0.0284  0.4316  0.9760
 4440TIP3    H213327   0.060   2.950   2.869  0.0479 -0.2918  0.3912
 4441TIP3   OH213328   0.175   4.416   3.137  0.0753  0.1200 -0.1483
 4441TIP3    H113329   0.203   4.378   3.221  0.4473 -0.7859 -0.6738
 4441TIP3    H213330   0.109   4.480   3.161  1.4895  1.2160  1.0152
 4442TIP3   OH213331   5.353   5.714   4.688  0.2306  0.0725  0.6810
 4442TIP3    H113332   5.290   5.681   4.751 -1.0284 -0.8332 -0.9717
 4442TIP3    H213333   5.338   5.809   4.686 -0.4409 -0.0251  0.9775
 4443TIP3   OH213334   0.621   0.979   3.889 -0.6076  0.1359  0.1899
 4443TIP3    H113335   0.713   0.974   3.913 -0.8424 -2.7262  0.8487
 4443TIP3    H213336   0.585   1.047   3.946  1.1450  1.8322 -0.5749
 4444TIP3   OH213337   2.593   3.419   3.433  0.1411 -0.3797  0.0284
 4444TIP3    H113338   2.594   3.511   3.406 -2.5450 -0.0946  0.5474
 4444TIP3    H213339   2.679   3.404   3.472  0.1713  2.3525  1.2459
 4445TIP3   OH213340   1.945   1.420   4.735 -0.1956 -0.4297  0.5095
 4445TIP3    H113341   2.016   1.478   4.707 -0.3817 -0.2168  0.4823
 4445TIP3    H213342   1.990   1.352   4.785  0.1625 -0.8893 -0.3992
 4446TIP3   OH213343   6.242   5.963   0.244  0.2456 -0.0260  0.1212
 4446TIP3    H113344   6.211   6.041   0.198  1.2950  0.3572  0.0622
 4446TIP3    H213345   6.286   5.911   0.177 -0.1648 -0.5219  0.2290
 4447TIP3   OH213346   4.067   1.199   3.677  0.0694 -0.4175  0.1488
 4447TIP3    H113347   4.149   1.221   3.720 -1.2263  0.5511  2.3186
 4447TIP3    H213348   4.006   1.267   3.707 -1.5121 -1.0728 -1.4230
 4448TIP3   OH213349   2.993   0.456   5.156 -0.1472  0.6459 -0.2135
 4448TIP3    H113350   2.933   0.529   5.174 -2.0169 -1.0006  0.6162
 4448TIP3    H213351   3.018   0.424   5.243  0.5193  0.1814 -0.5721
 4449TIP3   OH213352   3.075   0.675   1.844 -0.5397  0.3919  0.4904
 4449TIP3    H113353   3.132   0.610   1.803 -0.8340  1.5072 -1.7848
 4449TIP3    H213354   3.080   0.752   1.788 -3.3647  0.9413  0.8236
 4450TIP3   OH213355   3.934   2.211   2.695  0.1249 -0.4056  0.1606
 4450TIP3    H113356   3.994   2.199   2.621 -0.8006  1.1888 -0.8965
 4450TIP3    H213357   3.850   2.181   2.663 -0.1262 -0.4891  0.8699
 4451TIP3   OH213358   6.166   3.045   2.412 -0.4528  0.4064  0.4715
 4451TIP3    H113359   6.170   3.137   2.440  1.5047  1.2661 -2.2655
 4451TIP3    H213360   6.242   3.005   2.454  1.7533  1.4004 -2.2725
 4452TIP3   OH213361   1.814   2.172   0.879 -0.4436 -0.0654  0.2164
 4452TIP3    H113362   1.768   2.222   0.812  1.6333 -0.8598 -1.9668
 4452TIP3    H213363   1.830   2.234   0.949  1.3397  2.2386 -2.0373
 4453TIP3   OH213364   0.284   4.681   1.434 -0.1104 -0.1998 -0.1161
 4453TIP3    H113365   0.285   4.776   1.448 -0.9055  0.1385 -2.0119
 4453TIP3    H213366   0.192   4.656   1.449  0.0053 -0.6004 -0.0662
 4454TIP3   OH213367   1.674   3.242   4.097  0.7916  0.3540 -0.9483
 4454TIP3    H113368   1.722   3.260   4.017  1.6697  1.2658 -0.2435
 4454TIP3    H213369   1.583   3.265   4.076  1.2070  1.7865 -1.3325
 4455TIP3   OH213370   6.320   0.168   3.358  0.4657  0.0487  0.2763
 4455TIP3    H113371   6.413   0.151   3.344  0.2829 -0.9983  0.2684
 4455TIP3    H213372   6.310   0.262   3.340  1.0602 -0.2938 -2.3516
 4456TIP3   OH213373   5.378   1.924   4.095 -0.1163 -0.1160  0.4884
 4456TIP3    H113374   5.285   1.931   4.073  0.4378 -1.1256 -2.6440
 4456TIP3    H213375   5.416   2.005   4.062  0.2907 -0.2711  0.5798
 4457TIP3   OH213376   2.752   3.600   2.240 -0.5571 -0.3738  1.0139
 4457TIP3    H113377   2.699   3.580   2.163  0.9938 -0.8275  0.0269
 4457TIP3    H213378   2.843   3.591   2.211  0.0936  0.2550  2.6803
 4458TIP3   OH213379   3.676   5.945   3.349  0.0654  0.0747  0.1942
 4458TIP3    H113380   3.683   5.934   3.255  0.8078  0.8637  0.1489
 4458TIP3    H213381   3.734   5.877   3.386 -0.2357 -0.2418  0.0911
 4459TIP3   OH213382   4.228   3.552   3.065 -0.3253  0.3107  0.0503
 4459TIP3    H113383   4.287   3.488   3.027  0.1520  0.7931 -0.0247
 4459TIP3    H213384   4.225   3.623   3.001 -0.9929  0.2878  0.0474
 4460TIP3   OH213385   4.826   0.791   3.715  0.1193 -0.4034 -0.8749
 4460TIP3    H113386   4.816   0.868   3.659 -0.3767 -0.1155 -0.4023
 4460TIP3    H213387   4.740   0.779   3.756  0.7502  0.0833  0.6824
 4461TIP3   OH213388   2.928   1.489   0.873 -0.0777 -0.1273 -0.5193
 4461TIP3    H113389   2.961   1.438   0.946  0.8709  3.2699  1.6968
 4461TIP3    H213390   3.003   1.498   0.814 -0.2860 -1.3013 -0.9814
 4462TIP3   OH213391   1.383   0.140   3.209  0.0367 -0.7322  0.1713
 4462TIP3    H113392   1.433   0.127   3.290  2.3060 -0.5550 -1.1147
 4462TIP3    H213393   1.382   0.054   3.167 -1.1172 -0.8184  0.3333
 4463TIP3   OH213394   4.295   0.441   4.451  0.4919 -0.2136 -0.4339
 4463TIP3    H113395   4.318   0.530   4.424  0.9717  0.5837  2.2791
 4463TIP3    H213396   4.375   0.405   4.488  0.1397 -1.5853 -0.9206
 4464TIP3   OH213397   5.283   5.798   2.882  0.0110 -0.0364 -0.5302
 4464TIP3    H113398   5.244   5.717   2.849 -0.5678 -0.2970  0.7295
 4464TIP3    H213399   5.350   5.769   2.944  0.0971  0.4449 -0.3953
 4465TIP3   OH213400   5.766   3.225   0.841  0.0090 -0.2396 -0.6309
 4465TIP3    H113401   5.842   3.194   0.792 -0.1154 -0.7645 -0.4997
 4465TIP3    H213402   5.800   3.246   0.928 -0.2066 -1.6160 -0.2022
 4466TIP3   OH213403   4.321   3.329   0.554  0.1246  0.2310  0.3294
 4466TIP3    H113404   4.328   3.380   0.473  1.6064 -0.0163  0.2708
 4466TIP3    H213405   4.278   3.388   0.616  0.8771  1.1870 -0.0379
 4467TIP3   OH213406   0.870   0.412   4.015 -0.1042 -0.5941 -0.0648
 4467TIP3    H113407   0.874   0.437   4.107  1.2873 -0.8911 -0.0290
 4467TIP3    H213408   0.935   0.467   3.971 -0.6864 -0.5198 -0.8682
 4468TIP3   OH213409   5.033   2.787   1.858  0.1075 -0.4226  0.1831
 4468TIP3    H113410   5.036   2.771   1.764 -0.0617 -0.4886  0.1887
 4468TIP3    H213411   5.121   2.815   1.881 -0.1694  0.8290 -0.2219
 4469TIP3   OH213412   4.501   5.585   1.031  0.0808  0.6954 -1.0073
 4469TIP3    H113413   4.468   5.649   1.095 -1.6960  0.0648 -1.2383
 4469TIP3    H213414   4.591   5.567   1.060 -0.6237  0.4816  1.3000
 4470TIP3   OH213415   4.584   2.684   4.853  0.5287 -0.1225  0.0972
 4470TIP3    H113416   4.626   2.675   4.767  0.5515  1.9922 -0.1571
 4470TIP3    H213417   4.625   2.761   4.892 -1.4844  0.6584  0.8048
 4471TIP3   OH213418   6.007   1.274   2.266 -0.0352  0.2421  0.1547
 4471TIP3    H113419   6.036   1.254   2.177 -2.4576  0.5642 -0.8111
 4471TIP3    H213420   5.915   1.247   2.266 -0.8205  2.6619  1.7301
 4472TIP3   OH213421   1.904   5.806   4.347  0.0558  0.3763  0.2169
 4472TIP3    H113422   1.893   5.873   4.280 -0.7628  2.4280  2.2466
 4472TIP3    H213423   1.998   5.787   4.348  0.4147  1.9981 -0.0139
 4473TIP3   OH213424   0.861   5.527   1.688 -0.2200 -0.1577 -0.6540
 4473TIP3    H113425   0.871   5.484   1.773  2.0554  0.3929 -0.5699
 4473TIP3    H213426   0.792   5.592   1.702 -0.8018 -0.9640  0.3746
 4474TIP3   OH213427   3.058   1.072   3.193 -0.1855 -0.3609  0.7507
 4474TIP3    H113428   3.068   0.995   3.248  1.2971 -0.4174  0.4377
 4474TIP3    H213429   3.128   1.065   3.128 -1.6984 -0.1665 -1.0124
 4475TIP3   OH213430   3.220   0.434   3.092  0.3230  0.1789 -0.2230
 4475TIP3    H113431   3.169   0.400   3.019 -0.0001 -0.6745  0.3780
 4475TIP3    H213432   3.307   0.398   3.080  0.3076  0.1573 -0.2685
 4476TIP3   OH213433   4.902   0.361   2.101  0.1287  0.1622  0.2162
 4476TIP3    H113434   4.976   0.419   2.120 -0.2993  0.8848 -0.2970
 4476TIP3    H213435   4.928   0.315   2.021 -0.2159  0.8409 -0.2915
 4477TIP3   OH213436   3.089   3.913   5.001  0.2111 -0.4456  0.3854
 4477TIP3    H113437   3.103   3.928   4.907 -0.5070  0.4677  0.4169
 4477TIP3    H213438   3.000   3.944   5.017  1.3986  2.4359  1.9958
 4478TIP3   OH213439   5.972   5.276   3.777  0.4498 -0.2595  0.1365
 4478TIP3    H113440   5.879   5.279   3.799 -0.3745 -2.9433 -2.2757
 4478TIP3    H213441   6.015   5.244   3.856 -0.8078  0.1974  1.0289
 4479TIP3   OH213442   6.130   0.039   3.221  0.1016 -0.5137 -0.0767
 4479TIP3    H113443   6.206   0.075   3.267  0.2096 -0.7984 -0.0306
 4479TIP3    H213444   6.129  -0.054   3.245  0.0328 -0.6164 -0.4773
 4480TIP3   OH213445   0.302   2.735   0.896  0.0223  0.2284  0.3474
 4480TIP3    H113446   0.239   2.688   0.841 -0.2859  0.8019  0.2021
 4480TIP3    H213447   0.326   2.672   0.963  0.6537 -0.5940 -0.6224
 4481TIP3   OH213448   2.826   5.344   4.106  0.1287 -0.1579  0.3985
 4481TIP3    H113449   2.760   5.277   4.126 -0.0088 -0.3074 -0.4938
 4481TIP3    H213450   2.818   5.408   4.177  0.1674 -1.0178  1.1967
 4482TIP3   OH213451   2.371   2.411   4.469 -0.0349  0.3398 -0.2579
 4482TIP3    H113452   2.276   2.411   4.464 -0.0800  2.2740 -0.1191
 4482TIP3    H213453   2.391   2.457   4.550  1.0418 -1.7181  0.7243
 4483TIP3   OH213454   6.332   0.879   1.600  0.0280 -0.3580 -0.2677
 4483TIP3    H113455   6.338   0.876   1.696  0.7743  1.0498 -0.2339
 4483TIP3    H213456   6.267   0.947   1.583  0.4051 -0.1104 -0.7501
 4484TIP3   OH213457   0.812   3.432   1.809  0.3318  0.3196 -0.8756
 4484TIP3    H113458   0.799   3.376   1.886  0.3875 -0.3699 -1.3676
 4484TIP3    H213459   0.804   3.521   1.844  0.6972  0.0288 -0.0005
 4485TIP3   OH213460   3.327   5.862   3.443 -0.0668 -0.7516 -0.1844
 4485TIP3    H113461   3.401   5.804   3.460 -0.8793 -1.1691  2.4701
 4485TIP3    H213462   3.252   5.804   3.434 -0.5971 -0.2344  0.6868
 4486TIP3   OH213463   1.367   3.109   0.317  0.0437 -0.5690 -0.2551
 4486TIP3    H113464   1.341   3.176   0.381  1.1240 -1.5593  1.2731
 4486TIP3    H213465   1.338   3.026   0.355  1.7796 -1.2972 -0.4217
 4487TIP3   OH213466   0.496   3.002   2.348 -0.2318 -0.0589 -0.2704
 4487TIP3    H113467   0.412   2.966   2.320 -0.4853 -0.2730  0.7194
 4487TIP3    H213468   0.543   3.022   2.267 -0.1280 -2.4760 -0.8624
 4488TIP3   OH213469   5.964   4.938   2.080  0.3029 -0.3956 -0.4569
 4488TIP3    H113470   5.910   4.951   2.157  0.9815  0.7349 -0.1412
 4488TIP3    H213471   5.939   4.852   2.046 -0.6678 -0.4921  0.4759
 4489TIP3   OH213472   0.927   0.151   4.872 -0.2963 -0.2445  0.0490
 4489TIP3    H113473   0.973   0.078   4.831  1.3201  0.3697  0.6922
 4489TIP3    H213474   0.903   0.208   4.799  0.4387 -0.3226 -0.2596
 4490TIP3   OH213475   0.329   0.651   0.069  0.1176  0.3062  0.2644
 4490TIP3    H113476   0.321   0.642  -0.026 -0.6809 -0.2229  0.3682
 4490TIP3    H213477   0.254   0.705   0.095 -0.1604 -0.2764  0.6893
 4491TIP3   OH213478   5.673   3.269   2.272  0.2837 -0.2846  0.0917
 4491TIP3    H113479   5.654   3.361   2.287 -3.6324 -0.7308 -1.0186
 4491TIP3    H213480   5.620   3.222   2.336  0.8981 -1.8055 -0.4472
 4492TIP3   OH213481   6.210   1.013   1.302  0.4213 -0.5613  0.9876
 4492TIP3    H113482   6.304   0.993   1.302  0.3932 -0.7131  1.4039
 4492TIP3    H213483   6.195   1.060   1.221  0.7663 -0.9913  0.6711
 4493TIP3   OH213484   0.137   0.232   0.374  0.4077  0.3862 -0.1502
 4493TIP3    H113485   0.227   0.262   0.363 -0.0176  1.1878 -1.7110
 4493TIP3    H213486   0.126   0.163   0.309  0.2402 -0.5651  0.8594
 4494TIP3   OH213487   2.443   2.114   0.654  0.2375 -0.2468 -0.7558
 4494TIP3    H113488   2.440   2.042   0.717 -0.0273  0.4948  0.0820
 4494TIP3    H213489   2.464   2.071   0.571 -0.9185 -1.4298 -0.4696
 4495TIP3   OH213490   0.905   2.801   4.757 -0.0018 -0.0252  0.0964
 4495TIP3    H113491   0.825   2.851   4.776 -0.5070 -0.9008  0.3553
 4495TIP3    H213492   0.974   2.867   4.751 -0.5747  0.6713  0.8454
 4496TIP3   OH213493   0.242   5.217   0.089 -0.6341 -0.2942  0.5409
 4496TIP3    H113494   0.274   5.281   0.026 -0.8726 -0.4646  0.2392
 4496TIP3    H213495   0.281   5.243   0.172  0.1908 -0.4319  0.2081
 4497TIP3   OH213496   4.891   2.865   4.128 -0.4806  0.5534 -0.2358
 4497TIP3    H113497   4.972   2.815   4.142  0.8760  2.4823 -0.7669
 4497TIP3    H213498   4.851   2.824   4.052 -0.7648 -1.3129  0.8646
 4498TIP3   OH213499   1.773   4.403   4.475 -0.1972 -0.4230  0.1794
 4498TIP3    H113500   1.751   4.375   4.564 -1.3746  3.1205  1.1848
 4498TIP3    H213501   1.702   4.370   4.420 -0.8250 -0.5284  1.0410
 4499TIP3   OH213502   0.958   0.555   0.199 -0.2170 -1.0379  0.2866
 4499TIP3    H113503   1.050   0.577   0.207  0.1619 -2.5674  0.4352
 4499TIP3    H213504   0.913   0.640   0.192  1.1456 -0.2693  0.5960
 4500TIP3   OH213505   0.327   5.323   0.348 -0.0237  0.1644 -0.4307
 4500TIP3    H113506   0.413   5.357   0.372 -0.6496  2.5814 -1.3581
 4500TIP3    H213507   0.300   5.271   0.424  1.6637  0.4870  0.4487
 4501TIP3   OH213508   4.721   1.526   3.077  0.5468  0.3219  0.2309
 4501TIP3    H113509   4.727   1.613   3.116  0.4341  1.1663 -1.5355
 4501TIP3    H213510   4.812   1.504   3.055  0.6375 -0.2469  1.1341
 4502TIP3   OH213511   5.582   5.195   2.431 -0.7280  0.7389  0.0319
 4502TIP3    H113512   5.517   5.127   2.449  0.7873 -1.2715 -1.6039
 4502TIP3    H213513   5.579   5.208   2.336  1.5830  0.1697 -0.1893
 4503TIP3   OH213514   0.649   0.254   3.909 -0.0975 -0.5546  0.3220
 4503TIP3    H113515   0.729   0.278   3.956 -0.3006 -0.5321  0.6612
 4503TIP3    H213516   0.579   0.296   3.959 -0.1682  1.1744 -1.1426
 4504TIP3   OH213517   2.537   0.234   0.008  0.0643 -0.1877  0.2121
 4504TIP3    H113518   2.512   0.182   0.085 -0.4844 -1.7018 -0.9320
 4504TIP3    H213519   2.622   0.198  -0.019 -0.1569 -0.2822 -0.3853
 4505TIP3   OH213520   5.837   1.351   1.046  0.4195 -0.4075 -0.6083
 4505TIP3    H113521   5.792   1.320   0.967  1.0546 -0.2542 -1.0409
 4505TIP3    H213522   5.893   1.422   1.015  1.2963 -0.8885 -0.1754
 4506TIP3   OH213523   5.895   1.135   1.184 -0.0044 -0.0557 -0.8303
 4506TIP3    H113524   5.865   1.216   1.144  2.5380  0.4785 -1.8570
 4506TIP3    H213525   5.973   1.112   1.135 -0.2871 -2.8106 -0.1342
 4507TIP3   OH213526   2.407   0.512   1.529  0.3836  0.3460 -0.6341
 4507TIP3    H113527   2.343   0.563   1.579 -1.2624 -0.9230 -1.3350
 4507TIP3    H213528   2.414   0.559   1.446  0.1879  0.3684 -0.6389
 4508TIP3   OH213529   5.360   2.868   1.605 -0.2073  0.5012 -0.0147
 4508TIP3    H113530   5.352   2.952   1.561 -1.6503  0.0464 -0.6786
 4508TIP3    H213531   5.311   2.879   1.686  0.0771  0.4661  0.1640
 4509TIP3   OH213532   2.354   0.405   3.102 -0.4373  0.2865 -0.4990
 4509TIP3    H113533   2.426   0.364   3.150 -1.4789 -0.3597  0.5721
 4509TIP3    H213534   2.385   0.411   3.012  0.1677 -1.9509 -0.4983
 4510TIP3   OH213535   5.410   5.643   3.092  0.0506  0.0428  0.0782
 4510TIP3    H113536   5.503   5.619   3.086  0.4754  1.4604  0.6736
 4510TIP3    H213537   5.375   5.585   3.160  0.3906 -0.7649 -0.4135
 4511TIP3   OH213538   4.324   4.860   0.343  0.2681  0.1350  0.4387
 4511TIP3    H113539   4.334   4.931   0.280  1.8596  0.3234  0.8689
 4511TIP3    H213540   4.393   4.798   0.320 -1.4236 -1.6004 -0.2954
 4512TIP3   OH213541   3.787   1.521   1.904  0.2094 -0.3666  0.2975
 4512TIP3    H113542   3.707   1.541   1.953  0.1955  0.7703 -0.1711
 4512TIP3    H213543   3.842   1.475   1.967  0.3677  1.4516  1.5605
 4513TIP3   OH213544   2.788   5.720   4.781 -0.2199  0.0578  0.1932
 4513TIP3    H113545   2.783   5.631   4.814  1.9259  0.8066  2.8762
 4513TIP3    H213546   2.874   5.725   4.740 -0.0974  1.0156  0.5439
 4514TIP3   OH213547   5.430   2.432   3.314  0.1872  0.1844  0.0188
 4514TIP3    H113548   5.365   2.400   3.252 -0.2936  0.6428  0.2818
 4514TIP3    H213549   5.487   2.489   3.263  0.0204  0.2597 -0.0829
 4515TIP3   OH213550   1.313   1.783   2.675 -0.2609  0.1798 -0.0902
 4515TIP3    H113551   1.221   1.801   2.660 -0.7833 -1.9187  0.2239
 4515TIP3    H213552   1.318   1.754   2.767  1.1916  2.8309  0.7812
 4516TIP3   OH213553   4.350   0.958   0.248 -0.0935 -0.2220 -0.2446
 4516TIP3    H113554   4.371   0.865   0.249 -1.9288 -0.6882  0.5723
 4516TIP3    H213555   4.318   0.975   0.159  0.6620 -0.2574 -0.5254
 4517TIP3   OH213556   2.250   3.850   0.625  0.4386  0.1930 -0.2805
 4517TIP3    H113557   2.334   3.824   0.664  0.2623  1.2624  0.8896
 4517TIP3    H213558   2.241   3.943   0.647 -0.2829  0.5265 -1.8338
 4518TIP3   OH213559   4.958   4.282   2.428 -0.0255 -0.0004 -0.1658
 4518TIP3    H113560   4.954   4.191   2.397 -0.7737  0.1077 -0.4088
 4518TIP3    H213561   4.919   4.333   2.356  0.0855  0.4736  0.1084
 4519TIP3   OH213562   4.737   5.195   1.425  0.8021 -0.0815  0.5019
 4519TIP3    H113563   4.673   5.136   1.385 -0.1384  1.6527 -0.6544
 4519TIP3    H213564   4.699   5.217   1.510  1.4849 -1.6050  1.2469
 4520TIP3   OH213565   6.130   3.648   0.568  0.1009  0.0243  0.1571
 4520TIP3    H113566   6.123   3.649   0.473 -0.1764 -0.2964  0.1700
 4520TIP3    H213567   6.054   3.698   0.599  0.4726  0.5668  0.2007
 4521TIP3   OH213568   6.075   2.809   2.341  0.1709 -0.7802 -0.0468
 4521TIP3    H113569   5.981   2.793   2.342  0.0139  0.0369 -0.5558
 4521TIP3    H213570   6.084   2.900   2.372  0.6344 -0.2369 -1.6794
 4522TIP3   OH213571   5.630   0.229   0.029  0.3261  0.2602 -0.3248
 4522TIP3    H113572   5.719   0.263   0.034 -0.2385  1.7040  0.8118
 4522TIP3    H213573   5.590   0.275  -0.046  0.7634 -1.0555 -1.4075
 4523TIP3   OH213574   2.556   1.384   4.444  0.3548 -0.0564 -0.5802
 4523TIP3    H113575   2.625   1.442   4.476  1.1553 -1.9689  1.4061
 4523TIP3    H213576   2.600   1.300   4.430 -1.2724 -0.9351 -0.6637
 4524TIP3   OH213577   5.916   5.040   3.177  0.5778  0.3237  0.0790
 4524TIP3    H113578   5.894   4.963   3.230 -3.1912  0.2980 -1.2311
 4524TIP3    H213579   5.838   5.095   3.181  1.5218  2.0123 -2.5297
 4525TIP3   OH213580   4.422   5.764   1.195  0.0198 -0.5801  0.0396
 4525TIP3    H113581   4.441   5.791   1.285  0.8705 -0.7812 -0.0690
 4525TIP3    H213582   4.360   5.829   1.163  0.2240 -0.1202  0.5577
 4526TIP3   OH213583   5.267   0.212   4.885  0.1898 -0.3004 -0.4647
 4526TIP3    H113584   5.197   0.277   4.884  0.6513  0.1945 -0.5457
 4526TIP3    H213585   5.338   0.252   4.835  0.4491 -0.8948 -0.5775
 4527TIP3   OH213586   3.533   2.579   3.310 -0.3257 -0.1707 -0.0065
 4527TIP3    H113587   3.595   2.535   3.368  1.5332 -0.2046 -1.8904
 4527TIP3    H213588   3.453   2.527   3.317 -0.8441  0.9160  3.8602
 4528TIP3   OH213589   3.277   2.375   0.601 -0.6448  0.4295  0.1485
 4528TIP3    H113590   3.218   2.426   0.546  1.7163  1.3515 -1.6802
 4528TIP3    H213591   3.267   2.285   0.569 -2.4858  0.1817  1.2587
 4529TIP3   OH213592   3.583   3.968   4.759  0.9136 -0.2865 -0.1638
 4529TIP3    H113593   3.657   3.958   4.700  1.7320 -0.5719  0.8909
 4529TIP3    H213594   3.521   3.901   4.730  1.4978 -0.7242 -0.4153
 4530TIP3   OH213595   5.714   0.699   2.281 -0.5407 -0.0905  0.2934
 4530TIP3    H113596   5.747   0.614   2.310 -1.1435 -1.5400 -2.8436
 4530TIP3    H213597   5.792   0.746   2.251 -0.4344 -0.3679  0.1314
 4531TIP3   OH213598   1.552   3.199   1.674 -0.5509  0.2168  0.2895
 4531TIP3    H113599   1.551   3.165   1.585 -1.6118  0.8610  0.0438
 4531TIP3    H213600   1.642   3.230   1.687 -0.0566 -0.9727 -0.1155
 4532TIP3   OH213601   4.012   0.866   0.214 -0.3274  0.4435  0.3432
 4532TIP3    H113602   4.067   0.849   0.290 -0.4578 -0.0540  0.3284
 4532TIP3    H213603   3.989   0.780   0.180  2.0488  0.6186 -1.9840
 4533TIP3   OH213604   1.046   0.645   4.801  0.6253 -0.2986  0.1307
 4533TIP3    H113605   1.081   0.694   4.727  0.2581 -0.6526 -0.2819
 4533TIP3    H213606   1.120   0.634   4.860  0.6607  0.9352  0.3315
 4534TIP3   OH213607   0.157   1.980   3.433 -0.8113 -0.5473  0.5922
 4534TIP3    H113608   0.076   2.031   3.422 -0.2368  0.4957  1.0678
 4534TIP3    H213609   0.224   2.046   3.453  0.1001 -1.4299  0.4820
 4535TIP3   OH213610   4.443   4.972   4.958 -0.0827  0.1416  0.9158
 4535TIP3    H113611   4.389   4.960   5.036  0.0703  0.7935  1.1365
 4535TIP3    H213612   4.533   4.973   4.991  0.0336 -0.4026  0.6213
 4536TIP3   OH213613   4.664   4.911   3.592 -0.2345  0.3479 -0.1915
 4536TIP3    H113614   4.638   4.828   3.633 -0.7123  1.6349  2.3149
 4536TIP3    H213615   4.736   4.943   3.647 -0.0447  1.5788 -1.1171
 4537TIP3   OH213616   3.535   1.702   3.590  0.3593  0.0448 -0.5500
 4537TIP3    H113617   3.548   1.685   3.683  0.5743  0.6088 -0.4722
 4537TIP3    H213618   3.473   1.775   3.587  1.0407  0.6316 -0.8166
 4538TIP3   OH213619   5.623   1.392   0.479 -0.2875  0.5302 -0.4717
 4538TIP3    H113620   5.683   1.454   0.438 -0.1965  0.3018 -0.6828
 4538TIP3    H213621   5.543   1.398   0.426  0.3736 -0.9812 -1.7361
 4539TIP3   OH213622   2.605   4.432   1.448 -0.7749  0.2171 -0.3355
 4539TIP3    H113623   2.617   4.338   1.463  0.8784  0.4739  0.1236
 4539TIP3    H213624   2.663   4.453   1.375  0.2430  1.1892  0.7025
 4540TIP3   OH213625   4.390   2.098   4.813 -0.1707 -0.0333  0.0151
 4540TIP3    H113626   4.320   2.147   4.857  1.4164  2.8376 -0.4345
 4540TIP3    H213627   4.358   2.086   4.724 -0.2907  0.8647 -0.0705
 4541TIP3   OH213628   1.267   5.587   2.511  0.2047  0.2112  0.7096
 4541TIP3    H113629   1.257   5.655   2.578 -0.2312  1.6551 -0.7541
 4541TIP3    H213630   1.185   5.588   2.463  0.4734 -0.8640  0.1906
 4542TIP3   OH213631   3.104   2.397   3.175 -0.4182 -0.3650 -0.1548
 4542TIP3    H113632   3.156   2.421   3.099 -1.3235  0.3052 -0.5803
 4542TIP3    H213633   3.064   2.313   3.152 -1.1331  0.1060 -0.6522
 4543TIP3   OH213634   3.175   3.506   0.314  0.1465  0.5841 -0.1810
 4543TIP3    H113635   3.092   3.463   0.336 -0.4481 -0.0888 -3.2485
 4543TIP3    H213636   3.224   3.507   0.396 -1.8285 -1.4024  1.1442
 4544TIP3   OH213637   0.024   4.591   0.231  0.3808 -0.2605  0.4826
 4544TIP3    H113638   0.080   4.514   0.242 -0.9231 -1.1740  1.0343
 4544TIP3    H213639  -0.064   4.555   0.217 -0.3984  1.1175  1.5667
 4545TIP3   OH213640   2.106   1.629   4.352 -0.2492 -0.1257  0.3299
 4545TIP3    H113641   2.057   1.706   4.323  1.1470  0.5688 -0.3301
 4545TIP3    H213642   2.092   1.626   4.446  0.5260  1.6327  0.5567
 4546TIP3   OH213643   5.851   4.997   0.588 -0.3070 -0.2830 -0.8107
 4546TIP3    H113644   5.762   5.012   0.620  0.4130 -1.6202  2.1758
 4546TIP3    H213645   5.869   5.072   0.532 -2.5822  1.1081  0.1702
 4547TIP3   OH213646   6.004   4.125   2.234 -0.3447  0.2932  0.1869
 4547TIP3    H113647   5.943   4.089   2.298 -0.1187 -0.1197  0.1766
 4547TIP3    H213648   5.981   4.081   2.152  0.6149 -0.6283  0.3935
 4548TIP3   OH213649   1.482   2.569   3.908  0.6616  0.0705  0.0517
 4548TIP3    H113650   1.452   2.479   3.894  0.0206  0.1929  0.6015
 4548TIP3    H213651   1.566   2.559   3.953  2.0946 -0.3002 -2.5340
 4549TIP3   OH213652   4.526   4.375   1.369 -0.4731 -0.1896 -0.1145
 4549TIP3    H113653   4.611   4.414   1.349  0.3420 -0.8696  1.7515
 4549TIP3    H213654   4.531   4.287   1.333 -0.4877 -0.1459 -0.2241
 4550TIP3   OH213655   0.760   5.633   5.126 -0.3400 -0.5162  0.5483
 4550TIP3    H113656   0.700   5.621   5.199 -0.2851  0.2925  0.7324
 4550TIP3    H213657   0.824   5.563   5.136 -0.0311 -0.1026  1.5846
 4551TIP3   OH213658   2.762   1.254   2.897  0.2051  0.6029  0.0293
 4551TIP3    H113659   2.687   1.311   2.875  0.1583  0.7427  0.5396
 4551TIP3    H213660   2.724   1.183   2.949  0.4830  0.8705  0.6021
 4552TIP3   OH213661   4.272   5.539   2.831  0.2415 -0.4964  0.2150
 4552TIP3    H113662   4.350   5.549   2.885  0.7978  1.3660 -0.8326
 4552TIP3    H213663   4.271   5.618   2.776 -3.0123  0.2031  1.0335
 4553TIP3   OH213664   1.628   5.513   0.350 -0.1887 -0.3845 -0.2152
 4553TIP3    H113665   1.546   5.562   0.353 -0.6092 -1.0267 -0.6504
 4553TIP3    H213666   1.695   5.574   0.380 -0.6283  0.5799 -1.1146
 4554TIP3   OH213667   3.303   5.644   1.848 -0.7111  0.8834 -0.2034
 4554TIP3    H113668   3.256   5.711   1.898 -2.1696  0.7098 -1.2719
 4554TIP3    H213669   3.392   5.679   1.839 -1.2404  2.3449 -0.0976
 4555TIP3   OH213670   3.938   1.879   1.499 -1.0271 -0.5957 -0.0929
 4555TIP3    H113671   3.947   1.845   1.410  1.0120  1.1816 -0.6447
 4555TIP3    H213672   3.999   1.828   1.552  0.2983  0.5581 -0.4520
 4556TIP3   OH213673   5.227   4.366   0.768 -0.5426  0.3070 -0.1392
 4556TIP3    H113674   5.319   4.392   0.773 -0.5492  0.3834 -0.3642
 4556TIP3    H213675   5.205   4.376   0.675 -0.6784 -0.0508 -0.1456
 4557TIP3   OH213676   1.789   3.131   1.077  0.3183  0.4348  0.2409
 4557TIP3    H113677   1.873   3.106   1.038  0.7852  1.9434  0.2225
 4557TIP3    H213678   1.728   3.135   1.004 -0.2839 -2.3906  0.4522
 4558TIP3   OH213679   2.846   2.182   1.908 -0.5806 -0.9830  0.1247
 4558TIP3    H113680   2.913   2.206   1.973  0.3100 -0.5106 -0.9423
 4558TIP3    H213681   2.801   2.264   1.889 -1.7144 -1.3566  1.0760
 4559TIP3   OH213682   1.821   3.868   0.963 -0.0410 -0.4177 -0.0252
 4559TIP3    H113683   1.780   3.949   0.995 -1.6705 -0.4265 -1.8850
 4559TIP3    H213684   1.758   3.832   0.902  1.9145 -1.5765 -1.4794
 4560TIP3   OH213685   1.040   1.400   0.084  0.6824  0.2436 -0.3192
 4560TIP3    H113686   0.954   1.441   0.076  0.8110  0.4768 -0.5133
 4560TIP3    H213687   1.045   1.372   0.175  0.2368 -0.1374 -0.4075
 4561TIP3   OH213688   0.847   1.436   3.572  0.2472  0.7156  0.1201
 4561TIP3    H113689   0.862   1.463   3.663  0.8338 -1.0899  0.6126
 4561TIP3    H213690   0.767   1.481   3.546 -0.2681  0.8181  1.7488
 4562TIP3   OH213691   2.894   5.926   5.069  0.0459  0.1666 -0.3487
 4562TIP3    H113692   2.934   6.012   5.086 -0.4369  0.1604  0.9791
 4562TIP3    H213693   2.809   5.947   5.030 -0.8194  0.4075  1.5426
 4563TIP3   OH213694   0.950   3.719   1.031  0.0476  0.0099 -0.3840
 4563TIP3    H113695   1.020   3.736   1.095 -1.5275 -0.6615  1.6504
 4563TIP3    H213696   0.944   3.799   0.980  0.2816  1.2638  1.4628
 4564TIP3   OH213697   0.570   2.709   3.802  0.4137 -0.5376  0.2617
 4564TIP3    H113698   0.498   2.676   3.855  0.3954  1.1385  1.3343
 4564TIP3    H213699   0.606   2.631   3.759 -1.0584 -1.6018  0.8830
 4565TIP3   OH213700   6.242   2.722   2.161 -0.1430  0.7499 -0.1945
 4565TIP3    H113701   6.196   2.764   2.233 -2.2680  3.7921 -3.0273
 4565TIP3    H213702   6.181   2.656   2.128 -0.5182  1.5015 -1.0445
 4566TIP3   OH213703   3.108   1.646   0.322 -0.3912 -0.0892  0.6160
 4566TIP3    H113704   3.172   1.695   0.374  0.5210 -0.1964 -0.3539
 4566TIP3    H213705   3.128   1.554   0.339 -1.3375 -0.1475  1.5234
 4567TIP3   OH213706   4.291   0.900   4.865  0.2370 -0.2416 -0.1701
 4567TIP3    H113707   4.372   0.952   4.862  0.9059 -1.2944 -1.5956
 4567TIP3    H213708   4.243   0.927   4.786 -0.6499  0.0829  0.4580
 4568TIP3   OH213709   4.749   2.885   2.047 -0.4552 -0.2165  0.1030
 4568TIP3    H113710   4.724   2.842   1.965 -0.7261  2.7513 -1.5078
 4568TIP3    H213711   4.669   2.886   2.099 -0.8771 -0.1670 -0.5372
 4569TIP3   OH213712   0.374   1.524   4.239  0.6308  0.2439 -0.6419
 4569TIP3    H113713   0.367   1.429   4.227 -0.4432  0.0951  0.7804
 4569TIP3    H213714   0.452   1.536   4.293  0.6534  0.1456 -0.6533
 4570TIP3   OH213715   6.112   2.012   3.317 -0.3850 -0.5026 -0.4849
 4570TIP3    H113716   6.198   2.020   3.276 -0.8035  0.1016 -1.2789
 4570TIP3    H213717   6.055   1.981   3.246 -1.2988  1.3629 -0.6039
 4571TIP3   OH213718   1.173   4.628   3.450  0.0381 -0.2759 -0.1340
 4571TIP3    H113719   1.118   4.615   3.372  0.8874 -2.4030 -0.4593
 4571TIP3    H213720   1.263   4.622   3.417  0.4302 -0.0371  0.8546
 4572TIP3   OH213721   2.912   0.326   4.922  0.2180  0.6532  0.2049
 4572TIP3    H113722   2.969   0.339   4.847 -0.3903  3.8667  0.1792
 4572TIP3    H213723   2.961   0.361   4.996 -0.6532  0.9464  0.6569
 4573TIP3   OH213724   1.897   1.290   3.824  0.0232  0.4455  0.2547
 4573TIP3    H113725   1.850   1.262   3.746 -1.6658  2.1866  0.5624
 4573TIP3    H213726   1.865   1.232   3.893 -0.5054  0.6070  0.1515
 4574TIP3   OH213727   2.918   5.541   0.352 -0.8251 -0.0109 -0.0123
 4574TIP3    H113728   2.956   5.609   0.296 -2.3672  0.4640 -0.5308
 4574TIP3    H213729   2.828   5.570   0.367 -1.3896 -1.7213  0.1140
 4575TIP3   OH213730   4.458   5.861   1.464 -0.6012 -0.2165  0.4122
 4575TIP3    H113731   4.552   5.845   1.476 -0.7307  0.4463  2.7093
 4575TIP3    H213732   4.439   5.936   1.521 -2.5795 -0.5026  0.1832
 4576TIP3   OH213733   2.775   1.267   0.996  0.0303  0.2961 -0.0844
 4576TIP3    H113734   2.842   1.301   0.937 -0.1015  0.1126 -0.3426
 4576TIP3    H213735   2.710   1.226   0.938 -0.7455  1.2381  0.0875
 4577TIP3   OH213736   3.746   1.476   5.135 -0.1824 -0.4748 -0.2221
 4577TIP3    H113737   3.694   1.419   5.192  0.1010 -0.2715  0.2427
 4577TIP3    H213738   3.827   1.428   5.120 -0.9575 -1.3471 -1.9497
 4578TIP3   OH213739   0.832   0.690   4.999  0.0081 -0.4764  0.4160
 4578TIP3    H113740   0.743   0.686   4.964  0.5147  0.2015 -1.0354
 4578TIP3    H213741   0.888   0.672   4.924  1.2027  2.6809  0.3864
 4579TIP3   OH213742   0.167   1.246   2.898 -0.5039  0.2699  0.0409
 4579TIP3    H113743   0.175   1.159   2.936 -1.1711 -0.3135 -1.0891
 4579TIP3    H213744   0.209   1.304   2.961  1.5419 -1.0692  0.0225
 4580TIP3   OH213745   2.348   3.602   4.877 -0.3643 -0.1938 -0.0575
 4580TIP3    H113746   2.275   3.542   4.896 -1.4327  1.3371  0.9396
 4580TIP3    H213747   2.318   3.651   4.800  0.5791 -1.0102 -0.9764
 4581TIP3   OH213748   3.187   4.543   0.874  0.6572  0.5842  0.1963
 4581TIP3    H113749   3.116   4.551   0.810 -1.1847 -2.6583  1.5802
 4581TIP3    H213750   3.233   4.463   0.849  0.2023 -0.4897  2.5231
 4582TIP3   OH213751   4.502   1.411   4.774  0.5966  0.2343  0.1285
 4582TIP3    H113752   4.509   1.475   4.845 -0.5834  0.5990 -0.0589
 4582TIP3    H213753   4.456   1.337   4.811  2.8251 -1.0060  0.6266
 4583TIP3   OH213754   2.314   2.753   3.483 -0.3302 -0.2718 -0.2234
 4583TIP3    H113755   2.397   2.713   3.455  0.6619  1.6175 -0.1575
 4583TIP3    H213756   2.340   2.817   3.549 -1.9260  0.0056  0.1670
 4584TIP3   OH213757   4.008   4.159   3.346  0.2788 -0.2534  0.2185
 4584TIP3    H113758   3.969   4.073   3.359 -1.2057  0.3958  0.2782
 4584TIP3    H213759   4.067   4.170   3.420  0.4376 -1.1855  0.2447
 4585TIP3   OH213760  -0.012   0.289   3.802  0.4233 -0.2731 -0.7011
 4585TIP3    H113761   0.073   0.255   3.776  0.3970 -0.2774 -0.7823
 4585TIP3    H213762   0.003   0.383   3.813  0.3163 -0.1861 -1.2386
 4586TIP3   OH213763   6.019   5.279   5.074 -0.7666  0.1570  0.2053
 4586TIP3    H113764   5.941   5.268   5.128  1.0579 -0.7305  2.8838
 4586TIP3    H213765   6.031   5.374   5.066 -0.9708  0.3129  1.5999
 4587TIP3   OH213766   4.661   4.624   4.178 -0.0483 -0.4848 -0.0289
 4587TIP3    H113767   4.741   4.602   4.225  1.0666  0.0612 -1.6118
 4587TIP3    H213768   4.663   4.719   4.169  0.2886 -0.6490 -2.0237
 4588TIP3   OH213769   2.192   5.017   5.094  0.0779  0.0394 -0.8520
 4588TIP3    H113770   2.189   5.107   5.128 -0.7115 -0.3890  0.2746
 4588TIP3    H213771   2.281   5.007   5.062  0.7872  0.6151  0.7978
 4589TIP3   OH213772   4.571   0.961   4.438 -0.1615  0.1475  0.4354
 4589TIP3    H113773   4.628   1.011   4.380 -0.9980 -1.2129 -1.7313
 4589TIP3    H213774   4.543   1.023   4.505  0.2617  2.0673 -1.0734
 4590TIP3   OH213775   0.192   2.839   3.704  0.3116 -0.0483  0.0951
 4590TIP3    H113776   0.245   2.844   3.624  0.2766  1.7726  0.1528
 4590TIP3    H213777   0.225   2.761   3.749  2.0379  0.2643 -0.5302
 4591TIP3   OH213778   0.482   5.231   3.941  0.0559 -0.3397 -0.7813
 4591TIP3    H113779   0.499   5.324   3.926 -0.6881 -0.0616  0.0162
 4591TIP3    H213780   0.526   5.187   3.868  0.0915  0.6564 -1.3871
 4592TIP3   OH213781   0.471   2.266   1.958  0.0960 -0.0514  0.7820
 4592TIP3    H113782   0.535   2.301   1.896 -0.5878 -1.8228 -1.0598
 4592TIP3    H213783   0.391   2.314   1.938 -0.4368 -1.4295 -0.6549
 4593TIP3   OH213784   4.094   5.920   1.576 -0.4143 -0.2487 -0.3566
 4593TIP3    H113785   4.121   5.961   1.494  0.7693  1.2198  0.7014
 4593TIP3    H213786   4.142   5.837   1.579 -0.6066 -0.3946 -1.2157
 4594TIP3   OH213787   0.797   5.397   0.774  0.1796  0.0091  0.3938
 4594TIP3    H113788   0.841   5.476   0.743 -0.8100  0.4407  0.0543
 4594TIP3    H213789   0.800   5.337   0.700  0.5751 -0.1239  0.5163
 4595TIP3   OH213790   0.072   2.249   5.055 -0.0806  0.5277  0.6372
 4595TIP3    H113791   0.117   2.179   5.102 -0.2379 -0.8063 -1.0869
 4595TIP3    H213792   0.062   2.216   4.965 -0.7198  2.5185 -0.0942
 4596TIP3   OH213793   3.654   3.109   1.320 -0.1245 -0.0641  0.3529
 4596TIP3    H113794   3.695   3.115   1.233 -0.5503  1.3110  0.2283
 4596TIP3    H213795   3.723   3.075   1.377  0.9461  1.4230 -0.0231
 4597TIP3   OH213796   2.874   1.270   3.189 -0.0151  0.4564  0.1226
 4597TIP3    H113797   2.927   1.192   3.178  0.8422  1.1339 -0.7406
 4597TIP3    H213798   2.795   1.253   3.139  0.5396  0.4641 -0.7838
 4598TIP3   OH213799   5.211   1.839   2.056  0.4182 -0.4782  0.1652
 4598TIP3    H113800   5.133   1.856   2.002 -0.3241 -2.2958  0.5863
 4598TIP3    H213801   5.209   1.745   2.072  1.9618 -0.3492  1.3611
 4599TIP3   OH213802   2.826   3.442   1.038 -0.7996  0.1206 -0.0736
 4599TIP3    H113803   2.797   3.522   1.081  1.6523  0.7851  0.5253
 4599TIP3    H213804   2.811   3.373   1.102 -1.0982  0.4211  0.1827
 4600TIP3   OH213805   2.684   1.750   0.236  0.4099  0.3635  0.3147
 4600TIP3    H113806   2.745   1.741   0.162 -1.5937  2.1107 -1.7366
 4600TIP3    H213807   2.697   1.671   0.288  1.2202 -1.5190 -2.5013
 4601TIP3   OH213808   2.466   5.647   2.819  0.1143 -0.4408  0.3297
 4601TIP3    H113809   2.499   5.648   2.909  3.3370  0.6598 -0.7207
 4601TIP3    H213810   2.399   5.715   2.817 -0.0403 -0.5156  1.9085
 4602TIP3   OH213811   0.968   2.009   0.213 -0.3261  0.0050  0.1801
 4602TIP3    H113812   1.033   2.058   0.164  0.3009  1.3040  2.1698
 4602TIP3    H213813   0.945   1.935   0.156  1.6910  0.3895 -1.2408
 4603TIP3   OH213814   3.134   5.357   0.691  0.3823  0.1903  0.6077
 4603TIP3    H113815   3.119   5.322   0.603  1.5221 -0.5653  0.6981
 4603TIP3    H213816   3.148   5.280   0.746  0.0920  0.6752  1.3821
 4604TIP3   OH213817   6.327   5.277   1.423  0.3579  0.0981  0.1083
 4604TIP3    H113818   6.300   5.360   1.463  1.3655 -0.5405  2.2374
 4604TIP3    H213819   6.245   5.236   1.395 -0.2769  1.1263  0.4018
 4605TIP3   OH213820  -0.014   4.926   3.317  0.1589  0.0080 -0.6890
 4605TIP3    H113821   0.019   5.016   3.311  1.2712 -0.1755  1.6553
 4605TIP3    H213822   0.064   4.873   3.333 -0.7585 -0.9696  0.8273
 4606TIP3   OH213823   0.359   2.525   3.209 -0.2795  0.8254  0.6495
 4606TIP3    H113824   0.274   2.516   3.166  0.1146 -0.0523  0.0188
 4606TIP3    H213825   0.392   2.610   3.180 -1.0746  1.3205  1.1603
 4607TIP3   OH213826   3.056   1.397   4.457 -0.5740 -0.4813 -0.1274
 4607TIP3    H113827   3.134   1.393   4.512 -0.6910 -1.3217 -0.0136
 4607TIP3    H213828   3.009   1.316   4.476 -0.4798 -0.9227 -1.6731
 4608TIP3   OH213829   3.997   4.800   5.158 -0.0140 -0.5934 -0.5246
 4608TIP3    H113830   3.943   4.831   5.086  1.5596 -1.2319 -2.0434
 4608TIP3    H213831   3.945   4.731   5.199 -1.2535  0.3126 -0.5056
 4609TIP3   OH213832   2.006   3.682   0.927 -0.0573 -0.5327  0.2057
 4609TIP3    H113833   1.935   3.737   0.959  0.7425  0.2500  0.6935
 4609TIP3    H213834   1.972   3.643   0.846 -1.0996 -0.3388  0.5380
 4610TIP3   OH213835   3.252   3.379   2.701 -0.0050 -0.0994 -0.1106
 4610TIP3    H113836   3.245   3.367   2.606 -0.9098 -1.3017  0.0733
 4610TIP3    H213837   3.225   3.295   2.738 -1.0437  0.7673  1.2444
 4611TIP3   OH213838   0.634   1.328   5.024 -0.3637  0.6781  0.7671
 4611TIP3    H113839   0.706   1.291   4.973 -0.8859  0.4114  0.1957
 4611TIP3    H213840   0.659   1.418   5.040 -0.7741  1.1765 -1.1424
 4612TIP3   OH213841   1.266   3.700   2.974  0.3457  0.6714  0.0536
 4612TIP3    H113842   1.356   3.734   2.975  0.6459 -0.1026  0.9543
 4612TIP3    H213843   1.271   3.618   3.023 -0.8290  0.5359 -0.0262
 4613TIP3   OH213844   6.223   2.551   1.128 -0.2629  0.4811  0.0260
 4613TIP3    H113845   6.158   2.492   1.166  0.8665 -0.9126 -0.1470
 4613TIP3    H213846   6.264   2.499   1.058 -0.1764  1.9369 -1.0510
 4614TIP3   OH213847   3.087   2.182   2.873 -0.7078 -0.5862 -0.4772
 4614TIP3    H113848   3.033   2.183   2.795 -1.8767  0.8421  0.3043
 4614TIP3    H213849   3.031   2.217   2.942  1.0781  0.6292  0.4533
 4615TIP3   OH213850   5.356   1.031   1.269  0.2318 -0.1339  0.2029
 4615TIP3    H113851   5.415   1.095   1.227  1.1545 -2.2611 -1.9892
 4615TIP3    H213852   5.394   1.017   1.356  0.7045  1.3722  0.2694
 4616TIP3   OH213853   3.884   4.948   1.360 -0.3108 -0.2259  0.3450
 4616TIP3    H113854   3.879   4.904   1.275 -0.6188  0.1873  0.1470
 4616TIP3    H213855   3.851   5.036   1.344  2.4219  0.8676  0.2162
 4617TIP3   OH213856   5.789   5.341   0.916  0.7592  0.0068 -0.1211
 4617TIP3    H113857   5.843   5.270   0.951  0.1407 -0.6826 -0.5213
 4617TIP3    H213858   5.841   5.420   0.930 -0.3762  0.2538  4.7636
 4618TIP3   OH213859   1.288   1.697   2.924  0.4070 -0.8797 -0.6849
 4618TIP3    H113860   1.323   1.653   3.002 -0.0704  0.3391  0.2626
 4618TIP3    H213861   1.221   1.757   2.959 -0.9129 -1.4049 -2.1922
 4619TIP3   OH213862   2.734   2.316   4.539 -0.1558  0.3267 -0.0585
 4619TIP3    H113863   2.697   2.366   4.611  0.4948  0.6225  0.0772
 4619TIP3    H213864   2.739   2.226   4.572  0.3758  0.5057  0.3654
 4620TIP3   OH213865   2.533   3.773   3.744 -0.5155 -0.3434 -0.5807
 4620TIP3    H113866   2.515   3.838   3.676  1.1250 -0.6813 -1.3785
 4620TIP3    H213867   2.504   3.690   3.707  0.7068 -0.5818 -1.0443
 4621TIP3   OH213868   5.897   2.157   0.405  0.5961 -0.5389  0.1904
 4621TIP3    H113869   5.942   2.241   0.393 -0.2152 -0.1056  0.1400
 4621TIP3    H213870   5.953   2.109   0.466  0.2286  0.6718  1.5273
 4622TIP3   OH213871   0.938   5.889   4.852  0.3727  0.8631 -0.2377
 4622TIP3    H113872   0.849   5.865   4.826  0.3208 -0.5043  1.0544
 4622TIP3    H213873   0.930   5.913   4.945  1.6021 -1.1157  0.4475
 4623TIP3   OH213874   5.534   0.461   4.379  0.5886 -0.4431 -0.4483
 4623TIP3    H113875   5.462   0.401   4.357 -0.6957  0.9479 -0.2157
 4623TIP3    H213876   5.572   0.483   4.294  0.7851 -1.2237 -0.5720
 4624TIP3   OH213877   5.136   4.746   2.220  0.1551 -0.1533  0.4997
 4624TIP3    H113878   5.062   4.804   2.236  1.2129  0.8311  2.1076
 4624TIP3    H213879   5.183   4.786   2.147  0.1440  0.2716  0.7244
 4625TIP3   OH213880   3.834   2.626   2.050 -0.1676  0.4073  0.3338
 4625TIP3    H113881   3.852   2.554   2.111 -0.6861  1.0123  1.2184
 4625TIP3    H213882   3.743   2.613   2.024 -0.4018  1.0031  0.8504
 4626TIP3   OH213883   6.300   2.425   1.426 -0.3485 -0.0159 -0.1959
 4626TIP3    H113884   6.217   2.404   1.383 -0.7338 -1.5818  1.2152
 4626TIP3    H213885   6.280   2.501   1.480 -0.8537 -0.3212  0.0535
 4627TIP3   OH213886   3.078   2.086   3.767 -0.2414 -0.0172 -0.3605
 4627TIP3    H113887   3.140   2.014   3.761 -0.4829 -0.2691  0.1383
 4627TIP3    H213888   3.128   2.157   3.808 -0.5444 -0.5319  0.9370
 4628TIP3   OH213889   2.526   2.429   2.332  0.3684  0.8068 -0.5840
 4628TIP3    H113890   2.494   2.516   2.353 -2.1108 -0.3377  0.7547
 4628TIP3    H213891   2.520   2.380   2.414  1.0620 -0.8128 -1.4449
 4629TIP3   OH213892   0.530   5.396   0.886  0.2935 -0.1279  0.3430
 4629TIP3    H113893   0.502   5.470   0.941 -0.2580  0.3786 -0.6034
 4629TIP3    H213894   0.626   5.404   0.884  0.4118 -0.6677  1.9197
 4630TIP3   OH213895   5.068   1.072   0.791 -0.6165  0.5207  0.0921
 4630TIP3    H113896   5.038   1.049   0.879 -0.4815  2.2683  0.6480
 4630TIP3    H213897   5.074   1.168   0.793 -0.0583  0.5517 -1.6513
 4631TIP3   OH213898   6.317   0.430   3.560 -0.0426  0.4995 -0.4075
 4631TIP3    H113899   6.336   0.340   3.589 -3.1838 -0.6246 -1.4382
 4631TIP3    H213900   6.337   0.429   3.466 -2.0362  0.1689 -0.8727
 4632TIP3   OH213901   2.102   4.079   2.813 -0.4957 -0.1316  0.1143
 4632TIP3    H113902   2.184   4.041   2.781 -1.8353 -1.9896 -1.3809
 4632TIP3    H213903   2.076   4.142   2.745 -0.1246  0.7643  0.7878
 4633TIP3   OH213904   2.643   1.115   4.349 -0.1787 -0.0889  0.4854
 4633TIP3    H113905   2.728   1.087   4.315  0.3990  1.1324  0.8540
 4633TIP3    H213906   2.587   1.121   4.272  0.1278 -0.7003  0.2106
 4634TIP3   OH213907   4.438   0.950   3.980  0.1881  0.1416  0.3578
 4634TIP3    H113908   4.400   0.902   4.053 -1.1661 -0.8318 -0.9107
 4634TIP3    H213909   4.479   1.027   4.019 -0.7916 -0.1759  2.0828
 4635TIP3   OH213910   0.351   0.269   2.667 -0.3931 -0.2671 -0.3799
 4635TIP3    H113911   0.438   0.238   2.642  0.9989  3.2091 -0.3794
 4635TIP3    H213912   0.365   0.317   2.748 -2.0923  1.2136 -0.8916
 4636TIP3   OH213913   5.650   5.803   3.871 -0.0507 -0.4429  0.0742
 4636TIP3    H113914   5.617   5.859   3.801 -1.8495 -1.6661 -0.1087
 4636TIP3    H213915   5.657   5.716   3.832 -0.5499 -1.0371  1.2473
 4637TIP3   OH213916   4.977   1.517   2.849 -0.0058  0.4438 -0.2536
 4637TIP3    H113917   5.051   1.539   2.906  0.6932 -1.8153 -0.1717
 4637TIP3    H213918   4.997   1.428   2.818 -1.1183  1.0033 -2.8086
 4638TIP3   OH213919   0.714   2.622   4.649 -0.2365 -0.1446 -0.0984
 4638TIP3    H113920   0.695   2.586   4.736  0.4655 -0.1726  0.0484
 4638TIP3    H213921   0.772   2.696   4.665  0.2899 -0.4410 -0.5668
 4639TIP3   OH213922   5.653   1.086   2.077  0.1162  1.0913  0.6537
 4639TIP3    H113923   5.721   1.043   2.129  0.7747  1.8070  0.4037
 4639TIP3    H213924   5.673   1.179   2.083 -0.8928  1.3217  0.6344
 4640TIP3   OH213925   2.803   0.464   0.110 -0.1916  0.5550 -0.5654
 4640TIP3    H113926   2.871   0.468   0.044 -0.4164 -1.1102 -0.9322
 4640TIP3    H213927   2.721   0.461   0.060 -0.3608 -0.7213 -0.2585
 4641TIP3   OH213928   6.133   4.943   0.651  0.4018 -0.4165 -0.8858
 4641TIP3    H113929   6.045   4.969   0.622  0.1809 -1.0839 -0.8201
 4641TIP3    H213930   6.122   4.856   0.688  0.7341  0.2803  0.9647
 4642TIP3   OH213931   0.724   1.583   0.078  0.0282 -0.0113 -0.3312
 4642TIP3    H113932   0.633   1.559   0.092 -0.0147  0.0209 -0.5523
 4642TIP3    H213933   0.743   1.553  -0.011  0.9943 -2.4044  0.5944
 4643TIP3   OH213934   6.311   1.025   4.399  0.0714  0.4381 -0.2940
 4643TIP3    H113935   6.339   1.091   4.335  1.6366  0.8537  0.7748
 4643TIP3    H213936   6.302   1.073   4.481 -1.3485 -0.2045 -0.0439
 4644TIP3   OH213937   4.575   5.663   0.715 -0.0017  0.4152 -0.1989
 4644TIP3    H113938   4.559   5.660   0.621  0.3982 -2.3131 -0.2666
 4644TIP3    H213939   4.525   5.589   0.751 -1.4137  2.3037  1.9933
 4645TIP3   OH213940   1.984   4.184   0.486  0.0302 -0.7351 -0.3275
 4645TIP3    H113941   2.049   4.182   0.417  0.3998 -0.7263  0.0178
 4645TIP3    H213942   1.933   4.263   0.470 -0.2835 -1.0546 -0.9489
 4646TIP3   OH213943   5.788   4.904   1.014 -0.2295 -0.0431 -0.1344
 4646TIP3    H113944   5.716   4.893   0.952 -0.9963 -0.1841  0.7571
 4646TIP3    H213945   5.762   4.852   1.090  0.6205  0.2506  0.3676
 4647TIP3   OH213946   2.396   0.961   4.450 -0.7766 -0.5997  0.3599
 4647TIP3    H113947   2.483   0.996   4.432 -0.9647  0.3010  1.1379
 4647TIP3    H213948   2.337   1.034   4.433 -1.2866 -0.8842  0.8875
 4648TIP3   OH213949   3.935   0.421   3.188  0.5314 -0.1610  0.4951
 4648TIP3    H113950   3.997   0.365   3.142 -1.1201 -1.3033 -0.4378
 4648TIP3    H213951   3.941   0.506   3.144  1.8902 -0.0474  0.8635
 4649TIP3   OH213952   1.508   1.084   1.412 -0.0956 -0.0478 -0.5387
 4649TIP3    H113953   1.497   0.993   1.386  1.0885 -1.1571  2.4106
 4649TIP3    H213954   1.600   1.104   1.391  0.1250 -0.1182  0.3205
 4650TIP3   OH213955   5.526   2.942   2.050 -0.1219 -0.1523  0.1743
 4650TIP3    H113956   5.616   2.916   2.067  0.4538  1.4606 -0.2489
 4650TIP3    H213957   5.532   3.029   2.013 -1.8609 -0.0633 -0.0172
 4651TIP3   OH213958   1.424   5.311   2.558 -0.5463 -0.0086 -0.7089
 4651TIP3    H113959   1.441   5.349   2.645  1.8583 -1.7373 -0.3082
 4651TIP3    H213960   1.377   5.379   2.511 -0.6801  1.5355  1.4923
 4652TIP3   OH213961   5.443   1.362   2.690 -0.7058  0.2689  0.5491
 4652TIP3    H113962   5.400   1.299   2.750  1.7215 -1.3481  0.7271
 4652TIP3    H213963   5.371   1.396   2.636 -2.4996 -0.7070  2.1779
 4653TIP3   OH213964   3.451   3.399   4.719  0.2103  0.3608  0.1541
 4653TIP3    H113965   3.360   3.419   4.698 -0.3806 -0.3650  1.8965
 4653TIP3    H213966   3.488   3.367   4.636 -1.4075 -0.3605 -0.3265
 4654TIP3   OH213967   5.601   5.761  -0.025 -0.2293 -0.1370 -0.4174
 4654TIP3    H113968   5.581   5.674   0.011  0.6925 -0.5675 -0.9092
 4654TIP3    H213969   5.550   5.821   0.029 -0.8294 -0.9753 -0.0176
 4655TIP3   OH213970   0.961   2.457   0.328 -0.0315  0.0554  0.3238
 4655TIP3    H113971   0.880   2.509   0.328  0.7360  1.2847  0.1641
 4655TIP3    H213972   1.027   2.515   0.365  0.7555 -1.0040  0.6374
 4656TIP3   OH213973   1.786   3.481   4.899  0.0839 -0.3154  0.0488
 4656TIP3    H113974   1.792   3.400   4.848  1.1830  0.7481 -1.6388
 4656TIP3    H213975   1.709   3.526   4.863 -0.9847 -0.8952  1.5035
 4657TIP3   OH213976   6.092   5.209   4.031  1.1305 -0.6187  0.0257
 4657TIP3    H113977   6.059   5.177   4.115 -0.0669 -1.6769 -0.8119
 4657TIP3    H213978   6.085   5.305   4.038 -2.7953 -0.7184 -0.2582
 4658TIP3   OH213979   6.205   2.921   1.368  0.5607 -0.0259 -0.0806
 4658TIP3    H113980   6.131   2.934   1.309 -0.2813 -0.1960  0.9085
 4658TIP3    H213981   6.198   2.991   1.433 -0.9674 -2.1141  2.2075
 4659TIP3   OH213982   5.479   3.376   4.696  0.6931  0.0558 -0.1774
 4659TIP3    H113983   5.556   3.329   4.729  0.8492  1.1687  1.1285
 4659TIP3    H213984   5.408   3.311   4.699  1.2473 -0.5541  0.0259
 4660TIP3   OH213985   5.362   4.958   1.341  0.5233  0.8454 -0.5117
 4660TIP3    H113986   5.306   4.998   1.274 -0.1874  0.5510 -0.1099
 4660TIP3    H213987   5.301   4.934   1.411  0.6543 -2.1597 -1.2746
 4661TIP3   OH213988   0.150   5.521   3.053  0.4362 -0.0103  0.0557
 4661TIP3    H113989   0.160   5.613   3.079  0.7997 -0.2504  0.7868
 4661TIP3    H213990   0.239   5.490   3.037  0.5745 -0.9212  2.2786
 4662TIP3   OH213991   5.775   3.748   3.012  0.6511  0.1535 -0.0873
 4662TIP3    H113992   5.815   3.784   2.933  0.4904 -1.2025 -0.8170
 4662TIP3    H213993   5.839   3.686   3.045 -0.3225 -1.1899 -0.6288
 4663TIP3   OH213994   5.668   0.725   4.615  0.3286  0.2815 -0.4541
 4663TIP3    H113995   5.717   0.648   4.645 -0.8370 -0.3319 -0.0817
 4663TIP3    H213996   5.636   0.700   4.529 -0.4523  0.1481 -0.1352
 4664TIP3   OH213997   0.406   2.622   1.475 -0.9367  0.4461  0.8268
 4664TIP3    H113998   0.472   2.555   1.457 -0.8070  0.2629  1.9422
 4664TIP3    H213999   0.331   2.597   1.420 -0.4236  0.1347  0.2502
 4665TIP3   OH214000   1.282   2.295   1.824 -0.6688  0.2413 -0.3795
 4665TIP3    H114001   1.266   2.221   1.766  0.2264 -0.0110 -0.3180
 4665TIP3    H214002   1.208   2.354   1.807 -0.8820 -0.2171 -1.1406
 4666TIP3   OH214003   6.087   3.901   1.444  0.2663  0.0500  0.4830
 4666TIP3    H114004   6.110   3.842   1.515  1.9078 -0.5182 -0.4646
 4666TIP3    H214005   6.171   3.928   1.406 -0.5098  1.4167 -0.3833
 4667TIP3   OH214006   3.325   2.918   0.196 -0.1611  0.3859  0.5956
 4667TIP3    H114007   3.323   2.973   0.118 -0.7098  0.5728  0.7393
 4667TIP3    H214008   3.418   2.914   0.220  0.0826 -0.1239 -0.3757
 4668TIP3   OH214009   2.863   1.745   1.513 -0.1885  0.0842  0.3632
 4668TIP3    H114010   2.938   1.703   1.554 -0.3423 -1.6133 -0.9512
 4668TIP3    H214011   2.787   1.714   1.563 -0.2942 -1.2310 -0.5571
 4669TIP3   OH214012   2.156   1.098   1.876 -0.6350 -0.4276  0.4055
 4669TIP3    H114013   2.117   1.186   1.879 -0.6196 -0.4330  0.8616
 4669TIP3    H214014   2.242   1.111   1.836 -0.4567 -0.1645  0.8641
 4670TIP3   OH214015   2.359   4.623   4.373 -0.3931  0.8335 -0.3834
 4670TIP3    H114016   2.320   4.661   4.294 -2.1209 -0.2496 -0.1069
 4670TIP3    H214017   2.452   4.646   4.367 -0.3378  0.3042 -3.0253
 4671TIP3   OH214018   4.617   4.646   5.172 -0.0634  0.2284  0.7911
 4671TIP3    H114019   4.642   4.687   5.089 -2.7117 -2.1544 -1.3788
 4671TIP3    H214020   4.686   4.582   5.189 -0.5047 -0.7171 -0.7818
 4672TIP3   OH214021   2.034   4.988   0.682  0.1048 -0.4368 -0.1620
 4672TIP3    H114022   1.958   4.957   0.633 -0.4305 -1.6621  1.3662
 4672TIP3    H214023   2.025   4.949   0.768  1.0759  1.5359  0.9066
 4673TIP3   OH214024   1.294   2.682   4.079 -0.2438  0.3897  0.2903
 4673TIP3    H114025   1.355   2.642   4.017  1.2395 -0.5318  2.2360
 4673TIP3    H214026   1.319   2.774   4.081 -1.3257  0.7739 -1.5548
 4674TIP3   OH214027   4.566   3.148   2.607  0.2916 -0.1469 -0.1182
 4674TIP3    H114028   4.521   3.194   2.677  0.5471 -0.6535  0.3892
 4674TIP3    H214029   4.608   3.074   2.651 -0.5979 -1.2013 -1.0053
 4675TIP3   OH214030   1.140   2.918   4.293 -0.5423 -0.0199  0.0602
 4675TIP3    H114031   1.088   2.994   4.319 -1.4140 -0.7507  0.5017
 4675TIP3    H214032   1.204   2.953   4.232  0.9609  1.6126  2.3988
 4676TIP3   OH214033   4.338   0.681   1.382  0.0736  0.1008 -0.6594
 4676TIP3    H114034   4.246   0.655   1.387  0.1457 -0.4363 -1.6713
 4676TIP3    H214035   4.381   0.607   1.339  1.6475 -1.2061  2.7763
 4677TIP3   OH214036   5.708   3.977   3.800  0.5632  0.4643 -0.1634
 4677TIP3    H114037   5.727   3.922   3.876 -0.6360 -1.9780 -1.4911
 4677TIP3    H214038   5.612   3.977   3.794  0.6238  0.6824 -1.5656
 4678TIP3   OH214039   6.282   5.654   3.951 -0.2605  0.1208 -0.8510
 4678TIP3    H114040   6.257   5.581   3.894  0.8831  0.7469 -2.1926
 4678TIP3    H214041   6.356   5.696   3.907  1.0456  0.3092  1.3670
 4679TIP3   OH214042   2.214   2.517   1.739  0.1747 -0.3049 -0.2497
 4679TIP3    H114043   2.250   2.489   1.655  0.7802  1.0371 -0.4561
 4679TIP3    H214044   2.290   2.537   1.793 -0.1622  2.1413 -0.5481
 4680TIP3   OH214045   6.213   2.682   1.545  0.1249 -0.1523 -0.3985
 4680TIP3    H114046   6.234   2.724   1.462  0.5869  0.4668  0.0247
 4680TIP3    H214047   6.117   2.673   1.544  0.0151  0.8841 -0.5118
 4681TIP3   OH214048   2.488   5.916   3.970 -0.6565 -0.1616  0.0056
 4681TIP3    H114049   2.520   5.908   3.881 -0.0466 -0.0562  0.2119
 4681TIP3    H214050   2.488   5.826   4.004 -0.4911 -0.1519  0.0329
 4682TIP3   OH214051   0.665   5.214   3.193  0.0732 -0.3412  0.5194
 4682TIP3    H114052   0.747   5.180   3.158 -0.1233 -1.6431  1.2262
 4682TIP3    H214053   0.598   5.181   3.133  0.0141  0.1190  0.3351
 4683TIP3   OH214054   5.604   2.579   1.621 -0.1791  0.6782 -0.3777
 4683TIP3    H114055   5.535   2.607   1.560 -1.0190  0.7482  0.5855
 4683TIP3    H214056   5.639   2.660   1.657 -0.8934  0.5958  0.5355
 4684TIP3   OH214057   5.167   2.854   1.107 -0.1022  0.1346  0.1198
 4684TIP3    H114058   5.252   2.824   1.139 -0.6377 -0.4121  1.0976
 4684TIP3    H214059   5.127   2.775   1.070 -1.2278 -0.2493  2.0429
 4685TIP3   OH214060   2.699   5.479   4.896 -0.1849  0.2428 -0.4397
 4685TIP3    H114061   2.642   5.457   4.822 -0.7774  1.2303 -0.2998
 4685TIP3    H214062   2.742   5.397   4.918 -1.2451 -0.4409 -0.8241
 4686TIP3   OH214063   3.483   0.219   2.314 -0.2026  0.2974  0.0012
 4686TIP3    H114064   3.461   0.220   2.221 -0.9029  0.3533  0.1635
 4686TIP3    H214065   3.405   0.184   2.357  0.3368 -0.2789  0.5157
 4687TIP3   OH214066   3.636   0.908   4.495 -0.0703  0.6445  0.1216
 4687TIP3    H114067   3.723   0.933   4.463  0.3515 -0.1804  0.5878
 4687TIP3    H214068   3.597   0.861   4.421  0.2579  0.1961  0.2226
 4688TIP3   OH214069   0.088   0.220   3.049 -0.3907 -0.5393  0.5272
 4688TIP3    H114070   0.028   0.255   2.984 -0.8523 -1.5132  0.3989
 4688TIP3    H214071   0.175   0.246   3.019 -0.6915  0.1368  0.2354
 4689TIP3   OH214072   2.153   1.483   2.402 -0.1269 -0.2105 -0.3147
 4689TIP3    H114073   2.151   1.577   2.383  0.8514 -0.3251 -1.0762
 4689TIP3    H214074   2.106   1.443   2.329 -1.3607 -0.2617  0.4851
 4690TIP3   OH214075   3.422   2.648   2.802 -1.0147  0.0013  0.1094
 4690TIP3    H114076   3.392   2.712   2.867 -1.3164 -0.5603  0.5386
 4690TIP3    H214077   3.473   2.699   2.739 -1.4923  0.7058  0.2853
 4691TIP3   OH214078   5.617   2.305   1.545 -0.4305  0.0138  0.0420
 4691TIP3    H114079   5.669   2.247   1.600  0.8077  0.3783 -0.7067
 4691TIP3    H214080   5.638   2.393   1.577 -1.2510  0.1261  0.2882
 4692TIP3   OH214081   4.250   1.770   4.812  0.0100 -0.3219  0.2664
 4692TIP3    H114082   4.323   1.780   4.872  0.9903 -1.1059 -0.7558
 4692TIP3    H214083   4.211   1.857   4.808 -0.3791 -0.3440  2.3564
 4693TIP3   OH214084   5.062   0.078   2.990 -0.6349  0.1047  0.0623
 4693TIP3    H114085   5.128   0.041   3.048 -0.3866  1.1098  0.4378
 4693TIP3    H214086   5.015   0.002   2.955 -0.5212 -0.5323  1.2509
 4694TIP3   OH214087   5.341   1.385   4.365  0.3333  0.0391  0.0335
 4694TIP3    H114088   5.265   1.392   4.423  1.1818  0.2971  1.1480
 4694TIP3    H214089   5.309   1.334   4.290 -0.8118 -0.2470  0.6916
 4695TIP3   OH214090   0.532   0.719   3.905 -0.2179  0.6850  0.0993
 4695TIP3    H114091   0.565   0.805   3.881 -0.1225  0.9249  1.0653
 4695TIP3    H214092   0.603   0.679   3.954  0.4978 -0.7116 -1.9359
 4696TIP3   OH214093   2.233   4.390   3.939 -0.4999 -0.0822 -0.1305
 4696TIP3    H114094   2.261   4.470   3.895  0.4513 -0.9177 -1.1030
 4696TIP3    H214095   2.222   4.327   3.868  0.0174 -1.1605  0.7214
 4697TIP3   OH214096   2.258   3.771   4.702 -0.3086 -0.0213 -0.1216
 4697TIP3    H114097   2.201   3.761   4.626 -1.2142 -0.4686  0.5972
 4697TIP3    H214098   2.225   3.848   4.748  1.0537  1.0359 -0.8521
 4698TIP3   OH214099   3.689   3.337   3.924  0.6072  0.4245  0.1385
 4698TIP3    H114100   3.606   3.346   3.877  0.4643  1.1338  0.5121
 4698TIP3    H214101   3.753   3.314   3.856 -0.2334 -2.1876  0.1207
 4699TIP3   OH214102   0.177   1.603   1.506 -0.1348  0.5475 -0.1633
 4699TIP3    H114103   0.160   1.616   1.600  2.4450  2.9839  0.0979
 4699TIP3    H214104   0.147   1.684   1.465  0.0031  0.0463 -1.2933
 4700TIP3   OH214105   1.135   0.601   2.147 -0.0315 -0.1206 -0.0058
 4700TIP3    H114106   1.077   0.578   2.074 -0.3257  0.3548  0.0754
 4700TIP3    H214107   1.214   0.549   2.132 -0.1116 -0.0647 -0.6402
 4701TIP3   OH214108   0.853   4.223   4.476  0.6948 -0.2152  0.5298
 4701TIP3    H114109   0.911   4.236   4.401  0.5067 -1.5724  0.1328
 4701TIP3    H214110   0.773   4.271   4.452  0.4929 -0.9480 -0.3237
 4702TIP3   OH214111   1.171   1.061   4.782 -0.0821  0.3974 -0.5379
 4702TIP3    H114112   1.118   1.138   4.762  0.5414  1.2116  0.7650
 4702TIP3    H214113   1.261   1.094   4.784  0.2934 -0.5813 -0.9448
 4703TIP3   OH214114   4.167   2.960   0.556  0.1903 -0.7661  0.6411
 4703TIP3    H114115   4.179   2.929   0.646 -0.3546 -0.6758  0.7437
 4703TIP3    H214116   4.120   3.042   0.565 -1.5024 -1.6515  0.1849
 4704TIP3   OH214117   0.675   5.819   0.790  0.3358  0.7300  0.2189
 4704TIP3    H114118   0.718   5.901   0.814 -0.0834  0.8027  0.7302
 4704TIP3    H214119   0.587   5.826   0.826  0.6778 -0.4642  1.3799
 4705TIP3   OH214120   4.417   2.705   1.661  0.0771 -0.0690 -0.3607
 4705TIP3    H114121   4.342   2.704   1.601 -0.5312  1.6456  0.3022
 4705TIP3    H214122   4.398   2.637   1.726 -0.6099 -0.0492 -0.5373
 4706TIP3   OH214123   4.472   0.670   4.370  0.0883  1.0665  0.3398
 4706TIP3    H114124   4.404   0.728   4.405 -0.3316  1.3047 -0.8515
 4706TIP3    H214125   4.554   0.707   4.405  0.1284  4.1740 -2.6003
 4707TIP3   OH214126   6.145   1.291   1.821  0.1136  0.3917  0.2279
 4707TIP3    H114127   6.178   1.249   1.742  0.8173  0.6856  0.3596
 4707TIP3    H214128   6.191   1.375   1.825 -1.4516  1.3049 -0.1641
 4708TIP3   OH214129   2.491   4.456   1.696  0.2516  0.3559 -0.4027
 4708TIP3    H114130   2.525   4.467   1.607  0.8190 -0.8881 -0.3671
 4708TIP3    H214131   2.518   4.367   1.720 -1.8959 -0.1960  0.1380
 4709TIP3   OH214132   3.512   1.697   1.732  0.3617 -0.3310 -0.0125
 4709TIP3    H114133   3.548   1.774   1.776  0.9615  0.4142 -1.7042
 4709TIP3    H214134   3.427   1.683   1.773  1.1062 -0.0405  1.7326
 4710TIP3   OH214135   5.709   4.806   4.546  0.5116 -0.0351  0.0870
 4710TIP3    H114136   5.660   4.884   4.523  1.0451  0.1398 -0.5038
 4710TIP3    H214137   5.737   4.769   4.462  1.2918 -0.1828  0.3951
 4711TIP3   OH214138   1.468   2.822   0.615  0.1212 -0.3651 -0.1694
 4711TIP3    H114139   1.409   2.838   0.541 -0.9355  1.8629  1.0464
 4711TIP3    H214140   1.417   2.849   0.692  3.1057  3.2844  0.8419
 4712TIP3   OH214141   6.025   3.546   1.602  0.4168  0.5956 -0.2563
 4712TIP3    H114142   6.069   3.486   1.543 -0.6533 -1.7678  1.1784
 4712TIP3    H214143   6.091   3.611   1.624  2.1037 -0.8265 -0.8436
 4713TIP3   OH214144   3.117   4.442   1.856  0.4204 -0.2100  0.4460
 4713TIP3    H114145   3.064   4.511   1.895  0.8128  0.3990 -0.0652
 4713TIP3    H214146   3.064   4.409   1.783  0.1549 -0.5893  0.8020
 4714TIP3   OH214147   3.450   5.336   4.131 -0.0041 -0.2586  0.3743
 4714TIP3    H114148   3.404   5.317   4.213  1.3827  0.5543  1.3938
 4714TIP3    H214149   3.454   5.253   4.085 -1.5397 -0.5605  0.7311
 4715TIP3   OH214150   2.917   0.893   0.351  0.0689  0.9553  0.0246
 4715TIP3    H114151   2.984   0.933   0.407  0.5528  1.4320 -0.8645
 4715TIP3    H214152   2.938   0.800   0.351  0.0253  0.9420  0.6792
 4716TIP3   OH214153   4.607   3.775   5.087 -0.1383 -0.1198  0.8005
 4716TIP3    H114154   4.673   3.730   5.035 -1.5142 -0.4064 -0.7764
 4716TIP3    H214155   4.549   3.816   5.023 -1.0256  0.8155  2.1402
 4717TIP3   OH214156   4.775   4.129   4.711 -0.1596 -0.5526 -0.3689
 4717TIP3    H114157   4.871   4.130   4.705 -0.1816  2.4821 -2.9162
 4717TIP3    H214158   4.756   4.167   4.797  0.8848 -1.6771  0.3831
 4718TIP3   OH214159   3.496   3.419   2.476 -0.0463  0.0080  0.1152
 4718TIP3    H114160   3.510   3.512   2.494 -0.9602  0.4650 -1.3843
 4718TIP3    H214161   3.558   3.374   2.533  0.3879  1.5336  0.8873
 4719TIP3   OH214162   0.557   0.861   4.960  0.2280  0.5627  0.2148
 4719TIP3    H114163   0.503   0.930   4.924  0.4009  0.9377  0.6672
 4719TIP3    H214164   0.602   0.901   5.035  2.0280  0.6060 -0.8279
 4720TIP3   OH214165   5.719   3.485   0.698 -0.2571  0.0822  1.1176
 4720TIP3    H114166   5.732   3.395   0.727 -0.9480 -0.0497  1.0290
 4720TIP3    H214167   5.658   3.523   0.761  1.9619  1.2940  2.6766
 4721TIP3   OH214168   1.274   2.411   0.736  0.1036 -0.6772 -0.5390
 4721TIP3    H114169   1.348   2.362   0.773 -0.0252 -1.0546 -0.7830
 4721TIP3    H214170   1.198   2.357   0.753 -0.2180  0.0190  0.2970
 4722TIP3   OH214171   0.378   0.546   3.746 -0.0816 -0.0491 -0.3008
 4722TIP3    H114172   0.395   0.590   3.663 -0.0729  0.7196  0.0928
 4722TIP3    H214173   0.432   0.594   3.809 -2.3371  1.3397  0.6755
 4723TIP3   OH214174   6.330   1.939   5.122 -0.0539 -0.4836  0.4809
 4723TIP3    H114175   6.392   2.003   5.156  0.9381 -2.1658  2.0447
 4723TIP3    H214176   6.244   1.978   5.135  0.5162  0.3957  1.6846
 4724TIP3   OH214177   5.301   4.876   2.056 -1.0391  0.5354 -0.0263
 4724TIP3    H114178   5.371   4.876   2.121 -1.1522  0.5343  0.0941
 4724TIP3    H214179   5.344   4.849   1.975 -0.8318  0.8655 -0.0248
 4725TIP3   OH214180   2.820   4.796   4.115  0.4197  0.1200  0.0942
 4725TIP3    H114181   2.758   4.841   4.058 -1.3437 -0.7722  1.1920
 4725TIP3    H214182   2.800   4.830   4.203 -0.2236 -1.9542  0.7960
 4726TIP3   OH214183   3.442   1.219   3.574  0.3335  0.2932 -0.4786
 4726TIP3    H114184   3.395   1.200   3.493 -0.0753 -0.9442  0.0306
 4726TIP3    H214185   3.531   1.187   3.557 -0.3010 -2.1078  0.3035
 4727TIP3   OH214186   5.721   0.749   0.345 -0.1284  0.5641 -0.5002
 4727TIP3    H114187   5.675   0.762   0.262  2.1819 -0.3646 -2.0587
 4727TIP3    H214188   5.795   0.810   0.341 -0.9476  1.8213  1.7789
 4728TIP3   OH214189   5.209   3.383   1.681 -0.3567  0.4134 -0.2885
 4728TIP3    H114190   5.218   3.444   1.607 -0.8717  1.4367  0.4678
 4728TIP3    H214191   5.181   3.438   1.754  0.0291 -0.6023  0.6504
 4729TIP3   OH214192   3.566   2.180   2.718  0.2473  0.4688 -0.0885
 4729TIP3    H114193   3.596   2.271   2.726  2.1791  0.1409 -2.3898
 4729TIP3    H214194   3.621   2.132   2.780 -0.4916  0.7770  0.8310
 4730TIP3   OH214195   5.085   4.558   0.401  0.5517  0.3976  0.5964
 4730TIP3    H114196   5.177   4.579   0.388  0.5651 -0.1937 -0.3047
 4730TIP3    H214197   5.078   4.464   0.383 -0.0835  0.2656  1.4514
 4731TIP3   OH214198   4.953   0.101   4.464  0.6847  0.2828  0.3105
 4731TIP3    H114199   4.990   0.030   4.413  0.2864  0.5494 -0.3650
 4731TIP3    H214200   4.991   0.181   4.427  0.7117  0.4570  0.7037
 4732TIP3   OH214201   3.933   3.653   4.119  0.2151  0.3758 -0.4030
 4732TIP3    H114202   4.024   3.623   4.113  0.0806  0.2767 -2.6911
 4732TIP3    H214203   3.921   3.672   4.212  2.1717 -0.8205  0.1631
 4733TIP3   OH214204   3.805   4.049   3.917  0.9883  0.0677  0.0698
 4733TIP3    H114205   3.755   3.967   3.923  0.0007  0.6602  0.2323
 4733TIP3    H214206   3.857   4.051   3.998  0.3870 -0.0061  0.4679
 4734TIP3   OH214207   2.117   2.096   0.909  0.3662 -0.0617  0.5578
 4734TIP3    H114208   2.165   2.125   0.832  0.3351  0.5599  0.7627
 4734TIP3    H214209   2.034   2.144   0.905  0.5187  0.2600  1.1744
 4735TIP3   OH214210   2.466   5.317   5.002  0.2363 -0.2585  0.0181
 4735TIP3    H114211   2.503   5.245   4.951  2.2578  0.7043  0.0486
 4735TIP3    H214212   2.503   5.396   4.963  0.2316  0.6073  1.6810
 4736TIP3   OH214213   0.549   3.445   0.503  0.3097 -0.2268 -0.2222
 4736TIP3    H114214   0.597   3.375   0.548  0.8329  0.5021  0.3578
 4736TIP3    H214215   0.457   3.427   0.522  0.4915 -0.2632  0.6491
 4737TIP3   OH214216   6.091   1.861   3.649  0.2888  0.1730  0.2718
 4737TIP3    H114217   6.181   1.857   3.616  0.6778  0.7351  1.2453
 4737TIP3    H214218   6.097   1.836   3.741 -0.2516  2.0226  0.8571
 4738TIP3   OH214219   4.546   4.199   0.692 -0.3056  0.4913 -0.0688
 4738TIP3    H114220   4.616   4.252   0.729  1.0473 -0.2106 -1.5262
 4738TIP3    H214221   4.578   4.172   0.606 -1.5696 -1.4440 -0.0021
 4739TIP3   OH214222   0.924   4.009   3.245 -0.2870 -0.4162 -0.2443
 4739TIP3    H114223   0.979   4.043   3.315  0.5468  0.7625 -1.4185
 4739TIP3    H214224   0.971   4.030   3.164 -1.3050 -1.5510 -1.1845
 4740TIP3   OH214225   4.835   5.136   2.877 -0.2656  0.2070 -0.4775
 4740TIP3    H114226   4.855   5.227   2.854 -0.9900  0.2457 -0.9858
 4740TIP3    H214227   4.919   5.099   2.903  0.1129  0.9018 -0.6809
 4741TIP3   OH214228   3.726   2.049   4.150  0.2128  0.4082  0.1424
 4741TIP3    H114229   3.803   2.063   4.094 -0.5298 -0.2917 -1.0784
 4741TIP3    H214230   3.653   2.088   4.102 -0.4416 -0.1923  0.6252
 4742TIP3   OH214231   3.510   2.438   4.572  0.1383 -0.0055 -0.2186
 4742TIP3    H114232   3.556   2.407   4.494  0.4276  1.0575 -0.4847
 4742TIP3    H214233   3.579   2.463   4.633 -0.0686 -1.7088  0.7773
 4743TIP3   OH214234   6.091   0.566   2.861 -0.8602  0.2943 -0.1895
 4743TIP3    H114235   6.086   0.604   2.949  1.8887 -0.0324  0.1928
 4743TIP3    H214236   6.075   0.639   2.802  1.2818  1.4712  0.5719
 4744TIP3   OH214237   5.310   0.932   0.759  0.0509 -0.4763 -0.7817
 4744TIP3    H114238   5.225   0.970   0.737 -0.1238 -1.0241 -1.0779
 4744TIP3    H214239   5.373   0.988   0.715  0.1849  2.3991  2.6373
 4745TIP3   OH214240   2.943   5.288   0.472 -0.6235  0.1921 -0.5582
 4745TIP3    H114241   2.918   5.366   0.423  1.2290  0.5243 -1.0660
 4745TIP3    H214242   2.875   5.224   0.452 -1.1964  1.0905 -1.6117
 4746TIP3   OH214243   1.328   2.255   2.979 -0.8810 -0.3903  0.0473
 4746TIP3    H114244   1.372   2.325   3.026 -1.1668  0.3756 -0.7932
 4746TIP3    H214245   1.350   2.175   3.027 -1.2564  0.3702  1.5109
 4747TIP3   OH214246   5.583   0.712   4.893  0.3786  0.7548  0.4923
 4747TIP3    H114247   5.674   0.705   4.923  0.1946 -1.2358  0.6721
 4747TIP3    H214248   5.590   0.728   4.799  0.9069  0.4920  0.4844
 4748TIP3   OH214249   5.891   4.678   2.273 -0.3338  0.2371  0.3731
 4748TIP3    H114250   5.798   4.663   2.286 -0.2839  1.1395  2.1968
 4748TIP3    H214251   5.916   4.736   2.346  1.7664 -0.4925  0.3102
 4749TIP3   OH214252   5.813   0.728   4.095 -0.6218  0.9374  0.4505
 4749TIP3    H114253   5.898   0.693   4.120  0.0608  2.1979  0.0053
 4749TIP3    H214254   5.826   0.759   4.005 -2.1321 -0.6922 -0.3666
 4750TIP3   OH214255   0.596   2.007   4.630  0.2931 -0.3361  0.0431
 4750TIP3    H114256   0.516   2.017   4.681  0.5604  0.7549  0.2689
 4750TIP3    H214257   0.580   1.930   4.574 -0.5414 -0.6811  0.7434
 4751TIP3   OH214258   0.858   2.644   1.132  0.3111  0.8893 -0.1990
 4751TIP3    H114259   0.830   2.578   1.070  1.4017  2.0015 -1.9601
 4751TIP3    H214260   0.949   2.663   1.109  1.2870  0.3021  2.7104
 4752TIP3   OH214261   3.978   4.987   3.651  0.2117 -0.1238 -0.6733
 4752TIP3    H114262   4.042   5.020   3.714 -0.8764  0.9652 -0.1179
 4752TIP3    H214263   4.028   4.978   3.569  1.5494 -1.1947  0.1950
 4753TIP3   OH214264   1.889   2.565   2.189  0.8957  0.2689 -0.2358
 4753TIP3    H114265   1.979   2.540   2.209  1.0991  0.4993 -0.8364
 4753TIP3    H214266   1.843   2.483   2.175  1.4576  0.1966 -1.7874
 4754TIP3   OH214267   6.105   1.234   4.294 -0.1324 -0.0677  0.2444
 4754TIP3    H114268   6.053   1.181   4.234  0.0461 -0.2543  0.2525
 4754TIP3    H214269   6.051   1.311   4.312  0.2715  0.5612 -1.0832
 4755TIP3   OH214270   4.767   1.286   2.916  0.7464 -0.1465  0.8406
 4755TIP3    H114271   4.839   1.238   2.874 -1.5538 -1.8799 -1.4719
 4755TIP3    H214272   4.805   1.369   2.942  3.2353 -0.3634 -1.6394
 4756TIP3   OH214273   2.426   0.447   0.282  0.4730 -0.4808  0.0119
 4756TIP3    H114274   2.464   0.513   0.340  2.5955 -1.3929 -0.2181
 4756TIP3    H214275   2.432   0.485   0.194 -1.2016  0.2337  0.1824
 4757TIP3   OH214276   0.837   4.221   2.879  0.7267  0.1679  0.0439
 4757TIP3    H114277   0.758   4.256   2.919  0.4144 -0.6187  0.1239
 4757TIP3    H214278   0.819   4.223   2.785  1.4347  1.9538 -0.0896
 4758TIP3   OH214279   6.076   1.720   0.037 -0.0809 -0.2362  0.1001
 4758TIP3    H114280   6.091   1.803  -0.007 -0.0323 -0.9425 -1.2559
 4758TIP3    H214281   6.141   1.660   0.001 -0.2689 -0.9396  0.8749
 4759TIP3   OH214282   2.087   2.784   5.069 -0.4548 -0.0931 -0.3853
 4759TIP3    H114283   2.077   2.782   5.164 -0.1096  1.7750 -0.2724
 4759TIP3    H214284   1.998   2.774   5.035 -0.8178  0.9381  0.2028
 4760TIP3   OH214285   5.940   5.632   3.917  0.0393  0.4864  0.6640
 4760TIP3    H114286   6.014   5.680   3.879  1.0980 -0.5242  1.3507
 4760TIP3    H214287   5.870   5.640   3.853  0.9694  0.9180 -0.3334
 4761TIP3   OH214288   4.730   0.022   0.616  0.5557  0.5154  0.0247
 4761TIP3    H114289   4.780  -0.033   0.557 -0.8988  0.1985 -0.9548
 4761TIP3    H214290   4.750   0.112   0.588 -1.6015  0.3735 -2.3519
 4762TIP3   OH214291   3.781   1.407   3.568  0.2306  0.1255  0.5849
 4762TIP3    H114292   3.755   1.316   3.555  0.6411 -0.1860  1.7674
 4762TIP3    H214293   3.835   1.405   3.647  1.0234  1.2648  0.0928
 4763TIP3   OH214294   0.202   3.836   3.362 -0.3181  0.0982  0.3603
 4763TIP3    H114295   0.108   3.845   3.382 -0.0790  1.4429  0.9433
 4763TIP3    H214296   0.245   3.846   3.446  0.5199  2.5059 -0.2893
 4764TIP3   OH214297   3.216   0.019   1.401 -0.0256 -0.4965 -0.3264
 4764TIP3    H114298   3.231   0.110   1.424  0.2346 -0.3697 -0.9637
 4764TIP3    H214299   3.122   0.006   1.411  0.0579 -0.4213  0.6570
 4765TIP3   OH214300   5.658   3.688   4.844  0.3888 -0.3344 -0.4685
 4765TIP3    H114301   5.600   3.720   4.775  0.2155 -1.0518 -0.6574
 4765TIP3    H214302   5.693   3.768   4.884 -0.7191  0.1122 -0.3495
 4766TIP3   OH214303   0.671   1.200   1.683  0.0943 -0.0868 -0.1474
 4766TIP3    H114304   0.584   1.240   1.686  0.3319  0.4430 -0.1736
 4766TIP3    H214305   0.698   1.195   1.774  1.3170  2.6501 -0.2500
 4767TIP3   OH214306   4.445   1.927   4.505 -0.0262 -0.3788  0.0765
 4767TIP3    H114307   4.355   1.925   4.475 -0.5212 -0.4293  1.4952
 4767TIP3    H214308   4.470   1.835   4.514  0.4455 -0.3758 -1.0666
 4768TIP3   OH214309   6.191   0.644   0.338  0.1530  0.2213 -0.5055
 4768TIP3    H114310   6.274   0.597   0.351 -1.1838 -1.9441  0.7675
 4768TIP3    H214311   6.163   0.668   0.427 -1.2469 -0.3303 -0.7764
 4769TIP3   OH214312   0.190   2.698   4.923  0.1805  0.0985 -0.1525
 4769TIP3    H114313   0.147   2.777   4.956  0.4634 -0.2275  1.0437
 4769TIP3    H214314   0.120   2.647   4.883 -0.3204  0.1693  0.6138
 4770TIP3   OH214315   5.151   0.185   2.166  0.2574  0.3855  0.1099
 4770TIP3    H114316   5.085   0.254   2.161 -0.2173 -0.0473  0.3093
 4770TIP3    H214317   5.150   0.144   2.079  1.4220  1.4131 -0.4226
 4771TIP3   OH214318   5.071   1.410   4.529 -0.2720  0.5758 -0.1836
 4771TIP3    H114319   5.021   1.341   4.571 -1.1884  1.6598  0.5510
 4771TIP3    H214320   5.035   1.416   4.440 -0.8612  0.7627  0.0657
 4772TIP3   OH214321   5.216   2.205   4.171 -0.5156 -0.0537 -0.2359
 4772TIP3    H114322   5.141   2.164   4.214 -0.0228 -1.5033 -0.7159
 4772TIP3    H214323   5.288   2.197   4.235 -0.8253  1.7284  0.4092
 4773TIP3   OH214324   1.339   0.554   1.225 -0.1371  0.5053 -0.1683
 4773TIP3    H114325   1.430   0.525   1.214 -1.0298 -2.2581 -1.0804
 4773TIP3    H214326   1.311   0.517   1.308 -0.5692  0.9570 -0.1074
 4774TIP3   OH214327   1.235   0.873   0.418 -0.7793  0.4748  0.5542
 4774TIP3    H114328   1.306   0.811   0.405  0.4465  1.3009  2.7972
 4774TIP3    H214329   1.173   0.854   0.347  2.0974  0.4022 -2.1271
 4775TIP3   OH214330   5.786   2.744   2.357  0.8191 -0.3655 -0.3039
 4775TIP3    H114331   5.715   2.701   2.310 -1.7346  0.6348  2.4025
 4775TIP3    H214332   5.805   2.687   2.431 -0.1837  1.3105  1.3449
 4776TIP3   OH214333   0.061   2.258   3.757 -0.4065  0.3515  0.4985
 4776TIP3    H114334   0.021   2.272   3.671  0.5602 -0.7496 -0.1567
 4776TIP3    H214335   0.014   2.185   3.795  0.5164 -0.5326 -0.0062
 4777TIP3   OH214336   3.364   0.936   1.540  0.4485  0.3868 -0.0116
 4777TIP3    H114337   3.370   0.870   1.609 -2.0231 -0.1318 -0.2133
 4777TIP3    H214338   3.383   1.019   1.584 -1.6930  0.1417  1.5054
 4778TIP3   OH214339   2.252   3.265   5.190 -0.0466  0.2417  0.0392
 4778TIP3    H114340   2.347   3.250   5.194 -0.2584 -0.7928  2.2349
 4778TIP3    H214341   2.216   3.178   5.171 -0.6955 -0.0598  2.4061
 4779TIP3   OH214342   4.003   5.000   3.180  0.4966  0.5485 -0.1049
 4779TIP3    H114343   3.995   5.060   3.105 -1.6156 -0.4120 -0.7201
 4779TIP3    H214344   4.020   4.915   3.140 -2.1848 -0.2692  0.3126
 4780TIP3   OH214345   3.463   1.370   1.832  0.0673  0.4629 -0.0494
 4780TIP3    H114346   3.535   1.335   1.779  1.0690  1.9719  0.2431
 4780TIP3    H214347   3.505   1.433   1.890 -1.4246  0.9371  0.5561
 4781TIP3   OH214348   2.375   3.503   0.273 -0.1236 -0.0367 -0.1781
 4781TIP3    H114349   2.294   3.553   0.265 -0.3182 -0.4674 -1.1851
 4781TIP3    H214350   2.377   3.450   0.193  1.1853  0.0140 -0.1929
 4782TIP3   OH214351   4.695   4.716   0.017  0.1740  0.9064  0.3155
 4782TIP3    H114352   4.665   4.807   0.009 -0.2003  0.7658  0.0800
 4782TIP3    H214353   4.787   4.723   0.043  0.1845  1.3532  0.1663
 4783TIP3   OH214354   3.902   1.470   1.041  0.6458 -0.1616 -0.2501
 4783TIP3    H114355   3.926   1.553   1.001  1.3722 -1.1163 -1.8903
 4783TIP3    H214356   3.946   1.470   1.125 -0.5719  1.7212  0.4658
 4784TIP3   OH214357   1.000   4.768   4.842  1.0254  0.5257 -0.1191
 4784TIP3    H114358   0.955   4.684   4.851  1.3008  0.4481  0.6983
 4784TIP3    H214359   1.011   4.798   4.933  1.9695  0.8802 -0.3392
 4785TIP3   OH214360   1.055   3.012   1.154 -0.0318 -0.3396 -0.0001
 4785TIP3    H114361   1.026   3.072   1.223  0.3719 -0.1373  0.0004
 4785TIP3    H214362   1.048   3.064   1.074  0.7197 -0.1409  0.0515
 4786TIP3   OH214363   6.013   5.495   1.477 -0.0103  0.2534  0.2684
 4786TIP3    H114364   5.964   5.551   1.538 -0.8358  0.5069 -0.6132
 4786TIP3    H214365   6.102   5.494   1.512 -0.6957 -0.5337  2.1256
 4787TIP3   OH214366   1.639   1.869   2.721 -0.2508 -0.3793  0.0547
 4787TIP3    H114367   1.639   1.774   2.731 -1.2633 -0.5660 -1.3662
 4787TIP3    H214368   1.551   1.896   2.749  0.4784  0.3251  1.7597
 4788TIP3   OH214369   5.417   0.858   4.270 -0.5857  0.0539  0.0048
 4788TIP3    H114370   5.511   0.861   4.287 -0.2029  0.9029 -1.9802
 4788TIP3    H214371   5.380   0.916   4.336  0.5421  1.4041 -0.4943
 4789TIP3   OH214372   1.378   5.614   2.887  0.0935  0.1314  0.5619
 4789TIP3    H114373   1.289   5.598   2.918 -0.1580  0.9453  0.2841
 4789TIP3    H214374   1.430   5.620   2.967 -0.3794  1.2300  0.7989
 4790TIP3   OH214375   2.977   1.678   4.421 -0.1156 -0.8202 -0.2716
 4790TIP3    H114376   2.991   1.584   4.434 -0.3273 -0.6809  1.1014
 4790TIP3    H214377   3.020   1.719   4.496 -0.8011  0.1213 -0.3808
 4791TIP3   OH214378   0.564   5.876   0.214 -0.3049 -0.1308 -0.0860
 4791TIP3    H114379   0.487   5.932   0.222  0.1827  0.5421 -0.0689
 4791TIP3    H214380   0.544   5.800   0.269 -1.8489 -0.9916 -1.7236
 4792TIP3   OH214381   0.146   0.098   2.598  0.5033 -0.1864 -0.0795
 4792TIP3    H114382   0.142   0.049   2.679 -1.3947  3.7268  2.5293
 4792TIP3    H214383   0.208   0.169   2.615 -0.0046  0.8003 -1.9790
 4793TIP3   OH214384   1.756   4.137   4.938  0.5980 -0.2745 -0.3209
 4793TIP3    H114385   1.796   4.161   5.021  0.4928 -1.0114 -0.0493
 4793TIP3    H214386   1.800   4.055   4.913 -0.6050 -1.0011 -0.1038
 4794TIP3   OH214387   6.158   5.069   1.808  0.1995 -0.5347  0.3259
 4794TIP3    H114388   6.081   5.018   1.834 -0.0315 -0.3006  0.1159
 4794TIP3    H214389   6.149   5.079   1.713 -0.1905  0.5800  0.4664
 4795TIP3   OH214390   2.057   5.277   4.515  0.2390 -0.7454  0.6876
 4795TIP3    H114391   2.095   5.253   4.599  2.4040 -1.3327 -0.3842
 4795TIP3    H214392   2.014   5.197   4.484 -0.2803 -0.6200  1.0743
 4796TIP3   OH214393   5.848   5.072   4.912 -0.2021  0.7420  0.2657
 4796TIP3    H114394   5.923   5.119   4.877  0.4761  0.0640  0.7670
 4796TIP3    H214395   5.881   5.029   4.991 -0.8628 -0.3530 -0.0251
 4797TIP3   OH214396   6.296   4.970   1.438  0.3922  0.4299  0.1937
 4797TIP3    H114397   6.279   4.984   1.345 -1.3724 -0.5557  0.3107
 4797TIP3    H214398   6.211   4.984   1.480  0.6586 -1.2065  1.3790
 4798TIP3   OH214399   1.869   4.380   3.116 -0.1750  0.7709  0.3210
 4798TIP3    H114400   1.846   4.362   3.207  0.2482 -0.0265  0.2803
 4798TIP3    H214401   1.866   4.475   3.109 -0.0882  0.8485  1.1993
 4799TIP3   OH214402   1.940   3.392   1.009  0.4253 -0.3107  0.0439
 4799TIP3    H114403   1.949   3.304   1.046 -1.2229 -1.2596 -1.6045
 4799TIP3    H214404   2.008   3.396   0.942  1.0964  0.0479  0.7317
 4800TIP3   OH214405   4.653   5.019   2.123  0.0390  0.1837  0.1922
 4800TIP3    H114406   4.686   5.105   2.150  1.4298 -0.5352  0.9024
 4800TIP3    H214407   4.567   5.012   2.163  0.0341  1.1369  0.3565
 4801TIP3   OH214408   2.731   1.114   0.257  0.2255  0.3215 -0.3610
 4801TIP3    H114409   2.702   1.036   0.209 -0.3529 -0.4886  1.2157
 4801TIP3    H214410   2.812   1.087   0.299 -1.5746 -0.6876  2.8814
 4802TIP3   OH214411   1.045   0.618   0.698 -0.3373 -0.3100 -0.6791
 4802TIP3    H114412   0.998   0.598   0.779  1.3407 -0.4942  0.2869
 4802TIP3    H214413   1.040   0.537   0.647 -1.3144 -0.2250 -0.7446
 4803TIP3   OH214414   5.704   4.982   2.003 -0.4565 -0.5234  0.8334
 4803TIP3    H114415   5.765   5.055   2.015  0.6478 -1.6224  2.5370
 4803TIP3    H214416   5.706   4.964   1.909  1.3376 -0.0727  0.7391
 4804TIP3   OH214417   5.860   4.625   2.779  0.1746 -0.2750 -0.0357
 4804TIP3    H114418   5.878   4.717   2.799 -0.6969  0.0585 -0.7663
 4804TIP3    H214419   5.903   4.577   2.851 -0.4338  0.7548  1.0561
 4805TIP3   OH214420   0.530   4.263   1.575  0.7820  0.5862 -0.5736
 4805TIP3    H114421   0.540   4.299   1.663  0.0495 -1.4152  0.3836
 4805TIP3    H214422   0.531   4.340   1.517 -2.3089  2.3284  1.4368
 4806TIP3   OH214423   3.854   4.082   0.782 -0.3483 -0.7980 -0.2239
 4806TIP3    H114424   3.882   4.104   0.693  2.4773 -0.4963  0.6514
 4806TIP3    H214425   3.785   4.016   0.769 -1.8501  1.0658 -2.6266
 4807TIP3   OH214426   1.557   2.684   2.680  0.2201 -0.0741  0.5923
 4807TIP3    H114427   1.646   2.646   2.683  0.0070 -0.5386  1.5275
 4807TIP3    H214428   1.559   2.744   2.606  2.0633  1.7700  2.0400
 4808TIP3   OH214429   6.023   1.171   2.028  0.2889  0.2131  0.3342
 4808TIP3    H114430   6.004   1.077   2.017  0.3763  0.0293  1.6143
 4808TIP3    H214431   6.056   1.198   1.942  0.7603 -1.0463  0.0891
 4809TIP3   OH214432   4.817   1.123   4.897 -0.2276  0.4101 -0.1322
 4809TIP3    H114433   4.856   1.053   4.948 -0.1828 -0.8052 -1.7393
 4809TIP3    H214434   4.792   1.189   4.961  3.4325  0.8106  1.0997
 4810TIP3   OH214435   5.088   0.913   0.374 -0.2753  0.3105 -0.0309
 4810TIP3    H114436   5.177   0.949   0.375 -0.5013  1.0214 -1.8329
 4810TIP3    H214437   5.036   0.977   0.422 -0.1896  1.0462 -0.8940
 4811TIP3   OH214438   2.546   5.274   3.087  0.3676  0.9149  0.4547
 4811TIP3    H114439   2.590   5.191   3.101 -1.2765  0.0980  0.9412
 4811TIP3    H214440   2.616   5.333   3.058  1.8990 -0.1337  1.8424
 4812TIP3   OH214441   0.493   3.378   0.927 -0.2822 -0.1412 -0.4487
 4812TIP3    H114442   0.484   3.470   0.903 -0.6308 -0.4619 -1.6144
 4812TIP3    H214443   0.415   3.336   0.890 -0.3154 -0.8472  0.3858
 4813TIP3   OH214444   3.952   0.440   3.449  0.8120 -0.4617  0.1852
 4813TIP3    H114445   3.934   0.531   3.473 -2.8527 -1.3683  1.4668
 4813TIP3    H214446   3.926   0.433   3.358 -0.4557 -0.5571  0.5431
 4814TIP3   OH214447   0.477   2.893   5.182  0.1732  0.2509  0.0335
 4814TIP3    H114448   0.571   2.876   5.178 -0.2230 -2.1445 -2.4668
 4814TIP3    H214449   0.439   2.809   5.209 -1.2789  1.4710  2.1308
 4815TIP3   OH214450   3.037   1.800   1.999 -0.1157 -0.3851 -0.5077
 4815TIP3    H114451   3.036   1.830   2.090  1.6938 -0.7971 -0.3230
 4815TIP3    H214452   2.982   1.721   2.000  0.2981 -0.6775  0.3402
 4816TIP3   OH214453   1.317   4.057   0.688 -0.8218  0.4601 -0.5241
 4816TIP3    H114454   1.248   4.080   0.626 -0.6210  1.1433 -0.5012
 4816TIP3    H214455   1.397   4.090   0.648 -0.7737  1.4819  0.3877
 4817TIP3   OH214456   2.506   3.080   3.856 -0.3383  0.0764 -0.3762
 4817TIP3    H114457   2.598   3.077   3.883  0.1766 -1.6693 -2.0784
 4817TIP3    H214458   2.484   3.173   3.855  1.7925  0.6190 -1.0436
 4818TIP3   OH214459   4.573   3.713   2.771 -0.1735 -0.3126  0.1541
 4818TIP3    H114460   4.538   3.737   2.857 -0.0570 -0.7291  0.3216
 4818TIP3    H214461   4.558   3.791   2.717  1.9932  0.9422  1.2049
 4819TIP3   OH214462   2.265   1.868   4.886 -0.2009  0.2031  0.0736
 4819TIP3    H114463   2.245   1.853   4.979 -0.3347  0.2598  0.0534
 4819TIP3    H214464   2.329   1.800   4.865  1.2744  1.3237  0.7013
 4820TIP3   OH214465   4.342   0.957   1.091 -0.4739  0.0080 -0.4590
 4820TIP3    H114466   4.389   0.911   1.021  1.6544 -2.1303  2.1669
 4820TIP3    H214467   4.300   0.888   1.142  0.9001  1.0546  2.2852
 4821TIP3   OH214468   3.309   1.661   3.154  0.1276  0.2058 -0.1971
 4821TIP3    H114469   3.284   1.708   3.233  1.9056  1.8938 -0.5481
 4821TIP3    H214470   3.235   1.604   3.135 -0.2986 -0.3241  2.7078
 4822TIP3   OH214471   4.865   1.850   1.644  0.3826  0.1980 -0.1140
 4822TIP3    H114472   4.911   1.915   1.591 -0.0738 -0.2781 -1.1270
 4822TIP3    H214473   4.787   1.895   1.675  0.6327  0.4685  0.1313
 4823TIP3   OH214474   5.489   1.436   4.038 -0.2910  0.3495  0.5916
 4823TIP3    H114475   5.454   1.492   3.969 -0.1954 -1.4343 -0.9672
 4823TIP3    H214476   5.534   1.365   3.992  0.7627 -0.3073  2.4993
 4824TIP3   OH214477   4.280   1.147   2.108  0.1621  0.7374  0.1856
 4824TIP3    H114478   4.318   1.074   2.157 -0.5433  1.4240  1.8273
 4824TIP3    H214479   4.186   1.134   2.114  0.0183 -0.1480 -2.6185
 4825TIP3   OH214480   2.606   0.475   1.056  0.1894 -0.4984  0.3388
 4825TIP3    H114481   2.644   0.486   0.969 -1.1659 -1.2239 -0.3759
 4825TIP3    H214482   2.528   0.531   1.055 -0.6036 -1.5654  0.5778
 4826TIP3   OH214483   1.771   4.674   2.924 -0.1687 -0.3652  0.0503
 4826TIP3    H114484   1.702   4.649   2.863 -0.7124  1.8332 -0.3543
 4826TIP3    H214485   1.852   4.662   2.874 -0.5630  0.7194 -0.9282
 4827TIP3   OH214486   3.406   2.250   3.551 -0.1434 -0.1488  0.2784
 4827TIP3    H114487   3.350   2.328   3.556 -1.5713 -1.0428 -1.0490
 4827TIP3    H214488   3.485   2.281   3.506 -1.0076  0.3894 -0.9274
 4828TIP3   OH214489   4.121   4.245   3.655 -0.3264 -0.2311  1.0692
 4828TIP3    H114490   4.174   4.310   3.700 -1.2699  0.3419  1.3844
 4828TIP3    H214491   4.055   4.296   3.608 -0.5978 -0.9224  0.6785
 4829TIP3   OH214492   5.441   3.946   1.553 -0.0495  0.1808  0.6092
 4829TIP3    H114493   5.438   4.026   1.500  1.0681  0.6466  1.2127
 4829TIP3    H214494   5.365   3.953   1.612 -1.7625 -0.6999 -1.3388
 4830TIP3   OH214495   2.414   1.360   3.655 -0.0467  0.2663 -0.3324
 4830TIP3    H114496   2.445   1.294   3.593 -2.0156  0.5178 -1.6737
 4830TIP3    H214497   2.418   1.442   3.606 -0.2510  0.7058  0.3797
 4831TIP3   OH214498   5.478   1.135   0.637 -0.0637  0.3856 -0.1123
 4831TIP3    H114499   5.443   1.224   0.633  1.7878  1.1181 -0.9579
 4831TIP3    H214500   5.569   1.143   0.609  1.3941 -1.1305  3.5570
 4832TIP3   OH214501   3.085   3.820   1.036  0.0196 -0.2256 -0.4115
 4832TIP3    H114502   3.021   3.891   1.033 -1.0347 -1.0988  0.2810
 4832TIP3    H214503   3.167   3.860   1.009 -0.7996  0.9532 -1.2578
 4833TIP3   OH214504   5.094   5.304   1.104  0.3803 -0.7751 -0.2208
 4833TIP3    H114505   5.013   5.259   1.080 -1.3836  2.3237 -0.5080
 4833TIP3    H214506   5.125   5.345   1.023 -0.9463  2.6870  0.8674
 4834TIP3   OH214507   2.626   3.813   1.564 -0.0624 -0.0848 -0.0110
 4834TIP3    H114508   2.690   3.875   1.529 -0.1644 -0.3047 -0.6131
 4834TIP3    H214509   2.678   3.738   1.593  0.1420  0.6200  1.5272
 4835TIP3   OH214510   1.544   0.927   1.118 -0.0960  0.1686 -0.1641
 4835TIP3    H114511   1.540   1.022   1.119  0.2430  0.1975 -0.7711
 4835TIP3    H214512   1.565   0.905   1.027  1.2881 -0.4352  0.2861
 4836TIP3   OH214513   0.313   3.931   4.568 -0.0347  0.0058  0.2517
 4836TIP3    H114514   0.350   3.942   4.655 -0.8590  1.1145  0.4830
 4836TIP3    H214515   0.388   3.921   4.510  0.5353 -0.0060  0.9884
 4837TIP3   OH214516   5.614   3.207   1.975 -0.1078 -0.4854  0.5490
 4837TIP3    H114517   5.581   3.291   1.942  2.1146  0.3125  0.1664
 4837TIP3    H214518   5.623   3.221   2.070  1.0804  0.0533  0.3752
 4838TIP3   OH214519   6.350   5.379   4.123 -0.7421 -0.5126 -0.0949
 4838TIP3    H114520   6.393   5.461   4.147  0.6009 -1.0642 -0.5035
 4838TIP3    H214521   6.275   5.405   4.069 -0.6308  0.4574  0.2018
 4839TIP3   OH214522   2.433   1.093   1.691  0.2744  0.4729  0.4976
 4839TIP3    H114523   2.519   1.062   1.720  0.1728 -0.2944  0.0146
 4839TIP3    H214524   2.442   1.188   1.688  1.2764  0.3835 -0.0457
 4840TIP3   OH214525   4.014   4.415   0.495 -0.4821  0.1676  0.0863
 4840TIP3    H114526   4.075   4.448   0.561 -1.1272 -1.5139  1.6005
 4840TIP3    H214527   4.068   4.405   0.416  1.3042 -1.4011  1.4105
 4841TIP3   OH214528   1.048   3.170   0.182 -0.0216 -0.0940  0.5722
 4841TIP3    H114529   1.008   3.159   0.096 -1.2350 -1.1374  1.2392
 4841TIP3    H214530   1.139   3.196   0.163 -0.2903 -0.1959 -1.0032
 4842TIP3   OH214531   4.168   4.698   3.537 -0.3884 -0.4400  0.4358
 4842TIP3    H114532   4.237   4.635   3.518 -1.8416 -2.3571  1.2548
 4842TIP3    H214533   4.196   4.778   3.492  2.0572 -1.3027  0.2900
 4843TIP3   OH214534   5.644   1.507   1.189 -0.2055  0.4342  0.0802
 4843TIP3    H114535   5.694   1.435   1.150 -0.0136  0.4752  0.2491
 4843TIP3    H214536   5.710   1.573   1.210 -0.3802  0.6647 -0.0808
 4844TIP3   OH214537   3.485   3.969   1.881 -0.4589 -0.2545 -0.4451
 4844TIP3    H114538   3.470   3.878   1.908  1.3572 -0.7578 -0.9919
 4844TIP3    H214539   3.502   4.016   1.962 -1.7911 -0.2945 -0.1198
 4845TIP3   OH214540   0.535   5.849   5.172 -0.1806  0.2130  0.2019
 4845TIP3    H114541   0.444   5.875   5.159 -0.2985 -0.0760  0.4499
 4845TIP3    H214542   0.564   5.818   5.086 -1.1148 -2.1908  0.6623
 4846TIP3   OH214543   3.224   2.980   4.494 -0.5587  0.0933 -0.1758
 4846TIP3    H114544   3.263   2.916   4.554 -1.8829 -0.0403  0.5719
 4846TIP3    H214545   3.175   2.928   4.431  0.1286  0.2773 -0.8712
 4847TIP3   OH214546   4.176   3.352   1.648 -0.4627  0.0070 -0.1097
 4847TIP3    H114547   4.238   3.326   1.716 -0.7930 -0.0696  0.1688
 4847TIP3    H214548   4.191   3.446   1.637 -0.7457  0.1249  0.4348
 4848TIP3   OH214549   3.863   2.357   2.275  0.2953  0.2538  0.3200
 4848TIP3    H114550   3.884   2.435   2.325  0.4622 -0.3139  1.1625
 4848TIP3    H214551   3.942   2.303   2.281  0.6659  0.5475 -1.3352
 4849TIP3   OH214552   0.356   1.733   0.347 -0.4720 -0.0139  0.4653
 4849TIP3    H114553   0.345   1.640   0.327  1.8167 -0.4788  1.0154
 4849TIP3    H214554   0.359   1.737   0.443 -0.1773  0.5503  0.4380
 4850TIP3   OH214555   3.944   3.571   2.774  0.3126  0.4971 -0.3007
 4850TIP3    H114556   3.878   3.512   2.737 -0.2291 -0.0010  1.3770
 4850TIP3    H214557   3.951   3.642   2.709 -0.8524 -0.1393 -1.1663
 4851TIP3   OH214558   1.642   2.444   4.926 -0.2097 -0.2412  0.1145
 4851TIP3    H114559   1.668   2.420   4.837  1.8227 -0.4010  0.6841
 4851TIP3    H214560   1.604   2.364   4.962 -0.8414 -0.2373 -0.5390
 4852TIP3   OH214561   3.244   1.462   4.862  0.0415 -0.0415 -0.4276
 4852TIP3    H114562   3.263   1.549   4.896 -1.2148  0.9752 -2.1813
 4852TIP3    H214563   3.258   1.403   4.937 -0.1598  1.7601  1.0876
 4853TIP3   OH214564   5.183   3.432   3.520 -0.0691 -0.6130  0.3890
 4853TIP3    H114565   5.090   3.452   3.526 -0.2357 -1.5970  1.1704
 4853TIP3    H214566   5.208   3.460   3.431 -1.0209 -0.0379  0.2949
 4854TIP3   OH214567   0.608   0.151   2.669  0.2714 -0.1835  0.0326
 4854TIP3    H114568   0.689   0.180   2.710 -1.4342 -0.5451  4.1628
 4854TIP3    H214569   0.620   0.058   2.654  0.9128 -0.0685 -0.1742
 4855TIP3   OH214570   3.463   4.697   4.472  0.3177  0.2976  0.7670
 4855TIP3    H114571   3.445   4.737   4.557  2.2229  2.6258  0.1647
 4855TIP3    H214572   3.387   4.719   4.419 -0.3644 -0.1899  1.5086
 4856TIP3   OH214573   5.626   0.825   1.616  0.7626  0.4122  0.0767
 4856TIP3    H114574   5.603   0.735   1.635  2.4695  0.1056  0.9219
 4856TIP3    H214575   5.675   0.820   1.534 -0.5224  0.8084 -0.7411
 4857TIP3   OH214576   5.995   1.401   4.652 -0.1596 -0.1691 -0.5031
 4857TIP3    H114577   6.028   1.313   4.631 -0.9038 -1.2049  2.2133
 4857TIP3    H214578   5.910   1.385   4.694 -0.3681  1.8767 -0.0524
 4858TIP3   OH214579   4.232   5.205   3.460  0.2099  0.0893 -0.3572
 4858TIP3    H114580   4.166   5.270   3.438  0.9631  0.6901 -0.8608
 4858TIP3    H214581   4.298   5.253   3.510  0.3572 -0.4664 -0.0092
 4859TIP3   OH214582   4.090   4.500   1.010 -0.3834  0.0807 -0.2815
 4859TIP3    H114583   4.090   4.409   1.039  1.6501 -0.4227 -1.6687
 4859TIP3    H214584   4.021   4.504   0.944 -1.6329  0.0187  0.9636
 4860TIP3   OH214585   5.847   1.208   4.538 -0.1746 -0.0400  0.0209
 4860TIP3    H114586   5.815   1.131   4.584 -1.2735  1.0241  1.1093
 4860TIP3    H214587   5.801   1.281   4.579  2.0791  1.3777  0.1690
 4861TIP3   OH214588   6.100   0.406   1.279 -0.5452 -0.2107  0.4481
 4861TIP3    H114589   6.041   0.331   1.286 -0.7969 -0.1036 -0.3886
 4861TIP3    H214590   6.047   0.474   1.236 -0.3663  0.5024  1.3109
 4862TIP3   OH214591   0.007   4.779   2.108  0.0219  0.4795 -0.6450
 4862TIP3    H114592  -0.011   4.699   2.157  0.7986  1.0970  0.7048
 4862TIP3    H214593   0.008   4.752   2.017 -1.8417 -0.6516 -0.3774
 4863TIP3   OH214594   1.233   4.547   4.021  0.1494  0.2567 -0.1423
 4863TIP3    H114595   1.211   4.626   4.069 -0.5305  0.5731 -0.9440
 4863TIP3    H214596   1.303   4.506   4.072  0.5463  1.3916  0.2522
 4864TIP3   OH214597   5.391   3.617   4.079 -0.5140 -0.1793 -0.0938
 4864TIP3    H114598   5.403   3.699   4.029 -2.4643  0.1084 -0.1513
 4864TIP3    H214599   5.297   3.599   4.074 -0.3573 -1.5825  1.2818
 4865TIP3   OH214600   1.746   4.090   1.372  0.6124 -0.3386 -0.0711
 4865TIP3    H114601   1.676   4.040   1.330  0.5508 -0.1832 -0.1523
 4865TIP3    H214602   1.735   4.179   1.339 -0.0363  0.0026  1.0334
 4866TIP3   OH214603   3.250   5.589   4.775  0.6447 -0.1008 -0.1375
 4866TIP3    H114604   3.278   5.622   4.861 -0.3039  0.3177  0.0206
 4866TIP3    H214605   3.328   5.545   4.741  1.7089  1.5465  0.0244
 4867TIP3   OH214606   3.219   0.647   4.229 -0.5176  0.1466  0.1659
 4867TIP3    H114607   3.215   0.594   4.310  3.3166  1.2682  1.2743
 4867TIP3    H214608   3.167   0.724   4.249  0.1186  0.2611  1.5020
 4868TIP3   OH214609   4.949   1.271   2.373 -0.2738 -0.3700 -0.1996
 4868TIP3    H114610   4.947   1.359   2.411  0.4972 -0.6434  0.5142
 4868TIP3    H214611   5.003   1.280   2.295 -0.6086 -0.1119 -0.4041
 4869TIP3   OH214612   3.685   5.584   3.034  0.1743 -0.2408 -0.0645
 4869TIP3    H114613   3.614   5.574   3.096  2.4748 -1.4241  2.6034
 4869TIP3    H214614   3.648   5.635   2.962 -3.4749 -1.3662  0.8236
 4870TIP3   OH214615   4.292   3.647   0.530  0.8647 -0.0849 -0.6643
 4870TIP3    H114616   4.269   3.733   0.566  0.0199 -0.3003 -0.6503
 4870TIP3    H214617   4.253   3.585   0.592  2.2767 -0.5006 -0.1566
 4871TIP3   OH214618   2.891   5.414   2.530 -0.3253 -0.0358 -0.3693
 4871TIP3    H114619   2.857   5.497   2.495  0.0550 -0.2327 -1.2310
 4871TIP3    H214620   2.911   5.362   2.452  0.1730 -0.6397  0.1566
 4872TIP3   OH214621   4.019   4.445   2.607  0.2128 -0.0068 -0.4580
 4872TIP3    H114622   4.053   4.528   2.574  0.7259  0.2980  0.7435
 4872TIP3    H214623   4.018   4.456   2.702 -1.3927 -0.7521 -0.3583
 4873TIP3   OH214624   4.798   3.813   3.207 -0.1676 -0.6633  0.2691
 4873TIP3    H114625   4.746   3.880   3.164  1.4770 -0.7648 -2.0436
 4873TIP3    H214626   4.771   3.817   3.299 -0.8748  2.4019  0.0186
 4874TIP3   OH214627   0.086   5.420   0.977 -0.6304 -0.5222  0.1114
 4874TIP3    H114628   0.126   5.345   1.022 -0.6277 -0.4445  0.2368
 4874TIP3    H214629   0.161   5.470   0.943 -0.6204 -0.3589  0.3753
 4875TIP3   OH214630   5.590   1.176   1.177 -0.4446  0.1376  0.6436
 4875TIP3    H114631   5.630   1.089   1.186 -2.7744 -0.8544  2.2116
 4875TIP3    H214632   5.617   1.205   1.090  1.1093 -1.7541  0.4091
 4876TIP3   OH214633   4.782   3.328   1.440  0.5498 -0.1608  0.0324
 4876TIP3    H114634   4.709   3.384   1.415  2.0161  2.7892  1.8464
 4876TIP3    H214635   4.829   3.312   1.358  0.4327  1.8416 -0.4615
 4877TIP3   OH214636   3.159   5.697   1.210  0.0304  0.1728  0.5634
 4877TIP3    H114637   3.091   5.727   1.270  0.6483  1.2196  0.7623
 4877TIP3    H214638   3.207   5.777   1.186  0.6541 -0.4259 -0.2381
 4878TIP3   OH214639   6.064   4.514   1.188  0.1564 -0.6747  0.1348
 4878TIP3    H114640   6.151   4.519   1.147 -0.0297 -0.5146 -0.2416
 4878TIP3    H214641   6.007   4.481   1.119 -0.1649 -0.3811  0.2617
 4879TIP3   OH214642   2.316   3.774   4.061 -0.1273  0.1315  0.1782
 4879TIP3    H114643   2.293   3.772   4.154 -1.3358 -0.1815 -0.1091
 4879TIP3    H214644   2.242   3.731   4.018 -0.6345  2.1893 -1.1400
 4880TIP3   OH214645   0.877   1.529   1.091  0.2742  0.3040 -0.3407
 4880TIP3    H114646   0.845   1.616   1.066  0.2916  0.8472  1.3738
 4880TIP3    H214647   0.957   1.517   1.039 -0.8133  0.3924 -2.1282
 4881TIP3   OH214648   3.825   3.079   2.679  0.1350 -0.4428  0.0350
 4881TIP3    H114649   3.781   3.146   2.731 -3.5423 -2.6196  0.0740
 4881TIP3    H214650   3.783   3.083   2.593  1.4587 -1.1871 -0.6762
 4882TIP3   OH214651   2.199   5.118   3.284 -0.1648 -0.2774  0.3758
 4882TIP3    H114652   2.285   5.110   3.325 -0.0575  0.3353  0.2807
 4882TIP3    H214653   2.208   5.192   3.224 -0.4367 -0.9051 -0.4517
 4883TIP3   OH214654   4.552   5.520   1.797 -0.1633  0.1963  0.0462
 4883TIP3    H114655   4.458   5.536   1.801 -0.2242  0.1313 -0.9189
 4883TIP3    H214656   4.571   5.467   1.875 -0.5217  2.0414  1.4517
 4884TIP3   OH214657   4.650   0.814   1.821  0.3974 -0.1234 -0.2866
 4884TIP3    H114658   4.697   0.731   1.809  1.3629  0.4986 -0.9422
 4884TIP3    H214659   4.595   0.800   1.899  1.4143 -0.9810  0.2971
 4885TIP3   OH214660   2.856   0.864   1.928  0.3027  0.1320 -0.2818
 4885TIP3    H114661   2.873   0.805   2.002  1.7647 -0.0661 -0.7485
 4885TIP3    H214662   2.936   0.916   1.920  0.7842 -0.8069 -2.5710
 4886TIP3   OH214663   3.193   3.995   3.122  0.5381  0.3842 -0.0212
 4886TIP3    H114664   3.263   4.045   3.162 -0.0913  1.6310 -0.4256
 4886TIP3    H214665   3.233   3.911   3.098  1.2900  0.1791  1.8103
 4887TIP3   OH214666   3.905   5.403   4.576  0.0010 -0.8664 -0.2649
 4887TIP3    H114667   3.906   5.460   4.499 -2.2695 -0.3781  0.0022
 4887TIP3    H214668   3.996   5.403   4.606  0.5363  0.6583 -1.6837
 4888TIP3   OH214669   6.038   5.353   1.720 -0.2028  0.5023 -0.0319
 4888TIP3    H114670   5.961   5.362   1.775  0.5657  1.0223  0.9905
 4888TIP3    H214671   6.112   5.369   1.778  0.7311 -0.6866 -0.8263
 4889TIP3   OH214672   6.072   4.546   1.463  0.3143 -0.0902 -0.1062
 4889TIP3    H114673   6.116   4.558   1.378 -0.4485  2.6711 -0.1782
 4889TIP3    H214674   5.979   4.556   1.443  0.0009 -0.9140  0.8664
 4890TIP3   OH214675   0.097   3.494   1.925  0.0684 -0.0088  0.1095
 4890TIP3    H114676   0.188   3.498   1.954 -0.6948  0.6862  2.6617
 4890TIP3    H214677   0.057   3.427   1.980 -1.1459  0.2814 -0.3886
 4891TIP3   OH214678   0.163   3.629   2.557 -0.4369 -0.4813  0.0540
 4891TIP3    H114679   0.149   3.545   2.601  0.6381 -0.7214 -0.0321
 4891TIP3    H214680   0.194   3.687   2.627 -0.9199 -0.2215  0.0589
 4892TIP3   OH214681   2.621   1.231   2.597 -0.6661 -0.6079  0.1138
 4892TIP3    H114682   2.612   1.321   2.626 -0.2305 -1.4396  3.1668
 4892TIP3    H214683   2.552   1.184   2.645 -0.7079 -1.9644 -1.2052
 4893TIP3   OH214684   4.227   5.716   0.515  0.5249  0.1754 -0.2185
 4893TIP3    H114685   4.202   5.803   0.546  0.8602  0.6499 -1.2452
 4893TIP3    H214686   4.209   5.658   0.589 -0.8410  0.9369  0.0768
 4894TIP3   OH214687   5.735   5.733   0.367  0.1477 -0.6322 -0.2043
 4894TIP3    H114688   5.808   5.749   0.427 -1.0352  0.1035  1.0973
 4894TIP3    H214689   5.665   5.698   0.423 -0.8667 -0.3153 -1.2274
 4895TIP3   OH214690   1.346   0.809   2.387  0.6886  0.8304  0.0780
 4895TIP3    H114691   1.403   0.756   2.331  1.1230 -0.0223  1.2613
 4895TIP3    H214692   1.392   0.892   2.396  1.7574  0.1783  0.9547
 4896TIP3   OH214693   2.085   5.382   1.147 -0.4293  0.5028  0.0919
 4896TIP3    H114694   2.155   5.316   1.140 -0.3881  0.6672 -1.3111
 4896TIP3    H214695   2.106   5.446   1.079 -1.4055  1.0859  0.3253
 4897TIP3   OH214696   3.952   4.157   1.027  0.2972 -0.2971  0.2634
 4897TIP3    H114697   3.968   4.099   1.101  1.0032  0.3675  0.6487
 4897TIP3    H214698   3.904   4.103   0.964  2.2078 -1.8014 -0.0275
 4898TIP3   OH214699   1.903   5.654   1.008 -0.1418  0.7817  0.2056
 4898TIP3    H114700   1.905   5.695   0.921  1.0392  2.6712  1.0343
 4898TIP3    H214701   1.975   5.696   1.055  0.6772 -1.8028  1.4277
 4899TIP3   OH214702   4.274   3.661   0.257 -0.0413 -0.0355 -0.3758
 4899TIP3    H114703   4.316   3.585   0.218  0.1909  0.1158 -0.4290
 4899TIP3    H214704   4.296   3.657   0.350 -0.1004 -0.0792 -0.3638
 4900TIP3   OH214705   4.260   3.000   4.056  0.0615 -0.0250  0.1617
 4900TIP3    H114706   4.254   3.056   4.133 -0.4237  0.7236 -0.4017
 4900TIP3    H214707   4.169   2.979   4.034  0.2251 -2.9679  1.6874
 4901TIP3   OH214708   5.089   1.698   3.752  0.5150 -0.2719  0.1705
 4901TIP3    H114709   5.159   1.762   3.737  0.4786  0.1042  1.4360
 4901TIP3    H214710   5.119   1.618   3.709  1.4757  0.0412  0.2327
 4902TIP3   OH214711   4.143   0.364   0.561  0.3961 -0.4162  1.1812
 4902TIP3    H114712   4.094   0.292   0.522  1.3615 -1.0562  1.1137
 4902TIP3    H214713   4.230   0.359   0.521 -0.1759  2.2593 -0.6133
 4903TIP3   OH214714   1.234   4.258   4.578  0.1022 -0.1332  0.2753
 4903TIP3    H114715   1.266   4.341   4.613  1.6912  0.3177 -2.0304
 4903TIP3    H214716   1.185   4.283   4.500  1.7517 -1.3745 -1.2398
 4904TIP3   OH214717   3.423   5.608   4.994 -0.0820  0.3202  0.4170
 4904TIP3    H114718   3.361   5.565   5.053 -0.1936  0.7930  0.6527
 4904TIP3    H214719   3.492   5.543   4.981  0.4170  0.5323  1.8173
 4905TIP3   OH214720   5.734   1.232   0.660 -0.4840  0.3529 -0.5642
 4905TIP3    H114721   5.711   1.286   0.585  2.5433  3.1287  0.2559
 4905TIP3    H214722   5.799   1.284   0.708 -0.8100 -2.0898  2.9321
 4906TIP3   OH214723   3.381   3.925   3.772 -0.3366 -0.6436  0.5664
 4906TIP3    H114724   3.407   3.861   3.707 -0.5628  2.1061 -2.4867
 4906TIP3    H214725   3.287   3.912   3.783 -0.4444 -0.6434 -0.3003
 4907TIP3   OH214726   1.673   1.683   0.634  0.2942 -0.0229  0.0670
 4907TIP3    H114727   1.615   1.707   0.706 -0.4844 -0.5308 -0.3691
 4907TIP3    H214728   1.743   1.633   0.675 -2.0699 -3.6641  0.1571
 4908TIP3   OH214729   6.185   5.697   4.515 -0.2396 -0.3072 -0.1891
 4908TIP3    H114730   6.131   5.753   4.571  0.4825 -0.0879  0.3054
 4908TIP3    H214731   6.196   5.746   4.434 -0.0140  0.0536  0.0593
 4909TIP3   OH214732   5.546   3.710   3.153  0.2206  0.4553  0.0785
 4909TIP3    H114733   5.547   3.616   3.135  0.9401  0.4973 -0.1568
 4909TIP3    H214734   5.614   3.746   3.095 -1.7519  1.4825 -1.7177
 4910TIP3   OH214735   1.919   0.538   3.640 -0.0678 -0.5235  0.3706
 4910TIP3    H114736   1.988   0.574   3.585 -1.0778  1.7649  0.4881
 4910TIP3    H214737   1.882   0.614   3.685 -1.3332 -1.9375  1.8445
 4911TIP3   OH214738   3.133   5.626   3.719 -0.2579  0.1154  0.2699
 4911TIP3    H114739   3.074   5.593   3.652 -0.4046  1.8001 -0.4649
 4911TIP3    H214740   3.119   5.567   3.794 -0.4088 -1.5210 -0.9908
 4912TIP3   OH214741   2.934   4.203   4.309 -0.6287  0.1816 -0.4227
 4912TIP3    H114742   2.900   4.217   4.398  2.9960 -1.6368  1.4960
 4912TIP3    H214743   2.900   4.118   4.283  0.1963 -0.4076  0.3479
 4913TIP3   OH214744   2.844   1.643   1.250 -0.2638 -0.3925  0.0834
 4913TIP3    H114745   2.852   1.549   1.262 -0.3608 -0.3782  0.2576
 4913TIP3    H214746   2.869   1.681   1.334  2.4865 -0.1189 -0.7688
 4914TIP3   OH214747   4.480   2.841   2.396 -0.9634 -0.3825  0.1168
 4914TIP3    H114748   4.512   2.791   2.471  0.5929 -0.1194 -0.3194
 4914TIP3    H214749   4.407   2.893   2.430  0.2195  0.3344  1.6796
 4915TIP3   OH214750   1.291   4.815   0.485 -0.8534 -0.0175 -0.0437
 4915TIP3    H114751   1.333   4.824   0.400 -2.3181  1.7498 -0.6338
 4915TIP3    H214752   1.353   4.855   0.547  0.3603 -1.5949 -0.1656
 4916TIP3   OH214753   0.181   5.875   2.369  0.0116  0.4380 -0.2899
 4916TIP3    H114754   0.266   5.846   2.336  0.7514  2.3870 -0.2298
 4916TIP3    H214755   0.141   5.796   2.405  1.9231 -0.4702 -0.0345
 4917TIP3   OH214756   1.616   3.542   4.340  0.0049 -0.3190  0.3393
 4917TIP3    H114757   1.597   3.565   4.249  2.0801 -0.2246 -0.1171
 4917TIP3    H214758   1.623   3.447   4.340  0.6405 -0.2781  0.2439
 4918TIP3   OH214759   0.932   1.082   2.817 -0.1111  0.3962 -0.4994
 4918TIP3    H114760   0.852   1.029   2.819  0.0106  0.2350  0.9130
 4918TIP3    H214761   0.912   1.154   2.757  0.0601 -1.7162 -3.3514
 4919TIP3   OH214762   4.250   5.228   5.122 -0.6574 -0.0660  0.0886
 4919TIP3    H114763   4.229   5.303   5.177 -0.8313 -0.1868  0.1885
 4919TIP3    H214764   4.305   5.172   5.176 -0.9654 -0.2650  0.2009
 4920TIP3   OH214765   1.283   2.805   2.027  0.3056 -0.2266 -0.3929
 4920TIP3    H114766   1.298   2.715   2.056  1.2469 -0.0551 -0.3085
 4920TIP3    H214767   1.368   2.834   1.995 -0.3428  0.1156 -1.8893
 4921TIP3   OH214768   2.733   0.152   0.654 -0.6844  0.0027 -0.3279
 4921TIP3    H114769   2.640   0.174   0.650 -0.5598  0.6049 -0.0425
 4921TIP3    H214770   2.743   0.107   0.738 -0.6477  0.3063 -0.1666
 4922TIP3   OH214771   3.423   3.679   0.545 -0.2429  0.0955  0.0531
 4922TIP3    H114772   3.381   3.594   0.554  0.6213 -0.3902 -0.3919
 4922TIP3    H214773   3.385   3.716   0.465  0.7413 -0.6961 -0.8090
 4923TIP3   OH214774   0.019   4.072   2.058 -1.1925  0.2836  0.3438
 4923TIP3    H114775  -0.015   4.098   2.143 -0.1238  1.0645  0.5518
 4923TIP3    H214776   0.077   3.998   2.077  0.1084  1.2962  0.5187
 4924TIP3   OH214777   2.360   1.707   1.797  0.6951  0.0259 -0.1769
 4924TIP3    H114778   2.452   1.712   1.769  1.0595  2.3451  1.1559
 4924TIP3    H214779   2.361   1.738   1.887 -1.4000  0.0755 -0.1322
 4925TIP3   OH214780   0.446   5.699   1.393 -0.2891 -0.2878 -0.4924
 4925TIP3    H114781   0.388   5.665   1.325  0.3904  0.4920 -1.4977
 4925TIP3    H214782   0.445   5.794   1.380  1.6752 -0.2948 -0.9380
 4926TIP3   OH214783   3.703   2.644   4.047  0.3657 -0.0855 -0.4125
 4926TIP3    H114784   3.738   2.719   3.999  1.0785  0.7372  1.2978
 4926TIP3    H214785   3.747   2.568   4.008  0.5447  0.4871 -1.3612
 4927TIP3   OH214786   5.084   5.865   3.714 -0.3498 -0.1108  0.5499
 4927TIP3    H114787   5.057   5.794   3.656  2.0006 -0.9149  0.3027
 4927TIP3    H214788   5.140   5.921   3.660  1.2466 -0.4403  1.7762
 4928TIP3   OH214789   4.850   5.897   4.586  0.3552  0.2936 -0.3088
 4928TIP3    H114790   4.841   5.811   4.627 -1.3085 -0.1348 -1.4623
 4928TIP3    H214791   4.865   5.957   4.659 -2.0929 -0.4898  0.9768
 4929TIP3   OH214792   0.777   4.645   3.641 -0.7355 -0.1775  0.3947
 4929TIP3    H114793   0.809   4.730   3.611  2.2814 -0.8940  1.2645
 4929TIP3    H214794   0.824   4.582   3.587  0.0264 -1.3322  2.3252
 4930TIP3   OH214795   1.358   2.443   2.328  0.5458 -0.0870  0.3172
 4930TIP3    H114796   1.331   2.534   2.335  0.9103 -0.0920  2.4040
 4930TIP3    H214797   1.305   2.407   2.256 -1.0073  1.2517  0.7465
 4931TIP3   OH214798   0.317   5.507   3.340  0.3596  0.3403 -0.1537
 4931TIP3    H114799   0.394   5.464   3.378  1.5278 -0.1067 -2.8188
 4931TIP3    H214800   0.311   5.472   3.251 -2.5837  0.8678 -0.2811
 4932TIP3   OH214801   1.965   1.234   4.264  0.3269 -0.6484 -0.3584
 4932TIP3    H114802   1.893   1.274   4.314 -1.1082 -1.9115 -1.3292
 4932TIP3    H214803   1.977   1.292   4.189 -0.1252 -0.7722 -0.5287
 4933TIP3   OH214804   1.431   0.406   1.466 -0.6864 -0.1100  0.3310
 4933TIP3    H114805   1.448   0.470   1.535 -0.5439  0.4651 -0.2300
 4933TIP3    H214806   1.335   0.403   1.458 -0.6776  1.9809 -1.4009
 4934TIP3   OH214807   5.820   4.394   1.880 -0.0181 -0.1432 -0.4193
 4934TIP3    H114808   5.859   4.391   1.968  0.4484  0.6614 -0.5956
 4934TIP3    H214809   5.888   4.432   1.825 -0.4669 -0.2561 -1.0544
 4935TIP3   OH214810   0.508   1.959   0.254  0.1166 -0.2715  0.6421
 4935TIP3    H114811   0.478   2.016   0.183  1.1407 -0.9793 -0.3794
 4935TIP3    H214812   0.451   1.882   0.249 -0.3111  0.0072  1.0945
 4936TIP3   OH214813   0.049   4.172   3.646 -0.1701 -0.3993  0.5256
 4936TIP3    H114814  -0.004   4.113   3.593 -1.3323 -0.8835  2.1411
 4936TIP3    H214815  -0.013   4.236   3.681  0.7805  0.6949  0.2905
 4937TIP3   OH214816   0.705   2.530   1.402  0.4829  0.4223  0.1992
 4937TIP3    H114817   0.778   2.554   1.345  0.9651 -0.1267  0.5766
 4937TIP3    H214818   0.656   2.465   1.352  1.3284 -0.6180  0.6904
 4938TIP3   OH214819   5.030   2.000   3.357  0.1974 -0.0008  0.3052
 4938TIP3    H114820   5.065   1.968   3.274  0.7656  0.3974  0.3828
 4938TIP3    H214821   5.001   2.089   3.337  0.7049  0.2415  0.6214
 4939TIP3   OH214822   1.463   5.275   3.394 -0.1719 -0.0307  0.2615
 4939TIP3    H114823   1.433   5.192   3.430 -1.9942  0.9649  1.1845
 4939TIP3    H214824   1.529   5.305   3.457 -0.2721 -0.2833  0.4912
 4940TIP3   OH214825   0.246   2.584   0.217 -0.3756 -0.0966  0.9159
 4940TIP3    H114826   0.198   2.660   0.184  0.8558  0.6061  0.6485
 4940TIP3    H214827   0.313   2.567   0.150 -0.0916 -0.8771  1.3811
 4941TIP3   OH214828   4.797   0.052   1.762 -0.8203 -0.3816  0.1684
 4941TIP3    H114829   4.741  -0.025   1.774 -0.0052 -0.9636  0.2628
 4941TIP3    H214830   4.872   0.020   1.712 -0.9893  0.5913 -0.7411
 4942TIP3   OH214831   4.122   1.639   0.544  0.0373 -0.0022  0.0906
 4942TIP3    H114832   4.181   1.715   0.547 -0.5286  0.4825 -0.5943
 4942TIP3    H214833   4.117   1.609   0.634  1.8439 -0.4686  0.0720
 4943TIP3   OH214834   4.233   5.454   0.936  0.0528  0.2028  0.1180
 4943TIP3    H114835   4.197   5.434   1.022  0.3817 -0.9301  0.0122
 4943TIP3    H214836   4.310   5.507   0.953  0.7856 -0.9813  0.6137
 4944TIP3   OH214837   3.812   5.304   2.569 -0.3213  0.2776 -0.4123
 4944TIP3    H114838   3.766   5.313   2.485  1.5807 -0.1603 -1.5657
 4944TIP3    H214839   3.886   5.364   2.561  1.0687 -1.2983  0.0761
 4945TIP3   OH214840   3.018   0.767   0.755 -0.1875 -0.0044 -0.1263
 4945TIP3    H114841   3.098   0.791   0.803 -0.4124 -0.2358  0.3794
 4945TIP3    H214842   2.980   0.696   0.807 -0.0813 -0.7394 -1.0295
 4946TIP3   OH214843   3.120   3.950   0.511 -0.1083  0.5820 -0.1232
 4946TIP3    H114844   3.057   3.987   0.574  0.3288  1.4976 -0.2109
 4946TIP3    H214845   3.067   3.893   0.456 -0.5066 -0.2024  1.0446
 4947TIP3   OH214846   5.867   1.751   4.934 -0.1317 -0.2341 -0.0267
 4947TIP3    H114847   5.859   1.683   5.000  1.5762 -0.0061  0.4609
 4947TIP3    H214848   5.867   1.704   4.851 -0.7589 -0.6544  0.2056
 4948TIP3   OH214849   3.190   2.037   4.079  0.6123  0.1172  0.3689
 4948TIP3    H114850   3.163   2.011   4.167  2.6476 -1.4598  0.5953
 4948TIP3    H214851   3.124   1.998   4.022 -0.6404  1.0221  1.1583
 4949TIP3   OH214852   5.640   0.175   0.650 -0.2752 -0.1091  0.5366
 4949TIP3    H114853   5.572   0.236   0.677  1.0307  1.4739  0.4479
 4949TIP3    H214854   5.593   0.099   0.616 -1.9897  1.0805  0.1082
 4950TIP3   OH214855   0.318   5.539   1.916  0.4477 -0.1071  0.3072
 4950TIP3    H114856   0.260   5.604   1.955 -1.0696 -0.3438 -1.4360
 4950TIP3    H214857   0.398   5.544   1.969 -0.1934  2.0489  1.1892
 4951TIP3   OH214858   0.347   3.696   4.294  0.2008 -0.3830  0.6427
 4951TIP3    H114859   0.430   3.726   4.331  0.6515 -1.4490  0.5371
 4951TIP3    H214860   0.283   3.762   4.321  1.2218  0.9200  0.0111
 4952TIP3   OH214861   2.335   0.333   4.274 -0.4921  0.3445  0.8416
 4952TIP3    H114862   2.315   0.419   4.237 -0.4438 -0.6498 -1.6952
 4952TIP3    H214863   2.427   0.339   4.301  1.0555 -0.0954 -3.5252
 4953TIP3   OH214864   2.778   4.397   4.169  0.3154  0.2716 -0.5991
 4953TIP3    H114865   2.817   4.325   4.218  0.9238  0.8624 -0.2058
 4953TIP3    H214866   2.729   4.354   4.099 -0.9062 -0.6115  0.7365
 4954TIP3   OH214867   4.616   4.324   3.039  0.2756  0.5072  0.1637
 4954TIP3    H114868   4.627   4.292   3.129  0.1974 -1.3236 -0.4232
 4954TIP3    H214869   4.705   4.338   3.008  0.4303 -0.9454 -0.1329
 4955TIP3   OH214870   4.341   0.826   1.617  0.2265  0.2837 -0.0564
 4955TIP3    H114871   4.359   0.913   1.583 -0.3418  0.3090 -0.3004
 4955TIP3    H214872   4.354   0.768   1.543  0.1696  0.2103 -0.0090
 4956TIP3   OH214873   3.415   3.228   0.175  0.7410 -0.5897  0.7236
 4956TIP3    H114874   3.401   3.296   0.110 -1.0391 -1.8967 -0.3534
 4956TIP3    H214875   3.493   3.181   0.146  0.9196 -0.1289  0.4590
 4957TIP3   OH214876   0.180   4.152   5.020 -0.3442  0.6750  0.2247
 4957TIP3    H114877   0.150   4.242   5.005  2.1154  1.3069 -1.3890
 4957TIP3    H214878   0.124   4.099   4.963 -1.2837  1.2377  0.5868
 4958TIP3   OH214879   1.212   2.216   5.151 -0.1540  0.1838  0.0965
 4958TIP3    H114880   1.231   2.292   5.096  0.4626 -0.7830 -1.0760
 4958TIP3    H214881   1.297   2.191   5.188 -0.7622  1.7800  2.8874
 4959TIP3   OH214882   2.481   5.649   4.518  0.3269  0.7399  0.1327
 4959TIP3    H114883   2.528   5.731   4.534  0.2048  0.7022  0.7352
 4959TIP3    H214884   2.485   5.636   4.423 -0.2537  1.8060 -0.0502
 4960TIP3   OH214885   5.904   5.799   1.983  0.1945 -0.7383  1.0903
 4960TIP3    H114886   5.881   5.849   2.062 -0.5270 -1.0554  1.0858
 4960TIP3    H214887   5.942   5.864   1.924 -0.1426 -0.3139  1.3337
 4961TIP3   OH214888   5.609   5.025   4.752 -1.0147 -0.1607  0.0426
 4961TIP3    H114889   5.694   5.020   4.796 -1.4089  2.1370  1.2043
 4961TIP3    H214890   5.545   5.010   4.821 -1.6387 -2.4999 -0.9346
 4962TIP3   OH214891   1.598   3.142   0.783 -0.3743  0.4294 -0.2832
 4962TIP3    H114892   1.569   3.056   0.815  0.3864  0.3401  0.1962
 4962TIP3    H214893   1.687   3.127   0.751  0.3752  1.3399  1.2407
 4963TIP3   OH214894   0.049   2.883   4.659  0.5291 -0.2072 -0.5730
 4963TIP3    H114895   0.097   2.947   4.606 -1.7379  0.4637 -1.9767
 4963TIP3    H214896   0.094   2.801   4.643  1.8746  0.5624 -0.9094
 4964TIP3   OH214897   0.835   3.560   3.605  0.1629 -0.3579 -0.2410
 4964TIP3    H114898   0.808   3.651   3.617  1.5626  0.0050  0.3614
 4964TIP3    H214899   0.760   3.508   3.634 -0.3549  0.6042  0.1672
 4965TIP3   OH214900   5.100   5.050   4.641  0.1933 -0.0708 -0.0669
 4965TIP3    H114901   5.100   5.137   4.601  2.2591 -0.3072 -0.6963
 4965TIP3    H214902   5.038   4.999   4.588 -2.4759  1.4020  1.4155
 4966TIP3   OH214903   1.970   1.527   5.015 -0.7055 -0.0959 -0.0666
 4966TIP3    H114904   1.947   1.556   4.927 -2.1224 -1.0880 -0.0401
 4966TIP3    H214905   2.022   1.448   5.001 -0.6006 -0.0367 -0.0139
 4967TIP3   OH214906   5.575   0.231   2.411 -0.0046  0.4794 -0.1822
 4967TIP3    H114907   5.553   0.297   2.477 -0.5626  0.6721 -0.5546
 4967TIP3    H214908   5.529   0.259   2.332 -1.7594 -1.3123  0.1158
 4968TIP3   OH214909   3.952   2.861   2.260 -0.3902 -0.0195  0.2480
 4968TIP3    H114910   3.984   2.934   2.314 -0.0275 -0.9171  1.2800
 4968TIP3    H214911   3.956   2.895   2.170 -0.3118  1.2556  0.7063
 4969TIP3   OH214912   1.031   3.576   0.155 -0.0821 -0.5084 -0.1226
 4969TIP3    H114913   1.093   3.511   0.187  1.9565  0.9618 -0.8447
 4969TIP3    H214914   1.028   3.562   0.060  0.5892  0.5608 -0.3242
 4970TIP3   OH214915   1.918   0.836   3.692  0.3137  0.1317 -0.2164
 4970TIP3    H114916   1.889   0.907   3.750 -0.5180 -0.3615 -0.0081
 4970TIP3    H214917   1.984   0.876   3.636  0.7819  0.7466  0.7457
 4971TIP3   OH214918   3.706   3.264   0.533 -0.0250  0.1677 -0.9162
 4971TIP3    H114919   3.783   3.225   0.493 -0.4041  0.4555 -1.9450
 4971TIP3    H214920   3.633   3.234   0.479 -0.6742 -0.2383  0.1328
 4972TIP3   OH214921   1.879   1.461   2.628 -0.0112 -0.6042  0.4082
 4972TIP3    H114922   1.962   1.414   2.634  0.2761 -0.5060 -1.8360
 4972TIP3    H214923   1.902   1.543   2.584 -1.0594  0.1099  1.1636
 4973TIP3   OH214924   5.092   5.177   4.271  0.0514 -0.1109 -0.1043
 4973TIP3    H114925   5.035   5.156   4.346 -0.7806 -1.0510 -0.9742
 4973TIP3    H214926   5.032   5.208   4.203  0.8349  1.0343 -0.3136
 4974TIP3   OH214927   1.426   2.056   0.340 -0.5040  0.1895 -0.0591
 4974TIP3    H114928   1.390   2.087   0.424 -2.2810  1.1701 -1.1227
 4974TIP3    H214929   1.515   2.092   0.339 -0.4839  0.2616  1.3508
 4975TIP3   OH214930   4.858   4.297   1.681  0.2943  0.8289  0.4217
 4975TIP3    H114931   4.774   4.264   1.648  0.1930  0.5417  0.9529
 4975TIP3    H214932   4.881   4.368   1.622  0.4559 -0.1088 -0.6832
 4976TIP3   OH214933   4.329   1.086   3.259 -0.3222 -0.3928  0.1485
 4976TIP3    H114934   4.302   1.086   3.167  0.7873  0.5688 -0.1964
 4976TIP3    H214935   4.252   1.119   3.306 -0.9035 -0.9080 -0.4113
 4977TIP3   OH214936   2.497   0.507   2.129 -0.0195  0.4494  0.4788
 4977TIP3    H114937   2.516   0.417   2.156 -2.1906 -0.1603  0.1692
 4977TIP3    H214938   2.463   0.549   2.208 -1.3262  0.2401  0.0524
 4978TIP3   OH214939   3.389   3.022   1.379  0.5726 -0.2605 -0.2672
 4978TIP3    H114940   3.483   3.041   1.375  0.6105  0.5793  2.3091
 4978TIP3    H214941   3.369   2.980   1.296  3.1361 -0.0602 -1.0750
 4979TIP3   OH214942   5.216   2.475   1.316 -0.9293 -0.5597  0.4017
 4979TIP3    H114943   5.148   2.534   1.285 -0.3165 -0.0798 -0.0468
 4979TIP3    H214944   5.241   2.510   1.402  1.4882  1.6765 -1.0397
 4980TIP3   OH214945   0.406   5.157   3.573 -0.3274  0.2822  0.8433
 4980TIP3    H114946   0.490   5.112   3.583  0.0341  0.4210 -1.1873
 4980TIP3    H214947   0.426   5.248   3.592 -0.0250  0.2964  0.4777
 4981TIP3   OH214948   1.988   2.880   2.969  0.0945  0.1400  0.1516
 4981TIP3    H114949   1.917   2.871   2.906  0.7000  0.4465 -0.5884
 4981TIP3    H214950   1.956   2.943   3.034 -1.0351 -1.1355  0.8912
 4982TIP3   OH214951   5.263   0.904   5.064  0.2515 -0.4323  0.0211
 4982TIP3    H114952   5.264   0.851   4.985  0.1576 -0.1629 -0.1627
 4982TIP3    H214953   5.248   0.841   5.135 -0.3603 -0.5952 -0.2433
 4983TIP3   OH214954   5.524   2.395   4.166 -0.4078  0.0918 -0.3394
 4983TIP3    H114955   5.547   2.314   4.211 -0.4281  0.4126  0.2549
 4983TIP3    H214956   5.608   2.436   4.145 -0.3997  0.6238  0.6660
 4984TIP3   OH214957   6.224   1.089   2.370 -0.4312 -0.3246  0.0899
 4984TIP3    H114958   6.145   1.134   2.339 -0.9513  0.2214  2.0643
 4984TIP3    H214959   6.226   1.107   2.463  1.6080 -1.0450  0.2175
 4985TIP3   OH214960   1.058   1.790   3.975  0.4952  0.3456  0.2026
 4985TIP3    H114961   1.066   1.879   4.008 -0.8258  1.8018 -3.0119
 4985TIP3    H214962   0.970   1.763   4.000  0.1195  0.7985 -0.5820
 4986TIP3   OH214963   1.478   1.145   0.690  0.1866 -0.0869  0.6910
 4986TIP3    H114964   1.401   1.088   0.688 -0.4162  0.7202  0.4500
 4986TIP3    H214965   1.454   1.220   0.636  1.8550 -0.6892 -0.9635
 4987TIP3   OH214966   1.311   2.811   4.648 -0.0746 -0.1932 -0.1797
 4987TIP3    H114967   1.318   2.792   4.555  2.6520 -1.3700  0.1939
 4987TIP3    H214968   1.243   2.751   4.679  1.6663 -2.6590 -0.7940
 4988TIP3   OH214969   5.374   2.997   3.693 -0.1882 -0.2570 -0.6959
 4988TIP3    H114970   5.328   3.007   3.776  1.4377  1.8477  0.0734
 4988TIP3    H214971   5.329   2.926   3.648 -2.0905 -0.4329  1.3191
 4989TIP3   OH214972   2.608   3.115   1.709 -0.1212  0.4609 -0.0826
 4989TIP3    H114973   2.669   3.052   1.748  0.4024  1.0180  0.0302
 4989TIP3    H214974   2.521   3.082   1.731  0.1563  0.3059  0.8324
 4990TIP3   OH214975   6.075   1.692   2.086 -0.0379 -0.7378  0.3014
 4990TIP3    H114976   6.114   1.760   2.141  1.9192 -1.1842 -0.4598
 4990TIP3    H214977   6.100   1.610   2.127 -2.6972 -1.0819  1.4213
 4991TIP3   OH214978   3.480   3.277   2.802 -0.1633  0.2934 -0.0249
 4991TIP3    H114979   3.427   3.351   2.773 -0.2253 -0.3831 -1.7221
 4991TIP3    H214980   3.424   3.201   2.789 -0.3152 -0.0576  2.2392
 4992TIP3   OH214981   2.026   4.204   2.535 -0.4085 -0.0601  0.3197
 4992TIP3    H114982   1.951   4.256   2.564  0.4722  0.5626  1.5598
 4992TIP3    H214983   2.088   4.268   2.502  0.6193 -0.2937  1.7103
 4993TIP3   OH214984   4.269   1.067   4.613 -0.3726  0.0312 -0.2008
 4993TIP3    H114985   4.175   1.074   4.598 -0.2612  1.8667 -0.3126
 4993TIP3    H214986   4.303   1.155   4.593  1.0020  0.1531  2.3021
 4994TIP3   OH214987   3.221   2.156   2.409  0.1062  0.4181  0.0738
 4994TIP3    H114988   3.268   2.135   2.490  1.4137  2.1567 -0.1645
 4994TIP3    H214989   3.237   2.249   2.396 -1.2163  0.4666 -1.4825
 4995TIP3   OH214990   4.653   2.534   0.543 -0.1296 -0.2165  0.2852
 4995TIP3    H114991   4.661   2.453   0.491 -0.0664 -0.3153  0.4480
 4995TIP3    H214992   4.630   2.503   0.631 -0.1909 -0.0518  0.3261
 4996TIP3   OH214993   4.619   1.224   0.252  0.3952 -0.4199  0.2417
 4996TIP3    H114994   4.527   1.249   0.252  0.5018 -0.0161  0.3391
 4996TIP3    H214995   4.644   1.226   0.344  0.8435  0.7941  0.1138
 4997TIP3   OH214996   4.892   4.996   0.867  0.1914 -0.2898 -0.2619
 4997TIP3    H114997   4.805   5.034   0.859  1.0261  1.6909 -0.5108
 4997TIP3    H214998   4.880   4.903   0.848 -1.6953  0.1140 -1.2479
 4998TIP3   OH214999   6.348   1.898   0.468  0.4649 -0.0981 -0.1585
 4998TIP3    H115000   6.281   1.904   0.401 -0.3086  0.2354  0.6228
 4998TIP3    H215001   6.425   1.939   0.429 -0.0541  0.3493 -0.7367
 4999TIP3   OH215002   0.391   0.183   0.252 -0.1783  0.9900  0.2336
 4999TIP3    H115003   0.399   0.201   0.159  1.3616 -1.1923 -0.1365
 4999TIP3    H215004   0.467   0.226   0.292  0.8425 -0.5355  0.0123
 5000TIP3   OH215005   0.707   2.688   3.516  0.0062  0.5492  0.1270
 5000TIP3    H115006   0.788   2.666   3.560 -0.8013 -0.6300  1.0702
 5000TIP3    H215007   0.704   2.784   3.517  2.0369  0.6702 -1.1834
 5001TIP3   OH215008   2.101   4.635   1.839 -0.1575  0.7423 -0.7098
 5001TIP3    H115009   2.016   4.595   1.821  0.2090 -0.5216  0.2754
 5001TIP3    H215010   2.158   4.602   1.769  0.0899 -0.3350 -0.0254
 5002TIP3   OH215011   1.832   3.916   0.641  0.1310  0.1676  0.1326
 5002TIP3    H115012   1.906   3.859   0.660  2.5587  2.7531 -0.9104
 5002TIP3    H215013   1.825   3.973   0.718  0.6020  1.2532 -0.5979
 5003TIP3   OH215014   5.914   3.282   1.083  0.1297 -0.0513  0.5244
 5003TIP3    H115015   5.995   3.252   1.042  0.0886 -1.2279  1.2833
 5003TIP3    H215016   5.924   3.261   1.176 -0.7203  0.5198  0.7619
 5004TIP3   OH215017   0.500   4.097   3.622 -0.3166 -0.6433 -0.5536
 5004TIP3    H115018   0.505   4.188   3.593 -0.6006 -0.7333 -0.8881
 5004TIP3    H215019   0.417   4.091   3.669  0.2288 -0.4456  0.4922
 5005TIP3   OH215020   5.649   5.511   4.486 -0.2269  0.1589 -0.2635
 5005TIP3    H115021   5.644   5.455   4.564 -0.8736  1.9037  0.9969
 5005TIP3    H215022   5.734   5.554   4.492 -0.0457 -0.1038 -0.8348
 5006TIP3   OH215023   2.927   5.763   0.841  0.5546  0.4335 -0.1948
 5006TIP3    H115024   2.994   5.695   0.841  0.0727 -0.1799  2.7765
 5006TIP3    H215025   2.846   5.716   0.861  0.1708  1.7891  1.6829
 5007TIP3   OH215026   2.463   0.808   2.837 -0.0853  0.4009 -0.0889
 5007TIP3    H115027   2.443   0.871   2.906 -0.9873 -0.1245  0.1393
 5007TIP3    H215028   2.378   0.787   2.797  0.0408 -1.4184  0.5050
 5008TIP3   OH215029   4.743   4.631   1.318  0.7016  0.0917  0.8797
 5008TIP3    H115030   4.649   4.644   1.307  0.6804 -0.1802  0.7412
 5008TIP3    H215031   4.783   4.705   1.273  0.5817 -0.3645  0.0006
 5009TIP3   OH215032   1.900   0.901   5.189 -0.4172 -0.2409  0.3059
 5009TIP3    H115033   1.968   0.905   5.121 -0.7446  1.1685  0.0448
 5009TIP3    H215034   1.916   0.817   5.232 -0.6650 -1.5601 -1.9759
 5010TIP3   OH215035   3.463   3.432   4.379 -0.1102  0.0854  0.1358
 5010TIP3    H115036   3.393   3.429   4.314 -0.1281 -0.3449  0.1767
 5010TIP3    H215037   3.543   3.443   4.328 -0.1997  0.5856  0.0893
 5011TIP3   OH215038   1.141   5.591   0.456 -0.0600  0.1349  0.4150
 5011TIP3    H115039   1.094   5.674   0.448 -0.3888  0.2729  2.9454
 5011TIP3    H215040   1.088   5.528   0.407 -1.3701  0.8680  0.8567
 5012TIP3   OH215041   5.173   0.975   1.032  0.1655  0.6265  0.5827
 5012TIP3    H115042   5.252   0.988   1.084  1.2846  2.9684 -1.5231
 5012TIP3    H215043   5.205   0.945   0.947 -1.4400 -0.7615  0.4160
 5013TIP3   OH215044   4.677   4.862   1.714  0.6482  0.1237  0.4711
 5013TIP3    H115045   4.594   4.902   1.688  0.2227 -1.3446 -0.5144
 5013TIP3    H215046   4.665   4.842   1.807  0.3329  0.9359  0.6155
 5014TIP3   OH215047   2.285   5.852   2.603 -0.2411 -0.1847 -0.2945
 5014TIP3    H115048   2.299   5.856   2.698 -0.5487 -0.0100 -0.2529
 5014TIP3    H215049   2.209   5.795   2.592 -1.0613  0.8691 -0.3347
 5015TIP3   OH215050   1.826   3.387   2.116 -0.1145  0.3497  0.0477
 5015TIP3    H115051   1.834   3.432   2.200 -1.0643  1.3525 -0.3643
 5015TIP3    H215052   1.756   3.435   2.070 -0.0875 -0.6049 -1.0337
 5016TIP3   OH215053   2.191   2.926   4.790 -0.3266  0.2367 -0.2254
 5016TIP3    H115054   2.222   2.853   4.736 -0.4462  0.5700 -0.7553
 5016TIP3    H215055   2.257   2.994   4.778  0.1511 -0.0274  0.8275
 5017TIP3   OH215056   1.211   3.735   4.755 -0.2917  0.1115 -0.2639
 5017TIP3    H115057   1.288   3.780   4.791  0.3233 -0.6733 -0.5630
 5017TIP3    H215058   1.147   3.805   4.741  1.4235  1.3062 -2.8622
 5018TIP3   OH215059   5.383   3.722   0.159 -0.2856 -0.3707 -0.0334
 5018TIP3    H115060   5.331   3.750   0.084 -0.2444 -0.5573 -0.1336
 5018TIP3    H215061   5.390   3.627   0.148  0.2071 -0.3278 -0.1031
 5019TIP3   OH215062   4.300   0.263   3.252 -0.2053  0.2428 -0.0156
 5019TIP3    H115063   4.230   0.238   3.312  0.8752 -1.1911  0.7150
 5019TIP3    H215064   4.365   0.306   3.308  0.3573 -0.1895 -0.3276
 5020TIP3   OH215065   5.195   1.942   0.500  0.3551 -0.5835 -0.7093
 5020TIP3    H115066   5.211   2.025   0.545  3.1100 -0.4993 -1.6496
 5020TIP3    H215067   5.125   1.962   0.438 -1.3166  0.1074  1.2700
 5021TIP3   OH215068   3.203   1.444   3.942 -0.0969 -0.7009 -0.2472
 5021TIP3    H115069   3.142   1.516   3.925  0.1813  0.2634  2.3839
 5021TIP3    H215070   3.170   1.403   4.022  2.6113 -0.1020  1.3222
 5022TIP3   OH215071   6.094   0.369   0.793  0.5421  0.1727  0.3261
 5022TIP3    H115072   6.189   0.381   0.796  0.4165  4.2375 -2.6612
 5022TIP3    H215073   6.075   0.352   0.700 -1.6843 -0.5810  0.8486
 5023TIP3   OH215074   3.587   5.059   2.450  0.3042  0.4576  0.4340
 5023TIP3    H115075   3.562   5.049   2.358 -0.9725 -1.3132  0.9249
 5023TIP3    H215076   3.521   5.117   2.487  1.3872  1.9891  0.0547
 5024TIP3   OH215077   3.927   4.943   1.652 -0.6973 -0.0847  0.1556
 5024TIP3    H115078   3.939   5.035   1.676  0.9618 -0.2204 -0.0288
 5024TIP3    H215079   3.892   4.945   1.563 -1.5837  0.3598  0.4991
 5025TIP3   OH215080   4.512   5.277   2.420  0.4970  0.1859  0.2504
 5025TIP3    H115081   4.421   5.250   2.430  0.3321  0.5358 -0.2706
 5025TIP3    H215082   4.562   5.214   2.471 -0.0151 -0.1686  0.3147
 5026TIP3   OH215083   4.793   1.710   0.025  0.5335  0.2527  0.1503
 5026TIP3    H115084   4.853   1.712  -0.049 -0.6072  0.1409 -0.8063
 5026TIP3    H215085   4.840   1.754   0.095  1.4062  0.9348 -0.8320
 5027TIP3   OH215086   3.585   4.575   3.151 -0.2831  0.5477  0.2494
 5027TIP3    H115087   3.579   4.483   3.177  2.0363  0.1148 -0.5667
 5027TIP3    H215088   3.606   4.573   3.058 -1.7941  1.9668 -0.1671
 5028TIP3   OH215089   2.113   4.039   4.793  0.3970 -0.4825  0.7963
 5028TIP3    H115090   2.067   4.063   4.712  1.3317  1.5899  0.8149
 5028TIP3    H215091   2.044   4.009   4.852 -0.5556 -0.0973 -0.0925
 5029TIP3   OH215092   3.102   0.291   2.839 -0.1280 -0.0878 -0.2155
 5029TIP3    H115093   3.022   0.258   2.801  0.1462 -0.9445 -0.0595
 5029TIP3    H215094   3.171   0.267   2.778  0.0408  0.4969 -0.2691
 5030TIP3   OH215095   2.352   3.735   2.479  0.9742 -0.5218  0.7545
 5030TIP3    H115096   2.264   3.701   2.467  0.9586 -0.6080  1.1282
 5030TIP3    H215097   2.341   3.816   2.529  0.9546  0.3542 -0.5907
 5031TIP3   OH215098   1.771   1.234   1.076  0.3963 -0.0612 -0.8417
 5031TIP3    H115099   1.702   1.190   1.026  0.9185 -2.4557  0.3924
 5031TIP3    H215100   1.749   1.216   1.168  1.0646  1.7070 -0.2999
 5032TIP3   OH215101   6.246   2.218   3.552  0.0509  0.1555  0.0233
 5032TIP3    H115102   6.183   2.230   3.623  0.3671  0.4180  0.2582
 5032TIP3    H215103   6.204   2.154   3.494  0.3513 -1.0747  1.1226
 5033TIP3   OH215104   6.319   1.809   2.716 -0.1097 -0.9106  0.3918
 5033TIP3    H115105   6.285   1.874   2.776  1.4451 -1.7857  2.3473
 5033TIP3    H215106   6.242   1.774   2.671 -1.0390  1.7088 -0.2172
 5034TIP3   OH215107   2.836   2.829   3.937 -0.0821  0.1180  0.1120
 5034TIP3    H115108   2.841   2.924   3.950 -0.9248  0.5205 -2.0808
 5034TIP3    H215109   2.752   2.805   3.976 -0.2224  0.4063 -0.0043
 5035TIP3   OH215110   5.626   3.508   4.035  0.0246 -0.7239 -0.5124
 5035TIP3    H115111   5.642   3.532   3.943 -1.4443  1.6415 -0.2351
 5035TIP3    H215112   5.536   3.538   4.052  0.3352 -0.9257  1.7520
 5036TIP3   OH215113   3.626   1.405   3.866 -0.4605  0.1404 -0.4140
 5036TIP3    H115114   3.647   1.312   3.879  1.6056  0.6613  0.3225
 5036TIP3    H215115   3.596   1.410   3.776 -0.5781 -1.2453 -0.4792
 5037TIP3   OH215116   4.707   4.912   2.769  0.4582  0.0305  0.2680
 5037TIP3    H115117   4.736   4.989   2.819  0.7644 -1.3916  2.3796
 5037TIP3    H215118   4.618   4.896   2.799  0.8117 -1.1194  0.7434
 5038TIP3   OH215119   5.559   5.413   1.551  0.1973 -0.6383 -0.5908
 5038TIP3    H115120   5.622   5.481   1.526 -0.0473  0.2914  1.1698
 5038TIP3    H215121   5.601   5.331   1.525  0.8868  0.1251 -1.9693
 5039TIP3   OH215122   4.430   3.090   0.556 -0.4241 -0.0346  0.3688
 5039TIP3    H115123   4.351   3.044   0.585 -1.2336  2.5091  2.5267
 5039TIP3    H215124   4.403   3.181   0.546  1.4037  0.3234 -2.5853
 5040TIP3   OH215125   1.062   0.129   0.475  0.1666  0.0853  0.2994
 5040TIP3    H115126   1.153   0.125   0.444  0.4767 -2.8859  1.3018
 5040TIP3    H215127   1.062   0.078   0.556 -2.0810  1.5690  1.3326
 5041TIP3   OH215128   4.376   4.755   1.800 -0.0757 -0.1771  0.1568
 5041TIP3    H115129   4.316   4.816   1.844 -1.4609 -0.6905 -0.9453
 5041TIP3    H215130   4.454   4.754   1.856 -0.8311  1.0088  1.3002
 5042TIP3   OH215131   2.831   4.451   3.258 -0.0719 -0.1799 -0.5651
 5042TIP3    H115132   2.799   4.361   3.269 -1.3223  0.1039 -1.6424
 5042TIP3    H215133   2.797   4.478   3.173 -0.1887  1.5127 -0.0119
 5043TIP3   OH215134   4.841   3.159   4.622  0.2409 -0.1800  0.4256
 5043TIP3    H115135   4.902   3.151   4.549  0.3715  2.0990  0.2149
 5043TIP3    H215136   4.888   3.210   4.688  0.0771 -2.0705  2.1159
 5044TIP3   OH215137   0.077   3.617   3.905  0.1408  0.0559 -0.0665
 5044TIP3    H115138   0.049   3.552   3.970  0.7142 -0.6871 -0.5463
 5044TIP3    H215139   0.171   3.626   3.920  0.1015  0.6169 -0.1521
 5045TIP3   OH215140   3.135   0.956   4.251  0.4780  0.3176 -0.3441
 5045TIP3    H115141   3.150   0.976   4.343  0.4234  1.4792 -0.5808
 5045TIP3    H215142   3.198   1.010   4.204  0.1481  0.1248 -1.0237
 5046TIP3   OH215143   5.327   3.742   0.786  0.0431 -0.1391  0.2072
 5046TIP3    H115144   5.288   3.758   0.700  1.2171 -1.0485 -0.5190
 5046TIP3    H215145   5.405   3.797   0.787  0.3814 -0.6157  0.4235
 5047TIP3   OH215146   1.924   3.794   0.372 -0.2489  0.2159  0.3871
 5047TIP3    H115147   1.855   3.727   0.377  1.0440 -1.1250  1.2613
 5047TIP3    H215148   1.905   3.853   0.445 -0.1031 -0.5342  1.0485
 5048TIP3   OH215149   2.320   5.148   4.281  0.1561  0.1132  1.0616
 5048TIP3    H115150   2.317   5.053   4.271  0.3414  0.0799  1.3275
 5048TIP3    H215151   2.231   5.177   4.262  0.7452  0.2022 -2.2649
 5049TIP3   OH215152   3.126   5.620   2.305 -0.2385 -0.3262  0.5543
 5049TIP3    H115153   3.040   5.582   2.287 -1.4824  2.8663 -0.9923
 5049TIP3    H215154   3.141   5.682   2.233  1.7172  1.7749  2.5868
 5050TIP3   OH215155   3.459   1.210   1.572 -0.0450 -0.0106 -0.3762
 5050TIP3    H115156   3.452   1.233   1.479  0.8116  2.6819  0.1421
 5050TIP3    H215157   3.552   1.190   1.585  0.0210  0.5848  0.0934
 5051TIP3   OH215158   6.302   2.974   0.847  0.0812 -0.2291 -0.1544
 5051TIP3    H115159   6.395   2.995   0.839 -0.1246 -0.0373 -2.7991
 5051TIP3    H215160   6.257   3.052   0.815 -0.9305 -1.0218 -0.7170
 5052TIP3   OH215161   3.894   1.245   4.106  0.1083 -0.8536 -0.8033
 5052TIP3    H115162   3.845   1.198   4.038 -1.9701  0.0999 -0.0486
 5052TIP3    H215163   3.830   1.259   4.176  1.3717  0.7925  0.0799
 5053TIP3   OH215164   5.471   5.446   5.159 -0.6929  0.2891  0.2489
 5053TIP3    H115165   5.432   5.533   5.166  0.9029  1.1115 -0.3782
 5053TIP3    H215166   5.531   5.441   5.233  0.4582  0.4364 -0.6364
 5054TIP3   OH215167   1.801   0.139   2.548  0.0900 -0.4701  0.1906
 5054TIP3    H115168   1.795   0.194   2.470  1.6695 -0.1032  0.2919
 5054TIP3    H215169   1.712   0.104   2.560 -0.3957  0.2118 -1.2113
 5055TIP3   OH215170   0.144   1.617   1.802  1.1063  0.4004 -0.0793
 5055TIP3    H115171   0.065   1.564   1.817  0.9032  0.7161 -0.0171
 5055TIP3    H215172   0.187   1.620   1.888  1.5992 -0.4271 -0.2936
 5056TIP3   OH215173   1.065   3.656   1.302 -0.1541  0.1337 -0.2763
 5056TIP3    H115174   1.089   3.653   1.395  0.3787 -0.0563 -0.4172
 5056TIP3    H215175   0.969   3.653   1.302 -0.1263 -1.7642  0.1855
 5057TIP3   OH215176   0.928   0.987   3.086  0.3386 -0.3342  0.4243
 5057TIP3    H115177   0.888   1.035   3.013 -1.8267 -0.2023  1.6214
 5057TIP3    H215178   0.917   1.044   3.161  0.2572 -1.5230  1.3407
 5058TIP3   OH215179   0.079   1.280   0.978 -0.0824 -0.4263  0.5096
 5058TIP3    H115180   0.041   1.351   0.927  1.4009  1.0122  1.3305
 5058TIP3    H215181   0.126   1.226   0.915  0.0981  0.2193  0.0924
 5059TIP3   OH215182   2.791   0.229   4.014 -0.0169 -0.2155 -0.3794
 5059TIP3    H115183   2.862   0.288   3.988  1.0056 -0.0202  2.4806
 5059TIP3    H215184   2.715   0.287   4.023  0.2175  0.1238 -0.5505
 5060TIP3   OH215185   0.431   2.182   4.246 -0.1176 -0.4512 -0.1925
 5060TIP3    H115186   0.526   2.174   4.257 -0.2240 -0.4069  0.9457
 5060TIP3    H215187   0.396   2.174   4.335 -1.1843 -0.4653 -0.5952
 5061TIP3   OH215188   5.106   3.713   2.849  0.1203 -0.4766 -0.4298
 5061TIP3    H115189   5.195   3.677   2.845  2.0029  3.7919 -2.1347
 5061TIP3    H215190   5.102   3.756   2.934 -0.9391 -1.8110  0.2361
 5062TIP3   OH215191   2.331   1.594   5.086  0.5109  0.6248 -0.7337
 5062TIP3    H115192   2.415   1.626   5.117  1.5313 -3.7192  1.7527
 5062TIP3    H215193   2.270   1.614   5.158  0.2399  0.5511 -0.9417
 5063TIP3   OH215194   3.954   2.539   1.063 -0.3734 -0.1630  0.0364
 5063TIP3    H115195   3.979   2.599   0.993 -0.0237 -1.0626 -0.6459
 5063TIP3    H215196   3.897   2.475   1.019 -1.0971 -0.0823  0.8340
 5064TIP3   OH215197   4.558   3.605   0.278 -0.3993  0.0072 -0.0237
 5064TIP3    H115198   4.617   3.565   0.215  2.4405  1.2902  1.6501
 5064TIP3    H215199   4.520   3.680   0.231 -1.3954 -1.2817 -1.3604
 5065TIP3   OH215200   0.887   1.208   3.250 -0.3573  0.3417  0.5034
 5065TIP3    H115201   0.892   1.249   3.164 -1.7960  0.5014  0.4698
 5065TIP3    H215202   0.935   1.268   3.308 -0.6750  1.0091  0.0842
 5066TIP3   OH215203   0.546   5.172   2.948 -0.1546  0.1499 -0.2036
 5066TIP3    H115204   0.493   5.104   2.990  0.4311  0.4074  0.9955
 5066TIP3    H215205   0.606   5.124   2.891  0.2154 -0.3482  0.5897
 5067TIP3   OH215206   1.085   4.162   1.620 -0.2476  0.4347  0.2209
 5067TIP3    H115207   0.994   4.173   1.648 -0.1170  1.1881  0.3636
 5067TIP3    H215208   1.131   4.237   1.657  0.3289  0.3508 -0.3094
 5068TIP3   OH215209   5.412   2.205   3.985  0.1386  0.5091  0.1890
 5068TIP3    H115210   5.327   2.178   4.020 -0.4072  1.2540 -0.5441
 5068TIP3    H215211   5.440   2.277   4.042  0.7027 -0.2974  0.9641
 5069TIP3   OH215212   2.648   3.675   3.268  0.0747  0.1436 -0.1083
 5069TIP3    H115213   2.705   3.716   3.333  1.2471 -0.7752 -0.5245
 5069TIP3    H215214   2.658   3.729   3.189  0.0425  0.2165 -0.0633
 5070TIP3   OH215215   0.360   0.569   5.131 -0.0060  0.4152 -0.2535
 5070TIP3    H115216   0.266   0.583   5.149  0.2099  2.4032 -0.4769
 5070TIP3    H215217   0.361   0.509   5.056 -1.1446  1.3543 -1.0635
 5071TIP3   OH215218   2.330   1.754   1.182 -0.4230 -0.4194  0.2417
 5071TIP3    H115219   2.273   1.715   1.116 -0.1294  0.4466 -0.5452
 5071TIP3    H215220   2.418   1.733   1.153 -0.2804 -2.6918  2.0226
 5072TIP3   OH215221   0.127   1.022   3.125  0.4801 -0.0640 -0.4421
 5072TIP3    H115222   0.181   1.036   3.202 -0.6926  0.4560  0.3209
 5072TIP3    H215223   0.111   0.928   3.123  1.8070 -0.2913 -0.9722
 5073TIP3   OH215224   0.012   0.060   1.084 -0.0229 -0.2128  0.7491
 5073TIP3    H115225   0.009  -0.014   1.023  0.4425  0.4162 -0.0589
 5073TIP3    H215226   0.026   0.136   1.028 -0.1727  0.4521  1.6021
 5074TIP3   OH215227   4.824   4.328   3.738 -0.0815 -0.4345  0.2737
 5074TIP3    H115228   4.774   4.278   3.673  2.2114 -0.7902 -1.3270
 5074TIP3    H215229   4.830   4.271   3.814 -1.8852 -0.4522  0.4355
 5075TIP3   OH215230   1.302   1.069   3.769  0.1220 -0.6330  0.1093
 5075TIP3    H115231   1.295   1.158   3.733 -0.9299 -1.1107 -0.9255
 5075TIP3    H215232   1.239   1.018   3.719 -0.2799 -1.6796  1.6201
 5076TIP3   OH215233   2.779   3.027   0.292 -0.1221 -0.4619 -0.2503
 5076TIP3    H115234   2.791   2.973   0.215  0.3857  0.7939 -1.0859
 5076TIP3    H215235   2.851   3.002   0.350 -1.4653 -2.6332  0.6224
 5077TIP3   OH215236   2.771   5.264   1.182  0.2180  0.7940  0.2348
 5077TIP3    H115237   2.865   5.280   1.175  0.4681 -0.9535 -1.0320
 5077TIP3    H215238   2.763   5.170   1.195 -1.3634  0.9002  0.2892
 5078TIP3   OH215239   3.982   3.170   1.676  0.1127 -0.0392  0.0640
 5078TIP3    H115240   4.065   3.206   1.644  0.6030 -2.4716 -1.6828
 5078TIP3    H215241   3.922   3.245   1.677  2.0644  1.6042  0.5577
 5079TIP3   OH215242   3.217   1.950   0.653 -0.3752 -0.1269  0.2777
 5079TIP3    H115243   3.157   1.982   0.719 -1.0712  0.8064 -0.7614
 5079TIP3    H215244   3.304   1.962   0.691 -0.7754 -0.1386  1.2196
 5080TIP3   OH215245   1.602   0.944   0.813  0.1301 -0.0378  0.0639
 5080TIP3    H115246   1.559   1.024   0.783 -0.0457  0.5230  1.7307
 5080TIP3    H215247   1.695   0.961   0.799  0.0020 -0.2299 -1.1408
 5081TIP3   OH215248   4.793   3.548   2.799  0.1060  0.3549 -0.2765
 5081TIP3    H115249   4.701   3.574   2.789 -0.4130 -1.0380  0.5252
 5081TIP3    H215250   4.843   3.627   2.778 -1.3361  1.9458  1.8740
 5082TIP3   OH215251   4.408   3.385   0.067  0.0090 -0.5592  0.3120
 5082TIP3    H115252   4.460   3.367   0.145  1.0817  0.1521 -0.2203
 5082TIP3    H215253   4.375   3.299   0.040  0.8001 -1.0053  0.7362
 5083TIP3   OH215254   2.143   4.111   0.710  0.1975  0.6372  0.4090
 5083TIP3    H115255   2.072   4.122   0.646  0.1484 -1.2147  0.0643
 5083TIP3    H215256   2.101   4.071   0.786  0.5405  1.3347  0.9690
 5084TIP3   OH215257   4.213   4.871   0.589  0.0756  0.1684 -0.2317
 5084TIP3    H115258   4.148   4.941   0.591 -0.5666 -0.4010 -0.8254
 5084TIP3    H215259   4.235   4.861   0.497 -1.1042 -1.5423 -0.3820
 5085TIP3   OH215260   0.707   5.043   2.751  0.0867 -0.3482 -0.4059
 5085TIP3    H115261   0.748   4.958   2.766 -0.3648 -0.8726 -1.9139
 5085TIP3    H215262   0.725   5.063   2.659  1.0520  1.6926  0.1626
 5086TIP3   OH215263   4.821   5.238   0.363 -0.2474  0.0466  0.2227
 5086TIP3    H115264   4.825   5.222   0.457  0.7045  1.8607  0.5403
 5086TIP3    H215265   4.759   5.311   0.354 -0.5303 -0.2826 -0.5835
 5087TIP3   OH215266   0.452   2.785   2.890  0.1130 -0.2648 -0.4983
 5087TIP3    H115267   0.438   2.808   2.798 -0.2617  0.3692 -0.2884
 5087TIP3    H215268   0.421   2.861   2.939 -2.1155 -1.5734  0.2828
 5088TIP3   OH215269   1.716   5.705   1.393 -0.2438  0.4329  0.2794
 5088TIP3    H115270   1.740   5.725   1.302 -1.0799  0.0975 -0.0263
 5088TIP3    H215271   1.672   5.620   1.388 -0.7826  0.6676  0.9156
 5089TIP3   OH215272   5.349   0.724   2.412 -0.0681 -0.6111  0.2950
 5089TIP3    H115273   5.280   0.754   2.352  0.5380 -0.6717 -0.4422
 5089TIP3    H215274   5.302   0.699   2.491 -0.8794 -0.4819 -0.1334
 5090TIP3   OH215275   0.690   4.204   1.264 -0.0534  0.4642 -0.9576
 5090TIP3    H115276   0.599   4.236   1.270  0.0390  0.5028  0.8677
 5090TIP3    H215277   0.741   4.270   1.312  1.0511  0.7424 -2.4520
 5091TIP3   OH215278   1.929   1.719   2.566  0.1941  0.1418 -0.4024
 5091TIP3    H115279   1.976   1.733   2.648  2.5379 -0.7897 -1.4917
 5091TIP3    H215280   1.947   1.797   2.514  1.3590 -0.5910 -1.1523
 5092TIP3   OH215281   1.306   4.109   2.433 -0.1359  0.3752 -0.3337
 5092TIP3    H115282   1.319   4.129   2.340 -1.5963 -0.4887 -0.7493
 5092TIP3    H215283   1.252   4.030   2.433  1.5951 -0.8850  1.2599
 5093TIP3   OH215284   0.451   3.574   1.566 -0.0657 -0.2830  0.3934
 5093TIP3    H115285   0.467   3.656   1.519 -0.1131  0.6089  1.8658
 5093TIP3    H215286   0.534   3.526   1.560  0.3109  0.3502  0.4013
 5094TIP3   OH215287   0.694   2.090   4.342  0.4123  0.3844  0.2077
 5094TIP3    H115288   0.656   2.008   4.371  0.6751 -0.0931 -0.7608
 5094TIP3    H215289   0.718   2.135   4.423 -0.1147 -0.3021  0.7590
 5095TIP3   OH215290   5.729   3.612   0.163 -0.2198  0.4151  0.3131
 5095TIP3    H115291   5.663   3.544   0.148  0.4065  0.0109 -0.7325
 5095TIP3    H215292   5.746   3.608   0.257  1.0362 -2.1333  0.0879
 5096TIP3   OH215293   5.275   4.004   4.886  0.2766  0.2358 -0.6174
 5096TIP3    H115294   5.219   3.927   4.871  2.0314 -0.7605 -2.5491
 5096TIP3    H215295   5.351   3.968   4.932  1.8619  0.4217 -2.9466
 5097TIP3   OH215296   3.960   2.224   1.729  0.1681 -0.6645 -0.2858
 5097TIP3    H115297   3.980   2.318   1.731 -1.5860 -0.2644  0.1102
 5097TIP3    H215298   3.996   2.194   1.646 -1.0658  0.8289 -1.4373
 5098TIP3   OH215299   1.400   3.900   0.916 -0.8584 -0.4452  0.0091
 5098TIP3    H115300   1.350   3.932   0.841  0.9595 -1.0743 -1.5417
 5098TIP3    H215301   1.396   3.972   0.979 -1.0984  0.7620 -1.3228
 5099TIP3   OH215302   2.264   2.769   1.040  0.2627 -0.3806  0.2089
 5099TIP3    H115303   2.330   2.791   0.974  1.1386 -0.8436  0.9098
 5099TIP3    H215304   2.189   2.738   0.990  0.0154  1.4861 -0.6868
 5100TIP3   OH215305   2.456   0.719   2.380 -0.3069 -0.6335  0.5397
 5100TIP3    H115306   2.493   0.776   2.447  0.0062 -0.7946  0.5058
 5100TIP3    H215307   2.365   0.708   2.405 -0.3302 -0.2484  0.6353
 5101TIP3   OH215308   4.529   1.283   3.883  0.3583  0.6325 -0.3372
 5101TIP3    H115309   4.582   1.214   3.843 -2.8053 -0.4169 -3.1401
 5101TIP3    H215310   4.516   1.254   3.973  0.1054 -1.8553 -1.1009
 5102TIP3   OH215311   0.892   0.867   4.516  0.1628  0.0059  0.2906
 5102TIP3    H115312   0.819   0.814   4.486 -1.4356  2.0298  0.3968
 5102TIP3    H215313   0.970   0.815   4.495 -1.1825 -1.3932 -1.5539
 5103TIP3   OH215314   5.290   0.502   2.989 -0.1519 -0.3230 -0.4337
 5103TIP3    H115315   5.205   0.462   3.005  0.1556 -0.8482 -0.1131
 5103TIP3    H215316   5.269   0.589   2.953 -0.8240 -1.0839 -1.9834
 5104TIP3   OH215317   3.115   3.861   3.349  0.0636  0.5509  0.3035
 5104TIP3    H115318   3.178   3.791   3.335 -0.4829 -0.0507  0.8345
 5104TIP3    H215319   3.115   3.909   3.266  1.5164  0.8233  0.4303
 5105TIP3   OH215320   1.041   0.789   2.607 -0.7719 -0.0956  0.0068
 5105TIP3    H115321   1.124   0.763   2.568 -0.6093  0.6594 -0.1580
 5105TIP3    H215322   0.976   0.733   2.566 -0.7328  1.2613 -2.0284
 5106TIP3   OH215323   5.877   5.285   2.741 -0.0982  0.9401 -0.6375
 5106TIP3    H115324   5.819   5.210   2.723 -1.0516  1.4232  0.3317
 5106TIP3    H215325   5.954   5.268   2.687 -0.2144 -0.8380 -0.3122
 5107TIP3   OH215326   3.605   2.099   2.262  0.1718  0.4698  0.3531
 5107TIP3    H115327   3.614   2.141   2.176 -0.6304  0.3112  0.1826
 5107TIP3    H215328   3.559   2.017   2.243 -1.2352  1.0516  1.0967
 5108TIP3   OH215329   4.773   0.058   4.990 -0.4051  0.0442 -0.0986
 5108TIP3    H115330   4.695   0.107   5.014 -0.1787  0.9228 -1.1166
 5108TIP3    H215331   4.757   0.027   4.901  0.5104  0.4587 -0.4205
 5109TIP3   OH215332   0.463   3.287   2.467 -0.0392 -0.2557  0.0446
 5109TIP3    H115333   0.474   3.194   2.447  1.9834 -0.0948  0.2201
 5109TIP3    H215334   0.523   3.331   2.407 -0.5918  0.9134  0.3309
 5110TIP3   OH215335   4.748   3.457   0.107  0.0117 -0.1386  0.0897
 5110TIP3    H115336   4.760   3.400   0.184  3.1795 -0.1997 -0.2829
 5110TIP3    H215337   4.723   3.398   0.037 -1.0010 -0.3775  0.6365
 5111TIP3   OH215338   3.454   4.088   3.028  0.3925 -0.1566 -0.0165
 5111TIP3    H115339   3.451   4.169   2.977  0.0288 -0.7944 -1.0329
 5111TIP3    H215340   3.403   4.025   2.977  2.3086 -1.5882 -0.2783
 5112TIP3   OH215341   4.050   2.198   2.954  0.1016  0.5246 -0.3311
 5112TIP3    H115342   4.009   2.184   2.869  1.0396 -0.3798 -0.6542
 5112TIP3    H215343   4.015   2.128   3.009  1.9995 -0.9955 -0.9278
 5113TIP3   OH215344   1.338   4.496   4.699  0.0946 -0.2894 -0.3493
 5113TIP3    H115345   1.340   4.475   4.793 -2.0615 -2.0818 -0.6113
 5113TIP3    H215346   1.422   4.538   4.682  0.8780 -0.6155  2.2267
 5114TIP3   OH215347   1.503   4.092   4.594  0.6208  0.1858  0.2940
 5114TIP3    H115348   1.577   4.152   4.604 -0.7419  1.8773  0.5217
 5114TIP3    H215349   1.433   4.145   4.558 -0.7425 -1.2105  0.7789
 5115TIP3   OH215350   3.208   4.552   3.953  0.2488 -0.1249  0.9115
 5115TIP3    H115351   3.209   4.646   3.969 -1.2032 -0.1708  1.3632
 5115TIP3    H215352   3.126   4.521   3.992 -0.6998 -1.1358 -1.6776
 5116TIP3   OH215353   5.388   5.158   0.686  0.3240  0.2846  0.1579
 5116TIP3    H115354   5.357   5.103   0.758 -1.5317  0.1665 -0.6534
 5116TIP3    H215355   5.330   5.234   0.688  1.9039  1.5233  0.3349
 5117TIP3   OH215356   1.933   5.538   4.050  0.1413  1.0011  0.6639
 5117TIP3    H115357   1.838   5.532   4.044  0.2449 -0.2868 -0.0808
 5117TIP3    H215358   1.953   5.513   4.141 -0.1029 -1.2428  0.1611
 5118TIP3   OH215359   1.293   0.140   0.969 -0.4219  0.3266  0.2013
 5118TIP3    H115360   1.277   0.225   1.011 -1.1962 -0.1855  0.9585
 5118TIP3    H215361   1.237   0.079   1.016 -0.2523 -0.5215 -0.6776
 5119TIP3   OH215362   3.022   5.271   3.635  0.8134 -0.0425 -0.3115
 5119TIP3    H115363   3.002   5.298   3.725  3.3638 -0.0843  0.3214
 5119TIP3    H215364   3.019   5.176   3.637 -1.4216 -0.0537 -0.9094
 5120TIP3   OH215365   1.978   4.569   0.426  0.3613  0.3008  0.1008
 5120TIP3    H115366   1.925   4.496   0.394  3.6455 -1.6015 -1.5436
 5120TIP3    H215367   1.926   4.607   0.497 -3.0903 -1.3311 -1.3252
 5121TIP3   OH215368   4.752   2.456   3.127  0.4224 -0.2211  0.0991
 5121TIP3    H115369   4.787   2.399   3.059  1.3910 -0.3026  0.6462
 5121TIP3    H215370   4.719   2.396   3.195 -1.6991 -0.1687 -0.8164
 5122TIP3   OH215371   2.766   3.613   4.480 -0.8254 -0.2214  0.1971
 5122TIP3    H115372   2.695   3.643   4.536  0.1527 -0.7472  1.7746
 5122TIP3    H215373   2.814   3.692   4.457  0.3792 -0.2213  2.4336
 5123TIP3   OH215374   2.863   0.716   3.961  0.0766 -0.2285  0.0294
 5123TIP3    H115375   2.823   0.799   3.937 -0.3605 -0.6174 -0.6200
 5123TIP3    H215376   2.816   0.688   4.039  1.0903  0.7432  1.0444
 5124TIP3   OH215377   1.356   0.256   4.043 -0.3473 -0.0698  0.7356
 5124TIP3    H115378   1.394   0.246   3.956 -1.6141  0.1176  0.1374
 5124TIP3    H215379   1.417   0.314   4.089 -1.3499  2.7508 -1.1719
 5125TIP3   OH215380   4.566   4.712   3.036  0.0787  0.2924  0.2180
 5125TIP3    H115381   4.514   4.769   2.979 -1.8703 -0.9571  0.6804
 5125TIP3    H215382   4.509   4.694   3.111  0.8056 -1.8723  0.3049
 5126TIP3   OH215383   3.774   1.785   3.232  0.1591 -0.1933 -0.2501
 5126TIP3    H115384   3.816   1.719   3.287 -0.1239  0.3569  0.6568
 5126TIP3    H215385   3.691   1.745   3.207  1.6377 -1.7947 -3.0845
 5127TIP3   OH215386   1.996   0.606   2.100 -0.0294  0.0062 -0.5046
 5127TIP3    H115387   1.933   0.649   2.158  1.5170  0.0515  1.2102
 5127TIP3    H215388   2.046   0.678   2.061 -0.4566 -0.0687 -1.2114
 5128TIP3   OH215389   2.199   3.995   0.067 -0.2569  0.5985 -0.5273
 5128TIP3    H115390   2.250   3.975  -0.011 -0.2511  0.8288 -0.5829
 5128TIP3    H215391   2.119   3.943   0.058  0.2298 -0.2565 -0.1393
 5129TIP3   OH215392   1.671   4.344   1.249  0.3470 -0.3492 -0.3837
 5129TIP3    H115393   1.703   4.387   1.328  1.0245 -0.7416 -0.4334
 5129TIP3    H215394   1.748   4.336   1.193  0.0536 -0.8339 -0.7305
 5130TIP3   OH215395   2.250   4.707   4.608  0.2069  0.1381 -0.3842
 5130TIP3    H115396   2.173   4.754   4.577 -0.5849 -0.1236  1.0828
 5130TIP3    H215397   2.275   4.650   4.535 -0.9683  0.2657 -0.8986
 5131TIP3   OH215398   3.512   2.240   0.421 -0.5100 -0.0255  0.5898
 5131TIP3    H115399   3.600   2.264   0.448  0.2547 -2.0191  0.0434
 5131TIP3    H215400   3.475   2.195   0.497  0.3847 -2.5682 -0.3974
 5132TIP3   OH215401   6.118   0.271   2.598  0.2715 -0.5124 -0.3283
 5132TIP3    H115402   6.188   0.332   2.575 -0.6653  0.6623 -0.1680
 5132TIP3    H215403   6.073   0.255   2.515  0.3951 -0.8398 -0.3337
 5133TIP3   OH215404   1.839   4.863   0.537  0.3819  0.4157  0.5112
 5133TIP3    H115405   1.790   4.940   0.565 -0.6746 -0.7197  1.9082
 5133TIP3    H215406   1.779   4.815   0.480  0.9375  0.4860 -0.1411
 5134TIP3   OH215407   0.697   1.868   2.862 -0.2149 -0.1586 -0.1374
 5134TIP3    H115408   0.710   1.811   2.786 -0.0999 -0.8633  0.4039
 5134TIP3    H215409   0.610   1.907   2.847  0.4586  0.9494 -1.4144
 5135TIP3   OH215410   3.460   5.557   3.243  0.1368 -0.2674 -0.3731
 5135TIP3    H115411   3.460   5.524   3.332  0.4799 -1.0060 -0.6450
 5135TIP3    H215412   3.369   5.547   3.214 -0.1716  0.7716  0.1705
 5136TIP3   OH215413   3.232   2.142   0.450  0.0089  0.2275  0.4834
 5136TIP3    H115414   3.264   2.081   0.383 -1.2368 -0.0324  0.0987
 5136TIP3    H215415   3.207   2.086   0.523 -0.5034  0.3340  0.3910
 5137TIP3   OH215416   4.437   3.360   4.442  0.2230  0.5909 -0.2655
 5137TIP3    H115417   4.429   3.439   4.496  1.0115 -0.1623  1.0121
 5137TIP3    H215418   4.512   3.313   4.479  0.6254 -0.1065 -1.8633
 5138TIP3   OH215419   3.444   4.593   4.868 -0.3753 -0.1616 -0.7791
 5138TIP3    H115420   3.509   4.619   4.932 -2.2533 -0.3696  1.3391
 5138TIP3    H215421   3.468   4.504   4.843  1.0332  0.3416 -1.2993
 5139TIP3   OH215422   4.114   2.241   3.232  0.3174 -0.1321 -0.9790
 5139TIP3    H115423   4.066   2.273   3.309 -1.1350 -0.6465 -1.6317
 5139TIP3    H215424   4.101   2.308   3.166 -1.0093 -1.0769 -1.7074
 5140TIP3   OH215425   2.185   5.913   3.691  0.8358 -0.7355 -0.7063
 5140TIP3    H115426   2.181   5.895   3.597  1.3820 -0.3650 -0.8061
 5140TIP3    H215427   2.276   5.898   3.714  0.9727  0.3355 -0.4809
 5141TIP3   OH215428   1.302   4.992   1.296 -0.1021  0.0832 -0.0961
 5141TIP3    H115429   1.208   4.987   1.278 -0.2311  0.9248  0.3004
 5141TIP3    H215430   1.308   4.994   1.392  0.0699  3.3880 -0.0540
 5142TIP3   OH215431   4.295   2.353   2.950 -0.1752 -0.1360 -0.0529
 5142TIP3    H115432   4.300   2.405   3.030  0.8476 -0.3080  0.0025
 5142TIP3    H215433   4.204   2.324   2.947  0.0750 -1.2551  1.7783
 5143TIP3   OH215434   1.706   5.790   1.863  0.0518  0.4719 -0.6222
 5143TIP3    H115435   1.757   5.871   1.872  1.6682 -0.5115 -0.4861
 5143TIP3    H215436   1.621   5.819   1.829  0.8117  2.1464 -1.2292
 5144TIP3   OH215437   2.427   5.022   3.786  0.6876  0.0188  0.3080
 5144TIP3    H115438   2.366   5.095   3.800 -1.0843 -1.7763  3.2535
 5144TIP3    H215439   2.376   4.957   3.737  0.8419 -0.7271  1.0978
 5145TIP3   OH215440   2.301   4.589   3.525 -0.3730 -0.5238  0.2984
 5145TIP3    H115441   2.379   4.594   3.470  0.3152  0.2056  1.3120
 5145TIP3    H215442   2.234   4.552   3.467 -0.3795  2.4464 -1.8305
 5146TIP3   OH215443   2.630   0.364   3.176  0.7191 -0.2499  0.3495
 5146TIP3    H115444   2.621   0.404   3.089  0.1350 -0.3109  0.3802
 5146TIP3    H215445   2.709   0.311   3.170  0.5494 -0.4427 -0.2191
 5147TIP3   OH215446   1.783   4.978   3.001 -1.0308  0.2749  0.0177
 5147TIP3    H115447   1.840   4.906   2.973 -1.8161 -0.9366  1.3525
 5147TIP3    H215448   1.728   4.996   2.925 -0.2243  0.0872 -0.6268
 5148TIP3   OH215449   5.264   2.194   2.481 -0.1853  0.2048 -0.2184
 5148TIP3    H115450   5.258   2.206   2.386 -2.1148 -1.2150 -0.3478
 5148TIP3    H215451   5.173   2.183   2.509  0.4988 -4.6172  1.0109
 5149TIP3   OH215452   5.664   0.655   1.351  0.3129  0.0678  0.3413
 5149TIP3    H115453   5.650   0.611   1.435  0.8209  1.0330  0.9562
 5149TIP3    H215454   5.715   0.592   1.300 -1.7233 -1.3711 -0.0385
 5150TIP3   OH215455   5.836   3.937   2.106 -0.4450  0.3704 -0.4923
 5150TIP3    H115456   5.757   3.986   2.084 -0.1393  1.0193 -0.1811
 5150TIP3    H215457   5.850   3.878   2.033 -1.4284 -0.0133 -0.3805
 5151TIP3   OH215458   4.215   3.823   2.211 -0.6232  0.1228  0.0253
 5151TIP3    H115459   4.226   3.873   2.292  0.9554 -0.4096  0.1822
 5151TIP3    H215460   4.178   3.740   2.238  0.2226 -0.1864  0.2714
 5152TIP3   OH215461   2.293   5.609   2.396  0.7254  0.0592  0.6102
 5152TIP3    H115462   2.247   5.630   2.315  0.1839  2.0982  1.3524
 5152TIP3    H215463   2.361   5.676   2.403  3.4987 -2.4849 -0.1119
 5153TIP3   OH215464   5.498   4.129   2.700  0.7382 -0.2539  0.1980
 5153TIP3    H115465   5.498   4.224   2.697 -0.2770 -0.2596 -0.1206
 5153TIP3    H215466   5.473   4.108   2.790  2.0281 -0.2288  0.5816
 5154TIP3   OH215467   6.321   2.528   4.795 -0.5430 -0.6241  0.5672
 5154TIP3    H115468   6.268   2.473   4.853 -1.0083 -0.0845  0.6637
 5154TIP3    H215469   6.260   2.555   4.726 -0.2348 -0.4790  0.3521
 5155TIP3   OH215470   6.166   0.620   2.384  0.5450 -0.2393 -0.0921
 5155TIP3    H115471   6.191   0.677   2.312  1.6366  0.8411  1.1029
 5155TIP3    H215472   6.144   0.537   2.341  0.4115  0.5889 -1.7216
 5156TIP3   OH215473   3.583   1.940   1.873  0.6049  0.3246 -0.3907
 5156TIP3    H115474   3.676   1.950   1.851  0.7585  0.7483  0.4500
 5156TIP3    H215475   3.582   1.916   1.965 -0.1333  0.4663 -0.3555
 5157TIP3   OH215476   4.351   0.549   3.388  0.5442  0.4154  0.3057
 5157TIP3    H115477   4.364   0.644   3.384  1.3943  0.3357  0.8738
 5157TIP3    H215478   4.424   0.512   3.337 -1.9389  0.1282 -3.3866
 5158TIP3   OH215479   2.126   5.306   2.611  0.8307  0.2634  0.1916
 5158TIP3    H115480   2.207   5.284   2.564  0.8621  2.1753 -0.7839
 5158TIP3    H215481   2.078   5.363   2.550 -1.1022 -0.5087  0.8937
 5159TIP3   OH215482   6.066   5.471   4.075  0.4394  0.2608  0.4158
 5159TIP3    H115483   6.022   5.530   4.013  1.5752  1.5705  0.8114
 5159TIP3    H215484   6.047   5.508   4.161  1.5833  0.3605  0.6439
 5160TIP3   OH215485   2.164   4.905   1.774 -0.1562  0.0239 -0.4321
 5160TIP3    H115486   2.113   4.830   1.806 -0.7300  0.5075 -0.1912
 5160TIP3    H215487   2.228   4.866   1.714 -0.2819 -0.6862 -0.1219
 5161TIP3   OH215488   4.823   0.566   4.286  0.8426  0.1415 -0.1431
 5161TIP3    H115489   4.862   0.623   4.220  3.6107  0.3150  1.5018
 5161TIP3    H215490   4.824   0.618   4.367 -2.5668 -0.0094  0.1567
 5162TIP3   OH215491   1.121   0.104   0.757 -0.1450  0.1099 -0.0017
 5162TIP3    H115492   1.042   0.152   0.785  1.1152  2.5956 -0.4206
 5162TIP3    H215493   1.186   0.125   0.824  0.1792 -1.9982  0.3887
 5163TIP3   OH215494   0.155   5.661   1.295 -0.7998 -0.0300 -0.4113
 5163TIP3    H115495   0.201   5.577   1.288  0.0877  0.2795  1.2285
 5163TIP3    H215496   0.064   5.640   1.273 -0.5085 -1.3125 -0.5219
 5164TIP3   OH215497   1.271   3.987   1.508  0.5007  0.0961 -0.1134
 5164TIP3    H115498   1.225   4.071   1.501  1.2479  0.6407  1.0996
 5164TIP3    H215499   1.327   3.997   1.585  1.7565 -0.9780 -0.8461
 5165TIP3   OH215500   5.226   1.290   4.148  0.3802  0.0854 -0.0586
 5165TIP3    H115501   5.236   1.363   4.088 -0.1213 -1.3058 -1.9294
 5165TIP3    H215502   5.293   1.227   4.121 -0.0627 -0.7000  0.6176
 5166TIP3   OH215503   2.571   1.020   3.715  0.3523 -0.0902 -0.1515
 5166TIP3    H115504   2.562   1.115   3.706  0.5170  0.0496  1.0193
 5166TIP3    H215505   2.663   1.002   3.695 -0.0090 -0.2135 -1.8572
 5167TIP3   OH215506   5.562   4.803   0.047 -0.3359  0.2629 -0.3396
 5167TIP3    H115507   5.479   4.850   0.039 -2.2469 -2.5167  1.4096
 5167TIP3    H215508   5.591   4.820   0.137 -0.0605 -0.3580 -0.3041
 5168TIP3   OH215509   6.113   5.534   0.069  0.2554 -0.5031  0.0041
 5168TIP3    H115510   6.115   5.624   0.037 -1.5350  0.0854  1.3477
 5168TIP3    H215511   6.025   5.503   0.048  1.3298 -2.5949 -1.9245
 5169TIP3   OH215512   5.401   1.552   3.787 -0.1175  0.0655  0.5952
 5169TIP3    H115513   5.437   1.498   3.716  0.0087 -0.4916  1.0753
 5169TIP3    H215514   5.416   1.642   3.758 -1.5026 -0.1140 -0.8192
 5170TIP3   OH215515   5.907   5.689   1.661  0.3137 -0.5907  0.2567
 5170TIP3    H115516   5.957   5.770   1.666  1.0260 -1.0108  0.1142
 5170TIP3    H215517   5.850   5.692   1.738  0.5036 -0.0661  0.3847
 5171TIP3   OH215518   4.286   5.687   1.619 -0.3317  0.0910 -0.3362
 5171TIP3    H115519   4.292   5.592   1.606  1.1449  0.3110 -1.4433
 5171TIP3    H215520   4.355   5.724   1.564  0.6007  1.6664  1.7399
 5172TIP3   OH215521   5.614   3.459   3.096 -0.1535 -0.1830 -0.8027
 5172TIP3    H115522   5.702   3.424   3.080  0.3054  0.0671  0.9695
 5172TIP3    H215523   5.567   3.389   3.141  0.4169  0.9700  1.7487
 5173TIP3   OH215524   1.672   1.962   4.841 -0.4441  0.7727 -0.6418
 5173TIP3    H115525   1.675   1.911   4.922  3.2627  0.5617 -0.7598
 5173TIP3    H215526   1.620   2.039   4.864  1.4663  1.3455  2.3957
 5174TIP3   OH215527   4.741   4.312   4.918  0.2895 -0.1752  0.1675
 5174TIP3    H115528   4.768   4.371   4.847 -0.0738  0.5526  0.6220
 5174TIP3    H215529   4.662   4.352   4.954  0.3824 -0.6177  0.8839
 5175TIP3   OH215530   5.720   2.598   3.794  0.3477  0.5124 -0.1890
 5175TIP3    H115531   5.666   2.519   3.797  1.6375 -0.3728  1.6093
 5175TIP3    H215532   5.670   2.662   3.846 -0.4778  0.7550 -1.2580
 5176TIP3   OH215533   6.056   1.665   2.679  0.3636  0.3035  0.8660
 5176TIP3    H115534   6.005   1.586   2.662  0.5208  0.1983  0.8853
 5176TIP3    H215535   6.008   1.734   2.633  0.1234  0.2322  1.0058
 5177TIP3   OH215536   2.352   3.014   1.588  0.2664  0.2541 -0.4912
 5177TIP3    H115537   2.284   2.988   1.650  2.0937  1.2564  2.1536
 5177TIP3    H215538   2.323   3.100   1.555 -1.0657 -0.6048 -1.6670
 5178TIP3   OH215539   4.301   4.605   2.796 -0.0259  0.6203  0.3644
 5178TIP3    H115540   4.361   4.657   2.850  1.0489 -1.5151  1.3335
 5178TIP3    H215541   4.294   4.521   2.842 -1.1445 -0.3504 -1.4773
 5179TIP3   OH215542   2.491   4.520   1.142  0.0008  0.4200  0.4790
 5179TIP3    H115543   2.527   4.607   1.123  1.2205 -0.0308  0.6678
 5179TIP3    H215544   2.507   4.470   1.062  2.2142 -0.5432  1.4548
 5180TIP3   OH215545   1.403   0.474   4.389  0.4686 -0.1453  0.3906
 5180TIP3    H115546   1.449   0.539   4.336  0.4042  2.1108  2.9105
 5180TIP3    H215547   1.470   0.411   4.415  1.5423  1.3771  1.4682
 5181TIP3   OH215548   4.206   1.103   0.421 -0.4130  0.0969  0.3426
 5181TIP3    H115549   4.153   1.163   0.370 -2.0915 -1.9188 -0.4516
 5181TIP3    H215550   4.247   1.046   0.356 -0.7364 -1.0481  1.1011
 5182TIP3   OH215551   0.497   3.259   3.460 -0.8880 -0.5059  0.1391
 5182TIP3    H115552   0.430   3.314   3.421 -1.2888  0.1266  1.6682
 5182TIP3    H215553   0.449   3.198   3.516 -0.1837  0.5726  2.0013
 5183TIP3   OH215554   2.516   0.625   1.299 -0.0646  0.0046 -0.5190
 5183TIP3    H115555   2.597   0.584   1.268  0.0129  1.4728 -2.4661
 5183TIP3    H215556   2.457   0.621   1.224 -1.4932 -0.2332  0.5830
 5184TIP3   OH215557   0.819   0.180   0.285  0.1080 -0.2636 -0.1600
 5184TIP3    H115558   0.750   0.137   0.335  0.3653 -0.1601  0.2800
 5184TIP3    H215559   0.899   0.165   0.334  0.0207  1.8381  0.7507
 5185TIP3   OH215560   1.922   5.245   4.854  0.1334 -0.1754  0.2252
 5185TIP3    H115561   1.829   5.256   4.876  0.9764 -0.2599  4.9295
 5185TIP3    H215562   1.942   5.155   4.881  1.4666 -0.4013 -1.3922
 5186TIP3   OH215563   1.531   3.605   1.213 -0.3798 -0.1059  0.2069
 5186TIP3    H115564   1.450   3.575   1.170 -0.2795 -0.5310  0.3084
 5186TIP3    H215565   1.599   3.593   1.148 -0.0234 -1.8692  0.8412
 5187TIP3   OH215566   0.631   1.482   3.372  0.2710 -0.6267 -0.0753
 5187TIP3    H115567   0.585   1.561   3.345  1.2202  0.1901  0.6227
 5187TIP3    H215568   0.688   1.461   3.297  0.3490 -0.3918 -0.0819
 5188TIP3   OH215569   2.974   3.075   4.282  0.8434 -0.1031  0.3738
 5188TIP3    H115570   2.988   2.984   4.308 -0.4553 -0.2747  0.5345
 5188TIP3    H215571   2.994   3.077   4.189  1.9119 -0.3121  0.5914
 5189TIP3   OH215572   0.528   4.546   2.036 -0.1035  0.5822  0.2017
 5189TIP3    H115573   0.472   4.617   2.066  0.1545  0.9765 -0.2442
 5189TIP3    H215574   0.617   4.574   2.059  0.1106  0.9420 -1.0121
 5190TIP3   OH215575   6.015   5.075   4.286 -0.1514  0.1692 -0.1409
 5190TIP3    H115576   6.073   5.007   4.255 -2.1473 -1.6955 -0.0195
 5190TIP3    H215577   6.013   5.063   4.381 -1.2292 -0.2518 -0.2027
 5191TIP3   OH215578   4.999   4.155   2.136  0.1169  0.2440 -0.0494
 5191TIP3    H115579   4.950   4.234   2.115  0.1240  0.1543 -0.4098
 5191TIP3    H215580   5.076   4.159   2.079  1.1743  1.0189  1.3826
 5192TIP3   OH215581   3.596   5.644   2.739  0.3234 -0.2690 -0.0896
 5192TIP3    H115582   3.565   5.558   2.711 -0.3218 -0.7839  1.9690
 5192TIP3    H215583   3.685   5.650   2.705  1.0752 -2.5884  1.1952
 5193TIP3   OH215584   3.671   4.867   5.142 -0.0084  0.4261  0.3481
 5193TIP3    H115585   3.700   4.906   5.224  1.0042  0.0856  0.1584
 5193TIP3    H215586   3.576   4.859   5.152  0.3014 -1.7098  2.3970
 5194TIP3   OH215587   3.751   5.325   0.320 -0.4952 -0.3046  0.5258
 5194TIP3    H115588   3.824   5.306   0.262 -0.1933 -0.1274  0.8449
 5194TIP3    H215589   3.769   5.274   0.399 -1.3334 -1.2157  0.1539
 5195TIP3   OH215590   0.884   2.084   3.491  0.4956  0.3656 -0.3343
 5195TIP3    H115591   0.857   1.997   3.520  1.6852  0.2870  0.6058
 5195TIP3    H215592   0.806   2.138   3.502 -0.0525 -0.4252 -0.2431
 5196TIP3   OH215593   4.303   2.474   0.776  0.1876  0.6636 -0.0543
 5196TIP3    H115594   4.285   2.496   0.868  2.1221 -0.7301  0.7424
 5196TIP3    H215595   4.229   2.420   0.750 -1.0846  2.2095  0.1953
 5197TIP3   OH215596   4.945   1.032   0.542  0.8454 -0.4217 -0.1603
 5197TIP3    H115597   4.850   1.025   0.546  0.4126  2.2437 -2.3889
 5197TIP3    H215598   4.972   1.046   0.633 -1.2631  1.6014  0.2671
 5198TIP3   OH215599   3.173   3.259   3.067 -0.1517  0.1579 -0.5008
 5198TIP3    H115600   3.194   3.208   2.989 -0.5517 -0.1895 -0.3835
 5198TIP3    H215601   3.078   3.257   3.072 -0.1326  0.2608 -0.0546
 5199TIP3   OH215602   6.288   3.795   3.139  0.7208  0.5440 -0.4693
 5199TIP3    H115603   6.299   3.850   3.061 -0.4740  0.1229 -0.9539
 5199TIP3    H215604   6.198   3.764   3.134  2.2195 -4.3677 -2.1620
 5200TIP3   OH215605   1.891   1.824   1.736  0.0946 -0.2501 -0.0321
 5200TIP3    H115606   1.824   1.823   1.805 -0.8956 -1.1953 -0.9644
 5200TIP3    H215607   1.849   1.781   1.661  2.0159 -1.5737 -0.4100
 5201TIP3   OH215608   5.893   1.650   4.698 -0.3270  0.1859 -0.1604
 5201TIP3    H115609   5.813   1.636   4.646  0.2943  1.0155 -1.4014
 5201TIP3    H215610   5.937   1.564   4.698 -1.5050 -0.4615  1.1113
 5202TIP3   OH215611   2.408   1.526   2.162  0.7869 -0.7157 -0.1436
 5202TIP3    H115612   2.329   1.481   2.192  0.7961 -0.5965  0.0617
 5202TIP3    H215613   2.477   1.495   2.221  0.8287 -0.5694 -0.1166
 5203TIP3   OH215614   3.647   0.147   1.834  0.0605  0.3721  0.0490
 5203TIP3    H115615   3.615   0.057   1.836 -0.8362  0.6528 -0.7409
 5203TIP3    H215616   3.569   0.201   1.845  0.4988  1.0662 -0.1298
 5204TIP3   OH215617   3.927   5.740   1.342  0.1657  0.1473  0.0407
 5204TIP3    H115618   3.964   5.797   1.274  0.0190 -1.4269 -1.4390
 5204TIP3    H215619   3.840   5.717   1.308  0.3890 -1.2755  0.3738
 5205TIP3   OH215620   3.704   1.114   1.566 -0.0049  0.0629 -0.1251
 5205TIP3    H115621   3.695   1.019   1.571  0.8668 -0.2236 -2.6118
 5205TIP3    H215622   3.785   1.133   1.613 -0.0303 -0.4667  0.1391
 5206TIP3   OH215623   4.935   5.537   0.850  0.3090  0.0336 -0.3243
 5206TIP3    H115624   5.009   5.522   0.908 -0.3021  1.6473  0.9417
 5206TIP3    H215625   4.962   5.498   0.766  1.2400 -2.2827  0.9496
 5207TIP3   OH215626   5.441   5.352   3.608 -0.0694 -0.0901 -0.1372
 5207TIP3    H115627   5.473   5.337   3.696  0.4556  2.3843  0.1734
 5207TIP3    H215628   5.387   5.431   3.615 -1.1205 -0.5961 -1.8006
 5208TIP3   OH215629   1.275   0.502   4.630 -0.5456 -0.0012 -0.3331
 5208TIP3    H115630   1.322   0.475   4.551  2.6581 -0.4817  1.5527
 5208TIP3    H215631   1.276   0.597   4.627  0.2693 -0.0076 -0.5032
 5209TIP3   OH215632   2.001   0.705   2.685  0.0192  0.1356  0.2522
 5209TIP3    H115633   1.974   0.792   2.655  1.8737  0.5343 -0.4402
 5209TIP3    H215634   1.964   0.645   2.620  0.2913  0.5964 -0.3418
 5210TIP3   OH215635   1.086   5.705   4.705  0.5250 -0.1730 -0.5634
 5210TIP3    H115636   1.169   5.711   4.752  0.5617  0.2085 -0.6746
 5210TIP3    H215637   1.032   5.775   4.741  0.4132 -0.1284 -0.8107
 5211TIP3   OH215638   2.616   5.572   2.402  0.3326 -0.4838  0.0210
 5211TIP3    H115639   2.561   5.649   2.384 -0.5626 -1.2007 -0.3878
 5211TIP3    H215640   2.610   5.561   2.497  2.3000  1.2651  0.4246
 5212TIP3   OH215641   1.728   2.660   3.364  0.2747 -0.5865  0.1137
 5212TIP3    H115642   1.695   2.578   3.400  2.0592 -2.0222 -1.3197
 5212TIP3    H215643   1.656   2.693   3.310 -0.9160 -0.5054  1.6852
 5213TIP3   OH215644   5.080   0.428   4.886  0.1915 -0.0519  0.2466
 5213TIP3    H115645   4.990   0.413   4.914  0.3404 -0.5120  0.4996
 5213TIP3    H215646   5.077   0.509   4.835 -0.4112 -0.2078  0.0283
 5214TIP3   OH215647   5.894   0.826   3.204 -0.1346 -0.3389 -0.3051
 5214TIP3    H115648   5.922   0.832   3.295 -0.3248  0.7148 -0.3122
 5214TIP3    H215649   5.799   0.840   3.206  0.0735  1.3085 -0.8166
 5215TIP3   OH215650   5.443   5.707   1.832  0.5337  0.1622  0.1128
 5215TIP3    H115651   5.360   5.748   1.856 -0.0099 -1.3973  1.0054
 5215TIP3    H215652   5.419   5.622   1.796  1.7193  0.0365 -0.4513
 5216TIP3   OH215653   0.193   5.189   1.573  0.3731 -0.1349 -0.3598
 5216TIP3    H115654   0.226   5.276   1.592 -0.4966  0.0854  0.2220
 5216TIP3    H215655   0.111   5.204   1.526 -0.6273 -0.5751  1.1621
 5217TIP3   OH215656   0.232   4.931   3.056  0.2420  0.1921  0.3125
 5217TIP3    H115657   0.322   4.904   3.039 -0.5216 -2.6477  0.1927
 5217TIP3    H215658   0.187   4.918   2.973 -0.5142  0.3692  0.6872
 5218TIP3   OH215659   1.673   3.512   3.094 -0.4940  0.4555 -0.0529
 5218TIP3    H115660   1.672   3.417   3.102 -0.8949  0.5366  1.1507
 5218TIP3    H215661   1.661   3.543   3.184  2.6617  1.6510  0.0654
 5219TIP3   OH215662   1.378   0.487   2.034  0.2579 -0.2010  0.1936
 5219TIP3    H115663   1.427   0.566   2.056  0.1583  0.4871 -1.8399
 5219TIP3    H215664   1.443   0.418   2.032  0.3937 -0.1605  1.7166
 5220TIP3   OH215665   0.844   4.931   3.823 -0.6111  0.8613  0.5751
 5220TIP3    H115666   0.870   4.845   3.856 -1.9447  0.6028  1.0075
 5220TIP3    H215667   0.926   4.972   3.794 -0.0568 -0.8769 -0.4376
 5221TIP3   OH215668   0.222   3.218   5.101 -0.0707  0.1094  0.0885
 5221TIP3    H115669   0.192   3.140   5.054 -3.0049  0.1486  1.7189
 5221TIP3    H215670   0.195   3.291   5.046 -0.4954  0.0696  0.2439
 5222TIP3   OH215671   5.978   2.512   3.743 -0.4401 -0.4547 -0.3971
 5222TIP3    H115672   5.986   2.505   3.648 -0.6834  0.0700 -0.4599
 5222TIP3    H215673   5.888   2.542   3.758  0.1886  1.4539 -0.1277
 5223TIP3   OH215674   0.442   4.360   4.939 -0.5898 -0.3838  0.1835
 5223TIP3    H115675   0.422   4.417   5.013  0.3613 -1.3933  1.2691
 5223TIP3    H215676   0.361   4.313   4.922 -1.9170  2.2989 -1.7788
 5224TIP3   OH215677   1.244   4.576   2.629  0.9243 -0.5341 -0.3880
 5224TIP3    H115678   1.229   4.668   2.608  0.3964 -0.5459 -0.0743
 5224TIP3    H215679   1.276   4.537   2.547  1.7202  0.0477 -0.3679
 5225TIP3   OH215680   1.722   0.763   0.510 -0.4244  0.1271  0.3413
 5225TIP3    H115681   1.784   0.738   0.442  2.1083  0.5251  2.3302
 5225TIP3    H215682   1.707   0.857   0.495 -3.1404 -0.5253 -1.9608
 5226TIP3   OH215683   1.023   3.234   3.114  0.8233 -0.5530 -0.0587
 5226TIP3    H115684   1.016   3.259   3.206  0.0834 -1.7183  0.2232
 5226TIP3    H215685   1.097   3.285   3.082  1.0777 -0.0949  1.1699
 5227TIP3   OH215686   0.656   5.298   0.063  0.3881 -0.1987 -0.0396
 5227TIP3    H115687   0.584   5.252   0.018  0.6993 -0.1310 -0.6159
 5227TIP3    H215688   0.659   5.258   0.150 -1.6443  1.1327  0.7336
 5228TIP3   OH215689   5.075   3.092   4.427 -0.3689  0.5690 -0.4608
 5228TIP3    H115690   5.112   3.087   4.339 -0.4934 -0.0490 -0.4844
 5228TIP3    H215691   5.147   3.126   4.481  0.1039 -0.1859 -0.5905
 5229TIP3   OH215692   0.985   5.060   1.680  0.4345  0.5929 -0.4056
 5229TIP3    H115693   1.016   5.142   1.718  2.4391 -1.0980  1.8947
 5229TIP3    H215694   1.001   4.994   1.747 -3.4354 -1.4132 -1.1430
 5230TIP3   OH215695   3.799   3.022   4.765  0.3785  0.1204  0.1676
 5230TIP3    H115696   3.789   2.959   4.835  3.4825  0.4664  1.0674
 5230TIP3    H215697   3.723   3.080   4.773 -0.0586 -0.6861  2.3336
 5231TIP3   OH215698   2.646   5.525   0.871  0.3103 -0.3650  0.0019
 5231TIP3    H115699   2.698   5.458   0.826  0.2844  0.2484 -0.9663
 5231TIP3    H215700   2.573   5.543   0.812 -0.3109 -0.3027  0.7767
 5232TIP3   OH215701   3.917   3.814   2.494 -0.5371  0.4600 -0.2622
 5232TIP3    H115702   3.974   3.742   2.468 -0.0049  0.8872 -0.2935
 5232TIP3    H215703   3.850   3.818   2.426  0.3329  0.9997 -1.1133
 5233TIP3   OH215704   4.444   3.267   3.761  0.5338  0.4804  0.2602
 5233TIP3    H115705   4.374   3.329   3.781  1.0654  1.3269 -0.4246
 5233TIP3    H215706   4.453   3.215   3.841 -0.2924  0.9203  0.6563
 5234TIP3   OH215707   2.004   2.568   3.208  0.3337  0.3637  0.0764
 5234TIP3    H115708   1.913   2.555   3.236  0.1730 -0.6845 -0.8708
 5234TIP3    H215709   2.026   2.655   3.239 -0.6064  0.1700  1.3657
 5235TIP3   OH215710   6.025   3.965   3.243 -0.3882 -0.6213  0.4980
 5235TIP3    H115711   5.978   3.883   3.259 -0.9466 -0.2995  0.5194
 5235TIP3    H215712   5.968   4.033   3.279  1.0674 -0.3841  2.5045
 5236TIP3   OH215713   3.805   1.516   0.173 -0.0595 -0.6849 -0.0319
 5236TIP3    H115714   3.837   1.468   0.249  0.6692 -0.2768 -0.0762
 5236TIP3    H215715   3.761   1.593   0.210 -0.8892 -1.1724  0.0225
 5237TIP3   OH215716   5.656   1.660   2.050  0.2400  0.2618 -0.2400
 5237TIP3    H115717   5.730   1.627   1.998  0.3605 -0.5058  0.4041
 5237TIP3    H215718   5.695   1.688   2.132 -0.1639  0.0206  0.0355
 5238TIP3   OH215719   1.397   0.222   0.473  0.7192 -0.8238 -0.0496
 5238TIP3    H115720   1.379   0.280   0.546  0.0002 -0.8367 -0.2066
 5238TIP3    H215721   1.475   0.258   0.432  0.6584 -0.3507  0.2433
 5239TIP3   OH215722   4.445   3.850   4.869  0.0600  0.0405 -0.1457
 5239TIP3    H115723   4.389   3.928   4.857 -1.9012 -1.1236  0.9239
 5239TIP3    H215724   4.519   3.865   4.810 -2.2233  0.9095 -3.0413
 5240TIP3   OH215725   5.112   0.659   4.158  0.2277 -0.2250  0.3172
 5240TIP3    H115726   5.203   0.630   4.156  0.4992  0.6124 -0.3555
 5240TIP3    H215727   5.069   0.604   4.092  0.2104 -0.7260  0.7432
 5241TIP3   OH215728   2.067   4.493   2.526 -0.2346 -0.2179 -0.0034
 5241TIP3    H115729   1.989   4.494   2.471 -0.5098  0.1853  0.3897
 5241TIP3    H215730   2.138   4.522   2.469 -0.6574  1.0006  0.0607
 5242TIP3   OH215731   4.314   5.289   1.987 -0.0547  0.0137 -0.1687
 5242TIP3    H115732   4.227   5.262   2.016 -0.4907  1.2297 -0.3013
 5242TIP3    H215733   4.350   5.337   2.061  0.9997 -1.4754  0.3313
 5243TIP3   OH215734   4.064   3.242   2.581 -0.7550  0.2838 -0.0868
 5243TIP3    H115735   4.067   3.181   2.655  2.0989  0.1145 -0.2008
 5243TIP3    H215736   4.128   3.310   2.604 -1.5183  1.4759 -1.3930
 5244TIP3   OH215737   0.341   4.581   1.818 -0.2778 -0.6776 -0.3192
 5244TIP3    H115738   0.396   4.541   1.886 -1.7193 -1.9759  0.1460
 5244TIP3    H215739   0.403   4.626   1.761  1.0268  0.1839  1.6389
 5245TIP3   OH215740   0.825   1.747   2.374  0.0763 -0.4064 -0.6507
 5245TIP3    H115741   0.789   1.767   2.288 -1.2313  0.4012  0.0382
 5245TIP3    H215742   0.862   1.830   2.405  1.1600 -0.8577 -0.7060
 5246TIP3   OH215743   2.332   5.414   2.097  0.1289 -0.1962  0.5289
 5246TIP3    H115744   2.266   5.353   2.065 -0.9477  1.4027 -0.4676
 5246TIP3    H215745   2.326   5.408   2.192 -0.0807 -1.4776  0.4561
 5247TIP3   OH215746   2.719   1.178   2.047 -0.3626 -0.3991  0.1256
 5247TIP3    H115747   2.630   1.205   2.025 -0.5070  2.3739  3.3130
 5247TIP3    H215748   2.710   1.086   2.072 -2.1721 -0.3738 -0.2844
 5248TIP3   OH215749   0.848   5.880   3.999  0.0168 -0.4904  0.1213
 5248TIP3    H115750   0.769   5.892   4.051 -0.1770 -0.8426 -0.0896
 5248TIP3    H215751   0.908   5.946   4.032 -1.1711  1.4017 -1.3201
 5249TIP3   OH215752   2.101   0.385   0.191  0.2738 -0.8612  0.0481
 5249TIP3    H115753   2.007   0.404   0.184  0.9039  2.4649 -1.1091
 5249TIP3    H215754   2.116   0.316   0.127 -1.0205  0.3984 -1.7147
 5250TIP3   OH215755   1.462   3.000   4.404 -0.5973 -0.6182  0.1922
 5250TIP3    H115756   1.426   3.073   4.454  1.4541  0.8177 -0.3093
 5250TIP3    H215757   1.436   3.017   4.314  0.1124 -0.3329  0.0344
 5251TIP3   OH215758   2.533   1.896   4.208 -0.3810 -0.4741 -0.0222
 5251TIP3    H115759   2.568   1.881   4.120 -0.3834 -0.2291 -0.0665
 5251TIP3    H215760   2.439   1.883   4.199 -0.1894 -2.2525  0.3401
 5252TIP3   OH215761   4.547   0.428   0.969  0.5388 -0.2279 -0.0323
 5252TIP3    H115762   4.527   0.342   0.933 -1.0450 -0.1637  0.6137
 5252TIP3    H215763   4.520   0.489   0.901  0.2039 -0.1968  0.1275
 5253TIP3   OH215764   4.007   0.285   1.093 -0.2998  0.3085  0.3389
 5253TIP3    H115765   3.980   0.345   1.024 -0.3887  0.3222  0.3861
 5253TIP3    H215766   4.100   0.270   1.076 -0.3582  0.1856  0.1201
 5254TIP3   OH215767   5.889   2.931   0.681  0.0932 -0.3861 -0.2576
 5254TIP3    H115768   5.893   2.934   0.585 -0.3708  0.2492 -0.2650
 5254TIP3    H215769   5.812   2.878   0.700 -0.2190  0.0697 -0.2441
 5255TIP3   OH215770   3.442   0.992   3.321 -0.7069  0.1324  0.7094
 5255TIP3    H115771   3.451   0.941   3.241  1.1623 -0.6480  1.3511
 5255TIP3    H215772   3.462   1.082   3.296 -1.7050  0.1679  0.0149
 5256TIP3   OH215773   2.344   1.925   2.995 -0.2723  0.1684  0.0672
 5256TIP3    H115774   2.333   2.020   2.992 -0.9204  0.1238  0.7450
 5256TIP3    H215775   2.338   1.903   3.088 -1.2069 -0.6518 -0.1622
 5257TIP3   OH215776   5.688   0.836   4.308 -0.5806  0.8415  0.3523
 5257TIP3    H115777   5.733   0.783   4.241 -2.2763  0.2575 -0.3754
 5257TIP3    H215778   5.753   0.902   4.333  0.8536 -0.2684 -0.2665
 5258TIP3   OH215779   1.656   5.016   4.402 -0.0771  0.3884  0.2004
 5258TIP3    H115780   1.579   4.976   4.361 -0.7856  1.1099  0.8033
 5258TIP3    H215781   1.717   5.029   4.329 -0.1234 -1.0690 -0.1269
 5259TIP3   OH215782   6.121   5.206   1.229 -0.4285  0.0021 -0.0370
 5259TIP3    H115783   6.167   5.126   1.206  0.5771  0.0588  1.6457
 5259TIP3    H215784   6.037   5.198   1.184  0.9005 -0.4071 -2.6417
 5260TIP3   OH215785   5.944   1.340   3.421 -0.2148  0.4015 -0.2642
 5260TIP3    H115786   5.925   1.282   3.495 -0.3960 -1.8364 -1.9629
 5260TIP3    H215787   5.878   1.409   3.428  0.8658  1.2962  2.6046
 5261TIP3   OH215788   1.771   1.106   3.607 -0.5134  0.6066  0.1849
 5261TIP3    H115789   1.713   1.093   3.682 -1.1480 -1.3564 -0.5906
 5261TIP3    H215790   1.741   1.043   3.542  2.2278 -0.2257 -0.4089
 5262TIP3   OH215791   2.006   0.173   0.893 -0.1481 -0.5975  0.0358
 5262TIP3    H115792   1.978   0.082   0.883 -0.0176 -0.9234  2.0995
 5262TIP3    H215793   1.933   0.216   0.938  0.7452 -0.3184  1.2775
 5263TIP3   OH215794   2.190   0.189   1.765 -0.1811 -0.4642  0.5839
 5263TIP3    H115795   2.253   0.256   1.738 -2.1438  1.4773  0.5262
 5263TIP3    H215796   2.122   0.239   1.811 -1.5002 -2.5162  0.9476
 5264TIP3   OH215797   6.264   3.562   2.416  0.1079 -0.0667  0.3471
 5264TIP3    H115798   6.205   3.636   2.429 -1.3759 -1.0186 -0.6277
 5264TIP3    H215799   6.341   3.583   2.469 -0.3850  2.0160  0.3216
 5265TIP3   OH215800   0.231   1.362   4.541 -0.0675  0.7622  0.3286
 5265TIP3    H115801   0.149   1.339   4.497 -0.0981  0.2735  0.6269
 5265TIP3    H215802   0.251   1.450   4.510  0.4391  0.0684 -1.4453
 5266TIP3   OH215803   2.505   0.227   1.041  0.3454 -0.2114 -0.4351
 5266TIP3    H115804   2.554   0.308   1.054  0.8274 -0.7477  1.4679
 5266TIP3    H215805   2.417   0.256   1.017  0.3846  0.8998  0.6619
 5267TIP3   OH215806   6.106   2.760   4.459  0.0620  0.0677  0.1316
 5267TIP3    H115807   6.121   2.853   4.439  1.2949 -0.3937 -1.2011
 5267TIP3    H215808   6.053   2.762   4.539  0.6812  1.9150  0.5586
 5268TIP3   OH215809   1.099   4.600   0.963 -0.0088 -0.3367 -0.6344
 5268TIP3    H115810   1.112   4.529   0.900  3.3174  0.5126 -1.0975
 5268TIP3    H215811   1.185   4.641   0.971 -1.0349  1.5689  2.1478
 5269TIP3   OH215812   0.912   4.049   1.272  0.3823 -0.9174  0.1462
 5269TIP3    H115813   0.833   4.103   1.269  0.8564 -0.2006  0.1275
 5269TIP3    H215814   0.902   3.994   1.349  0.7625  0.6094  1.3461
 5270TIP3   OH215815   3.403   0.339   1.769  0.0353 -0.5194 -0.5426
 5270TIP3    H115816   3.330   0.343   1.831 -1.5877  1.9837 -2.4596
 5270TIP3    H215817   3.410   0.247   1.746 -1.2224 -1.0815  1.1135
 5271TIP3   OH215818   0.698   2.605   0.392 -0.1776  0.4815 -0.5257
 5271TIP3    H115819   0.620   2.558   0.422 -0.7485  0.4342 -1.9838
 5271TIP3    H215820   0.731   2.649   0.470  0.0571 -1.8522  0.8090
 5272TIP3   OH215821   4.964   5.883   2.594 -0.2399 -0.1406 -0.3700
 5272TIP3    H115822   4.950   5.805   2.540  0.1681  1.6052 -3.1981
 5272TIP3    H215823   5.054   5.911   2.575 -0.1673  0.7177  1.0377
 5273TIP3   OH215824   5.326   4.039   0.116  0.6125 -0.3417  0.4305
 5273TIP3    H115825   5.244   4.066   0.158  0.4634  2.1207 -1.1714
 5273TIP3    H215826   5.300   3.973   0.052 -0.4431  1.3771 -1.0105
 5274TIP3   OH215827   2.388   5.732   0.760 -0.4853  0.3500  0.1889
 5274TIP3    H115828   2.312   5.674   0.755  1.1197 -1.8206 -0.6314
 5274TIP3    H215829   2.377   5.791   0.685 -0.5883 -0.9992 -0.9006
 5275TIP3   OH215830   5.354   4.656   4.897 -0.1371  0.0014 -0.4232
 5275TIP3    H115831   5.287   4.681   4.833  1.1954  2.3703 -1.0062
 5275TIP3    H215832   5.333   4.707   4.975  1.4454  1.4418 -0.9061
 5276TIP3   OH215833   2.704   5.746   2.077  0.0893  0.2278  0.5632
 5276TIP3    H115834   2.635   5.811   2.066 -1.1420 -0.9047  1.3537
 5276TIP3    H215835   2.666   5.664   2.045  1.2624 -0.3282  0.5207
 5277TIP3   OH215836   1.212   2.379   4.769 -0.3334  0.5902  0.2302
 5277TIP3    H115837   1.247   2.409   4.685 -0.3424 -2.8295 -1.1398
 5277TIP3    H215838   1.120   2.407   4.768  0.1556  2.3586  0.1180
 5278TIP3   OH215839   1.684   5.343   4.174 -0.7454  0.4331 -0.1853
 5278TIP3    H115840   1.778   5.360   4.178 -0.6374 -0.2715  0.3741
 5278TIP3    H215841   1.649   5.418   4.126  0.1244  0.5890 -0.6050
 5279TIP3   OH215842   0.182   5.896   0.833 -0.0246 -0.1652 -0.1371
 5279TIP3    H115843   0.182   5.991   0.835  0.3996 -0.1073  3.3271
 5279TIP3    H215844   0.094   5.872   0.805 -0.0629  1.2134 -1.2752
 5280TIP3   OH215845   0.635   2.164   3.633  0.0877  0.5073  0.0596
 5280TIP3    H115846   0.659   2.146   3.724 -0.1099  1.0561  0.2270
 5280TIP3    H215847   0.551   2.119   3.620 -0.0855  0.7600  0.2785
 5281TIP3   OH215848   3.738   3.788   3.944  0.2768  0.7415 -0.3281
 5281TIP3    H115849   3.796   3.722   3.983 -1.4087 -1.8273 -1.8602
 5281TIP3    H215850   3.718   3.753   3.857 -1.1661  3.0597 -1.0060
 5282TIP3   OH215851   1.944   1.888   0.770 -0.1930  0.2914  0.4236
 5282TIP3    H115852   1.947   1.892   0.674  0.8589 -0.8068  0.3916
 5282TIP3    H215853   1.927   1.979   0.797  0.0103  0.7073 -0.7824
 5283TIP3   OH215854   3.285   5.933   1.097  0.8597 -0.2735  0.2613
 5283TIP3    H115855   3.328   5.915   1.013  0.3727  2.2218 -0.5918
 5283TIP3    H215856   3.280   6.028   1.102 -3.3519 -0.3105  0.8891
 5284TIP3   OH215857   1.739   2.478   2.580 -0.3242 -0.6509  0.0505
 5284TIP3    H115858   1.712   2.389   2.557  1.0333 -0.6478 -1.7615
 5284TIP3    H215859   1.834   2.478   2.572 -0.2042  0.7249  1.0028
 5285TIP3   OH215860   0.411   5.133   2.003 -0.7938 -0.1973 -0.0543
 5285TIP3    H115861   0.366   5.072   2.062 -1.4803 -0.9613 -1.3105
 5285TIP3    H215862   0.346   5.200   1.984 -0.7910 -0.2921 -0.4116
 5286TIP3   OH215863   4.332   3.728   3.262  0.1366  0.1213  0.3934
 5286TIP3    H115864   4.423   3.702   3.243  0.1304 -1.0103  1.8059
 5286TIP3    H215865   4.279   3.670   3.207  0.2339  0.5345 -0.1546
 5287TIP3   OH215866   5.159   1.539   1.440 -0.3208 -1.0615  0.5843
 5287TIP3    H115867   5.220   1.466   1.442  1.2398  0.1766  1.9401
 5287TIP3    H215868   5.178   1.588   1.520 -0.1355  1.7032 -1.0027
 5288TIP3   OH215869   0.196   1.578   0.934 -0.3171  0.4989  0.3618
 5288TIP3    H115870   0.154   1.632   0.867  0.3146  0.2891 -0.2148
 5288TIP3    H215871   0.161   1.611   1.017  0.5764  2.2636  0.0782
 5289TIP3   OH215872   0.247   3.909   0.086  0.2515 -0.1189 -0.3080
 5289TIP3    H115873   0.282   3.859   0.159 -1.0390 -0.5370  0.0627
 5289TIP3    H215874   0.314   3.974   0.066  0.2814  0.5923  1.8522
 5290TIP3   OH215875   1.079   1.683   1.919 -0.5926  0.7445  0.6072
 5290TIP3    H115876   1.136   1.651   1.990  0.2717  0.0866 -0.3581
 5290TIP3    H215877   1.095   1.777   1.917  0.2676  0.6052  0.5278
 5291TIP3   OH215878   2.354   1.423   1.780  0.1508  0.0075 -0.4074
 5291TIP3    H115879   2.259   1.423   1.771  0.0950 -1.2056 -0.0591
 5291TIP3    H215880   2.376   1.511   1.808 -0.8790  0.2825 -0.4274
 5292TIP3   OH215881   2.552   1.325   1.574 -0.2983  0.7465  0.2596
 5292TIP3    H115882   2.543   1.313   1.480 -0.1453 -1.2273  0.4434
 5292TIP3    H215883   2.487   1.392   1.596 -2.3618 -0.7440 -0.8826
 5293TIP3   OH215884   4.297   4.925   2.625  0.2795  0.3518  0.5408
 5293TIP3    H115885   4.314   5.009   2.582  1.1269  0.5852  1.2975
 5293TIP3    H215886   4.202   4.921   2.634  0.3103  2.7117  3.3520
 5294TIP3   OH215887   3.286   3.111   1.962 -0.4183  0.5155  0.5859
 5294TIP3    H115888   3.227   3.121   2.037  0.0504  1.3022  0.8662
 5294TIP3    H215889   3.350   3.181   1.973 -1.1061  1.4971 -1.2764
 5295TIP3   OH215890   5.551   5.947   5.084  0.7060  0.2181 -0.7208
 5295TIP3    H115891   5.602   5.870   5.060 -0.1105 -0.2487 -1.0022
 5295TIP3    H215892   5.460   5.921   5.069  0.3564  0.8970  0.1455
 5296TIP3   OH215893   0.064   1.571   3.555  0.4164  0.4424 -0.0088
 5296TIP3    H115894   0.001   1.501   3.538  2.0190 -0.7639 -1.3729
 5296TIP3    H215895   0.088   1.560   3.647  1.3794 -1.5133 -0.4343
 5297TIP3   OH215896   0.364   0.828   2.853 -0.0424 -0.3220 -0.4573
 5297TIP3    H115897   0.433   0.770   2.887 -0.2146  0.4650  1.3762
 5297TIP3    H215898   0.282   0.789   2.884 -0.1535  0.9027  0.9365
 5298TIP3   OH215899   6.109   2.405   2.820  0.0072  0.3227  0.7077
 5298TIP3    H115900   6.061   2.459   2.883 -0.7843  0.7642 -0.2385
 5298TIP3    H215901   6.043   2.346   2.784  0.2589  0.6150 -0.2704
 5299TIP3   OH215902   5.670   0.380   0.923 -0.3114 -0.0770 -0.2340
 5299TIP3    H115903   5.730   0.448   0.891  0.8327 -0.2249  1.4641
 5299TIP3    H215904   5.589   0.395   0.874  0.4254  1.4899 -1.0567
 5300TIP3   OH215905   1.047   2.127   2.216 -0.5169  0.4539 -0.2214
 5300TIP3    H115906   1.046   2.128   2.312 -1.6934  0.6262 -0.2273
 5300TIP3    H215907   0.967   2.082   2.191 -1.6838  2.8297 -1.1215
 5301TIP3   OH215908   0.951   4.880   2.924 -0.0172 -0.3951 -0.5860
 5301TIP3    H115909   1.042   4.886   2.894  0.6171 -2.0943  0.8279
 5301TIP3    H215910   0.917   4.800   2.883 -0.7247 -0.0570 -0.6851
 5302TIP3   OH215911   2.131   2.106   4.284 -0.0410  0.2429  0.3763
 5302TIP3    H115912   2.110   2.175   4.346  0.2972 -0.4305  1.2747
 5302TIP3    H215913   2.201   2.056   4.327 -1.3399 -1.5791  0.4634
 5303TIP3   OH215914   5.278   0.055   1.930  0.4790  0.1733 -0.0991
 5303TIP3    H115915   5.319  -0.002   1.864  0.1146 -1.8986  1.3753
 5303TIP3    H215916   5.352   0.091   1.979  0.6793 -1.2948  0.7302
 5304TIP3   OH215917   0.797   1.742   3.401  0.3303 -0.0387 -0.0156
 5304TIP3    H115918   0.717   1.694   3.425 -1.3587  1.7638 -1.6879
 5304TIP3    H215919   0.867   1.696   3.447 -1.5898 -2.0177  1.1232
 5305TIP3   OH215920   0.342   1.996   3.754  0.2674 -0.3180  0.4508
 5305TIP3    H115921   0.248   1.986   3.766  0.3480 -0.8609  0.6929
 5305TIP3    H215922   0.363   2.081   3.794 -0.0298 -0.4695  0.9394
 5306TIP3   OH215923   4.129   1.438   1.744 -0.1540  0.3745  0.4920
 5306TIP3    H115924   4.092   1.404   1.826  1.6494  1.6387  1.9118
 5306TIP3    H215925   4.151   1.529   1.764  0.1293  0.7805 -1.4997
 5307TIP3   OH215926   0.841   3.389   2.953 -0.0367  0.3543 -0.4203
 5307TIP3    H115927   0.922   3.350   2.987  0.0450  0.7170 -0.1918
 5307TIP3    H215928   0.802   3.321   2.899  0.7294  0.3902 -1.0258
 5308TIP3   OH215929   0.896   3.223   2.685 -0.2333  0.6063  0.3440
 5308TIP3    H115930   0.942   3.183   2.611  1.0491  0.7894  1.0161
 5308TIP3    H215931   0.867   3.308   2.652  2.2811  1.6720  0.6427
 5309TIP3   OH215932   1.094   2.136   0.477  0.8314 -0.4659  0.0554
 5309TIP3    H115933   1.096   2.126   0.382  0.2447  0.0949 -0.0182
 5309TIP3    H215934   1.011   2.178   0.495  0.1174 -2.1671  0.9895
 5310TIP3   OH215935   0.003   4.656   3.582  0.0399  0.5288 -0.3461
 5310TIP3    H115936   0.072   4.613   3.633  0.3669  0.4307 -0.8671
 5310TIP3    H215937  -0.001   4.745   3.618 -0.2550  0.2352  0.3607
 5311TIP3   OH215938   6.252   3.394   4.432  0.3308  0.2899 -0.0319
 5311TIP3    H115939   6.346   3.397   4.413  0.0728 -0.6798 -1.6813
 5311TIP3    H215940   6.215   3.342   4.361 -1.2642 -0.6299  1.3853
 5312TIP3   OH215941   3.016   0.837   2.982  0.5293 -0.0487  0.0178
 5312TIP3    H115942   2.958   0.901   2.941 -2.3437 -2.6401 -0.3163
 5312TIP3    H215943   3.037   0.774   2.913  0.3884 -1.3425  1.1038
 5313TIP3   OH215944   2.625   4.502   4.775 -0.7333 -0.1001  0.4006
 5313TIP3    H115945   2.620   4.438   4.846 -0.8282  0.9520  1.3749
 5313TIP3    H215946   2.610   4.451   4.696  0.5515 -1.5042  1.0134
 5314TIP3   OH215947   5.858   0.585   4.953 -0.1538 -0.0575  0.3438
 5314TIP3    H115948   5.852   0.517   5.020 -2.1682 -0.4841 -0.1931
 5314TIP3    H215949   5.878   0.665   5.002 -0.3690 -0.5736  1.2971
 5315TIP3   OH215950   3.717   4.355   3.423 -0.2335  0.3063 -0.1064
 5315TIP3    H115951   3.712   4.422   3.492  0.1273 -2.1474  2.4567
 5315TIP3    H215952   3.809   4.327   3.423 -0.3497 -0.1377 -1.2340
 5316TIP3   OH215953   3.348   1.935   0.238  0.2334 -0.1461 -0.3047
 5316TIP3    H115954   3.337   1.898   0.326 -1.9123  2.1847  0.5364
 5316TIP3    H215955   3.364   1.860   0.182 -0.2085 -1.9175  1.8168
 5317TIP3   OH215956   4.244   0.568   0.287  0.0925 -0.3319  0.3351
 5317TIP3    H115957   4.250   0.472   0.285 -0.2443 -0.3456 -0.1871
 5317TIP3    H215958   4.307   0.597   0.222  1.1953 -0.1415  1.4650
 5318TIP3   OH215959   6.285   5.177   3.060 -0.0686  0.4768  0.2846
 5318TIP3    H115960   6.227   5.103   3.040 -0.6167  1.0612 -0.3385
 5318TIP3    H215961   6.250   5.249   3.009  0.7842  1.0354  0.4696
 5319TIP3   OH215962   1.037   1.586   1.637 -0.1773  0.4846  0.3781
 5319TIP3    H115963   1.080   1.601   1.721  1.3941 -0.0281 -0.3008
 5319TIP3    H215964   0.995   1.501   1.646  0.7567  0.0132  0.3551
 5320TIP3   OH215965   0.863   3.764   0.047  0.2761  0.0401 -0.3262
 5320TIP3    H115966   0.780   3.719   0.031  0.9375 -1.1334 -0.5777
 5320TIP3    H215967   0.913   3.704   0.102  0.2820  1.5282  1.3743
 5321TIP3   OH215968   3.495   1.624   2.282 -0.2129 -0.1133 -0.0758
 5321TIP3    H115969   3.553   1.576   2.341 -0.8147 -0.2171  0.4326
 5321TIP3    H215970   3.451   1.688   2.337  0.0295  0.5253 -0.6161
 5322TIP3   OH215971   0.994   0.534   1.692 -0.1316 -0.1663  0.1312
 5322TIP3    H115972   0.900   0.537   1.676 -0.5162  0.2846  2.1960
 5322TIP3    H215973   1.006   0.463   1.755  1.2515 -1.8262 -1.8983
 5323TIP3   OH215974   6.259   1.260   0.395  0.0238 -0.2539 -0.4057
 5323TIP3    H115975   6.178   1.238   0.349 -0.1654  0.5923 -0.4886
 5323TIP3    H215976   6.299   1.329   0.343 -0.4019  1.0141  0.8852
 5324TIP3   OH215977   0.351   5.850   0.012  0.3304  0.7542 -0.0548
 5324TIP3    H115978   0.446   5.859   0.008  0.6706 -0.6649  2.6182
 5324TIP3    H215979   0.336   5.757   0.027 -1.6162  0.7229 -1.7104
 5325TIP3   OH215980   0.510   4.348   0.843 -0.2226 -0.5267  0.0258
 5325TIP3    H115981   0.576   4.368   0.909 -1.0358  0.3190  0.6038
 5325TIP3    H215982   0.468   4.267   0.874 -0.5172 -0.2001  0.4908
 5326TIP3   OH215983   3.873   2.851   0.551  0.2956  0.4408 -0.7325
 5326TIP3    H115984   3.898   2.871   0.461  0.0995 -1.9684 -1.3868
 5326TIP3    H215985   3.788   2.892   0.562  0.7217  1.5179 -1.3290
 5327TIP3   OH215986   4.117   3.676   1.473 -0.0151  0.0372 -0.1355
 5327TIP3    H115987   4.058   3.732   1.424 -0.6971  0.2233  0.8775
 5327TIP3    H215988   4.063   3.637   1.542  0.7161 -0.9169 -0.0763
 5328TIP3   OH215989   3.459   0.854   3.080  0.6265  0.0340  0.2094
 5328TIP3    H115990   3.513   0.783   3.114 -0.0590 -0.6806 -0.1818
 5328TIP3    H215991   3.500   0.878   2.997  1.5363  0.8994  0.8809
 5329TIP3   OH215992   4.283   2.799   1.066  0.3514  0.0915 -0.5512
 5329TIP3    H115993   4.374   2.769   1.068  0.6847  1.0916 -0.1997
 5329TIP3    H215994   4.281   2.860   0.993  0.3446  1.2113  0.3585
 5330TIP3   OH215995   0.331   0.802   4.075 -0.2275 -0.4427  0.1557
 5330TIP3    H115996   0.331   0.721   4.124  0.0721 -0.5230  0.0252
 5330TIP3    H215997   0.384   0.783   3.997  0.6707  0.1681  0.6067
 5331TIP3   OH215998   4.361   5.153   4.012 -0.5410  0.1523 -0.2394
 5331TIP3    H115999   4.404   5.222   3.962  4.2435 -2.3815 -0.1828
 5331TIP3    H216000   4.367   5.181   4.103  1.1314 -0.0908 -0.2412
 5332TIP3   OH216001   5.626   4.007   4.569 -0.2339 -0.0912  0.0572
 5332TIP3    H116002   5.624   3.919   4.531 -0.4367 -0.1232  0.1411
 5332TIP3    H216003   5.717   4.036   4.559  0.2136 -0.9330  1.4417
 5333TIP3   OH216004   1.187   1.907   4.665 -0.5104  0.2435 -0.5595
 5333TIP3    H116005   1.229   1.827   4.636  0.8128  0.4643  0.6343
 5333TIP3    H216006   1.188   1.964   4.588  0.4763 -0.1293 -0.8359
 5334TIP3   OH216007   0.638   2.287   0.961 -0.1006 -0.6225  0.0059
 5334TIP3    H116008   0.661   2.263   1.050  2.1839  0.3272 -0.2541
 5334TIP3    H216009   0.548   2.257   0.950 -1.0565  0.6939  3.1544
 5335TIP3   OH216010   3.737   0.095   0.891 -0.5227  0.0846  0.1932
 5335TIP3    H116011   3.827   0.106   0.863 -0.3916 -1.7482 -0.2128
 5335TIP3    H216012   3.686   0.153   0.835  0.1825 -0.4963 -1.0700
 5336TIP3   OH216013   5.067   4.595   0.826  0.0741 -0.0233 -0.0586
 5336TIP3    H116014   5.084   4.501   0.822  0.1047 -0.0962  1.4138
 5336TIP3    H216015   5.012   4.612   0.750  0.6748 -1.0863 -0.7691
 5337TIP3   OH216016   2.986   1.863   3.948 -0.2895 -0.3885 -0.1750
 5337TIP3    H116017   2.963   1.910   3.867 -0.4698  0.9246  0.6025
 5337TIP3    H216018   2.973   1.771   3.927 -1.0325 -0.0227 -1.4312
 5338TIP3   OH216019   5.050   0.612   3.824  0.0478  0.6143 -0.7576
 5338TIP3    H116020   4.996   0.536   3.848  0.2730  0.7933  0.3649
 5338TIP3    H216021   4.988   0.677   3.794 -0.0489 -0.5347 -3.3168
 5339TIP3   OH216022   2.732   4.003   0.012 -0.4096 -0.0886 -0.4686
 5339TIP3    H116023   2.812   4.055   0.006  0.5614 -1.3751  0.9209
 5339TIP3    H216024   2.662   4.069   0.015  0.6586  1.0904 -0.4407
 5340TIP3   OH216025   1.129   4.124   0.496  0.1695 -0.0418 -0.2764
 5340TIP3    H116026   1.039   4.146   0.519  0.2263 -0.3102  0.2137
 5340TIP3    H216027   1.120   4.062   0.423 -0.0205  0.4703 -0.6936
 5341TIP3   OH216028   1.560   2.115   3.640 -0.2115  0.0235 -0.0236
 5341TIP3    H116029   1.568   2.019   3.636 -2.0299 -0.1868  0.5730
 5341TIP3    H216030   1.643   2.144   3.679 -0.9501 -1.6311  3.1331
 5342TIP3   OH216031   5.208   4.278   3.672  0.2819  0.3865 -0.4177
 5342TIP3    H116032   5.290   4.244   3.638  0.1441 -0.5748  0.1800
 5342TIP3    H216033   5.227   4.303   3.763 -0.2003 -0.3330 -0.1069
 5343TIP3   OH216034   0.768   3.964   4.912 -0.3234  0.0508 -0.5032
 5343TIP3    H116035   0.849   4.015   4.912 -0.5279  0.4341 -1.9486
 5343TIP3    H216036   0.758   3.937   4.821 -2.7508  1.5484 -0.7673
 5344TIP3   OH216037   6.208   4.985   2.209 -0.0343  0.7031  0.7535
 5344TIP3    H116038   6.128   4.994   2.157  0.6859  1.0529 -0.3126
 5344TIP3    H216039   6.249   4.905   2.177  0.1670  0.6504  1.1399
 5345TIP3   OH216040   4.430   1.819   3.038 -0.2500  0.7536  0.0521
 5345TIP3    H116041   4.336   1.833   3.045 -0.5898 -1.4974  0.9947
 5345TIP3    H216042   4.466   1.857   3.117 -0.6470 -0.0844  0.6551
 5346TIP3   OH216043   4.604   1.644   4.910  0.6789 -0.2581 -0.3674
 5346TIP3    H116044   4.545   1.718   4.925  0.7928 -0.5031  1.4444
 5346TIP3    H216045   4.689   1.673   4.943  0.9135 -0.8997 -0.3945
 5347TIP3   OH216046   5.749   1.779   1.511  0.0973  0.1407 -0.0627
 5347TIP3    H116047   5.743   1.693   1.552  0.0068  0.3336  0.3334
 5347TIP3    H216048   5.687   1.833   1.560 -1.2408 -0.0332 -1.5063
 5348TIP3   OH216049   2.189   3.434   3.243 -0.2757 -1.0031 -0.3520
 5348TIP3    H116050   2.123   3.367   3.257  0.0154 -0.9548  1.5333
 5348TIP3    H216051   2.268   3.400   3.285  0.7192 -0.7594 -1.9605
 5349TIP3   OH216052   0.439   1.541   2.798 -0.8180 -0.4371  0.8559
 5349TIP3    H116053   0.380   1.616   2.797  2.6116  2.4537  0.8591
 5349TIP3    H216054   0.456   1.525   2.891 -0.5618 -0.4176  0.8117
 5350TIP3   OH216055   5.868   2.262   3.199 -0.4316 -0.2134 -0.2214
 5350TIP3    H116056   5.872   2.215   3.283 -1.4427  0.8116  0.4178
 5350TIP3    H216057   5.862   2.354   3.223  0.0688  0.1581 -1.4468
 5351TIP3   OH216058   2.956   1.480   5.046 -0.3389 -0.3643  0.3137
 5351TIP3    H116059   2.865   1.505   5.032 -0.4743 -1.1570 -0.3239
 5351TIP3    H216060   2.951   1.397   5.095 -0.0134 -1.0950 -0.8390
 5352TIP3   OH216061   3.532   1.311   2.255  0.7159  0.4840  0.4671
 5352TIP3    H116062   3.539   1.228   2.208 -2.1804  0.4829 -0.1324
 5352TIP3    H216063   3.537   1.378   2.186 -0.8712  0.6007  0.4400
 5353TIP3   OH216064   5.398   3.673   1.796 -0.1140  0.4020 -0.3017
 5353TIP3    H116065   5.320   3.627   1.827 -0.2011 -0.1580 -1.3029
 5353TIP3    H216066   5.383   3.765   1.820 -2.0186  0.6602 -2.2168
 5354TIP3   OH216067   1.528   1.527   0.857 -0.2509  0.2792  0.0148
 5354TIP3    H116068   1.616   1.532   0.896  0.8007 -2.3577 -1.7289
 5354TIP3    H216069   1.477   1.591   0.905  2.2425  0.8282  2.1622
 5355TIP3   OH216070   2.914   4.237   2.599  0.0983  0.7731  0.2599
 5355TIP3    H116071   2.819   4.243   2.603  0.0185 -0.5422  1.0265
 5355TIP3    H216072   2.935   4.247   2.506 -0.8405  0.3984 -0.0002
 5356TIP3   OH216073   2.053   3.646   1.979  0.5775 -0.3150 -0.4031
 5356TIP3    H116074   1.957   3.645   1.969  0.5073  0.8670 -0.0319
 5356TIP3    H216075   2.085   3.676   1.894  0.6918 -1.5434 -0.8179
 5357TIP3   OH216076   1.265   1.341   3.604  0.0415  0.4847  0.7032
 5357TIP3    H116077   1.189   1.333   3.547  0.6254 -2.1703  0.1646
 5357TIP3    H216078   1.235   1.395   3.677 -1.6576  1.3688 -0.5863
 5358TIP3   OH216079   1.490   0.230   2.077  0.1166  0.3525 -0.1639
 5358TIP3    H116080   1.554   0.263   2.140  0.2758 -0.7361  0.2775
 5358TIP3    H216081   1.424   0.186   2.131 -0.6319  0.8380 -0.6609
 5359TIP3   OH216082   4.682   1.365   5.050  0.0989 -0.2259 -0.3714
 5359TIP3    H116083   4.631   1.445   5.060 -1.0346 -1.0163  0.3609
 5359TIP3    H216084   4.746   1.386   4.982  0.5194  1.6352  0.5339
 5360TIP3   OH216085   4.842   5.560   3.338  0.0433 -0.6674 -0.4158
 5360TIP3    H116086   4.752   5.534   3.358 -0.0185 -1.3929 -1.5301
 5360TIP3    H216087   4.892   5.479   3.347  0.7133 -0.1497  0.7914
 5361TIP3   OH216088   4.491   3.007   3.902  0.4641  0.1650 -0.0620
 5361TIP3    H116089   4.520   3.007   3.993  0.9508 -0.1824 -0.2146
 5361TIP3    H216090   4.398   2.984   3.906  0.7583 -1.0389  0.2685
 5362TIP3   OH216091   1.375   1.800   0.253  0.9310  0.0888 -0.4598
 5362TIP3    H116092   1.404   1.884   0.287  1.8042 -0.3997  0.0327
 5362TIP3    H216093   1.298   1.821   0.201  0.3932  1.0266  0.6772
 5363TIP3   OH216094   4.781   4.350   4.516  0.3481 -0.1506 -0.0645
 5363TIP3    H116095   4.686   4.361   4.517  0.2941 -0.4601 -1.0129
 5363TIP3    H216096   4.795   4.263   4.554  0.1418 -0.7412 -1.3071
 5364TIP3   OH216097   6.006   2.097   4.099  0.2843 -0.3783 -0.1232
 5364TIP3    H116098   5.947   2.166   4.069  1.2209  0.8211  0.7440
 5364TIP3    H216099   5.947   2.026   4.127 -0.7502  0.7500  0.6427
 5365TIP3   OH216100   1.815   0.293   3.479  0.4320 -0.1628  0.0620
 5365TIP3    H116101   1.803   0.383   3.511  0.3784  0.0811 -0.6254
 5365TIP3    H216102   1.908   0.289   3.455  0.0224  0.3180 -1.7030
 5366TIP3   OH216103   2.492   1.349   2.834  0.8142  0.3412  0.1877
 5366TIP3    H116104   2.468   1.266   2.794  2.2757  0.5532 -1.1977
 5366TIP3    H216105   2.446   1.415   2.783  0.7492  0.4673  0.4075
 5367TIP3   OH216106   3.757   2.242   0.528 -0.0696 -0.3111  0.0753
 5367TIP3    H116107   3.794   2.222   0.614 -1.5432  0.0461  0.8178
 5367TIP3    H216108   3.829   2.225   0.467  0.6049 -1.9343  1.2258
 5368TIP3   OH216109   5.593   4.731   2.388 -0.6404 -0.4573  0.0477
 5368TIP3    H116110   5.498   4.729   2.404 -0.7865  0.3984 -0.6600
 5368TIP3    H216111   5.631   4.752   2.474 -1.1845  0.6232  0.0350
 5369TIP3   OH216112   4.227   5.515   4.186 -0.0225  0.3004 -0.0617
 5369TIP3    H116113   4.170   5.438   4.179 -0.4954  0.7439 -1.5864
 5369TIP3    H216114   4.211   5.549   4.274 -1.8966  0.2097 -0.3256
 5370TIP3   OH216115   2.439   4.117   2.069 -0.3037  0.6340  0.8293
 5370TIP3    H116116   2.493   4.195   2.084  0.4212  0.2975  0.0594
 5370TIP3    H216117   2.444   4.069   2.152  0.3182  0.7749  0.8823
 5371TIP3   OH216118   3.222   4.931   2.485 -0.2386  0.0786 -0.5246
 5371TIP3    H116119   3.182   4.947   2.399 -0.6362  1.0954 -0.1665
 5371TIP3    H216120   3.202   5.010   2.535 -0.3480 -0.6701  0.6355
 5372TIP3   OH216121   5.191   1.393   3.902 -0.1298  0.1928 -0.0612
 5372TIP3    H116122   5.254   1.448   3.856 -0.0351 -0.7046 -1.0365
 5372TIP3    H216123   5.142   1.348   3.833 -0.3840 -0.7389  0.6939
 5373TIP3   OH216124   4.848   4.372   2.030  0.5511  0.2066  0.1041
 5373TIP3    H116125   4.867   4.428   2.106 -1.3819  0.6354  0.3041
 5373TIP3    H216126   4.839   4.433   1.957  0.3264 -0.0297 -0.0640
 5374TIP3   OH216127   3.052   4.441   2.142 -0.1655  0.9090 -0.5866
 5374TIP3    H116128   3.108   4.518   2.129  0.1517  0.7378 -0.2488
 5374TIP3    H216129   3.073   4.383   2.069  0.8619  0.3935  0.1027
 5375TIP3   OH216130   2.298   3.134   0.789  0.3254  0.0126  0.4100
 5375TIP3    H116131   2.386   3.168   0.806  0.6376  0.3034 -1.5610
 5375TIP3    H216132   2.309   3.039   0.787  0.9162  0.0898 -1.2641
 5376TIP3   OH216133   0.903   1.001   2.421  0.5521 -0.1680 -0.3638
 5376TIP3    H116134   0.906   0.905   2.419  1.1017 -0.1850  0.8109
 5376TIP3    H216135   0.992   1.028   2.396  0.7349  0.0013  0.4363
 5377TIP3   OH216136   0.033   1.757   0.208 -0.5161 -0.0111  0.2997
 5377TIP3    H116137   0.059   1.748   0.117  0.4361  0.6318  0.4989
 5377TIP3    H216138  -0.035   1.825   0.207  0.6368  1.1833  0.2441
 5378TIP3   OH216139   2.385   4.483   2.950 -0.2161  0.5085  0.2208
 5378TIP3    H116140   2.304   4.519   2.987  2.3687  3.7635  3.4944
 5378TIP3    H216141   2.409   4.543   2.880 -0.1937  0.1033 -0.1187
 5379TIP3   OH216142   1.750   4.377   1.665 -0.1006 -0.3135  0.4730
 5379TIP3    H116143   1.769   4.298   1.715  1.2906 -1.0974 -1.1801
 5379TIP3    H216144   1.796   4.446   1.710  1.3239 -1.0490  0.1978
 5380TIP3   OH216145   5.874   0.973   2.622  0.5523  0.3286 -0.1458
 5380TIP3    H116146   5.903   1.057   2.657 -0.7232  1.0282 -0.6757
 5380TIP3    H216147   5.940   0.910   2.650  0.7661  1.2456  1.5296
 5381TIP3   OH216148   5.956   2.266   5.100  0.0169 -0.1231 -0.4252
 5381TIP3    H116149   5.867   2.235   5.112 -0.4114  1.1393 -0.2025
 5381TIP3    H216150   5.972   2.325   5.174  1.8601 -2.0618  0.8457
 5382TIP3   OH216151   3.171   4.992   1.621 -0.5557  0.0215  0.4013
 5382TIP3    H116152   3.169   4.966   1.713 -2.0171 -0.6280  0.2012
 5382TIP3    H216153   3.084   4.972   1.588 -0.9772  2.8185 -0.4445
 5383TIP3   OH216154   4.745   5.800   2.742  0.6477  0.5944  0.0854
 5383TIP3    H116155   4.772   5.821   2.832 -0.4335  2.2723  0.0498
 5383TIP3    H216156   4.807   5.847   2.687 -0.3442  1.8477 -0.0046
 5384TIP3   OH216157   5.965   4.663   2.012  0.2018  0.2485  0.6946
 5384TIP3    H116158   6.039   4.605   1.996  0.4440  0.5682  0.6526
 5384TIP3    H216159   5.941   4.647   2.104  1.3858  1.3422  1.2292
 5385TIP3   OH216160   0.934   3.602   4.572 -0.2457  0.3094 -0.0536
 5385TIP3    H116161   0.842   3.583   4.558  0.4225 -2.3516 -1.5047
 5385TIP3    H216162   0.954   3.672   4.510 -1.1489  0.5357 -0.1039
 5386TIP3   OH216163   2.123   2.445   0.667 -0.1144 -0.3143  0.2403
 5386TIP3    H116164   2.163   2.516   0.618 -1.5906  0.8837  0.6777
 5386TIP3    H216165   2.196   2.389   0.693  1.2504  1.6483  0.8611
 5387TIP3   OH216166   0.180   5.079   2.706 -0.3237  0.8902 -0.1867
 5387TIP3    H116167   0.129   5.016   2.756  1.4012 -1.3982 -1.1474
 5387TIP3    H216168   0.178   5.159   2.759  1.3172 -1.2854  3.6096
 5388TIP3   OH216169   2.337   3.222   0.336  0.1202  0.2923 -0.5030
 5388TIP3    H116170   2.425   3.220   0.372 -0.4689 -0.0594  0.9808
 5388TIP3    H216171   2.350   3.233   0.242  1.7892 -1.0180 -0.4720
 5389TIP3   OH216172   3.664   0.343   0.732  0.4126 -0.1721  0.3587
 5389TIP3    H116173   3.581   0.297   0.717  1.8506 -2.8807  0.1653
 5389TIP3    H216174   3.724   0.306   0.667  2.2209  0.4862  1.5945
 5390TIP3   OH216175   5.603   1.249   0.896 -0.0889  0.5427  0.7388
 5390TIP3    H116176   5.517   1.292   0.896 -1.2659 -1.6232  1.8856
 5390TIP3    H216177   5.625   1.239   0.804 -1.0721  1.1066  0.4257
 5391TIP3   OH216178   1.413   2.298   3.503  0.3606 -0.2097  0.2876
 5391TIP3    H116179   1.435   2.232   3.569  0.2117  0.6841  1.2665
 5391TIP3    H216180   1.337   2.342   3.539  0.3217  0.3494 -0.4652
 5392TIP3   OH216181   2.514   4.394   0.875 -0.0061 -0.2488  0.4226
 5392TIP3    H116182   2.554   4.317   0.835 -0.9426 -0.7147  0.3630
 5392TIP3    H216183   2.421   4.386   0.855 -0.3576  0.0350  1.8277
 5393TIP3   OH216184   4.272   3.638   3.598 -0.5667  0.3919  0.1193
 5393TIP3    H116185   4.214   3.708   3.567  2.7341  2.5943 -1.6813
 5393TIP3    H216186   4.255   3.564   3.539 -1.9028  0.7718  0.0052
 5394TIP3   OH216187   3.658   5.959   2.608  0.3245 -0.4124 -0.0593
 5394TIP3    H116188   3.563   5.973   2.605  0.3826  0.0279  0.0591
 5394TIP3    H216189   3.676   5.931   2.698  0.4940  0.9826  0.3639
 5395TIP3   OH216190   2.102   3.380   2.563  0.0547 -0.6774 -0.5131
 5395TIP3    H116191   2.076   3.459   2.609  0.6199  0.9164 -2.7766
 5395TIP3    H216192   2.028   3.320   2.573 -0.9396  0.6228  0.1523
 5396TIP3   OH216193   2.186   3.062   3.314  0.5577  0.3579 -0.2172
 5396TIP3    H116194   2.218   3.119   3.245 -0.0578  0.0469 -0.7749
 5396TIP3    H216195   2.231   3.091   3.393 -0.6972  2.5041 -0.2076
 5397TIP3   OH216196   0.951   1.669   0.690 -0.0668 -0.7078 -0.2647
 5397TIP3    H116197   1.036   1.712   0.677 -0.4733 -0.8340 -4.8913
 5397TIP3    H216198   0.887   1.740   0.681 -0.5303 -1.0079  0.6013
 5398TIP3   OH216199   1.412   4.232   1.362  0.5548 -0.1433 -0.3134
 5398TIP3    H116200   1.467   4.285   1.305  0.2803 -0.1898 -0.6232
 5398TIP3    H216201   1.344   4.292   1.393  0.8734 -0.0415  0.2088
 5399TIP3   OH216202  -0.035   3.705   0.260 -0.0595  0.7966 -0.1053
 5399TIP3    H116203   0.031   3.755   0.307 -0.3978  1.2472 -0.1033
 5399TIP3    H216204   0.015   3.647   0.202  0.4374 -1.0872  2.0531
 5400TIP3   OH216205   5.154   3.054   0.372  0.1028  0.0412  0.2684
 5400TIP3    H116206   5.173   3.123   0.308  1.5555  0.5172  1.1487
 5400TIP3    H216207   5.088   2.999   0.330  1.9290 -0.4461 -2.2146
 5401TIP3   OH216208   4.626   2.128   4.443  0.0632 -0.2252 -0.1830
 5401TIP3    H116209   4.661   2.079   4.369  1.8217 -0.5659  0.8099
 5401TIP3    H216210   4.552   2.075   4.474  0.5744 -1.1307 -0.4594
 5402TIP3   OH216211   3.141   4.098   3.768 -0.0826 -0.1127  0.6358
 5402TIP3    H116212   3.128   4.010   3.804 -1.4869 -0.5781 -0.8805
 5402TIP3    H216213   3.083   4.154   3.819 -1.6167 -0.6689 -0.4002
 5403TIP3   OH216214   1.374   3.784   3.325  0.2929 -0.0667 -0.3089
 5403TIP3    H116215   1.434   3.785   3.251 -0.4458 -0.8911 -0.9361
 5403TIP3    H216216   1.410   3.719   3.385  2.2311  2.2550  1.2612
 5404TIP3   OH216217   0.319   3.614   1.130 -0.2265 -0.2888 -0.3606
 5404TIP3    H116218   0.296   3.624   1.037 -1.2049 -0.9095 -0.2026
 5404TIP3    H216219   0.313   3.520   1.146  0.0387 -0.1969  0.3168
 5405TIP3   OH216220   0.030   2.109   2.278 -0.4213  0.2855 -0.3671
 5405TIP3    H116221   0.090   2.164   2.229  1.0086 -0.6011  0.2985
 5405TIP3    H216222   0.049   2.128   2.370 -2.9744  1.8517 -0.0617
 5406TIP3   OH216223   5.658   0.335   3.719  0.7331 -0.4512 -0.0329
 5406TIP3    H116224   5.733   0.276   3.730  0.5571 -0.8011 -0.6675
 5406TIP3    H216225   5.582   0.280   3.737  0.6243 -0.0734  0.6993
 5407TIP3   OH216226   3.094   5.702   0.193 -0.7516 -0.8629 -0.1751
 5407TIP3    H116227   3.177   5.677   0.235 -1.2370 -0.5064  1.0148
 5407TIP3    H216228   3.102   5.796   0.178 -0.0146 -1.1982 -2.2215
 5408TIP3   OH216229   6.335   2.585   1.766  0.3563 -0.4121 -0.0869
 5408TIP3    H116230   6.314   2.493   1.750  0.6290 -0.3627 -0.7752
 5408TIP3    H216231   6.324   2.627   1.681 -0.4234  0.3267  0.3683
 5409TIP3   OH216232   4.688   0.303   3.990  0.1131  0.7301  0.1583
 5409TIP3    H116233   4.659   0.232   3.933  1.1069  1.3884 -1.2053
 5409TIP3    H216234   4.649   0.282   4.075 -3.3548  0.8953 -1.2154
 5410TIP3   OH216235   6.095   2.250   3.775 -0.4996 -0.0015 -0.2705
 5410TIP3    H116236   6.040   2.328   3.781 -0.9490 -0.3102 -0.2929
 5410TIP3    H216237   6.146   2.250   3.856 -1.0667 -0.1021  0.0950
 5411TIP3   OH216238   2.006   4.899   2.869  0.1320 -0.4667  0.1324
 5411TIP3    H116239   1.976   4.916   2.780 -1.7250 -1.3284  0.5405
 5411TIP3    H216240   2.039   4.984   2.900  0.6638 -0.1278 -1.3056
 5412TIP3   OH216241   4.359   3.963   5.121 -0.3857  0.5913  0.2748
 5412TIP3    H116242   4.351   3.990   5.030  0.9886  1.2204  0.3105
 5412TIP3    H216243   4.304   3.885   5.128 -1.0916  0.9551 -0.8981
 5413TIP3   OH216244   3.406   0.050   4.370 -0.5433 -0.0090  0.3876
 5413TIP3    H116245   3.361   0.076   4.450  0.3604 -1.3824  1.3920
 5413TIP3    H216246   3.490   0.016   4.400  0.2472  0.3867 -1.2468
 5414TIP3   OH216247   4.609   0.998   1.186 -0.0076  0.2584  0.1871
 5414TIP3    H116248   4.595   0.912   1.148 -1.0482  0.1401  0.8059
 5414TIP3    H216249   4.567   1.059   1.125 -0.0811  0.2456  0.2257
 5415TIP3   OH216250   1.131   5.617   5.063  0.2310  0.0805  0.4108
 5415TIP3    H116251   1.062   5.568   5.017  0.5297 -0.0448  0.0844
 5415TIP3    H216252   1.154   5.561   5.137  0.2751 -0.0799  0.2793
 5416TIP3   OH216253   0.745   5.062   4.970  0.5410 -0.7788  0.1997
 5416TIP3    H116254   0.702   5.145   4.952 -1.1973 -1.6732 -0.0157
 5416TIP3    H216255   0.810   5.053   4.900 -0.3857 -0.3530 -0.7410
 5417TIP3   OH216256   6.005   1.518   0.902  0.1642  0.4591 -0.2913
 5417TIP3    H116257   6.039   1.607   0.910  1.6990 -0.0796 -0.3148
 5417TIP3    H216258   5.923   1.527   0.855  0.8211  1.7629 -1.2352
 5418TIP3   OH216259   0.916   5.673   4.424  0.3619 -0.0584  0.0768
 5418TIP3    H116260   0.936   5.766   4.431  0.9115 -0.2634  1.5865
 5418TIP3    H216261   0.962   5.645   4.345 -0.6322  1.1252 -0.9737
 5419TIP3   OH216262   0.787   3.865   2.387 -0.1259  0.0959  0.0695
 5419TIP3    H116263   0.747   3.845   2.472 -0.2831  0.6759  0.1337
 5419TIP3    H216264   0.864   3.918   2.408  2.1711 -2.9918  0.1470
 5420TIP3   OH216265   3.208   0.299   1.432 -0.3299  0.0625  0.5031
 5420TIP3    H116266   3.284   0.357   1.429 -0.4687  0.2253 -0.0038
 5420TIP3    H216267   3.171   0.304   1.344  0.2262 -1.5510  0.1415
 5421TIP3   OH216268   1.868   5.497   4.694 -0.7470 -0.4030 -0.0021
 5421TIP3    H116269   1.881   5.404   4.675  0.8357  0.2121 -2.2955
 5421TIP3    H216270   1.933   5.518   4.761 -0.7166 -0.8177  0.0980
 5422TIP3   OH216271   0.658   2.496   3.315 -0.2947 -0.0529  0.3543
 5422TIP3    H116272   0.695   2.567   3.368 -0.1677 -0.0753  0.2958
 5422TIP3    H216273   0.566   2.490   3.343 -0.6087  0.8759 -0.4114
 5423TIP3   OH216274   4.321   0.727   2.156 -0.1345  0.5288  0.1238
 5423TIP3    H116275   4.362   0.660   2.211  2.5242  1.7302 -0.2198
 5423TIP3    H216276   4.290   0.793   2.218 -0.0859  0.3447  0.3451
 5424TIP3   OH216277   3.232   0.470   0.362 -0.2189 -0.6234  0.3957
 5424TIP3    H116278   3.256   0.386   0.400 -0.3412 -1.5515 -1.4738
 5424TIP3    H216279   3.296   0.532   0.399 -1.5151 -0.9948  3.6119
 5425TIP3   OH216280   1.082   2.241   0.790  0.5089  0.0616  0.0609
 5425TIP3    H116281   1.007   2.214   0.737  0.8968 -0.3590 -0.2726
 5425TIP3    H216282   1.053   2.227   0.881  0.4966 -0.9303 -0.0912
 5426TIP3   OH216283   4.814   2.106   1.438  0.0055  0.5521 -0.4436
 5426TIP3    H116284   4.822   2.148   1.352 -0.4395  0.0210 -0.7502
 5426TIP3    H216285   4.794   2.179   1.498 -0.8084  0.7841 -0.9776
 5427TIP3   OH216286   6.212   1.356   4.012  0.7099 -0.1957 -0.2564
 5427TIP3    H116287   6.149   1.284   4.010 -0.8014  1.0977 -1.2906
 5427TIP3    H216288   6.294   1.316   4.043 -0.8060 -1.7566  2.0294
 5428TIP3   OH216289   1.339   5.843   0.107  0.4016  0.1241 -0.0096
 5428TIP3    H116290   1.245   5.860   0.096  0.7526  1.9748 -0.5269
 5428TIP3    H216291   1.381   5.902   0.045  1.9335 -0.4330  0.4653
 5429TIP3   OH216292   1.965   5.538   3.622 -0.3976 -1.2396 -0.2884
 5429TIP3    H116293   1.995   5.589   3.547 -1.6041  0.8551  0.5558
 5429TIP3    H216294   1.874   5.565   3.635  0.4016  0.3277  3.3082
 5430TIP3   OH216295   3.068   3.599   1.247 -0.8188 -0.4724 -0.3950
 5430TIP3    H116296   3.081   3.644   1.163  0.7131 -1.4871 -0.7472
 5430TIP3    H216297   2.977   3.570   1.245 -0.8360 -0.3850 -1.6770
 5431TIP3   OH216298   4.038   3.211   3.817  0.4209 -0.5183 -0.0495
 5431TIP3    H116299   4.019   3.303   3.796  1.3889  0.0123  1.2902
 5431TIP3    H216300   3.997   3.162   3.746  0.7266  0.9934 -1.3209
 5432TIP3   OH216301   0.810   0.821   1.930  0.1873  0.1326  0.2579
 5432TIP3    H116302   0.854   0.850   1.850 -2.9073  2.5306 -0.7851
 5432TIP3    H216303   0.751   0.751   1.900 -2.1577  2.1022 -0.0655
 5433TIP3   OH216304   4.394   0.835   3.425  0.5044  0.0068  0.2649
 5433TIP3    H116305   4.311   0.845   3.473 -1.6542 -0.3016 -3.0640
 5433TIP3    H216306   4.398   0.912   3.368  2.2471 -0.2827 -0.0430
 5434TIP3   OH216307   3.835   5.976   0.073  0.1276 -0.0967 -0.4790
 5434TIP3    H116308   3.809   5.942  -0.013 -0.2681 -1.2435  0.0764
 5434TIP3    H216309   3.902   5.914   0.103  1.6170  1.3215 -0.7308
 5435TIP3   OH216310   3.134   0.550   3.315 -0.1061 -0.0747 -0.1481
 5435TIP3    H116311   3.149   0.501   3.234  1.0715 -0.7756  0.4668
 5435TIP3    H216312   3.099   0.635   3.285 -2.0100 -1.1625 -1.2432
 5436TIP3   OH216313   3.165   2.673   4.593 -0.6058 -0.6317 -0.0862
 5436TIP3    H116314   3.090   2.617   4.571 -1.8237  0.8578  0.0980
 5436TIP3    H216315   3.186   2.651   4.684 -1.7692 -0.0695  0.3399
 5437TIP3   OH216316   6.284   5.758   4.790 -0.0138 -0.3192  0.1878
 5437TIP3    H116317   6.278   5.726   4.700 -0.0075 -1.4862  0.5889
 5437TIP3    H216318   6.235   5.841   4.789 -2.1172 -1.4902 -0.3573
 5438TIP3   OH216319   2.460   4.916   2.723 -0.0554 -0.3300  0.1865
 5438TIP3    H116320   2.502   4.948   2.802  0.5274  0.1702 -0.3185
 5438TIP3    H216321   2.523   4.855   2.684 -0.4533 -0.7893  0.2475
 5439TIP3   OH216322   3.528   2.098   4.413  0.4263  0.5420  0.0356
 5439TIP3    H116323   3.547   2.006   4.394 -1.5630  0.3931 -1.6053
 5439TIP3    H216324   3.518   2.139   4.327 -0.0339  1.9981  0.7454
 5440TIP3   OH216325   5.583   1.389   3.057 -0.1212 -0.0248 -0.1746
 5440TIP3    H116326   5.557   1.319   3.116  0.0866  0.2132  0.2053
 5440TIP3    H216327   5.639   1.346   2.992  0.0462 -0.2034  0.0846
 5441TIP3   OH216328   5.667   1.752   3.569  1.1438  0.2704 -0.2774
 5441TIP3    H116329   5.611   1.740   3.493  1.1493  1.3377 -0.4731
 5441TIP3    H216330   5.656   1.844   3.592  1.0563 -0.0622  1.0901
 5442TIP3   OH216331   1.844   0.469   0.089 -0.3234  0.0680  0.8078
 5442TIP3    H116332   1.822   0.448  -0.002  2.9925 -0.6120  0.0338
 5442TIP3    H216333   1.759   0.487   0.130 -1.8790  2.0182 -2.7602
 5443TIP3   OH216334   2.822   3.430   2.878  0.0936 -0.2893  0.2713
 5443TIP3    H116335   2.875   3.510   2.870  0.8999 -0.7426  0.8602
 5443TIP3    H216336   2.868   3.366   2.824 -0.0508 -0.5981  0.5130
 5444TIP3   OH216337   4.429   2.561   3.379 -0.1195  0.1148 -0.3198
 5444TIP3    H116338   4.404   2.476   3.415 -0.5010 -0.8933 -2.8208
 5444TIP3    H216339   4.484   2.600   3.448 -1.6120 -1.2106  1.7467
 5445TIP3   OH216340   6.348   0.244   0.611 -0.2332 -0.3473 -0.9443
 5445TIP3    H116341   6.399   0.259   0.532 -1.7003 -0.2656 -1.9162
 5445TIP3    H216342   6.257   0.247   0.582 -0.8729  1.0632  0.9554
 5446TIP3   OH216343   6.012   4.635   3.722  0.0583 -0.3660 -0.5507
 5446TIP3    H116344   5.936   4.607   3.672  1.0743  1.5627 -3.4188
 5446TIP3    H216345   6.013   4.730   3.714  2.4425 -0.2898 -0.1295
 5447TIP3   OH216346   2.448   1.598   4.007 -0.5195 -0.1132  0.2322
 5447TIP3    H116347   2.434   1.533   4.075 -1.1756  0.3619  0.5617
 5447TIP3    H216348   2.417   1.680   4.046  0.0098  0.3432 -0.2836
 5448TIP3   OH216349   4.594   0.042   0.174 -0.1687  0.0332 -0.1217
 5448TIP3    H116350   4.641   0.004   0.099  1.2378  0.7817  0.3333
 5448TIP3    H216351   4.655   0.107   0.210 -1.6245  1.1715  0.4308
 5449TIP3   OH216352   4.985   2.078   0.859 -0.3647  0.6333  1.1086
 5449TIP3    H116353   4.931   2.007   0.891 -0.8753  0.4633 -0.0945
 5449TIP3    H216354   5.018   2.120   0.939 -0.1116 -0.8796  1.8394
 5450TIP3   OH216355   1.693   0.331   1.375 -0.2287  0.3247  0.0858
 5450TIP3    H116356   1.667   0.247   1.337  0.1548  0.8403 -1.3830
 5450TIP3    H216357   1.612   0.368   1.411 -1.4263  1.3193 -3.2400
 5451TIP3   OH216358   5.222   5.113   2.860 -0.6392  0.0826  0.0404
 5451TIP3    H116359   5.196   5.097   2.770 -1.1527 -1.0866  0.3820
 5451TIP3    H216360   5.292   5.050   2.877 -0.9209 -0.0764  0.6275
 5452TIP3   OH216361   5.373   5.368   2.917  0.3888  0.1366  0.2180
 5452TIP3    H116362   5.337   5.280   2.914 -0.5409  0.3741  2.3433
 5452TIP3    H216363   5.467   5.356   2.926  0.2292 -0.6535  0.8983
 5453TIP3   OH216364   5.126   2.019   1.500  0.2691  0.0592  0.3701
 5453TIP3    H116365   5.209   1.972   1.493 -0.3195 -0.8075 -1.2055
 5453TIP3    H216366   5.089   2.016   1.412 -2.6717 -1.9303  1.5298
 5454TIP3   OH216367   4.139   2.900   1.303 -0.1453 -0.0611 -0.1729
 5454TIP3    H116368   4.188   2.896   1.221 -0.7659  1.3104 -0.6341
 5454TIP3    H216369   4.047   2.896   1.276 -0.3897 -3.0804  0.7056
 5455TIP3   OH216370   4.645   5.524   2.501 -0.4516 -0.4490  0.1788
 5455TIP3    H116371   4.701   5.521   2.424 -0.2246 -1.1857  0.3696
 5455TIP3    H216372   4.598   5.441   2.501 -2.3776  0.5783 -0.5762
 5456TIP3   OH216373   5.711   5.589   3.337 -0.2555  0.2543  0.0481
 5456TIP3    H116374   5.707   5.669   3.389 -3.1965 -0.5127  1.1548
 5456TIP3    H216375   5.793   5.547   3.365  0.0908  1.6629  1.2755
 5457TIP3   OH216376   5.308   4.807   4.335 -0.1760 -0.1764 -0.0502
 5457TIP3    H116377   5.221   4.808   4.374  0.5151  1.6646  1.6210
 5457TIP3    H216378   5.354   4.881   4.376  1.5849  0.0687 -2.2519
 5458TIP3   OH216379   3.738   2.233   4.532 -0.2058 -0.3258 -0.3643
 5458TIP3    H116380   3.699   2.231   4.619 -0.8243  1.1488 -0.5880
 5458TIP3    H216381   3.671   2.199   4.473 -0.4341  0.3300 -0.4881
 5459TIP3   OH216382   3.744   1.889   3.497  0.4253 -0.5951 -0.0439
 5459TIP3    H116383   3.680   1.826   3.530 -1.5433 -0.3271 -2.9767
 5459TIP3    H216384   3.761   1.861   3.407  0.7632  2.0995 -0.8933
 5460TIP3   OH216385   0.705   0.474   5.141 -0.0819 -0.1349  0.7227
 5460TIP3    H116386   0.721   0.568   5.152  3.1806 -0.5590  0.8000
 5460TIP3    H216387   0.682   0.464   5.048  0.3100  0.6949  0.5234
 5461TIP3   OH216388   4.169   4.695   2.285  0.2056 -0.1081 -0.3342
 5461TIP3    H116389   4.231   4.632   2.248 -1.7154 -2.1919 -0.1517
 5461TIP3    H216390   4.202   4.711   2.373  1.2375 -0.1015 -0.7058
 5462TIP3   OH216391   0.010   2.457   3.419 -0.0542 -0.5792 -0.1302
 5462TIP3    H116392   0.054   2.536   3.450 -0.5331 -0.5351  0.4377
 5462TIP3    H216393  -0.002   2.403   3.497 -0.6638 -0.7568 -0.3403
 5463TIP3   OH216394   4.979   1.428   3.142 -0.1802 -0.3371  0.0366
 5463TIP3    H116395   5.021   1.342   3.146 -0.2523 -0.3514  0.6157
 5463TIP3    H216396   5.049   1.488   3.118 -0.5401 -0.8182 -2.4763
 5464TIP3   OH216397   4.479   1.939   4.086  0.0495 -0.0278  0.2112
 5464TIP3    H116398   4.497   2.018   4.035 -2.0412  0.7202  0.5262
 5464TIP3    H216399   4.434   1.881   4.025 -1.6799  0.5248  0.9031
 5465TIP3   OH216400   4.315   0.288   0.822 -0.1502 -0.6214  0.0108
 5465TIP3    H116401   4.347   0.357   0.763  0.2319  0.9346  1.9540
 5465TIP3    H216402   4.304   0.212   0.765 -0.6389  1.0300 -2.2352
 5466TIP3   OH216403   2.059   2.184   3.790  0.4081 -0.2600  0.2411
 5466TIP3    H116404   2.124   2.137   3.842  0.7030  0.6234  0.7002
 5466TIP3    H216405   2.108   2.258   3.753 -0.1658 -0.0019 -0.0087
 5467TIP3   OH216406   5.807   0.495   1.187 -0.5056  0.3295  0.1828
 5467TIP3    H116407   5.827   0.553   1.113  2.4223 -0.1365  0.4668
 5467TIP3    H216408   5.778   0.413   1.147  1.2576  0.0084 -0.5360
 5468TIP3   OH216409   0.789   4.210   2.317  0.1774 -0.6802 -0.2562
 5468TIP3    H116410   0.878   4.184   2.295  0.2861 -1.5321  1.0645
 5468TIP3    H216411   0.789   4.215   2.413 -1.0467 -0.1221 -0.2641
 5469TIP3   OH216412   0.955   1.912   1.380  0.4388 -0.2736  0.6314
 5469TIP3    H116413   0.875   1.860   1.379 -0.4355  0.9931 -0.5744
 5469TIP3    H216414   1.001   1.887   1.300  0.4448  0.1499  0.4982
 5470TIP3   OH216415   6.158   5.033   3.505  0.6165 -0.3562  0.7440
 5470TIP3    H116416   6.152   5.121   3.467 -0.7723 -0.4210  0.7555
 5470TIP3    H216417   6.241   4.998   3.473  0.3299  0.2830 -0.7510
 5471TIP3   OH216418   5.129   0.107   2.455 -0.3651 -0.1915 -0.1428
 5471TIP3    H116419   5.041   0.069   2.450 -1.5059  2.3267 -1.4323
 5471TIP3    H216420   5.157   0.115   2.364  0.4808  0.5677  0.1691
 5472TIP3   OH216421   2.918   4.287   0.295 -0.8090 -0.1830  0.0964
 5472TIP3    H116422   2.934   4.207   0.245  3.8368 -0.1030  0.9719
 5472TIP3    H216423   2.865   4.260   0.369 -1.1187 -1.9783 -0.7320
 5473TIP3   OH216424   0.766   1.051   1.474  0.7161 -0.0653 -0.0584
 5473TIP3    H116425   0.834   1.103   1.430  0.9313  0.1542  0.5233
 5473TIP3    H216426   0.762   1.087   1.563  0.1355 -0.3610  0.0389
 5474TIP3   OH216427   0.585   5.188   2.497  0.3572  0.2655 -0.0206
 5474TIP3    H116428   0.519   5.120   2.489 -1.3044  1.8852 -0.7008
 5474TIP3    H216429   0.551   5.247   2.564  0.2083  2.0606 -1.5983
 5475TIP3   OH216430   6.032   1.786   1.833  0.0136 -0.3761  0.0880
 5475TIP3    H116431   5.981   1.866   1.823 -0.1434 -0.3133  1.3240
 5475TIP3    H216432   6.033   1.768   1.927  0.3617 -1.6242 -0.1251
 5476TIP3   OH216433   3.988   4.421   4.490 -0.1846  0.3668  0.3946
 5476TIP3    H116434   3.931   4.366   4.542 -1.4670  1.2451 -0.0412
 5476TIP3    H216435   3.975   4.391   4.400 -0.8834  1.3351  0.1556
 5477TIP3   OH216436   0.526   0.882   0.880 -0.5213 -0.2847  0.8399
 5477TIP3    H116437   0.465   0.913   0.947  2.6796  0.2890  3.7765
 5477TIP3    H216438   0.550   0.793   0.908 -0.2551 -0.6428 -0.4492
 5478TIP3   OH216439   4.862   4.478   4.275 -0.4229 -0.3800  0.3551
 5478TIP3    H116440   4.806   4.427   4.217 -0.0916 -1.5268  1.0097
 5478TIP3    H216441   4.835   4.452   4.363 -0.5027  0.8733  0.7141
 5479TIP3   OH216442   4.549   4.146   2.272 -0.0515 -0.4660 -0.5356
 5479TIP3    H116443   4.581   4.224   2.318 -0.8678 -0.0550 -0.6485
 5479TIP3    H216444   4.588   4.073   2.320 -0.9737 -0.0630  0.9134
 5480TIP3   OH216445   4.145   0.121   4.153 -0.1542 -0.2356 -0.2754
 5480TIP3    H116446   4.238   0.107   4.135 -0.2864  0.4919 -1.6386
 5480TIP3    H216447   4.125   0.204   4.110 -1.3986 -0.3024  0.1463
 5481TIP3   OH216448   1.054   1.968   4.395  0.4385  0.2481  0.9407
 5481TIP3    H116449   0.989   1.908   4.432  0.6511 -0.7428 -0.2396
 5481TIP3    H216450   1.035   1.970   4.302  0.6885  1.7469  0.8947
 5482TIP3   OH216451   1.472   4.972   0.663  0.0917 -0.2299 -0.1998
 5482TIP3    H116452   1.500   5.061   0.642 -0.9547  0.0181 -0.6074
 5482TIP3    H216453   1.546   4.935   0.711  1.6232 -0.0260 -2.2486
 5483TIP3   OH216454   0.803   1.821   1.781  0.2404  0.3225  0.2405
 5483TIP3    H116455   0.739   1.876   1.826  0.8725  1.2781  0.0149
 5483TIP3    H216456   0.887   1.866   1.794  0.9762 -1.1797  0.9942
 5484TIP3   OH216457   0.644   2.777   1.100 -0.4568  0.0618 -0.0725
 5484TIP3    H116458   0.616   2.806   1.188 -0.1952  1.8213 -0.5369
 5484TIP3    H216459   0.730   2.738   1.114 -0.5279  0.0916  0.4924
 5485TIP3   OH216460   3.935   1.422   4.763  0.3690  0.3022 -0.0088
 5485TIP3    H116461   3.953   1.386   4.676  0.7782 -0.1489  0.2536
 5485TIP3    H216462   3.956   1.515   4.755  2.8699 -0.1752  0.2545
 5486TIP3   OH216463   3.394   5.724   2.404  0.1476  0.3345 -0.8323
 5486TIP3    H116464   3.313   5.680   2.380 -0.6763  2.4993 -2.2667
 5486TIP3    H216465   3.372   5.777   2.480  0.2597  0.7940 -1.1170
 5487TIP3   OH216466   5.588   1.758   4.029 -0.2653 -0.1345 -0.0994
 5487TIP3    H116467   5.579   1.710   4.111 -0.9103 -0.1994 -0.2096
 5487TIP3    H216468   5.512   1.815   4.025 -0.0646  0.1137 -0.4967
 5488TIP3   OH216469   5.086   0.903   0.067 -0.0067 -0.0821 -0.1729
 5488TIP3    H116470   5.135   0.983   0.049  0.8389  0.2721  3.0927
 5488TIP3    H216471   5.069   0.906   0.162 -0.5936 -3.4009 -0.0545
 5489TIP3   OH216472   3.422   3.733   3.568  0.0860 -0.4520  0.2035
 5489TIP3    H116473   3.407   3.712   3.476  1.9359 -2.4108  0.2566
 5489TIP3    H216474   3.364   3.674   3.616  0.3691 -0.6726  0.2825
 5490TIP3   OH216475   5.255   5.559   3.633 -0.0323  0.1386  0.9241
 5490TIP3    H116476   5.179   5.599   3.590 -1.0304 -1.4987  1.0863
 5490TIP3    H216477   5.309   5.633   3.660 -1.8487  1.3733  1.3142
 5491TIP3   OH216478   0.244   2.002   0.403 -0.3082  0.0544 -0.0809
 5491TIP3    H116479   0.292   2.058   0.342 -0.0444  0.3000  0.3444
 5491TIP3    H216480   0.274   1.913   0.383  1.5270  0.3219  1.1924
 5492TIP3   OH216481   2.854   0.846   2.432  0.3547  0.8797 -0.0093
 5492TIP3    H116482   2.798   0.922   2.417 -2.0918 -0.8254 -0.1567
 5492TIP3    H216483   2.943   0.880   2.426 -0.6243  3.5621 -0.8007
 5493TIP3   OH216484   2.905   4.282   4.775 -0.4225  0.3387 -0.0196
 5493TIP3    H116485   2.845   4.310   4.707 -0.0932  0.4672 -0.2624
 5493TIP3    H216486   2.964   4.357   4.788 -0.6189  0.3998  0.5616
 5494TIP3   OH216487   0.121   2.357   0.319 -0.0962  0.1057 -0.2598
 5494TIP3    H116488   0.162   2.433   0.278  1.1288 -0.0217  0.6642
 5494TIP3    H216489   0.168   2.347   0.401 -1.2417 -0.7708  0.3019
 5495TIP3   OH216490   2.996   0.271   1.604 -0.1195  0.2052  0.0442
 5495TIP3    H116491   3.067   0.298   1.547  0.0371  0.2569  0.2603
 5495TIP3    H216492   3.034   0.273   1.692 -0.3402  0.0750  0.1445
 5496TIP3   OH216493   0.070   3.189   1.283  0.1136  0.6741 -0.0419
 5496TIP3    H116494   0.112   3.273   1.263 -0.2036  0.6926 -0.6405
 5496TIP3    H216495   0.004   3.178   1.215  0.4467 -0.2768 -0.2277
 5497TIP3   OH216496   4.871   0.323   0.962 -0.5149 -0.2587 -0.1225
 5497TIP3    H116497   4.784   0.331   1.000  0.6150 -0.7581  2.9040
 5497TIP3    H216498   4.886   0.228   0.957  0.3456 -0.1974  0.8198
 5498TIP3   OH216499   2.013   5.503   0.211 -0.1276  0.2334  0.3429
 5498TIP3    H116500   2.063   5.489   0.292 -0.6165 -0.2897  0.5630
 5498TIP3    H216501   2.079   5.504   0.142  0.0924 -1.8227  0.4710
 5499TIP3   OH216502   0.398   4.234   2.525  0.5896  0.0718  0.0088
 5499TIP3    H116503   0.404   4.310   2.467  0.1377  1.3238  1.5346
 5499TIP3    H216504   0.322   4.185   2.493 -0.5907  1.5583  0.4454
 5500TIP3   OH216505   4.893   2.944   0.322  0.1843 -0.3528  0.6558
 5500TIP3    H116506   4.902   2.968   0.230 -1.5557  1.6485  0.9378
 5500TIP3    H216507   4.801   2.920   0.331  0.1033  0.3868  2.0465
 5501TIP3   OH216508   1.335   4.605   0.079  0.1398 -0.4080 -0.2333
 5501TIP3    H116509   1.287   4.679   0.041  1.4402  0.5927 -0.0166
 5501TIP3    H216510   1.419   4.605   0.034  1.1041 -0.2118  1.4607
 5502TIP3   OH216511   3.161   2.901   0.725 -0.6442  0.2262 -0.2644
 5502TIP3    H116512   3.134   2.964   0.792 -1.1353  1.0179 -1.1791
 5502TIP3    H216513   3.105   2.825   0.739 -0.9759  0.5165  0.0153
 5503TIP3   OH216514   1.204   3.620   4.064 -0.2746  0.5942  1.0752
 5503TIP3    H116515   1.111   3.616   4.087 -0.5823 -0.9083 -0.2744
 5503TIP3    H216516   1.210   3.690   3.999 -0.0705  2.0657  2.5864
 5504TIP3   OH216517   1.970   4.062   2.190 -0.4362 -0.0063 -0.5060
 5504TIP3    H116518   2.028   4.138   2.201  0.8639 -1.2425  2.1097
 5504TIP3    H216519   2.009   4.012   2.119  0.1291  0.5333 -0.5848
 5505TIP3   OH216520   1.751   3.768   3.789 -0.1180 -0.0903  0.2066
 5505TIP3    H116521   1.845   3.766   3.803 -0.3187  0.9135  2.0731
 5505TIP3    H216522   1.740   3.784   3.695  1.5145 -1.7760 -0.3307
 5506TIP3   OH216523   4.129   1.251   0.687 -0.2188 -0.0642 -0.0076
 5506TIP3    H116524   4.095   1.210   0.607  2.0111  0.5715 -1.3714
 5506TIP3    H216525   4.075   1.214   0.757 -0.6197 -2.5951 -1.5197
 5507TIP3   OH216526   4.770   5.910   3.404  0.0203  0.4950  0.4897
 5507TIP3    H116527   4.807   5.964   3.334  1.2945  1.2738  1.7144
 5507TIP3    H216528   4.837   5.843   3.420 -0.3146  0.2526  0.8923
 5508TIP3   OH216529   2.027   0.330   3.225 -0.5389  0.5293  0.2013
 5508TIP3    H116530   2.053   0.242   3.200  1.8181  1.6892 -1.9219
 5508TIP3    H216531   2.095   0.359   3.286  0.3375  1.7927 -1.3047
 5509TIP3   OH216532   0.733   1.268   4.638  0.0064  0.1462  0.2681
 5509TIP3    H116533   0.682   1.193   4.607  0.7410  0.0337 -0.7374
 5509TIP3    H216534   0.750   1.250   4.730 -0.6373 -0.4541  0.2737
 5510TIP3   OH216535   4.950   2.040   2.823  0.4291 -0.4362  0.1348
 5510TIP3    H116536   4.931   1.951   2.852 -0.3919 -0.6365 -0.9617
 5510TIP3    H216537   4.991   2.029   2.737  0.7318  0.2301  0.1887
 5511TIP3   OH216538   0.448   1.555   3.797  0.1175 -0.2515 -0.9994
 5511TIP3    H116539   0.464   1.546   3.703 -2.0379 -2.9010 -1.2371
 5511TIP3    H216540   0.443   1.465   3.829  0.9176  0.5893  1.7182
 5512TIP3   OH216541   0.294   0.929   0.429 -0.0132  0.4124  0.1494
 5512TIP3    H116542   0.373   0.902   0.384 -0.6976 -4.1882  1.2546
 5512TIP3    H216543   0.316   0.925   0.522 -1.7993 -2.5473  0.5624
 5513TIP3   OH216544   4.996   0.902   4.903  0.0241 -0.3053  0.2785
 5513TIP3    H116545   4.998   0.816   4.945  1.4455 -0.2443  0.3900
 5513TIP3    H216546   5.026   0.963   4.972  1.0584 -0.0228 -0.3898
 5514TIP3   OH216547   4.299   3.896   0.622 -0.3462  0.0571 -0.1269
 5514TIP3    H116548   4.378   3.947   0.605 -0.1643 -0.7594 -2.0499
 5514TIP3    H216549   4.238   3.958   0.662  0.5742  1.2279 -0.4737
 5515TIP3   OH216550   6.278   5.300   1.889 -0.0858 -0.3093 -0.0416
 5515TIP3    H116551   6.224   5.223   1.871  0.5584 -0.8290  0.2231
 5515TIP3    H216552   6.294   5.298   1.983  0.9718 -0.5553 -0.2136
 5516TIP3   OH216553   2.286   5.342   3.091  0.3698 -0.4257  0.1045
 5516TIP3    H116554   2.294   5.412   3.026  0.5154  0.1485  0.7382
 5516TIP3    H216555   2.375   5.307   3.099  0.3045 -0.6681 -0.1823
 5517TIP3   OH216556   4.200   5.173   1.689  0.3373 -0.0255 -0.5700
 5517TIP3    H116557   4.118   5.222   1.691 -0.0915 -0.7559  0.5399
 5517TIP3    H216558   4.266   5.237   1.716 -0.0858  0.2053 -0.0438
 5518TIP3   OH216559   1.012   1.556   2.289 -0.2136 -0.5398 -0.1781
 5518TIP3    H116560   0.955   1.626   2.321 -0.0963 -1.1732  1.5319
 5518TIP3    H216561   0.971   1.526   2.208 -2.0030 -0.5879  0.6997
 5519TIP3   OH216562   1.588   1.249   4.383  0.4052  0.3291  0.1076
 5519TIP3    H116563   1.633   1.285   4.460  0.4612  0.6928 -0.0943
 5519TIP3    H216564   1.619   1.302   4.310  0.1139  0.1863 -0.1226
 5520TIP3   OH216565   4.739   0.122   2.183  0.0002  0.1866 -0.0935
 5520TIP3    H116566   4.656   0.128   2.135  0.0649 -0.7912 -0.3621
 5520TIP3    H216567   4.797   0.185   2.140  0.1804 -0.9399 -1.5916
 5521TIP3   OH216568   2.690   5.450   3.545  0.1738  0.4505  0.4141
 5521TIP3    H116569   2.650   5.388   3.606 -0.4501  0.3507 -0.0922
 5521TIP3    H216570   2.651   5.430   3.460  0.8465  0.7585  0.0219
 5522TIP3   OH216571   3.433   0.731   1.365  0.1440  0.1103  1.4017
 5522TIP3    H116572   3.513   0.779   1.343  0.1941 -0.6182 -0.0905
 5522TIP3    H216573   3.381   0.793   1.415 -0.7979  2.6304 -2.3169
 5523TIP3   OH216574   0.990   3.668   3.811 -0.2767  0.1946 -0.2378
 5523TIP3    H116575   1.035   3.646   3.729 -0.4327 -0.2582 -0.2057
 5523TIP3    H216576   1.034   3.747   3.842 -1.4992  1.5839 -1.7948
 5524TIP3   OH216577   4.881   3.661   4.055  0.3298  0.4252  0.6869
 5524TIP3    H116578   4.925   3.746   4.064 -0.2079  0.6443  1.3151
 5524TIP3    H216579   4.788   3.682   4.058  0.1630 -0.3746  3.0112
 5525TIP3   OH216580   4.883   1.794   2.920  0.1903  0.2192  0.1216
 5525TIP3    H116581   4.882   1.709   2.874  0.2137 -0.3956  1.2327
 5525TIP3    H216582   4.821   1.783   2.992  1.8022  0.3735  1.6003
 5526TIP3   OH216583   4.014   0.101   3.292  0.0377 -0.3910  0.4215
 5526TIP3    H116584   4.043   0.105   3.201  0.6288 -1.5697  0.5374
 5526TIP3    H216585   3.932   0.150   3.293 -0.3830 -1.0123 -0.9074
 5527TIP3   OH216586   2.957   1.597   0.108  0.0607 -0.5509 -0.4131
 5527TIP3    H116587   3.004   1.630   0.185 -2.5420  1.1861  0.5852
 5527TIP3    H216588   2.975   1.503   0.108  1.6207 -0.3194  1.2205
 5528TIP3   OH216589   5.165   5.009   4.063 -0.9764 -0.1106  0.0745
 5528TIP3    H116590   5.151   5.075   4.131  0.5646 -1.0682  1.3882
 5528TIP3    H216591   5.245   5.038   4.019 -0.7790 -0.6437  0.0872
 5529TIP3   OH216592   4.512   0.223   1.246 -0.3301  0.1371 -0.3569
 5529TIP3    H116593   4.580   0.157   1.228 -0.8353 -0.5880  0.3432
 5529TIP3    H216594   4.561   0.304   1.260  0.4781 -0.5716  1.1174
 5530TIP3   OH216595   2.521   1.620   3.534  0.0930  0.3568  0.3289
 5530TIP3    H116596   2.537   1.597   3.626 -0.4798 -0.7623  0.1686
 5530TIP3    H216597   2.604   1.604   3.490  0.1575  0.1630  0.5194
 5531TIP3   OH216598   6.158   4.395   3.349 -0.1417 -0.2647  0.3765
 5531TIP3    H116599   6.173   4.326   3.413 -0.8483 -0.7593  0.0295
 5531TIP3    H216600   6.123   4.349   3.272  1.0090  0.2622 -0.4985
 5532TIP3   OH216601   3.958   3.786   4.372 -0.2638  0.5231  0.0234
 5532TIP3    H116602   3.909   3.718   4.417  1.1251 -1.4615 -1.2936
 5532TIP3    H216603   4.050   3.767   4.393  0.1377  2.5308  0.2897
 5533TIP3   OH216604   1.915   1.744   1.452  0.4404  0.4072 -0.3010
 5533TIP3    H116605   1.999   1.788   1.454 -0.4144  2.1078  1.4422
 5533TIP3    H216606   1.880   1.762   1.364  1.7610 -0.1284 -0.9521
 5534TIP3   OH216607   5.411   5.078   3.730  0.2972 -0.8251  0.3430
 5534TIP3    H116608   5.498   5.093   3.692  0.6049  1.0521  1.6366
 5534TIP3    H216609   5.429   5.039   3.815 -0.1954 -1.5608  0.1110
 5535TIP3   OH216610   0.320   2.209   2.206 -0.3015  0.3274 -0.2867
 5535TIP3    H116611   0.246   2.269   2.217 -0.9375 -0.3877 -0.5700
 5535TIP3    H216612   0.373   2.248   2.137 -0.9745  0.3149 -0.8180
 5536TIP3   OH216613   0.911   3.960   0.961 -0.4499 -0.2907 -0.2342
 5536TIP3    H116614   0.895   3.983   1.052  0.4482 -1.2246  0.1758
 5536TIP3    H216615   0.833   3.990   0.915 -0.0667  2.0762  0.4829
 5537TIP3   OH216616   2.638   3.977   3.190 -0.1862 -0.2446 -0.1569
 5537TIP3    H116617   2.544   3.971   3.173 -0.2878 -2.3104  0.8112
 5537TIP3    H216618   2.679   3.939   3.112 -0.2950 -1.7108  0.4699
 5538TIP3   OH216619   2.794   4.665   2.854 -0.1124 -0.0809 -0.0239
 5538TIP3    H116620   2.845   4.667   2.934  1.6102 -1.2736 -1.0270
 5538TIP3    H216621   2.798   4.574   2.825 -0.5984  0.3422 -1.5223
 5539TIP3   OH216622   1.409   5.012   2.474 -0.0796 -0.6438  0.2615
 5539TIP3    H116623   1.338   5.076   2.470  2.2786  2.1723 -1.9686
 5539TIP3    H216624   1.479   5.058   2.522  1.0879 -2.2630  0.1852
 5540TIP3   OH216625   0.174   2.363   0.812 -0.4859 -0.0799 -0.1154
 5540TIP3    H116626   0.270   2.358   0.809 -0.4819  0.4732 -1.2785
 5540TIP3    H216627   0.155   2.456   0.801 -1.1456 -0.0716  0.9941
 5541TIP3   OH216628   1.588   1.942   1.691  0.5128  0.2127  0.1444
 5541TIP3    H116629   1.590   2.034   1.718  1.4431 -0.1813  1.5404
 5541TIP3    H216630   1.501   1.912   1.716 -1.2631  1.5849 -3.6874
 5542TIP3   OH216631   4.381   2.642   0.530 -0.2719  0.0025 -0.5016
 5542TIP3    H116632   4.411   2.606   0.614 -0.5069  0.4861 -0.2070
 5542TIP3    H216633   4.426   2.589   0.464 -1.8467 -1.9392 -0.1075
 5543TIP3   OH216634   1.793   0.876   3.073 -0.1296  0.2910 -0.0664
 5543TIP3    H116635   1.795   0.925   2.990 -0.0525  1.2723  0.4989
 5543TIP3    H216636   1.801   0.784   3.046  2.0353  0.6834 -1.0588
 5544TIP3   OH216637   1.497   2.193   0.598  0.4951 -0.2164  0.0716
 5544TIP3    H116638   1.436   2.257   0.562  0.2510 -0.0868  0.6896
 5544TIP3    H216639   1.579   2.207   0.550 -0.0562 -0.6422 -1.0234
 5545TIP3   OH216640   3.022   0.647   0.277  0.0394  0.1544  0.0487
 5545TIP3    H116641   3.088   0.577   0.274  1.2696  1.3129 -2.1028
 5545TIP3    H216642   3.045   0.705   0.205 -3.2410  0.7802 -0.6337
 5546TIP3   OH216643   1.702   5.438   2.583  0.2633  0.4406  0.1527
 5546TIP3    H116644   1.705   5.529   2.613  0.4351  0.8210 -0.9656
 5546TIP3    H216645   1.628   5.435   2.523 -0.7229 -0.5561  1.3762
 5547TIP3   OH216646   0.177   5.293   1.991 -0.0192  0.3787 -0.1942
 5547TIP3    H116647   0.222   5.377   2.001  0.4464  0.1509 -0.3198
 5547TIP3    H216648   0.106   5.310   1.929 -0.1592  0.7620  0.0679
 5548TIP3   OH216649   4.177   4.721   3.944 -0.4158  0.1469  0.0903
 5548TIP3    H116650   4.113   4.774   3.991 -0.2622 -0.3536  0.8847
 5548TIP3    H216651   4.237   4.785   3.905  1.3283  0.6185  3.1975
 5549TIP3   OH216652   3.302   5.941   1.735  0.1862 -0.0771  0.2098
 5549TIP3    H116653   3.393   5.955   1.709  0.1934 -0.5857 -0.0529
 5549TIP3    H216654   3.257   5.921   1.653 -0.0496 -0.3934  0.4160
 5550TIP3   OH216655   0.066   3.671   2.214  0.0810  0.4052  0.9786
 5550TIP3    H116656  -0.024   3.675   2.184  0.0450  3.4529  1.1499
 5550TIP3    H216657   0.060   3.650   2.307 -0.4281  0.2555  0.9105
 5551TIP3   OH216658   0.437   3.597   2.555  0.0508  0.0479 -0.2568
 5551TIP3    H116659   0.458   3.532   2.488 -0.8040 -1.1944  0.6207
 5551TIP3    H216660   0.354   3.636   2.525  0.4597  0.6150 -0.6801
 5552TIP3   OH216661   5.595   5.972   0.370 -0.4794 -0.2196 -0.4434
 5552TIP3    H116662   5.610   6.058   0.408  0.0321  0.5785 -2.3422
 5552TIP3    H216663   5.679   5.927   0.378 -0.1406  0.2416 -1.3125
 5553TIP3   OH216664   5.358   5.077   1.692 -0.3263  0.3443  0.0589
 5553TIP3    H116665   5.284   5.126   1.656 -0.2625  0.5682  0.2304
 5553TIP3    H216666   5.430   5.094   1.630  0.5775  2.9427  1.6231
 5554TIP3   OH216667   1.648   0.778   3.973 -0.1749 -0.0762 -0.0495
 5554TIP3    H116668   1.743   0.764   3.971  0.1062  1.1089  1.8045
 5554TIP3    H216669   1.615   0.734   3.895  1.8653 -0.7607 -0.5879
 5555TIP3   OH216670   0.858   3.673   1.928 -0.1227  0.4905 -0.2231
 5555TIP3    H116671   0.887   3.704   1.842  2.2662  1.1922  0.7457
 5555TIP3    H216672   0.830   3.752   1.974  0.9224  0.4929  0.4432
 5556TIP3   OH216673   3.872   1.565   3.371 -0.5137 -0.2295 -0.2468
 5556TIP3    H116674   3.965   1.546   3.377 -0.5663 -0.3092  0.3441
 5556TIP3    H216675   3.835   1.533   3.454 -0.7636  1.4940  0.3434
 5557TIP3   OH216676   5.990   4.916   3.681 -0.2703 -0.0301 -0.6087
 5557TIP3    H116677   6.010   4.918   3.775  1.0717 -1.4060 -0.8144
 5557TIP3    H216678   6.062   4.963   3.640  0.9479 -2.2004 -1.1294
 5558TIP3   OH216679   1.908   4.672   3.881  0.4260  0.4430  0.4055
 5558TIP3    H116680   1.816   4.687   3.858  0.3160 -0.9349 -0.1670
 5558TIP3    H216681   1.954   4.750   3.850 -0.2059  0.0679 -1.6347
 5559TIP3   OH216682   5.900   0.176   4.555 -0.4604 -0.1248 -1.2120
 5559TIP3    H116683   5.881   0.089   4.520  0.0264  0.0871 -2.0216
 5559TIP3    H216684   5.986   0.198   4.519 -1.1267  1.2223 -2.0476
 5560TIP3   OH216685   4.378   1.504   0.583  0.0839  0.5499  0.0348
 5560TIP3    H116686   4.348   1.414   0.586  0.6667  0.3577  0.4158
 5560TIP3    H216687   4.302   1.555   0.555 -1.0262  0.2752  2.2795
 5561TIP3   OH216688   0.849   1.204   0.332  0.1961 -0.2815  0.5334
 5561TIP3    H116689   0.874   1.144   0.402 -1.4651  1.0151  2.3734
 5561TIP3    H216690   0.753   1.212   0.340  0.0658  0.6250 -1.3071
 5562TIP3   OH216691   1.894   5.820   0.145 -0.0888 -0.0594  0.1036
 5562TIP3    H116692   1.814   5.833   0.094 -1.2828 -0.5944  1.7508
 5562TIP3    H216693   1.942   5.753   0.097 -0.3570  0.6546 -1.2009
 5563TIP3   OH216694   2.044   0.519   0.439  0.7270 -0.5157  0.4441
 5563TIP3    H116695   1.987   0.589   0.407  0.9123 -0.8040 -0.5659
 5563TIP3    H216696   2.067   0.470   0.360  2.0154 -0.6784  0.9068
 5564TIP3   OH216697   3.856   5.340   1.919  0.2314  0.3969 -0.0789
 5564TIP3    H116698   3.835   5.311   2.008 -1.3186  0.8829 -0.2547
 5564TIP3    H216699   3.789   5.404   1.898  0.8831  0.6808 -1.4209
 5565TIP3   OH216700   4.354   1.293   0.256 -0.4182 -0.4670 -0.3386
 5565TIP3    H116701   4.293   1.236   0.304 -1.6520  0.5683 -0.6250
 5565TIP3    H216702   4.319   1.297   0.168 -0.6592  1.1385 -0.1958
 5566TIP3   OH216703   1.030   4.808   0.760  0.1143 -0.1614  0.7517
 5566TIP3    H116704   1.043   4.744   0.830 -0.6516 -0.6273  0.4857
 5566TIP3    H216705   1.115   4.850   0.750  1.3400 -2.7042 -0.5928
 5567TIP3   OH216706   4.048   2.463   2.801  0.0495 -0.0317  0.1033
 5567TIP3    H116707   4.038   2.379   2.757  0.0928 -0.2292  0.4605
 5567TIP3    H216708   4.085   2.521   2.735 -0.2880 -0.2037 -0.2429
 5568TIP3   OH216709   3.074   5.150   3.967  0.1164  0.0520 -0.4897
 5568TIP3    H116710   2.993   5.120   3.927  0.3516  1.0337 -1.7510
 5568TIP3    H216711   3.091   5.087   4.038 -0.9833 -0.9751 -1.1110
 5569TIP3   OH216712   2.145   1.548   0.439 -0.3014 -0.6362 -0.7107
 5569TIP3    H116713   2.154   1.531   0.346  0.5697  0.2573 -0.8121
 5569TIP3    H216714   2.212   1.493   0.480  1.1063  0.9086 -0.8608
 5570TIP3   OH216715   5.614   0.925   1.045  0.2681  0.4608 -0.5313
 5570TIP3    H116716   5.521   0.916   1.066  0.4389  0.1552  0.1275
 5570TIP3    H216717   5.623   0.886   0.958 -0.2095  0.4523 -0.5795
 5571TIP3   OH216718   2.334   2.474   0.039 -0.0952  0.3275 -0.2058
 5571TIP3    H116719   2.296   2.432   0.116 -0.4619  0.2733 -0.4079
 5571TIP3    H216720   2.357   2.562   0.067  0.1913  0.1574  0.0854
 5572TIP3   OH216721   5.645   3.724   4.521  0.0327 -0.3079 -0.3322
 5572TIP3    H116722   5.556   3.704   4.493  0.3855 -1.6248 -0.5578
 5572TIP3    H216723   5.674   3.646   4.568  0.4135  0.8354  1.4277
 5573TIP3   OH216724   0.667   5.039   1.023 -0.1137  0.0623  0.2958
 5573TIP3    H116725   0.578   5.066   1.044  0.1264  0.0139  1.4209
 5573TIP3    H216726   0.716   5.121   1.019  0.0329  0.0072  0.8851
 5574TIP3   OH216727   2.679   4.759   4.632  0.0476  0.5094  0.1592
 5574TIP3    H116728   2.669   4.685   4.693  4.1249  0.2996  0.8936
 5574TIP3    H216729   2.694   4.834   4.689 -0.6153  1.2401 -0.6127
 5575TIP3   OH216730   5.983   3.285   0.106 -0.0843  0.1077  0.2483
 5575TIP3    H116731   5.918   3.230   0.062 -0.1290 -0.3822  0.9060
 5575TIP3    H216732   6.040   3.316   0.036  0.1244 -1.0232 -0.1138
 5576TIP3   OH216733   2.962   5.977   1.368  0.2221 -0.1690 -0.2763
 5576TIP3    H116734   2.973   5.884   1.386 -1.0445 -0.3658 -0.4410
 5576TIP3    H216735   2.895   5.981   1.299 -1.8085  0.9270  1.6224
 5577TIP3   OH216736   5.053   0.555   3.514  0.3413  0.4542 -0.2655
 5577TIP3    H116737   5.133   0.504   3.524 -0.4012 -0.6878  0.0621
 5577TIP3    H216738   4.994   0.521   3.581 -1.2898 -0.4599 -2.0568
 5578TIP3   OH216739   2.262   4.028   1.640 -0.3055  0.4917 -0.2223
 5578TIP3    H116740   2.299   4.086   1.573  0.1875 -0.4470 -0.7756
 5578TIP3    H216741   2.190   3.983   1.595  2.3742 -3.0038 -1.4129
 5579TIP3   OH216742   4.049   4.497   5.069 -0.2114 -0.6138  0.0387
 5579TIP3    H116743   3.977   4.464   5.122  1.5224 -1.3989  2.0401
 5579TIP3    H216744   4.121   4.508   5.130  0.2862  4.1069 -1.0245
 5580TIP3   OH216745   0.244   1.614   4.447  0.6224  0.0915  0.4233
 5580TIP3    H116746   0.272   1.586   4.360  0.7367  1.5868 -0.0510
 5580TIP3    H216747   0.148   1.618   4.440  0.7028  1.6142 -0.1141
 5581TIP3   OH216748   4.226   4.025   2.427  0.1390 -0.1163 -0.3442
 5581TIP3    H116749   4.235   4.097   2.364  0.2147 -0.3823 -0.6403
 5581TIP3    H216750   4.139   4.037   2.465 -0.7485 -1.1299 -1.9797
 5582TIP3   OH216751   2.811   5.497   4.340 -0.2081 -0.3576 -0.2842
 5582TIP3    H116752   2.815   5.471   4.432  1.3221 -0.2689 -0.2989
 5582TIP3    H216753   2.751   5.571   4.339 -0.5298 -0.5926  0.5857
 5583TIP3   OH216754   3.714   0.707   4.095 -0.1525  0.3273 -0.3526
 5583TIP3    H116755   3.774   0.767   4.050 -0.5223  0.3886 -0.7642
 5583TIP3    H216756   3.680   0.651   4.026  0.4523 -0.5949  0.0836
 5584TIP3   OH216757   1.041   5.061   3.674  0.4675  0.2286 -0.3699
 5584TIP3    H116758   1.021   5.147   3.638 -1.0446  0.2058  0.3606
 5584TIP3    H216759   1.017   5.000   3.604  1.8667  0.3819 -1.0220
 5585TIP3   OH216760   2.686   0.581   3.340 -0.5519 -0.2706 -0.3252
 5585TIP3    H116761   2.752   0.557   3.404  1.1729  2.7500 -0.7592
 5585TIP3    H216762   2.668   0.500   3.292  1.7675 -1.5187  0.7450
 5586TIP3   OH216763   0.335   5.938   1.697  0.5173 -0.3117 -0.2636
 5586TIP3    H116764   0.368   5.962   1.783 -0.0855  3.4074 -0.9243
 5586TIP3    H216765   0.398   5.974   1.636 -1.1260  0.7706 -1.4084
 5587TIP3   OH216766   3.256   3.013   4.780 -0.4755  0.0670 -0.0880
 5587TIP3    H116767   3.283   3.077   4.714  0.0235 -0.6770 -0.6304
 5587TIP3    H216768   3.285   3.051   4.863 -2.2146  1.6051 -0.1223
 5588TIP3   OH216769   1.259   3.076   1.726  0.7907 -0.3092  0.3308
 5588TIP3    H116770   1.198   3.144   1.696  1.0649 -0.5418 -0.7967
 5588TIP3    H216771   1.345   3.106   1.697  0.9838 -0.8612  0.3150
 5589TIP3   OH216772   2.760   4.777   3.242 -0.8590 -0.3060  0.3678
 5589TIP3    H116773   2.791   4.734   3.322  1.8139 -1.3666 -1.1171
 5589TIP3    H216774   2.719   4.707   3.191  1.2338 -0.6272 -0.9605
 5590TIP3   OH216775   3.417   2.696   1.320  0.1035 -0.1711 -0.3681
 5590TIP3    H116776   3.370   2.719   1.240  1.0061  1.2153 -0.5222
 5590TIP3    H216777   3.506   2.675   1.291  0.1041 -0.8882  0.1369
 5591TIP3   OH216778   2.135   1.635   4.635 -0.2868 -0.1635  0.0876
 5591TIP3    H116779   2.103   1.720   4.665  0.6318 -0.3974  1.8661
 5591TIP3    H216780   2.211   1.617   4.690  0.0772 -1.7399 -0.8562
 5592TIP3   OH216781   0.110   4.328   2.042  0.2665  0.2081 -0.4421
 5592TIP3    H116782   0.078   4.238   2.050 -0.9810  0.3567 -2.7571
 5592TIP3    H216783   0.160   4.329   1.961  0.4469  1.5419 -0.3433
 5593TIP3   OH216784   5.390   1.294   4.816  0.6627 -0.0281  0.3408
 5593TIP3    H116785   5.417   1.360   4.753 -0.8843  0.6912  0.3966
 5593TIP3    H216786   5.468   1.278   4.869  1.2148  1.3714 -0.0105
 5594TIP3   OH216787   0.655   0.656   2.738 -0.1431 -0.3755  0.3040
 5594TIP3    H116788   0.706   0.595   2.791  0.3333  0.2056  0.5361
 5594TIP3    H216789   0.621   0.604   2.666  0.4996 -0.8485  0.3398
 5595TIP3   OH216790   3.340   2.631   4.391 -0.7856  0.1266  0.1831
 5595TIP3    H116791   3.282   2.680   4.449  0.0835  1.6903 -0.2217
 5595TIP3    H216792   3.391   2.575   4.450  1.0010  2.6315  1.1691
 5596TIP3   OH216793   6.079   4.213   2.531 -0.3561  0.3912 -0.0424
 5596TIP3    H116794   6.039   4.250   2.611  1.0881 -0.0275  0.9180
 5596TIP3    H216795   6.009   4.214   2.467 -1.1270  2.2815  0.7490
 5597TIP3   OH216796   2.410   2.413   4.010 -0.7146  0.1720  0.3126
 5597TIP3    H116797   2.470   2.437   4.081 -1.7533  0.7376  1.0335
 5597TIP3    H216798   2.359   2.492   3.993 -0.9699 -0.1671 -0.5812
 5598TIP3   OH216799   2.672   4.787   2.618  0.1190 -0.1078 -0.4057
 5598TIP3    H116800   2.766   4.804   2.625  0.2912 -0.2753 -2.0175
 5598TIP3    H216801   2.665   4.693   2.603 -0.3484 -0.1891  0.2824
 5599TIP3   OH216802   4.834   5.194   2.328  0.1818 -0.0670 -0.1380
 5599TIP3    H116803   4.769   5.264   2.340  1.2662  1.3526 -1.9355
 5599TIP3    H216804   4.814   5.131   2.397 -2.4781  0.7598 -0.0257
 5600TIP3   OH216805   5.622   1.112   0.388 -0.0089  0.1415  0.4434
 5600TIP3    H116806   5.633   1.205   0.367  1.6584  0.0500  0.8003
 5600TIP3    H216807   5.672   1.066   0.321 -0.4361 -0.4871  0.5438
 5601TIP3   OH216808   2.923   5.681   1.936  0.2687  0.3949  0.0338
 5601TIP3    H116809   2.859   5.750   1.951 -1.3484 -1.4113  2.3370
 5601TIP3    H216810   2.871   5.607   1.903  1.0431 -1.1335  1.9987
 5602TIP3   OH216811   3.111   5.366   4.668  0.7226  0.0872  0.3892
 5602TIP3    H116812   3.179   5.309   4.632  0.0059 -1.4732  1.4134
 5602TIP3    H216813   3.158   5.446   4.693  1.8183 -0.1899 -0.7043
 5603TIP3   OH216814   1.361   0.765   3.868  0.4934  0.6680  0.5587
 5603TIP3    H116815   1.329   0.855   3.874 -0.9920  0.3385 -1.3858
 5603TIP3    H216816   1.308   0.716   3.931  0.2150  0.8890  0.4996
 5604TIP3   OH216817   2.185   1.710   2.250 -0.0088  0.4237 -0.0794
 5604TIP3    H116818   2.121   1.781   2.241  0.1344  0.6757  0.7939
 5604TIP3    H216819   2.258   1.737   2.194  0.5244  1.5476  1.0912
 5605TIP3   OH216820   2.194   0.695   2.475 -0.0961 -0.6647 -0.0383
 5605TIP3    H116821   2.136   0.660   2.542 -0.2639 -1.2840 -0.5001
 5605TIP3    H216822   2.199   0.626   2.409  0.1605 -0.1118 -0.6079
 5606TIP3   OH216823   2.741   2.625   0.001 -0.1154 -0.7294 -0.1854
 5606TIP3    H116824   2.704   2.640   0.088  0.6943 -1.7776  0.3499
 5606TIP3    H216825   2.715   2.535  -0.021  0.1673 -0.6670 -0.7885
 5607TIP3   OH216826   1.497   4.743   3.094  0.0658  0.6142 -0.0848
 5607TIP3    H116827   1.569   4.711   3.039 -0.2196  0.5284 -0.4119
 5607TIP3    H216828   1.541   4.790   3.166  0.4897 -0.4463  0.3700
 5608TIP3   OH216829   2.227   5.216   2.292 -0.1510 -0.1767 -0.1200
 5608TIP3    H116830   2.195   5.216   2.202 -1.2042  2.3601  0.1978
 5608TIP3    H216831   2.162   5.164   2.340 -0.2112 -0.5564 -0.5956
 5609TIP3   OH216832   5.639   2.068   0.219 -0.0027  0.2763 -0.4921
 5609TIP3    H116833   5.664   1.976   0.226  1.7133  0.8072  0.9645
 5609TIP3    H216834   5.570   2.078   0.284  0.0211  0.0834 -0.4337
 5610TIP3   OH216835   0.686   3.636   0.944 -0.3031  0.0619  0.1539
 5610TIP3    H116836   0.773   3.654   0.980  0.1077 -0.9185 -0.3136
 5610TIP3    H216837   0.633   3.613   1.021 -0.4805  1.7488  0.5871
 5611TIP3   OH216838   1.453   5.557   4.416  0.2066  0.4276 -0.3910
 5611TIP3    H116839   1.541   5.580   4.446  1.0406  0.1387 -2.4439
 5611TIP3    H216840   1.416   5.640   4.388 -0.5528  0.6901  1.2951
 5612TIP3   OH216841   2.834   5.247   0.059 -0.4228  0.1818  0.0527
 5612TIP3    H116842   2.906   5.246  -0.005 -0.5175  0.4115 -0.0605
 5612TIP3    H216843   2.757   5.270   0.007 -0.4689  0.5558  0.2792
 5613TIP3   OH216844   5.863   2.073   3.727 -0.3552  0.0266 -0.3496
 5613TIP3    H116845   5.890   2.150   3.778 -0.0642 -0.5103  0.3168
 5613TIP3    H216846   5.936   2.012   3.735 -0.9827 -0.7008 -0.0901
 5614TIP3   OH216847   1.854   2.345   1.063 -0.1354 -0.5606 -0.0862
 5614TIP3    H116848   1.944   2.372   1.078 -0.5732  0.2018  1.3367
 5614TIP3    H216849   1.804   2.383   1.136 -1.8411  0.2074 -1.5772
 5615TIP3   OH216850   5.155   2.350   2.766  0.2228 -0.3936  0.1969
 5615TIP3    H116851   5.217   2.279   2.783 -1.7147 -2.0077  0.9380
 5615TIP3    H216852   5.200   2.429   2.794  1.8331 -1.5426  0.9674
 5616TIP3   OH216853   3.401   0.171   3.239  0.1649 -0.8111  0.6532
 5616TIP3    H116854   3.415   0.088   3.193 -1.3307 -0.3139 -0.7839
 5616TIP3    H216855   3.314   0.199   3.212  0.6227  1.2204  1.1480
 5617TIP3   OH216856   4.099   3.828   0.914  0.3783 -0.1010  0.3997
 5617TIP3    H116857   4.121   3.912   0.874 -0.2033  0.3186  0.9330
 5617TIP3    H216858   4.178   3.802   0.961  0.7873 -0.1935 -0.3187
 5618TIP3   OH216859   2.032   1.790   1.053 -0.2543 -0.2713  0.1337
 5618TIP3    H116860   2.082   1.713   1.025 -0.1517  0.0246 -0.5065
 5618TIP3    H216861   2.016   1.839   0.973  2.0395  1.7919  0.8133
 5619TIP3   OH216862   2.434   3.278   0.072 -0.8317  0.1979  0.2716
 5619TIP3    H116863   2.527   3.288   0.095 -0.5630 -0.2067 -0.5913
 5619TIP3    H216864   2.432   3.287  -0.023 -1.5206 -0.9510  0.1643
 5620TIP3   OH216865   6.301   2.570   2.670  0.4795  0.5127  0.3589
 5620TIP3    H116866   6.266   2.505   2.731  1.2359 -0.8970 -0.6436
 5620TIP3    H216867   6.246   2.647   2.682  0.1977  0.0462  2.3149
 5621TIP3   OH216868   3.121   2.358   3.880 -0.1904 -0.3176 -0.3110
 5621TIP3    H116869   3.078   2.324   3.959  1.3331  0.3627  0.8736
 5621TIP3    H216870   3.098   2.451   3.878 -0.0998 -0.3009 -0.5681
 5622TIP3   OH216871   3.706   4.017   2.719 -0.3410 -0.1488  0.1613
 5622TIP3    H116872   3.692   4.107   2.747 -1.0215 -0.1298 -0.2287
 5622TIP3    H216873   3.637   4.001   2.654 -0.0121 -0.8345 -0.0235
 5623TIP3   OH216874   1.635   4.748   2.678 -0.6251  0.1609  0.0112
 5623TIP3    H116875   1.567   4.680   2.686 -0.9922  0.6961  1.8886
 5623TIP3    H216876   1.591   4.829   2.704  0.5814  0.5936  0.7990
 5624TIP3   OH216877   3.517   6.011   3.575 -0.0303  0.0825  0.0479
 5624TIP3    H116878   3.559   5.979   3.495  0.6557 -1.5931  1.0360
 5624TIP3    H216879   3.434   5.963   3.579 -0.2654  0.4877  0.1335
 5625TIP3   OH216880   3.246   1.186   3.377 -0.2114 -0.0756 -0.0377
 5625TIP3    H116881   3.250   1.094   3.351 -0.3161  0.7107 -3.1498
 5625TIP3    H216882   3.155   1.211   3.363  0.1161  0.8460 -0.6301
 5626TIP3   OH216883   1.795   5.802   3.290 -0.0105 -0.2934 -0.1539
 5626TIP3    H116884   1.781   5.897   3.288 -0.8619 -0.3966  0.3633
 5626TIP3    H216885   1.824   5.780   3.201  1.7837  0.6626  0.1540
 5627TIP3   OH216886   0.934   2.134   1.001 -0.2702  0.0763 -0.6166
 5627TIP3    H116887   0.862   2.107   1.057 -0.5572  1.5103 -0.2502
 5627TIP3    H216888   0.932   2.073   0.927 -0.7788 -0.9428  0.2181
 5628TIP3   OH216889   1.606   5.091   3.988 -0.6782 -0.7635 -0.0402
 5628TIP3    H116890   1.630   5.003   4.017 -0.5397 -0.6743  0.1166
 5628TIP3    H216891   1.546   5.123   4.056 -0.5437 -0.6476  0.0238
 5629TIP3   OH216892   0.769   0.926   4.813  0.4268 -0.0368 -0.0673
 5629TIP3    H116893   0.816   0.845   4.795 -0.6003 -0.8925  0.9210
 5629TIP3    H216894   0.696   0.899   4.868  0.2352  1.6178  0.5369
 5630TIP3   OH216895   0.100   2.398   2.199  0.4285  0.1019 -0.0067
 5630TIP3    H116896   0.005   2.397   2.206  0.4666  0.9702  0.7113
 5630TIP3    H216897   0.120   2.483   2.158  0.8943 -0.1061 -0.2184
 5631TIP3   OH216898   4.496   5.685   0.452 -0.0830 -0.1212  0.1545
 5631TIP3    H116899   4.507   5.780   0.455  0.4563 -0.2051  1.7682
 5631TIP3    H216900   4.401   5.672   0.451 -0.1669  0.4381  0.2824
 5632TIP3   OH216901   5.666   1.980   3.243  0.1610 -0.2623  0.3191
 5632TIP3    H116902   5.587   2.000   3.294  0.5688 -3.1725  2.3200
 5632TIP3    H216903   5.635   1.929   3.169 -0.0247  0.3912 -0.0570
 5633TIP3   OH216904   0.984   3.008   0.396 -0.5923 -0.2232 -0.2355
 5633TIP3    H116905   1.019   3.060   0.324 -2.0693 -0.0622 -0.8769
 5633TIP3    H216906   1.058   2.956   0.427  0.2284  0.2156 -1.4115
 5634TIP3   OH216907   2.953   1.580   3.914 -0.0065  0.1928 -0.2111
 5634TIP3    H116908   2.954   1.530   3.996 -3.6467 -0.8698 -0.6409
 5634TIP3    H216909   2.935   1.515   3.846  0.0079  1.4484 -1.4699
 5635TIP3   OH216910   0.304   1.766   2.834 -0.2567 -0.1986 -0.4631
 5635TIP3    H116911   0.350   1.807   2.760  1.2892 -1.3123 -0.1611
 5635TIP3    H216912   0.328   1.819   2.910  0.5751 -0.7970 -0.3008
 5636TIP3   OH216913   2.714   2.239   4.876 -0.1379 -0.2855 -0.2414
 5636TIP3    H116914   2.697   2.322   4.832 -0.3884 -1.0441 -1.6086
 5636TIP3    H216915   2.632   2.220   4.921 -0.8844 -0.9062 -1.8103
 5637TIP3   OH216916   0.914   4.868   4.199  0.4719 -0.3168  0.0059
 5637TIP3    H116917   0.907   4.845   4.107 -0.1347 -1.1972  0.2562
 5637TIP3    H216918   0.992   4.822   4.230  0.4298 -0.3710  0.0317
 5638TIP3   OH216919   2.326   1.600   4.816  0.1462  0.0209 -0.1698
 5638TIP3    H116920   2.337   1.506   4.799 -0.9457  0.0213 -0.9748
 5638TIP3    H216921   2.310   1.605   4.910  1.9151 -0.4138  0.2025
 5639TIP3   OH216922   1.438   4.411   1.132  0.6576 -0.6319 -0.2969
 5639TIP3    H116923   1.445   4.352   1.057  3.0120  0.4846 -1.0651
 5639TIP3    H216924   1.529   4.437   1.151  0.1153 -0.4988  2.6648
 5640TIP3   OH216925   2.568   1.964   2.133 -0.8373  0.3559 -0.2094
 5640TIP3    H116926   2.605   1.923   2.212  0.0732 -0.8326 -1.2042
 5640TIP3    H216927   2.592   2.056   2.140 -1.5686  0.4620  1.3382
 5641TIP3   OH216928   6.186   3.990   2.862 -0.0724 -0.6291 -0.7119
 5641TIP3    H116929   6.109   4.046   2.851 -0.0205 -0.5415 -0.6348
 5641TIP3    H216930   6.246   4.042   2.916  0.0863 -0.6521 -0.8652
 5642TIP3   OH216931   5.541   3.320   3.360  0.6221  0.1963  0.1732
 5642TIP3    H116932   5.464   3.337   3.414  1.2696  1.9086  0.6140
 5642TIP3    H216933   5.515   3.247   3.304 -0.9864  0.1227  0.9598
 5643TIP3   OH216934   2.141   1.252   3.012  0.0337 -0.7387 -0.3360
 5643TIP3    H116935   2.216   1.193   3.004 -0.3690 -1.1787 -0.9668
 5643TIP3    H216936   2.159   1.322   2.950  0.5697 -0.1247  0.5008
 5644TIP3   OH216937   2.863   5.010   1.278 -0.4720  0.3503  0.3735
 5644TIP3    H116938   2.931   4.956   1.236 -0.2140  0.8584  0.1222
 5644TIP3    H216939   2.807   4.947   1.324 -0.3211 -0.1499 -0.1167
 5645TIP3   OH216940   5.680   4.389   2.691 -0.4884 -0.6183  0.5711
 5645TIP3    H116941   5.775   4.383   2.701 -0.4007 -1.5167 -0.5806
 5645TIP3    H216942   5.662   4.482   2.678  0.0353 -0.2137  2.4166
 5646TIP3   OH216943   5.563   0.552   1.585  0.2686 -0.2617 -0.4371
 5646TIP3    H116944   5.571   0.461   1.615 -1.0171 -0.1168  0.4401
 5646TIP3    H216945   5.482   0.554   1.535  1.0880  0.0842 -1.7789
 5647TIP3   OH216946   1.623   0.474   2.855  0.1104  0.6760  0.0589
 5647TIP3    H116947   1.639   0.424   2.775 -2.1043  0.6766 -0.4506
 5647TIP3    H216948   1.583   0.411   2.915  1.9333  0.6223  1.3021
 5648TIP3   OH216949   4.658   3.533   0.994 -0.2243 -0.3690  0.4538
 5648TIP3    H116950   4.703   3.613   1.020  0.5527 -0.6324 -0.0639
 5648TIP3    H216951   4.578   3.532   1.047  1.5355 -1.2039  3.3058
 5649TIP3   OH216952   6.256   2.417   0.590  0.2020  0.3755 -0.5207
 5649TIP3    H116953   6.320   2.461   0.533  0.6500 -1.5017 -1.5421
 5649TIP3    H216954   6.249   2.475   0.666  0.9316  2.0807 -1.6675
 5650TIP3   OH216955   6.192   3.457   1.385  0.4954 -0.2891 -0.4978
 5650TIP3    H116956   6.278   3.487   1.413 -0.8124  2.4032  1.0427
 5650TIP3    H216957   6.166   3.520   1.317 -0.5848 -0.5428 -0.3429
 5651TIP3   OH216958   6.036   3.594   3.055  0.2177 -0.4351  1.0718
 5651TIP3    H116959   6.109   3.589   2.994 -0.4061 -0.2730  0.2970
 5651TIP3    H216960   6.051   3.522   3.116 -0.0990 -1.7600 -0.3489
 5652TIP3   OH216961   5.596   3.787   2.363  0.6036 -0.0072  0.4567
 5652TIP3    H116962   5.553   3.871   2.378  0.8177 -0.1018  1.6229
 5652TIP3    H216963   5.595   3.777   2.267  2.7690  2.5008  0.0500
 5653TIP3   OH216964   0.750   3.469   2.593 -0.2827  0.3484  0.8749
 5653TIP3    H116965   0.697   3.542   2.625 -0.5676  0.1127  0.9503
 5653TIP3    H216966   0.732   3.467   2.498 -0.6728  0.0615  0.9515
 5654TIP3   OH216967   3.748   1.936   0.981  0.4217 -0.3416  0.0867
 5654TIP3    H116968   3.838   1.905   0.989  0.1773 -1.2510 -0.5209
 5654TIP3    H216969   3.700   1.887   1.048  0.1205 -0.9765 -0.5704
 5655TIP3   OH216970   3.511   0.463   3.013 -0.0435 -0.1701  0.3064
 5655TIP3    H116971   3.518   0.530   2.945 -0.1986 -0.9306 -0.4861
 5655TIP3    H216972   3.583   0.403   2.995  0.0968 -0.2232  1.0063
 5656TIP3   OH216973   4.305   1.372   4.229  0.0624 -0.0260 -0.2066
 5656TIP3    H116974   4.250   1.318   4.172 -0.1626 -0.2807  0.2463
 5656TIP3    H216975   4.339   1.441   4.172  1.7976 -1.6319 -1.2332
 5657TIP3   OH216976   1.792   1.641   4.520 -0.4367  0.2762 -0.5119
 5657TIP3    H116977   1.797   1.732   4.491 -1.7375  0.0710 -1.4845
 5657TIP3    H216978   1.794   1.646   4.616 -1.4326  1.4197 -0.5258
 5658TIP3   OH216979  -0.019   3.815   4.645  0.6130 -0.5951 -0.1604
 5658TIP3    H116980   0.006   3.796   4.555  2.6444  0.7008  0.0795
 5658TIP3    H216981   0.034   3.756   4.698 -0.6298 -1.4079  0.2273
 5659TIP3   OH216982   3.829   2.228   5.012 -0.1020 -0.3737 -0.6412
 5659TIP3    H116983   3.801   2.170   5.083  1.1862 -0.9381 -0.5764
 5659TIP3    H216984   3.854   2.309   5.056 -1.3569  0.0627 -0.6793
 5660TIP3   OH216985   2.964   2.576   3.910 -0.0416  0.1678 -0.1645
 5660TIP3    H116986   2.896   2.530   3.859  0.9554 -0.4957 -0.9360
 5660TIP3    H216987   2.930   2.665   3.918 -1.4876 -0.3958  0.3714
 5661TIP3   OH216988   3.729   1.186   0.411 -0.2974 -0.4061  0.1069
 5661TIP3    H116989   3.773   1.249   0.468  0.3501  0.6590 -1.5306
 5661TIP3    H216990   3.732   1.104   0.461 -0.6106  0.6615  2.0113
 5662TIP3   OH216991   5.674   1.449   3.362  0.1099  0.1852  0.2708
 5662TIP3    H116992   5.629   1.526   3.328 -0.6582 -0.3202  0.1007
 5662TIP3    H216993   5.705   1.403   3.284  1.4094  0.7857  0.3998
 5663TIP3   OH216994   4.584   2.504   1.248  0.0738  0.7366 -0.3766
 5663TIP3    H116995   4.572   2.599   1.246  0.3675  0.7781 -0.1641
 5663TIP3    H216996   4.565   2.476   1.159  0.3030  1.0367 -0.5232
 5664TIP3   OH216997   4.186   1.000   3.864 -0.4606  0.0506 -0.3605
 5664TIP3    H116998   4.167   0.907   3.877  0.5533 -0.5259 -2.5219
 5664TIP3    H216999   4.276   1.010   3.895 -0.2615  0.0925 -0.9412
 5665TIP3   OH217000   3.335   1.814   2.419 -0.1295  0.6406 -0.8309
 5665TIP3    H117001   3.369   1.904   2.416  0.4886  0.4012 -1.3209
 5665TIP3    H217002   3.311   1.801   2.511 -0.3501  1.3532 -0.7826
 5666TIP3   OH217003   2.376   5.925   3.201 -0.0157  0.3241  0.1932
 5666TIP3    H117004   2.471   5.927   3.198 -0.0435  0.7093 -0.9494
 5666TIP3    H217005   2.349   5.938   3.110 -1.1471 -0.5450  0.3809
 5667TIP3   OH217006   6.218   4.202   4.691 -0.3215 -0.1518  0.1640
 5667TIP3    H117007   6.135   4.208   4.738 -0.4140 -1.0408  0.1386
 5667TIP3    H217008   6.272   4.272   4.728 -0.2814 -1.0311  1.8333
 5668TIP3   OH217009   3.638   2.426   1.972 -0.1010 -0.0578 -0.5300
 5668TIP3    H117010   3.543   2.427   1.982 -0.3473 -0.8231 -2.4900
 5668TIP3    H217011   3.665   2.340   2.005  0.1643  0.7592  1.5657
 5669TIP3   OH217012   4.203   5.522   4.697  0.1996 -0.1184  0.3770
 5669TIP3    H117013   4.217   5.461   4.770  0.5857  0.7142  1.0182
 5669TIP3    H217014   4.288   5.527   4.653  0.6295  1.1759  1.3050
 5670TIP3   OH217015   2.546   2.929   4.210  0.1045 -0.1307 -0.5283
 5670TIP3    H117016   2.578   2.857   4.156  1.3204  0.5766 -0.7979
 5670TIP3    H217017   2.590   2.917   4.294 -0.1737 -0.0491 -0.3701
 5671TIP3   OH217018   3.149   3.678   4.286  0.0965 -0.0008 -0.2736
 5671TIP3    H117019   3.211   3.642   4.222  0.5305  0.1478  0.0535
 5671TIP3    H217020   3.063   3.665   4.247 -0.0350 -3.5767  0.8031
 5672TIP3   OH217021   5.177   1.828   4.330  0.1116 -0.6146  0.2111
 5672TIP3    H117022   5.250   1.884   4.303 -1.0518 -0.3492 -2.7119
 5672TIP3    H217023   5.203   1.740   4.304 -0.3339 -0.6108 -0.2561
 5673TIP3   OH217024   4.295   2.218   2.692  0.2675 -0.7462  0.2772
 5673TIP3    H117025   4.284   2.246   2.783  1.8863  0.6179  0.1053
 5673TIP3    H217026   4.340   2.291   2.650  1.3292 -2.1494 -1.1332
 5674TIP3   OH217027   2.519   4.753   2.259 -0.1825 -0.2770  0.1617
 5674TIP3    H117028   2.523   4.752   2.164  0.5234 -1.3273  0.1910
 5674TIP3    H217029   2.440   4.804   2.279 -0.2603  0.0771 -0.9700
 5675TIP3   OH217030   0.454   5.545   2.375 -0.1509  0.4893  0.8457
 5675TIP3    H117031   0.457   5.639   2.358 -2.3964  0.6998  1.3992
 5675TIP3    H217032   0.377   5.532   2.430  0.1032 -1.6821  0.7875
 5676TIP3   OH217033   1.271   2.787   5.043 -0.5288  0.5678 -0.2143
 5676TIP3    H117034   1.363   2.759   5.034 -0.9045 -1.1470  0.6870
 5676TIP3    H217035   1.274   2.858   5.108  0.0963 -0.1068  0.5249
 5677TIP3   OH217036   2.725   2.052   0.270 -0.8146  0.1530 -0.0202
 5677TIP3    H117037   2.718   1.979   0.330  0.8584  0.6413  0.8440
 5677TIP3    H217038   2.800   2.102   0.302  0.9681 -0.2217 -3.1830
 5678TIP3   OH217039   1.623   5.590   2.093  0.3748  0.1333  0.1366
 5678TIP3    H117040   1.679   5.630   2.026  0.7066 -1.2719 -0.4540
 5678TIP3    H217041   1.538   5.633   2.081  0.3630 -0.2640 -1.3747
 5679TIP3   OH217042   5.940   2.639   2.093 -0.3295 -0.6240 -0.2322
 5679TIP3    H117043   5.999   2.647   2.018  1.7445 -0.2393  1.3471
 5679TIP3    H217044   5.983   2.577   2.151 -1.8164 -0.8198  0.7168
 5680TIP3   OH217045   1.539   2.560   0.587 -0.0513  0.6801 -0.1944
 5680TIP3    H117046   1.516   2.653   0.599  1.8128  0.9188  1.9901
 5680TIP3    H217047   1.597   2.560   0.510 -0.3093  1.2604 -0.3992
 5681TIP3   OH217048   4.311   4.208   1.945 -0.3961 -0.5475  0.3141
 5681TIP3    H117049   4.372   4.241   1.880  1.4738 -1.7991  1.3106
 5681TIP3    H217050   4.240   4.167   1.894  1.1618 -1.7690 -0.9793
 5682TIP3   OH217051   0.826   4.381   0.008 -0.0750 -0.2446  0.3054
 5682TIP3    H117052   0.877   4.378  -0.072  2.5785 -0.7040  1.9003
 5682TIP3    H217053   0.878   4.435   0.068 -1.1443 -1.2167  2.2150
 5683TIP3   OH217054   4.247   3.462   3.808 -0.5961  0.3055  0.1700
 5683TIP3    H117055   4.169   3.435   3.760 -0.7031  0.3175  0.3354
 5683TIP3    H217056   4.263   3.552   3.781 -0.9368  0.4716  0.5193
 5684TIP3   OH217057   3.304   5.487   1.407 -0.4089 -0.0171 -0.4459
 5684TIP3    H117058   3.228   5.432   1.424 -0.8023  0.3091 -1.0740
 5684TIP3    H217059   3.270   5.577   1.413  0.6093  0.2868  2.4833
 5685TIP3   OH217060   4.566   1.056   0.039 -0.0646 -0.1168 -0.7929
 5685TIP3    H117061   4.500   1.082  -0.026 -0.2470  0.6574 -0.3203
 5685TIP3    H217062   4.555   1.120   0.109  1.7456  0.5450 -1.0631
 5686TIP3   OH217063   4.725   5.386   5.138 -0.4797 -0.1246 -0.0733
 5686TIP3    H117064   4.747   5.327   5.211 -0.1245  0.4638  0.3031
 5686TIP3    H217065   4.630   5.393   5.140 -0.6221 -1.4795 -0.7531
 5687TIP3   OH217066   2.781   0.321   1.376  0.5023 -0.0497 -0.6860
 5687TIP3    H117067   2.783   0.247   1.316  1.4629 -0.9428  0.4025
 5687TIP3    H217068   2.823   0.289   1.456 -1.7518  0.6935  0.9175
 5688TIP3   OH217069   0.681   3.979   2.916  0.1651  0.0373 -0.0269
 5688TIP3    H117070   0.755   3.923   2.893 -0.1022 -0.6364  0.6893
 5688TIP3    H217071   0.697   4.061   2.870 -0.0940 -1.0527 -2.1812
 5689TIP3   OH217072   1.201   2.705   2.952 -0.2836 -0.0276 -0.3597
 5689TIP3    H117073   1.124   2.650   2.964  0.3799 -1.0491 -0.6488
 5689TIP3    H217074   1.169   2.794   2.965 -1.3408 -0.4880  0.3194
 5690TIP3   OH217075   5.778   4.456   1.547  0.4277 -0.1066 -0.2377
 5690TIP3    H117076   5.853   4.429   1.602  1.5389  0.9015 -1.2015
 5690TIP3    H217077   5.747   4.537   1.588 -0.4201 -0.7370  0.3964
 5691TIP3   OH217078   5.691   2.197   5.086 -0.3547 -0.2141 -0.1812
 5691TIP3    H117079   5.629   2.251   5.134  0.3912  1.2425 -0.7982
 5691TIP3    H217080   5.654   2.191   4.998 -0.5954 -1.0068 -0.0362
 5692TIP3   OH217081   1.198   4.064   4.342 -0.5347  0.1913  0.3345
 5692TIP3    H117082   1.251   4.070   4.262  0.4481  0.5315  0.9963
 5692TIP3    H217083   1.155   4.150   4.347  0.6270  0.7617  0.9834
 5693TIP3   OH217084   3.715   4.928   4.419  0.0568  0.6297  0.2457
 5693TIP3    H117085   3.749   4.838   4.417 -2.5258 -0.4137  0.0324
 5693TIP3    H217086   3.790   4.982   4.394  1.0592 -1.6535 -2.1891
 5694TIP3   OH217087   2.943   1.218   2.264 -0.2088 -0.3644  0.2780
 5694TIP3    H117088   2.859   1.245   2.227 -0.4206  1.8581  2.1409
 5694TIP3    H217089   3.006   1.282   2.231  0.1371 -0.1406  1.3318
 5695TIP3   OH217090   1.344   1.334   1.159 -0.0297 -0.1255  0.1960
 5695TIP3    H117091   1.397   1.316   1.081 -1.7623  2.3662 -1.7147
 5695TIP3    H217092   1.294   1.254   1.173  1.1826 -1.0441 -0.4864
 5696TIP3   OH217093   6.272   3.553   2.882  0.0650  0.1634  0.7329
 5696TIP3    H117094   6.282   3.458   2.886  0.0906 -0.0503 -2.1241
 5696TIP3    H217095   6.362   3.585   2.876 -0.0018  0.1638 -0.4858
 5697TIP3   OH217096   1.128   3.335   1.268  0.7227  0.1641  0.4140
 5697TIP3    H117097   1.210   3.292   1.293  0.4771 -0.6981 -0.2093
 5697TIP3    H217098   1.155   3.418   1.229  1.2934 -0.0576  0.3308
 5698TIP3   OH217099   4.308   2.715   4.650 -0.6416 -0.3103  0.0278
 5698TIP3    H117100   4.344   2.763   4.575  0.0066  1.4647  1.4026
 5698TIP3    H217101   4.368   2.642   4.663 -0.2532 -0.1165 -0.6038
 5699TIP3   OH217102   3.555   0.380   5.205  0.3523 -0.1359  0.1438
 5699TIP3    H117103   3.605   0.456   5.173  0.1404  0.0711  0.2939
 5699TIP3    H217104   3.606   0.304   5.177  1.1739  0.0860  0.9838
 5700TIP3   OH217105   4.907   3.083   0.091 -0.5887 -0.3975  0.0583
 5700TIP3    H117106   4.871   3.164   0.055 -0.7942 -0.9943 -1.1193
 5700TIP3    H217107   4.868   3.014   0.039  2.7412 -1.0904 -1.8215
 5701TIP3   OH217108   3.888   5.203   1.688 -0.5514 -0.5269 -0.0303
 5701TIP3    H117109   3.877   5.260   1.764 -1.3294  0.6186 -0.9660
 5701TIP3    H217110   3.804   5.206   1.643  0.4620  0.4307 -2.0069
 5702TIP3   OH217111   2.731   3.036   3.556  0.1259  0.1319 -0.1764
 5702TIP3    H117112   2.736   2.947   3.591  1.6908 -1.1891 -3.3546
 5702TIP3    H217113   2.713   3.091   3.632  0.5163 -2.7250  2.1477
 5703TIP3   OH217114   3.725   5.882   3.074 -0.1209  0.3504  0.3154
 5703TIP3    H117115   3.768   5.895   2.989 -1.2412  0.1634 -0.3077
 5703TIP3    H217116   3.650   5.941   3.072  0.1045  0.6923  1.3859
 5704TIP3   OH217117   4.252   0.344   2.689  0.0061  0.1143  0.0494
 5704TIP3    H117118   4.276   0.252   2.679 -3.0478 -0.7388 -0.4854
 5704TIP3    H217119   4.167   0.352   2.645  0.0072  3.1214  0.3755
 5705TIP3   OH217120   6.059   4.064   0.265 -0.0362  0.0557  0.6117
 5705TIP3    H117121   6.044   3.987   0.211 -1.3286 -0.1144  1.1739
 5705TIP3    H217122   6.146   4.050   0.303 -0.7124 -1.7213  1.6309
 5706TIP3   OH217123   0.431   0.222   1.529  0.3037  0.3739  0.0920
 5706TIP3    H117124   0.344   0.202   1.564  1.1441  1.5088  3.1063
 5706TIP3    H217125   0.424   0.203   1.435 -3.1521  0.3763  0.2326
 5707TIP3   OH217126   4.421   0.825   2.606 -0.4716  0.0056  0.1036
 5707TIP3    H117127   4.438   0.733   2.585 -0.3242  0.4180 -1.8567
 5707TIP3    H217128   4.339   0.845   2.560 -0.1231  1.0252 -0.1093
 5708TIP3   OH217129   2.048   1.830   3.804  0.1160 -0.0695 -0.1827
 5708TIP3    H117130   2.073   1.760   3.743  1.5908  1.6394 -1.6583
 5708TIP3    H217131   2.131   1.867   3.834 -0.5799  2.2728 -0.9369
 5709TIP3   OH217132   2.158   2.929   1.258  0.0162  0.1237 -0.0202
 5709TIP3    H117133   2.190   2.860   1.198 -1.5269  0.6110 -1.4824
 5709TIP3    H217134   2.189   3.010   1.218 -0.3294  0.4179  0.3115
 5710TIP3   OH217135   5.473   3.896   5.078 -0.2504  0.1785 -0.2909
 5710TIP3    H117136   5.514   3.948   5.148 -1.9445  1.0814  0.0784
 5710TIP3    H217137   5.521   3.920   4.999  2.0089 -1.2040  0.5618
 5711TIP3   OH217138   2.244   2.998   5.100 -0.5521  0.2678 -0.4185
 5711TIP3    H117139   2.178   2.942   5.060  0.3925 -0.9308 -0.3214
 5711TIP3    H217140   2.320   2.992   5.043  0.2161 -0.0875  0.6156
 5712TIP3   OH217141   5.392   1.879   3.203  0.2415  0.5096 -0.5097
 5712TIP3    H117142   5.314   1.859   3.152 -0.6700 -1.8968  1.6410
 5712TIP3    H217143   5.360   1.923   3.281  0.8527 -1.2328  0.7915
 5713TIP3   OH217144   2.579   0.234   2.159  0.1623  0.1315 -0.2450
 5713TIP3    H117145   2.579   0.189   2.243 -0.2674 -0.3106 -0.4709
 5713TIP3    H217146   2.656   0.201   2.113  0.3096  0.2550 -0.0838
 5714TIP3   OH217147   4.326   1.049   4.320 -0.2961 -0.0672  0.3385
 5714TIP3    H117148   4.356   1.124   4.370  2.8719 -0.7846 -0.2593
 5714TIP3    H217149   4.345   0.974   4.377 -1.6943 -0.5517  0.1874
 5715TIP3   OH217150   2.695   4.199   3.332 -0.2623 -0.5305  0.0174
 5715TIP3    H117151   2.611   4.203   3.379  0.0713 -2.5415  0.8897
 5715TIP3    H217152   2.682   4.128   3.268  0.6029 -0.5115 -0.1838
 5716TIP3   OH217153   6.212   4.188   1.077  0.4014 -0.4982  0.0839
 5716TIP3    H117154   6.164   4.269   1.061  0.1536 -0.5270  0.6552
 5716TIP3    H217155   6.304   4.214   1.082  0.2640 -0.1378  0.9752
 5717TIP3   OH217156   5.507   0.416   0.709  0.8129 -0.2382  0.9882
 5717TIP3    H117157   5.548   0.491   0.666  1.7026 -1.3603 -0.1799
 5717TIP3    H217158   5.428   0.399   0.659  1.1151 -0.6751  0.6583
 5718TIP3   OH217159   1.788   4.830   1.567 -0.6048  0.5280 -0.0327
 5718TIP3    H117160   1.794   4.919   1.599  2.2946  0.1466  0.7174
 5718TIP3    H217161   1.741   4.782   1.636  0.4992  0.8795  0.9805
 5719TIP3   OH217162   0.997   0.326   3.598  0.1942 -0.1734  0.1837
 5719TIP3    H117163   1.072   0.370   3.639  1.4217  0.4112 -2.4371
 5719TIP3    H217164   0.920   0.370   3.635  1.3105  2.2680 -0.1697
 5720TIP3   OH217165   2.431   0.246   1.592  0.1042 -0.6321  0.0741
 5720TIP3    H117166   2.463   0.255   1.682 -0.4125  0.8355  0.1361
 5720TIP3    H217167   2.424   0.336   1.561 -1.5245 -1.0435 -0.8055
 5721TIP3   OH217168   0.121   0.309   4.696  0.0927 -0.2523  0.2139
 5721TIP3    H117169   0.028   0.329   4.701 -0.2240 -1.2741 -1.2119
 5721TIP3    H217170   0.126   0.214   4.695  1.1811 -0.2190  0.6031
 5722TIP3   OH217171   4.743   4.744   0.840 -0.0159 -0.4107 -0.2853
 5722TIP3    H117172   4.672   4.780   0.787 -1.1829 -0.3905  1.2286
 5722TIP3    H217173   4.719   4.653   0.856 -0.1889 -0.1584  0.9995
 5723TIP3   OH217174   0.645   4.665   4.716  0.0338 -0.1444 -0.3576
 5723TIP3    H117175   0.704   4.625   4.653 -1.7157 -1.3054 -1.3369
 5723TIP3    H217176   0.558   4.657   4.677 -0.7694  1.9573  0.7749
 5724TIP3   OH217177   2.121   5.652   3.891  0.7188 -0.1162 -0.0731
 5724TIP3    H117178   2.078   5.658   3.806  0.4301  1.4651  0.1533
 5724TIP3    H217179   2.060   5.602   3.945  0.5884 -0.5381 -0.6063
 5725TIP3   OH217180   0.519   4.922   3.087  0.3814  0.1113 -0.0566
 5725TIP3    H117181   0.577   4.849   3.065  1.4950  0.7110  0.7528
 5725TIP3    H217182   0.499   4.909   3.180 -1.4515 -0.5066 -0.4955
 5726TIP3   OH217183   0.173   3.079   0.587  0.2950  0.1714  0.1082
 5726TIP3    H117184   0.081   3.071   0.562 -0.0271  0.1227  1.2661
 5726TIP3    H217185   0.221   3.064   0.505 -0.6488 -1.7817 -0.1489
 5727TIP3   OH217186   4.609   5.773   4.983  0.1129 -0.0278  0.0334
 5727TIP3    H117187   4.520   5.806   4.999 -0.3296 -0.4422 -1.3722
 5727TIP3    H217188   4.641   5.748   5.069 -1.3381 -0.3330  0.5168
 5728TIP3   OH217189   5.738   2.527   3.290  0.2674  0.0951 -0.1265
 5728TIP3    H117190   5.833   2.541   3.288  0.4190 -0.8809 -0.2572
 5728TIP3    H217191   5.711   2.562   3.375  0.5719  1.3740 -0.5437
 5729TIP3   OH217192   2.745   2.428   1.818  0.0158  0.7168 -0.6430
 5729TIP3    H117193   2.815   2.492   1.807  0.2731  0.6698  0.5634
 5729TIP3    H217194   2.664   2.479   1.810  0.2159  1.2319  0.4282
 5730TIP3   OH217195   5.768   0.948   0.638  0.0831 -0.1567  0.0399
 5730TIP3    H117196   5.676   0.922   0.642  0.0313 -0.3620 -1.7674
 5730TIP3    H217197   5.769   1.037   0.674 -0.8063 -0.1786  0.1391
 5731TIP3   OH217198   5.997   2.146   2.722 -0.1515  0.1385  0.9421
 5731TIP3    H117199   5.985   2.096   2.803 -1.4020 -0.4838  0.3948
 5731TIP3    H217200   5.942   2.102   2.658  1.9129 -0.2472 -0.6623
 5732TIP3   OH217201   5.979   2.189   0.990  0.4658  0.9847  0.1880
 5732TIP3    H117202   5.886   2.196   1.011  0.2954  0.8419 -0.4926
 5732TIP3    H217203   5.981   2.164   0.897  1.1389 -0.6409  0.6008
 5733TIP3   OH217204   5.707   0.959   2.877  0.7048 -0.0836  0.3080
 5733TIP3    H117205   5.658   0.918   2.949  0.5109  1.1014  0.8686
 5733TIP3    H217206   5.799   0.950   2.902  0.7816 -1.7586 -0.4481
 5734TIP3   OH217207   0.632   0.554   3.340  0.3198 -0.1023 -0.0517
 5734TIP3    H117208   0.555   0.591   3.296  0.8703  0.9122 -0.2119
 5734TIP3    H217209   0.674   0.630   3.380  2.7028 -0.1679 -2.2214
 5735TIP3   OH217210   1.261   1.485   3.850 -0.1580 -0.0768 -0.5782
 5735TIP3    H117211   1.224   1.573   3.854 -2.0416 -0.8510  0.3176
 5735TIP3    H217212   1.334   1.487   3.912 -0.1585  0.8508 -0.5958
 5736TIP3   OH217213   0.869   1.448   0.784 -0.0282 -0.3858  0.1300
 5736TIP3    H117214   0.918   1.523   0.749  0.2732 -0.7015 -0.1383
 5736TIP3    H217215   0.908   1.372   0.740 -1.4536 -0.5760 -0.9050
 5737TIP3   OH217216   4.790   3.363   1.981  0.0690 -0.0453 -0.5978
 5737TIP3    H117217   4.727   3.301   1.945 -0.3624 -0.2991  0.5240
 5737TIP3    H217218   4.838   3.312   2.046 -0.6974  0.9083  0.7823
 5738TIP3   OH217219   2.616   4.334   0.538 -0.0597 -0.2069  0.2794
 5738TIP3    H117220   2.660   4.249   0.530 -0.8206 -0.4986 -1.1089
 5738TIP3    H217221   2.688   4.398   0.545  0.5255 -1.0180  2.5580
 5739TIP3   OH217222   5.213   4.852   3.250 -0.2505  0.2674  0.0279
 5739TIP3    H117223   5.144   4.876   3.188  0.4789  1.6826 -0.2895
 5739TIP3    H217224   5.177   4.779   3.300 -0.0134 -2.7097 -3.6897
 5740TIP3   OH217225   2.232   2.625   4.180  0.3204 -0.0708 -0.1930
 5740TIP3    H117226   2.276   2.654   4.100 -2.3952  1.9144 -1.1168
 5740TIP3    H217227   2.189   2.543   4.155  0.2007  0.0921 -0.5340
 5741TIP3   OH217228   3.120   4.320   4.167  0.8606 -0.1407 -0.3828
 5741TIP3    H117229   3.069   4.267   4.228 -0.3616 -0.1915 -1.3966
 5741TIP3    H217230   3.106   4.278   4.082  2.3607  0.0405 -0.7406
 5742TIP3   OH217231   1.271   3.357   3.592 -0.5062 -0.0722 -0.3688
 5742TIP3    H117232   1.241   3.309   3.669  1.8796 -2.1966 -0.6534
 5742TIP3    H217233   1.202   3.343   3.527 -0.4056 -2.2782 -0.0802
 5743TIP3   OH217234   6.153   4.949   3.111 -0.1802 -0.6017 -0.5012
 5743TIP3    H117235   6.202   4.947   3.193  0.3199 -0.3572 -0.7896
 5743TIP3    H217236   6.070   4.990   3.133  0.0299 -0.3558 -0.1591
 5744TIP3   OH217237   0.653   3.576   3.027  0.5101 -0.0005 -0.2193
 5744TIP3    H117238   0.583   3.578   2.962  0.8328  1.1206 -0.5445
 5744TIP3    H217239   0.724   3.528   2.984  0.9833  1.3438 -0.9854
 5745TIP3   OH217240   2.573   2.610   3.382 -0.2980  0.1345  0.3934
 5745TIP3    H117241   2.620   2.538   3.424 -0.2156  0.2075  0.4253
 5745TIP3    H217242   2.509   2.566   3.325  1.0493  0.0107 -1.0881
 5746TIP3   OH217243   2.471   2.961   2.614  0.0747 -0.3377  0.7362
 5746TIP3    H117244   2.399   3.024   2.618  0.3781  0.0031  0.8137
 5746TIP3    H217245   2.533   2.990   2.680  0.9419  0.1824 -0.2772
 5747TIP3   OH217246   4.871   4.096   3.430  0.2032  0.9230 -0.1712
 5747TIP3    H117247   4.923   4.095   3.510  0.0300 -0.2301 -0.0530
 5747TIP3    H217248   4.793   4.044   3.452  1.0473 -1.1006 -1.6425
 5748TIP3   OH217249   4.709   2.273   0.104  0.0485 -0.2399 -0.1093
 5748TIP3    H117250   4.771   2.202   0.085  0.0026 -0.5596  0.9239
 5748TIP3    H217251   4.654   2.278   0.026 -1.0182 -2.4639  0.4411
 5749TIP3   OH217252   6.032   5.886   4.631  0.6577 -0.0775 -0.1099
 5749TIP3    H117253   6.028   5.977   4.600  0.2923 -0.2908 -0.7247
 5749TIP3    H217254   5.970   5.883   4.704  0.5806  0.1389 -0.1648
 5750TIP3   OH217255   0.192   0.593   0.535  0.0789 -0.2327 -0.1163
 5750TIP3    H117256   0.159   0.545   0.459  2.7801 -2.0973 -0.2577
 5750TIP3    H217257   0.242   0.665   0.498  0.4964 -0.5090 -0.1012
 5751TIP3   OH217258   2.833   2.947   3.006  0.0384  0.0279 -0.3159
 5751TIP3    H117259   2.766   2.956   2.938  0.0032 -0.2695 -0.3238
 5751TIP3    H217260   2.783   2.940   3.088  0.1002  1.2093 -0.1546
 5752TIP3   OH217261   1.750   2.719   1.150 -0.4211  0.4718  0.1923
 5752TIP3    H117262   1.839   2.728   1.185 -0.5268 -0.6008  0.7842
 5752TIP3    H217263   1.727   2.627   1.168 -1.5435  0.6669 -0.2015
 5753TIP3   OH217264   1.502   1.524   3.559 -0.1549  0.6302  0.1324
 5753TIP3    H117265   1.443   1.448   3.566  0.0313 -0.0589 -3.8074
 5753TIP3    H217266   1.563   1.513   3.632 -1.6824 -1.5714  1.1903
 5754TIP3   OH217267   0.460   2.317   4.702 -0.8664 -0.8213 -0.5977
 5754TIP3    H117268   0.506   2.376   4.643 -1.2603 -0.6200 -0.7011
 5754TIP3    H217269   0.369   2.346   4.701 -0.9448 -1.0329 -0.1627
 5755TIP3   OH217270   2.955   4.434   5.072 -0.1629  0.3442  0.0263
 5755TIP3    H117271   2.926   4.350   5.107 -1.0831  1.2667  1.5462
 5755TIP3    H217272   3.039   4.414   5.030  0.3119 -1.0957  1.5414
 5756TIP3   OH217273   3.493   3.972   0.552 -0.2229 -0.0914  0.0628
 5756TIP3    H117274   3.399   3.956   0.540 -0.2180 -0.4624  0.4905
 5756TIP3    H217275   3.532   3.949   0.468 -0.7061  1.7314 -0.7072
 5757TIP3   OH217276   6.214   4.514   1.887  0.2780  0.1174  0.5244
 5757TIP3    H117277   6.287   4.576   1.879  1.0958 -0.5791  2.1394
 5757TIP3    H217278   6.255   4.428   1.891 -0.7437 -0.4180  0.1107
 5758TIP3   OH217279   0.892   3.427   3.861 -0.8267 -0.4406  0.9541
 5758TIP3    H117280   0.896   3.356   3.797  1.8576 -0.9038  1.4944
 5758TIP3    H217281   0.925   3.503   3.813 -0.5326 -0.3650  1.2740
 5759TIP3   OH217282   0.220   1.040   4.662 -0.4262  0.5423 -0.4076
 5759TIP3    H117283   0.279   0.999   4.726 -1.6176  1.1171  1.1302
 5759TIP3    H217284   0.267   1.119   4.634 -0.5096  1.1044  0.9551
 5760TIP3   OH217285   1.628   3.280   4.413  0.0991 -0.3897 -0.7762
 5760TIP3    H117286   1.704   3.223   4.407 -0.3324 -1.3021  1.5657
 5760TIP3    H217287   1.560   3.226   4.453 -0.7972  1.3063  0.0936
 5761TIP3   OH217288   6.324   2.156   0.746  0.0938 -0.4705  0.0652
 5761TIP3    H117289   6.391   2.211   0.786  0.0057 -0.4518  0.1873
 5761TIP3    H217290   6.348   2.153   0.653  0.7310 -1.1546  0.2486
 5762TIP3   OH217291   4.690   0.824   3.227 -0.2391 -0.8135  0.0370
 5762TIP3    H117292   4.680   0.785   3.314 -1.9568  0.0032  0.2558
 5762TIP3    H217293   4.609   0.800   3.181  0.1778 -0.3448 -0.9604
 5763TIP3   OH217294   0.131   0.267   1.325  0.1965  0.3526  0.3238
 5763TIP3    H117295   0.072   0.334   1.292  0.1575  0.4464  0.5770
 5763TIP3    H217296   0.132   0.281   1.420  0.9864  0.6380  0.2768
 5764TIP3   OH217297   0.077   0.208   0.866  0.2594 -0.1753 -0.2059
 5764TIP3    H117298   0.166   0.216   0.832  0.5967 -0.0569  0.6631
 5764TIP3    H217299   0.022   0.198   0.789  1.0661 -0.5981 -0.7388
 5765TIP3   OH217300   0.166   5.241   1.196  0.3804  0.0136 -0.1760
 5765TIP3    H117301   0.095   5.233   1.260 -0.7866  0.2745 -1.3774
 5765TIP3    H217302   0.155   5.164   1.140  1.0486  0.0654 -0.3809
 5766TIP3   OH217303   4.989   1.761   0.786  0.2908  0.7297 -0.0253
 5766TIP3    H117304   5.035   1.777   0.869  0.3685 -0.6666  0.2143
 5766TIP3    H217305   4.911   1.816   0.791  0.5243  1.0055  0.7733
 5767TIP3   OH217306   0.727   2.043   1.150  0.3439 -0.1042  0.0417
 5767TIP3    H117307   0.730   2.008   1.239 -1.6939 -0.2969  0.0862
 5767TIP3    H217308   0.659   1.991   1.106 -1.5696  2.5466 -0.3975
 5768TIP3   OH217309   5.504   4.537   4.030 -0.1019  1.2590 -0.1173
 5768TIP3    H117310   5.531   4.490   4.109  0.5508  1.0139 -0.4804
 5768TIP3    H217311   5.487   4.626   4.060  0.6717  1.3054  0.2155
 5769TIP3   OH217312   4.374   4.308   2.576  0.2445 -0.6378 -0.2933
 5769TIP3    H117313   4.290   4.341   2.610 -0.5648 -1.0301 -1.8236
 5769TIP3    H217314   4.382   4.221   2.614  0.0361 -0.5361 -0.0067
 5770TIP3   OH217315   0.471   2.595   4.519 -0.2568  0.4958 -0.5713
 5770TIP3    H117316   0.554   2.609   4.564 -0.8177  1.1816  0.2701
 5770TIP3    H217317   0.494   2.537   4.446  0.9610  0.6886 -0.3758
 5771TIP3   OH217318   4.590   5.880   3.960 -0.1561  0.0889 -0.6014
 5771TIP3    H117319   4.660   5.874   3.894 -0.2168 -1.6466 -0.5538
 5771TIP3    H217320   4.512   5.849   3.915 -0.3811 -0.2825  0.0329
 5772TIP3   OH217321   1.112   2.897   0.114 -0.2958  0.2056 -0.4476
 5772TIP3    H117322   1.152   2.914   0.199 -1.6412 -0.9331  0.4622
 5772TIP3    H217323   1.019   2.887   0.133 -0.4371 -1.5108 -1.8103
 5773TIP3   OH217324   1.349   1.132   4.102 -0.0855 -0.4874 -0.0468
 5773TIP3    H117325   1.382   1.159   4.016 -0.2711  0.2545  0.1053
 5773TIP3    H217326   1.427   1.110   4.152  0.1514  0.5053  0.0570
 5774TIP3   OH217327   1.065   1.300   4.694 -0.7570 -0.6075  0.0518
 5774TIP3    H117328   1.037   1.388   4.718 -0.2708  0.2752 -2.2786
 5774TIP3    H217329   1.159   1.309   4.675 -0.7512 -1.5690 -0.4392
 5775TIP3   OH217330   2.495   0.713   4.365  0.1497 -0.5949  0.3517
 5775TIP3    H117331   2.476   0.802   4.395  1.2717 -0.4539  0.7225
 5775TIP3    H217332   2.526   0.667   4.444  0.4973 -1.0256 -0.0239
 5776TIP3   OH217333   6.089   5.518   0.672 -0.2721 -0.3655  0.0264
 5776TIP3    H117334   6.104   5.465   0.751 -0.4968  0.0428  0.3418
 5776TIP3    H217335   6.140   5.473   0.604 -0.9279 -1.3254  0.1464
 5777TIP3   OH217336   1.869   2.667   4.955  0.3515  0.3092  0.1040
 5777TIP3    H117337   1.899   2.665   4.865  0.2775 -1.6463  0.0649
 5777TIP3    H217338   1.843   2.576   4.974  1.6588  0.3453  2.5075
 5778TIP3   OH217339   3.717   1.149   3.507  0.1768  0.0595  0.1090
 5778TIP3    H117340   3.742   1.088   3.577  0.2334  0.7160  0.6650
 5778TIP3    H217341   3.750   1.108   3.427 -0.9398 -1.3148  0.3046
 5779TIP3   OH217342   1.447   5.849   1.792  0.1048  0.2416  0.2304
 5779TIP3    H117343   1.416   5.814   1.709  0.6130  1.4354 -0.4961
 5779TIP3    H217344   1.442   5.776   1.853  0.8950 -1.0051 -1.1446
 5780TIP3   OH217345   4.351   0.996   0.635  0.5516 -0.4155  0.2557
 5780TIP3    H117346   4.333   0.906   0.607  1.0492 -0.1744 -0.8702
 5780TIP3    H217347   4.297   1.051   0.578 -3.0527 -0.0485  3.5705
 5781TIP3   OH217348   6.168   4.361   4.045  0.7262 -0.1407  0.5313
 5781TIP3    H117349   6.112   4.438   4.047  0.0942 -0.5487 -0.7142
 5781TIP3    H217350   6.255   4.394   4.069  0.3585  0.8662  0.5032
 5782TIP3   OH217351   5.526   5.241   0.045 -0.1510 -0.3805 -0.3030
 5782TIP3    H117352   5.616   5.220   0.072 -0.2997  0.5688  1.0364
 5782TIP3    H217353   5.503   5.173  -0.018  1.9187  0.0108 -1.5960
 5783TIP3   OH217354   0.697   2.209   2.593 -0.2880 -0.4091  0.1135
 5783TIP3    H117355   0.605   2.227   2.614 -0.0812 -0.8375  1.5025
 5783TIP3    H217356   0.720   2.276   2.529 -1.5028 -0.1492 -0.0832
 5784TIP3   OH217357   0.418   1.246   4.240 -0.5880 -0.2572 -0.1889
 5784TIP3    H117358   0.457   1.196   4.169  2.5188 -1.0517  1.8474
 5784TIP3    H217359   0.381   1.180   4.299 -0.7139  0.1878  0.2399
 5785TIP3   OH217360   1.700   1.248   3.123 -0.3027  0.2340 -0.4607
 5785TIP3    H117361   1.784   1.211   3.149  0.0664  0.9916 -0.5589
 5785TIP3    H217362   1.643   1.232   3.199  0.6529  2.0542  0.7110
 5786TIP3   OH217363   2.123   4.445   0.033  0.7375 -0.0645 -0.5812
 5786TIP3    H117364   2.183   4.397  -0.025 -1.2690 -0.9826 -2.0278
 5786TIP3    H217365   2.112   4.387   0.109  0.0362 -0.9382 -1.3177
 5787TIP3   OH217366   3.303   1.032   1.276  0.1657  0.3061 -0.8631
 5787TIP3    H117367   3.239   0.980   1.325  0.0557  1.2957  0.0736
 5787TIP3    H217368   3.366   1.060   1.342  2.1736 -1.4688 -1.9032
 5788TIP3   OH217369   1.927   2.328   0.474  0.2165 -0.5757  0.4353
 5788TIP3    H117370   1.956   2.317   0.564  0.4544  0.0119  0.4377
 5788TIP3    H217371   1.995   2.383   0.434  0.3727 -1.2266 -0.2365
 5789TIP3   OH217372   3.278   1.313   4.618  1.1985  0.0997  0.1474
 5789TIP3    H117373   3.295   1.228   4.659  0.9550 -0.0668 -0.0898
 5789TIP3    H217374   3.288   1.376   4.688  1.3245 -0.1326  0.3396
 5790TIP3   OH217375   4.461   1.148   2.392  0.8251  0.3145 -0.1436
 5790TIP3    H117376   4.487   1.222   2.447 -0.6071  0.7882 -0.0670
 5790TIP3    H217377   4.522   1.150   2.318  0.5014  1.8907 -0.3967
 5791TIP3   OH217378   3.011   3.688   0.642  0.0349 -0.5132 -0.0007
 5791TIP3    H117379   2.946   3.638   0.593  0.1947 -0.1192 -0.6221
 5791TIP3    H217380   3.052   3.745   0.577 -0.5781  0.9022  0.7882
 5792TIP3   OH217381   0.455   4.635   0.457 -0.0330 -0.3058  0.2565
 5792TIP3    H117382   0.520   4.570   0.484 -0.0347 -0.2261  0.4554
 5792TIP3    H217383   0.478   4.714   0.506 -1.0053 -0.6278  1.2732
 5793TIP3   OH217384   5.938   3.044   1.897  0.1789 -0.3347 -0.2610
 5793TIP3    H117385   5.965   3.001   1.816  1.7403  1.1377 -0.5825
 5793TIP3    H217386   5.890   2.977   1.946 -0.9297 -1.2077 -2.4483
 5794TIP3   OH217387   2.743   3.177   4.387  0.0648  0.2432  0.1507
 5794TIP3    H117388   2.764   3.245   4.451 -0.0342  0.1918  0.2377
 5794TIP3    H217389   2.826   3.159   4.342  0.4575 -0.7139  1.2157
 5795TIP3   OH217390   1.311   6.000   4.783  0.5995  0.2536 -0.2026
 5795TIP3    H117391   1.311   5.917   4.829 -0.4531 -0.7337 -1.8614
 5795TIP3    H217392   1.314   6.066   4.852  0.2487 -1.1317  1.2008
 5796TIP3   OH217393   1.552   5.307   2.277 -0.0780  0.4563  0.0244
 5796TIP3    H117394   1.608   5.266   2.343 -1.4570 -0.2798  0.7815
 5796TIP3    H217395   1.530   5.392   2.314 -0.9863 -0.0233  0.6112
 5797TIP3   OH217396   1.025   4.292   3.076  0.3782 -0.3875 -0.0061
 5797TIP3    H117397   1.073   4.364   3.037 -0.8129  0.4839  0.0662
 5797TIP3    H217398   0.962   4.265   3.009  1.4982 -2.0907 -0.4291
 5798TIP3   OH217399   2.167   4.484   1.615  0.0349 -0.3356 -0.0178
 5798TIP3    H117400   2.262   4.477   1.606  0.1168  0.0385  0.5191
 5798TIP3    H217401   2.136   4.508   1.528  0.5528  0.7217  0.0787
 5799TIP3   OH217402   2.528   2.241   3.299 -0.0542  0.3194 -0.7322
 5799TIP3    H117403   2.555   2.233   3.207  1.7233  0.1857 -0.2371
 5799TIP3    H217404   2.484   2.158   3.318  0.3005  0.0099 -1.2330
 5800TIP3   OH217405   0.797   2.625   3.095 -0.1966  0.1079  0.0603
 5800TIP3    H117406   0.872   2.660   3.143 -1.0104  1.2435  0.5463
 5800TIP3    H217407   0.727   2.620   3.161 -0.8829  0.1923 -0.6548
 5801TIP3   OH217408   2.233   4.159   1.899  0.4886 -0.4160  0.1674
 5801TIP3    H117409   2.306   4.115   1.943 -0.1930 -1.9159 -0.1332
 5801TIP3    H217410   2.223   4.112   1.816 -0.5503  0.0361  0.0251
 5802TIP3   OH217411   3.995   3.932   2.732  0.7359  0.3253 -0.1161
 5802TIP3    H117412   3.992   3.880   2.651 -0.0433 -0.0321  0.1315
 5802TIP3    H217413   3.903   3.952   2.751  1.0669  3.0279 -0.9674
 5803TIP3   OH217414   4.976   1.504   0.990  0.0894 -0.4155 -0.4146
 5803TIP3    H117415   5.013   1.588   1.017 -0.6191 -1.0055  2.8235
 5803TIP3    H217416   4.882   1.520   0.982 -0.1684 -1.0487  1.0990
 5804TIP3   OH217417   4.332   2.591   4.321  0.2221  0.5348  0.3778
 5804TIP3    H117418   4.308   2.635   4.240 -0.7668  0.1771  0.4678
 5804TIP3    H217419   4.363   2.662   4.378 -1.5659  1.1809  0.6012
 5805TIP3   OH217420   3.114   2.796   4.300  0.3258 -0.6116  0.3408
 5805TIP3    H117421   3.051   2.725   4.300 -0.3819 -0.0118 -0.5169
 5805TIP3    H217422   3.189   2.761   4.252  0.5754 -1.2620  1.1952
 5806TIP3   OH217423   6.262   5.172   4.436  0.1686  0.6588 -0.1053
 5806TIP3    H117424   6.347   5.149   4.397  0.3878  0.6792  0.3514
 5806TIP3    H217425   6.253   5.266   4.420 -0.1919  0.4939 -0.9500
 5807TIP3   OH217426   2.414   2.511   3.155  0.0707  0.1881  0.3260
 5807TIP3    H117427   2.334   2.458   3.164 -0.3215  0.2832 -1.9781
 5807TIP3    H217428   2.479   2.450   3.122  0.6300  0.3884  1.0406
 5808TIP3   OH217429   2.287   1.757   3.532  0.5899  0.0487 -0.3097
 5808TIP3    H117430   2.357   1.692   3.533  0.7042  0.1740  0.1310
 5808TIP3    H217431   2.209   1.709   3.557  0.8596  0.2742  1.0530
 5809TIP3   OH217432   1.891   1.616   0.811 -0.1761  0.2504  0.1000
 5809TIP3    H117433   1.869   1.622   0.904 -0.7784  0.8582 -0.0687
 5809TIP3    H217434   1.923   1.704   0.789 -1.4224  0.5648 -0.5880
 5810TIP3   OH217435   3.278   1.182   1.816 -0.2164  0.0985 -0.3136
 5810TIP3    H117436   3.343   1.252   1.827  0.0730 -0.2682  0.3932
 5810TIP3    H217437   3.273   1.169   1.722 -0.2780  1.0762 -0.4545
 5811TIP3   OH217438   6.207   2.279   4.628  0.2113  0.1060 -0.2753
 5811TIP3    H117439   6.123   2.232   4.633  0.3548 -0.0552  1.2386
 5811TIP3    H217440   6.183   2.371   4.625 -0.0282  0.0462 -0.2480
 5812TIP3   OH217441   3.850   4.836   1.071 -0.1330 -0.0900 -0.4953
 5812TIP3    H117442   3.859   4.743   1.050 -0.8733  0.3359 -3.0089
 5812TIP3    H217443   3.939   4.870   1.062  0.2804 -0.6480  1.1730
 5813TIP3   OH217444   4.365   2.044   2.329  0.9834 -0.2176 -0.0934
 5813TIP3    H117445   4.424   2.028   2.403 -0.1316 -1.4002  0.5821
 5813TIP3    H217446   4.331   1.957   2.306  0.5624  0.2661 -1.3584
 5814TIP3   OH217447   0.845   5.096   2.432  0.1351  0.0764  0.0107
 5814TIP3    H117448   0.875   5.174   2.479 -1.7044  2.3524 -2.2858
 5814TIP3    H217449   0.750   5.100   2.438 -0.0229 -2.8722  0.9809
 5815TIP3   OH217450   1.193   2.575   1.742  0.5615 -0.0834  0.2306
 5815TIP3    H117451   1.109   2.608   1.775 -0.3822 -2.3180  0.2354
 5815TIP3    H217452   1.201   2.613   1.655 -0.8969 -0.4867 -0.1029
 5816TIP3   OH217453   5.487   0.482   2.059 -0.3545  0.3525  0.0184
 5816TIP3    H117454   5.537   0.562   2.044 -1.0857  1.1155  1.4763
 5816TIP3    H217455   5.407   0.495   2.008 -0.2103  0.2894 -0.2235
 5817TIP3   OH217456   5.330   0.272   4.348  0.4456  0.0671 -1.0286
 5817TIP3    H117457   5.236   0.286   4.336  0.4332  1.8060  0.6560
 5817TIP3    H217458   5.363   0.254   4.260 -1.6999 -2.4782 -1.4195
 5818TIP3   OH217459   2.854   5.423   1.872 -0.0866 -0.0483 -0.0122
 5818TIP3    H117460   2.835   5.380   1.955  3.0125 -1.2697  0.1990
 5818TIP3    H217461   2.941   5.392   1.848  0.7310  3.1615 -1.8481
 5819TIP3   OH217462   2.888   3.377   4.554 -0.1487 -0.2139  0.1294
 5819TIP3    H117463   2.867   3.466   4.525  0.6697  1.0131  2.9605
 5819TIP3    H217464   2.974   3.385   4.595 -0.0614 -2.3328  0.4565
 5820TIP3   OH217465   0.302   2.211   3.138  0.3610 -0.0197 -0.5648
 5820TIP3    H117466   0.268   2.300   3.126  0.1385 -0.0382 -0.0811
 5820TIP3    H217467   0.391   2.214   3.102  0.4060  0.4371 -0.4178
 5821TIP3   OH217468   4.936   3.531   3.429 -0.1392  0.1735  0.0310
 5821TIP3    H117469   4.866   3.538   3.494  0.0765  0.4906  0.2406
 5821TIP3    H217470   4.892   3.530   3.345 -0.3860  0.7036  0.1458
 5822TIP3   OH217471   3.354   2.109   4.665 -0.0226 -0.0709  0.5874
 5822TIP3    H117472   3.396   2.104   4.579 -2.4907 -1.5526 -0.6469
 5822TIP3    H217473   3.360   2.020   4.699 -1.1795 -0.0819  0.8123
 5823TIP3   OH217474   2.194   1.159   4.468  0.0904 -0.2135  0.0583
 5823TIP3    H117475   2.140   1.215   4.411 -1.6824  0.6849  2.4726
 5823TIP3    H217476   2.145   1.076   4.471  0.0872 -0.1960  0.4183
 5824TIP3   OH217477   1.880   2.864   3.462  0.1542 -0.7131  0.1571
 5824TIP3    H117478   1.808   2.802   3.466  0.3791 -1.0528 -0.9747
 5824TIP3    H217479   1.944   2.825   3.402  1.0126 -0.1348  0.6655
 5825TIP3   OH217480   3.146   1.106   0.341  0.0485  0.2225  0.6118
 5825TIP3    H117481   3.213   1.043   0.316 -0.8913 -1.1223  1.3434
 5825TIP3    H217482   3.176   1.140   0.426  2.0268  3.0216 -1.0322
 5826TIP3   OH217483   3.476   4.271   4.233 -0.5267 -0.2410  0.0852
 5826TIP3    H117484   3.382   4.278   4.214 -0.2392  2.8593 -0.7303
 5826TIP3    H217485   3.489   4.324   4.311  0.3952 -1.7098  0.9701
 5827TIP3   OH217486   0.245   4.339   3.405 -0.3886 -0.1986  0.4110
 5827TIP3    H117487   0.211   4.257   3.369 -2.5137  0.6901  0.2659
 5827TIP3    H217488   0.222   4.336   3.498 -0.6216  0.3043  0.3724
 5828TIP3   OH217489   6.161   4.891   0.309  0.0702 -0.1877 -0.5219
 5828TIP3    H117490   6.197   4.902   0.221 -0.1226 -2.0934 -0.8824
 5828TIP3    H217491   6.236   4.865   0.363  0.2842  1.4461  0.0239
 5829TIP3   OH217492   5.904   4.368   3.849  1.2216  0.2369  0.1419
 5829TIP3    H117493   5.879   4.448   3.895  1.1633  0.1067  0.3369
 5829TIP3    H217494   5.834   4.355   3.785  0.5799 -0.3250  0.9325
 5830TIP3   OH217495   4.325   0.109   2.580 -0.3301  0.2617  0.0304
 5830TIP3    H117496   4.378   0.036   2.613 -0.5112  0.0600 -0.1174
 5830TIP3    H217497   4.331   0.101   2.485  0.7305  1.2336 -0.0040
 5831TIP3   OH217498   4.127   1.806   2.161  1.1101  0.5657  0.3294
 5831TIP3    H117499   4.065   1.862   2.114  0.9870  0.2670  0.1303
 5831TIP3    H217500   4.091   1.799   2.249 -0.4886 -1.5751 -0.4007
 5832TIP3   OH217501   2.784   5.420   1.401 -0.3608  0.3273 -0.1939
 5832TIP3    H117502   2.740   5.489   1.351 -0.0066  0.3484 -0.4749
 5832TIP3    H217503   2.737   5.340   1.377 -0.5031  0.4079 -0.1881
 5833TIP3   OH217504   3.081   1.479   3.171  0.5465  0.0938  0.1490
 5833TIP3    H117505   2.998   1.443   3.140  0.7749  1.3135 -2.1310
 5833TIP3    H217506   3.146   1.448   3.107  1.5521  0.5557  0.9136
 5834TIP3   OH217507   1.493   1.490   5.186  0.3868 -0.8088 -0.5708
 5834TIP3    H117508   1.432   1.508   5.115  0.1427  1.5738  0.1337
 5834TIP3    H217509   1.439   1.490   5.265  1.1429  0.5682 -0.0185
 5835TIP3   OH217510   3.403   5.942   4.758  0.4444 -0.1191 -0.2502
 5835TIP3    H117511   3.391   6.024   4.806 -0.2768  0.3250 -1.1613
 5835TIP3    H217512   3.381   5.963   4.668 -1.2460 -1.6643 -0.2670
 5836TIP3   OH217513   5.395   5.774   3.745  0.1077  0.3493  0.0295
 5836TIP3    H117514   5.433   5.859   3.723  1.1568 -0.1230 -0.0764
 5836TIP3    H217515   5.348   5.790   3.827 -1.3412  1.4452 -0.9685
 5837TIP3   OH217516   1.401   3.665   5.010  0.0098 -0.3015 -0.3019
 5837TIP3    H117517   1.324   3.694   4.961  1.0058 -0.5124 -2.1210
 5837TIP3    H217518   1.448   3.608   4.948  2.2596  0.8144  0.2490
 5838TIP3   OH217519   5.145   4.169   0.947  0.0246 -0.1885 -0.4157
 5838TIP3    H117520   5.172   4.238   0.887 -0.8055 -0.0077 -0.6001
 5838TIP3    H217521   5.163   4.204   1.034 -1.0967  0.5887 -0.4780
 5839TIP3   OH217522   1.705   1.301   5.083 -0.0527 -0.5143 -0.0724
 5839TIP3    H117523   1.616   1.301   5.118 -0.9070 -1.8373 -2.0800
 5839TIP3    H217524   1.706   1.371   5.018  0.0342 -1.1778 -0.8012
 5840TIP3   OH217525   2.352   5.546   3.686  0.3218  0.7504  0.2770
 5840TIP3    H117526   2.407   5.622   3.671  0.3482  0.2755 -2.5294
 5840TIP3    H217527   2.290   5.546   3.613 -0.3079 -1.3874  0.7377
 5841TIP3   OH217528   3.972   5.040   1.997  0.0696  0.2961 -0.5842
 5841TIP3    H117529   3.983   4.950   2.027  2.7037  0.2406 -1.4896
 5841TIP3    H217530   3.880   5.045   1.969 -0.8738 -1.2669  1.9665
 5842TIP3   OH217531   4.502   1.369   3.029 -0.5547 -0.7890  0.6783
 5842TIP3    H117532   4.520   1.275   3.023 -0.2595 -0.6728 -0.7054
 5842TIP3    H217533   4.588   1.410   3.029 -0.6859 -0.5133  1.1365
 5843TIP3   OH217534   3.832   4.115   3.138 -0.2019  0.0245 -0.1015
 5843TIP3    H117535   3.847   4.021   3.145  0.5997 -0.0841 -2.6215
 5843TIP3    H217536   3.910   4.155   3.176  0.3780 -0.3562 -0.8861
 5844TIP3   OH217537   3.819   0.355   1.965 -0.2444  0.2052 -0.6874
 5844TIP3    H117538   3.770   0.300   1.904  0.1730 -0.6831 -0.2362
 5844TIP3    H217539   3.905   0.367   1.923  0.1514 -0.6679 -0.1388
 5845TIP3   OH217540   4.439   4.694   2.528  0.7268  0.2512  0.8685
 5845TIP3    H117541   4.380   4.750   2.579 -1.5514 -0.0469 -1.2194
 5845TIP3    H217542   4.452   4.617   2.583 -0.7243  0.4098  1.4829
 5846TIP3   OH217543   6.256   1.495   2.190 -0.0209 -0.2110 -0.1326
 5846TIP3    H117544   6.277   1.402   2.197 -1.4186 -0.5084  0.5623
 5846TIP3    H217545   6.320   1.538   2.246  0.4478 -0.7913 -0.2107
 5847TIP3   OH217546   5.761   5.224   5.148 -0.2021 -0.3158  0.1812
 5847TIP3    H117547   5.719   5.217   5.063 -0.4273 -0.6299  0.3131
 5847TIP3    H217548   5.702   5.178   5.208  0.3217 -0.7537  0.3709
 5848TIP3   OH217549   4.176   0.312   2.297  0.0363 -0.2696 -0.0035
 5848TIP3    H117550   4.110   0.279   2.235 -1.4461  0.2920  1.2172
 5848TIP3    H217551   4.134   0.304   2.382  0.8189  1.8685  0.6338
 5849TIP3   OH217552   1.290   2.201   2.488  0.4817  0.4152  0.3224
 5849TIP3    H117553   1.306   2.287   2.448 -0.3527  0.9379  1.0692
 5849TIP3    H217554   1.348   2.198   2.564  2.1858 -0.6442 -0.9531
 5850TIP3   OH217555   3.852   4.798   0.134  0.5123 -0.4195 -0.1705
 5850TIP3    H117556   3.862   4.706   0.109  0.4746 -0.2857 -0.6972
 5850TIP3    H217557   3.942   4.832   0.133  0.3431  0.1610 -2.4578
 5851TIP3   OH217558   2.665   3.393   1.777 -0.1237 -0.2966 -0.3759
 5851TIP3    H117559   2.755   3.383   1.809 -0.0687 -0.1790 -0.4958
 5851TIP3    H217560   2.643   3.306   1.742 -1.1920 -1.3264  2.5298
 5852TIP3   OH217561   3.470   5.739   4.540  0.2095  0.0565 -0.4370
 5852TIP3    H117562   3.448   5.769   4.628  1.7126 -1.3326  0.4621
 5852TIP3    H217563   3.458   5.816   4.485 -3.7210  0.2472  0.3799
 5853TIP3   OH217564   6.097   3.775   2.711 -0.3050  0.1239 -0.1996
 5853TIP3    H117565   6.139   3.690   2.716  0.9867  0.7737  0.6183
 5853TIP3    H217566   6.142   3.828   2.777  0.1469  1.9475 -1.8844
 5854TIP3   OH217567   4.543   5.765   0.174  0.5782 -0.1304 -0.1013
 5854TIP3    H117568   4.579   5.759   0.262 -1.4966  1.2435  0.9262
 5854TIP3    H217569   4.620   5.772   0.117  1.9816 -1.6644  1.4881
 5855TIP3   OH217570   5.369   0.225   3.101  0.0671 -0.4209  0.0755
 5855TIP3    H117571   5.345   0.244   3.010 -0.1367 -0.2522  0.1639
 5855TIP3    H217572   5.363   0.310   3.145  3.5086  0.2539 -0.4766
 5856TIP3   OH217573   1.585   1.608   2.752 -0.5675  0.5577  0.0282
 5856TIP3    H117574   1.580   1.591   2.846 -3.1357 -0.9384 -0.2812
 5856TIP3    H217575   1.656   1.552   2.722 -0.6685 -0.0729  0.8999
 5857TIP3   OH217576   1.317   5.736   4.869 -0.0768  0.1406 -0.5790
 5857TIP3    H117577   1.265   5.718   4.947 -0.1391  1.0679 -0.4052
 5857TIP3    H217578   1.384   5.667   4.868  0.8311  0.9527  1.0941
 5858TIP3   OH217579   0.329   5.019   2.463 -0.3385 -0.1799 -0.3013
 5858TIP3    H117580   0.257   4.996   2.404 -0.3041 -0.3152 -0.2908
 5858TIP3    H217581   0.287   5.040   2.546 -0.3013 -1.1193 -0.0383
 5859TIP3   OH217582   5.889   0.398   0.060  0.1641  0.2633 -0.7933
 5859TIP3    H117583   5.922   0.475   0.013  0.5806  0.0778 -0.8069
 5859TIP3    H217584   5.932   0.402   0.146 -0.4357  0.4880 -0.4912
 5860TIP3   OH217585   1.381   1.747   3.841  0.3776 -0.2275  0.7316
 5860TIP3    H117586   1.475   1.743   3.826  0.4319 -2.8788  1.3226
 5860TIP3    H217587   1.373   1.777   3.932  0.7828 -1.8806  1.3517
 5861TIP3   OH217588   0.356   0.300   2.961 -0.4815  0.1528 -0.2613
 5861TIP3    H117589   0.427   0.363   2.967  0.9166 -1.3758  0.0770
 5861TIP3    H217590   0.395   0.217   2.991 -2.3908 -0.7474 -0.1229
 5862TIP3   OH217591   5.271   2.149   0.161 -0.1805  0.3001 -0.1653
 5862TIP3    H117592   5.334   2.200   0.110  0.3851 -1.6317 -1.5069
 5862TIP3    H217593   5.309   2.062   0.166 -2.4149 -0.7805 -0.4619
 5863TIP3   OH217594   5.553   1.889   4.293 -0.3792  0.0526  0.4103
 5863TIP3    H117595   5.626   1.941   4.263 -0.0478  1.0015  2.6461
 5863TIP3    H217596   5.485   1.901   4.227  0.4258  1.6201 -0.1661
 5864TIP3   OH217597   4.767   3.036   1.040  0.0471 -0.7117  0.6012
 5864TIP3    H117598   4.843   3.006   0.990 -0.3335  0.6509 -0.8595
 5864TIP3    H217599   4.695   3.037   0.976 -0.5604  0.6580  1.2654
 5865TIP3   OH217600   5.466   0.655   1.098  0.0575 -0.5755 -0.5729
 5865TIP3    H117601   5.449   0.678   1.006 -1.9858  0.4275 -0.0111
 5865TIP3    H217602   5.558   0.677   1.112 -0.0583  0.9720 -1.9139
 5866TIP3   OH217603   2.541   4.802   1.096  0.3271 -0.2119 -0.1156
 5866TIP3    H117604   2.561   4.886   1.056 -1.9521 -0.2680 -1.5651
 5866TIP3    H217605   2.512   4.824   1.185  1.7472  0.2939  0.2405
 5867TIP3   OH217606   4.476   4.984   1.590  0.0408 -0.0041  0.7123
 5867TIP3    H117607   4.499   5.040   1.517  0.5804 -0.9365  0.1419
 5867TIP3    H217608   4.384   4.960   1.576 -0.0005  0.2191  0.6129
 5868TIP3   OH217609   0.004   4.980   2.437  0.6080  0.1438  0.1618
 5868TIP3    H117610   0.064   5.054   2.429  0.4461  0.1730 -0.8345
 5868TIP3    H217611  -0.051   4.985   2.359 -0.1749 -0.3471  0.6679
 5869TIP3   OH217612   4.246   3.194   0.925 -0.3489  0.1735  0.0776
 5869TIP3    H117613   4.290   3.166   1.005  2.1145 -0.9560 -1.5349
 5869TIP3    H217614   4.309   3.251   0.881 -2.1364  1.7818 -0.5420
 5870TIP3   OH217615   5.490   2.473   1.107 -0.1741  0.3441 -0.2905
 5870TIP3    H117616   5.452   2.461   1.194  1.3021 -0.7608  0.2509
 5870TIP3    H217617   5.415   2.487   1.050 -1.2636 -0.0862  0.9760
 5871TIP3   OH217618   3.642   2.601   1.773 -0.5079 -1.0742  0.4780
 5871TIP3    H117619   3.654   2.549   1.694 -0.3807 -2.1251  1.1762
 5871TIP3    H217620   3.656   2.540   1.845 -0.9560 -0.2129  1.3238
 5872TIP3   OH217621   1.358   1.976   4.877 -0.1863 -0.2384 -0.0037
 5872TIP3    H117622   1.307   1.958   4.798  1.6304 -2.1925 -0.8402
 5872TIP3    H217623   1.390   2.066   4.866 -0.0414 -0.4510 -1.4708
 5873TIP3   OH217624   3.359   0.458   2.347 -0.3143 -0.2618 -0.5374
 5873TIP3    H117625   3.419   0.398   2.303 -0.0858 -0.2321 -0.2700
 5873TIP3    H217626   3.409   0.492   2.421 -0.7139 -0.3608 -0.2162
 5874TIP3   OH217627   4.569   1.972   1.145 -0.2133  0.2361  0.3042
 5874TIP3    H117628   4.529   1.918   1.214  2.4377 -0.6179  1.2856
 5874TIP3    H217629   4.597   2.051   1.191  0.3555  0.2661 -0.0985
 5875TIP3   OH217630   4.440   3.381   4.829  0.2633 -0.5005 -0.7102
 5875TIP3    H117631   4.521   3.384   4.778 -0.4177 -1.9582 -1.9691
 5875TIP3    H217632   4.412   3.473   4.835  1.0783 -0.1544 -1.8170
 5876TIP3   OH217633   5.280   4.283   4.156  0.9779  0.2265 -0.3187
 5876TIP3    H117634   5.240   4.326   4.080 -0.6201 -2.4833 -1.1425
 5876TIP3    H217635   5.213   4.288   4.224  0.1550 -2.0065 -0.8683
 5877TIP3   OH217636   5.326   0.613   3.811  1.0343  0.5212 -0.3128
 5877TIP3    H117637   5.234   0.624   3.785  0.6958 -0.4925  0.3992
 5877TIP3    H217638   5.326   0.626   3.906  1.4866 -0.2677 -0.1986
 5878TIP3   OH217639   4.733   2.793   3.901 -1.0677 -0.0533  0.4065
 5878TIP3    H117640   4.812   2.797   3.846 -1.6414 -3.0374 -0.7999
 5878TIP3    H217641   4.673   2.856   3.861 -0.4243 -0.0740 -0.6272
 5879TIP3   OH217642   0.402   5.180   4.271 -0.3100 -0.4622 -0.1308
 5879TIP3    H117643   0.307   5.197   4.275 -0.3642 -0.7056 -0.3586
 5879TIP3    H217644   0.409   5.085   4.264  0.0447 -0.6807  2.3751
 5880TIP3   OH217645   0.556   3.809   4.427 -0.1906  0.0112 -0.3696
 5880TIP3    H117646   0.579   3.813   4.334  0.6377  0.7608 -0.1485
 5880TIP3    H217647   0.598   3.729   4.458 -0.0246  0.0373 -0.5242
 5881TIP3   OH217648   2.368   2.656   2.329  0.1953  0.0979 -0.1207
 5881TIP3    H117649   2.312   2.685   2.256 -1.0217  0.7415  1.0322
 5881TIP3    H217650   2.306   2.622   2.394  1.1479  0.8432  1.2085
 5882TIP3   OH217651   1.851   1.528   3.301 -0.9870  0.4007 -0.4315
 5882TIP3    H117652   1.912   1.464   3.265  1.0156  0.6556  2.2424
 5882TIP3    H217653   1.781   1.475   3.340 -0.6517 -0.0660 -0.4557
 5883TIP3   OH217654   3.034   1.611   3.428  0.0403  0.5642 -0.1818
 5883TIP3    H117655   3.057   1.583   3.340 -0.8994  1.2732 -0.6613
 5883TIP3    H217656   2.950   1.656   3.419  0.1578  1.0681  0.9996
 5884TIP3   OH217657   0.400   2.130   0.937  0.1511 -0.6293  0.3929
 5884TIP3    H117658   0.343   2.127   1.014  0.3817 -3.0651  0.5664
 5884TIP3    H217659   0.346   2.095   0.866  0.8489 -1.2130  0.1413
 5885TIP3   OH217660   1.904   0.024   1.539  0.0828 -0.0163  0.2109
 5885TIP3    H117661   1.918   0.117   1.557 -0.9780 -0.0130  1.0613
 5885TIP3    H217662   1.888   0.021   1.444 -1.6790  0.9103  0.4388
 5886TIP3   OH217663   0.236   3.367   2.594  0.1789  0.4401 -0.2283
 5886TIP3    H117664   0.323   3.348   2.558 -0.1577  0.4747 -1.0969
 5886TIP3    H217665   0.176   3.315   2.540 -0.2954 -0.0579  0.7509
 5887TIP3   OH217666   5.243   3.106   4.192  0.1754 -0.0678 -0.9003
 5887TIP3    H117667   5.309   3.071   4.132  1.1010  0.6840 -0.3333
 5887TIP3    H217668   5.290   3.169   4.246 -1.2619  1.4741 -1.3505
 5888TIP3   OH217669   5.439   2.439   2.690 -0.5641 -0.4776  0.1555
 5888TIP3    H117670   5.485   2.357   2.672 -2.1679 -1.3819 -0.0444
 5888TIP3    H217671   5.448   2.490   2.610  1.2257 -0.0328  0.5975
 5889TIP3   OH217672   0.594   4.281   2.955  0.4075  0.1946  0.0656
 5889TIP3    H117673   0.503   4.278   2.926  0.4013  3.9186 -0.6977
 5889TIP3    H217674   0.589   4.283   3.051 -0.1872 -0.8072  0.0717
 5890TIP3   OH217675   4.864   3.668   0.428  0.0477  0.1134  0.1612
 5890TIP3    H117676   4.835   3.657   0.518 -0.3513 -2.3028 -0.1816
 5890TIP3    H217677   4.784   3.690   0.379  0.2471  1.3243  0.3594
 5891TIP3   OH217678   1.044   3.262   1.695  0.1934 -0.4563  0.0678
 5891TIP3    H117679   1.002   3.262   1.609 -1.5804 -2.5983  0.8139
 5891TIP3    H217680   0.977   3.297   1.754 -0.0852 -2.4785  1.0584
 5892TIP3   OH217681   2.427   2.820   0.418 -0.4836  0.2896  0.1248
 5892TIP3    H117682   2.450   2.903   0.376  0.3675  0.0292  0.0594
 5892TIP3    H217683   2.500   2.761   0.397 -1.5247 -0.7686 -0.6241
 5893TIP3   OH217684   4.716   2.473   1.944  0.0659  0.0821  0.2885
 5893TIP3    H117685   4.690   2.546   1.889 -0.2292  0.4152  0.8639
 5893TIP3    H217686   4.791   2.506   1.994  0.1737 -0.1359  0.2734
 5894TIP3   OH217687   1.744   2.662   2.986 -0.6679  0.0433 -0.1985
 5894TIP3    H117688   1.774   2.713   2.910 -2.3022 -0.8037 -1.4815
 5894TIP3    H217689   1.648   2.669   2.983 -0.7830 -0.2428  1.6626
 5895TIP3   OH217690   4.295   3.004   1.988 -0.1294 -0.3804 -0.3353
 5895TIP3    H117691   4.275   2.913   2.012  0.2899 -0.1711  0.9298
 5895TIP3    H217692   4.356   3.033   2.056 -0.8171  1.0816 -0.2990
 5896TIP3   OH217693   5.462   3.437   1.433 -0.1501 -0.1564 -0.4933
 5896TIP3    H117694   5.512   3.509   1.470 -0.6069 -0.5555  0.9370
 5896TIP3    H217695   5.522   3.395   1.371  0.0809  1.4946 -1.4408
 5897TIP3   OH217696   5.651   3.854   1.832 -0.4090 -0.4736  0.0069
 5897TIP3    H117697   5.735   3.843   1.877 -1.5262 -2.1193  1.8555
 5897TIP3    H217698   5.674   3.862   1.740  1.8586  0.9075  0.6057
 5898TIP3   OH217699   0.562   0.634   0.213 -0.4316  0.2116 -0.2455
 5898TIP3    H117700   0.474   0.628   0.177  0.0035 -2.0711 -1.1289
 5898TIP3    H217701   0.579   0.546   0.249  1.0537  0.9390  0.9626
 5899TIP3   OH217702   3.607   0.113   2.606 -0.1868 -0.3251  0.0277
 5899TIP3    H117703   3.639   0.026   2.581 -1.7359 -0.5599 -1.2377
 5899TIP3    H217704   3.513   0.102   2.616 -0.4135  1.2307 -0.1820
 5900TIP3   OH217705   0.291   3.420   3.272 -0.7079 -0.3228  0.1559
 5900TIP3    H117706   0.207   3.455   3.242 -0.2345 -0.4661 -1.4267
 5900TIP3    H217707   0.344   3.497   3.293 -1.0858 -0.2244  0.7831
 5901TIP3   OH217708   5.276   3.057   2.160  0.1468 -0.0838  0.3739
 5901TIP3    H117709   5.336   3.017   2.096 -0.0258 -0.3330  0.3664
 5901TIP3    H217710   5.291   3.009   2.241  0.1017 -0.0118  0.4251
 5902TIP3   OH217711   0.142   5.869   0.317  0.1183 -0.0338 -0.4851
 5902TIP3    H117712   0.046   5.863   0.314  0.1355 -0.5014 -0.0778
 5902TIP3    H217713   0.169   5.801   0.378  0.6240  0.9284  0.4143
 5903TIP3   OH217714   2.794   0.578   1.454 -0.4766  0.6104 -0.4241
 5903TIP3    H117715   2.786   0.565   1.548  0.7727  0.6381 -0.2872
 5903TIP3    H217716   2.788   0.490   1.417 -2.6499  0.7485 -0.5003
 5904TIP3   OH217717   2.459   5.881   2.029 -0.3334 -0.1100  0.2195
 5904TIP3    H117718   2.408   5.914   2.104 -0.5076  0.0579  0.0289
 5904TIP3    H217719   2.449   5.948   1.962  0.2816 -0.0010  0.2357
 5905TIP3   OH217720   1.562   0.135   3.441 -0.2854 -0.1838 -0.1359
 5905TIP3    H117721   1.656   0.150   3.452 -0.4585 -0.3504  2.1283
 5905TIP3    H217722   1.523   0.222   3.450 -0.2791  0.3056 -3.5358
 5906TIP3   OH217723   4.784   1.216   3.757 -0.5705 -0.5849 -0.1086
 5906TIP3    H117724   4.775   1.150   3.826  1.3515 -0.4853  0.3055
 5906TIP3    H217725   4.805   1.166   3.678 -1.4470 -0.6077 -0.3358
 5907TIP3   OH217726   5.432   2.708   1.400  0.1933  0.3542 -0.5084
 5907TIP3    H117727   5.402   2.753   1.479 -2.1041 -1.2499 -0.3493
 5907TIP3    H217728   5.426   2.774   1.331  1.7133  1.6178  0.5103
 5908TIP3   OH217729   4.867   1.220   1.949  0.4431  0.0622  0.5438
 5908TIP3    H117730   4.834   1.306   1.974 -2.9688 -0.7196 -0.7392
 5908TIP3    H217731   4.838   1.162   2.019 -0.5278 -0.5602 -0.3357
 5909TIP3   OH217732   4.840   0.957   1.417  0.1258  0.5702  0.0377
 5909TIP3    H117733   4.781   0.993   1.350 -0.5559  0.5904  0.6370
 5909TIP3    H217734   4.927   0.986   1.390 -0.2799  1.7128 -0.1086
 5910TIP3   OH217735   1.803   3.614   0.107 -0.6226  0.1433 -0.0128
 5910TIP3    H117736   1.877   3.557   0.084 -0.5293  1.5217 -3.8610
 5910TIP3    H217737   1.727   3.555   0.108  0.1991 -0.9754  2.1630
 5911TIP3   OH217738   5.148   4.231   2.885  0.1804  0.0860 -0.5925
 5911TIP3    H117739   5.202   4.176   2.942  0.7582  0.0130 -1.1992
 5911TIP3    H217740   5.208   4.297   2.850  0.0926 -0.5251 -1.9578
 5912TIP3   OH217741   1.975   5.068   1.028 -0.1524  0.4373  0.0221
 5912TIP3    H117742   2.019   5.050   1.111  2.3659  1.5103 -0.9811
 5912TIP3    H217743   1.979   4.985   0.980  2.0593  0.8177 -0.5500
 5913TIP3   OH217744   4.535   5.400   3.159  0.0183 -0.1712 -0.0424
 5913TIP3    H117745   4.549   5.468   3.225 -2.3140 -0.1962  0.5955
 5913TIP3    H217746   4.545   5.445   3.075 -0.4831  0.7278  0.3660
 5914TIP3   OH217747   2.158   0.600   3.919  0.1718  0.5874  0.0065
 5914TIP3    H117748   2.158   0.513   3.878 -0.1498  0.1485  0.9211
 5914TIP3    H217749   2.223   0.650   3.869  0.6190 -0.2814 -0.3009
 5915TIP3   OH217750   4.398   1.855   1.866  0.1818  0.0217  0.0407
 5915TIP3    H117751   4.312   1.865   1.907 -0.2271 -1.0964 -0.5313
 5915TIP3    H217752   4.418   1.762   1.873  1.6629  0.3587  0.7560
 5916TIP3   OH217753   1.710   4.290   4.080 -0.4397 -0.6342  0.0487
 5916TIP3    H117754   1.646   4.323   4.016  2.0867 -1.0130 -2.9113
 5916TIP3    H217755   1.718   4.197   4.060  2.2665 -0.2681 -0.9735
 5917TIP3   OH217756   0.645   1.013   0.203 -0.5966 -0.3028 -0.4700
 5917TIP3    H117757   0.707   0.946   0.231 -0.2381 -0.3787 -1.4181
 5917TIP3    H217758   0.616   1.054   0.284  0.5590 -0.3819 -0.0053
 5918TIP3   OH217759   1.230   0.522   4.977  0.5598 -0.2762  0.1272
 5918TIP3    H117760   1.230   0.429   4.955 -1.7925 -0.0324 -1.2756
 5918TIP3    H217761   1.210   0.525   5.071 -0.3084 -1.1948 -0.0120
 5919TIP3   OH217762   4.362   5.966   0.189 -0.3972 -0.3948 -0.3395
 5919TIP3    H117763   4.441   5.912   0.182 -0.1158 -0.0297  0.0455
 5919TIP3    H217764   4.330   5.972   0.099 -0.2214 -0.8923 -0.4377
 5920TIP3   OH217765   5.530   0.859   3.430 -1.1312 -0.0053 -0.2618
 5920TIP3    H117766   5.571   0.799   3.491 -0.2060  1.0115  0.1352
 5920TIP3    H217767   5.470   0.804   3.379  1.3443 -1.7510 -1.4955
 5921TIP3   OH217768   5.838   1.633   4.274 -0.5625  0.1108 -0.5807
 5921TIP3    H117769   5.858   1.539   4.266  0.2197 -0.5552  5.0603
 5921TIP3    H217770   5.749   1.635   4.310 -0.0916  1.3931  0.5756
 5922TIP3   OH217771   2.988   1.050   0.939 -0.1636  0.4378 -0.2298
 5922TIP3    H117772   2.981   1.116   1.008  0.5795  0.2254  0.0593
 5922TIP3    H217773   3.075   1.012   0.951 -0.9194 -1.2478  0.1906
 5923TIP3   OH217774   2.489   3.714   0.691  0.7085  0.5989  0.3694
 5923TIP3    H117775   2.462   3.622   0.691  0.3375  0.7001 -0.0632
 5923TIP3    H217776   2.513   3.731   0.599 -1.3358  1.5245 -0.0569
 5924TIP3   OH217777   5.097   2.346   0.782  0.2119  0.4104  0.3393
 5924TIP3    H117778   5.068   2.263   0.820  0.6966 -0.2814 -0.7249
 5924TIP3    H217779   5.018   2.398   0.773 -0.7445 -1.2608 -2.1118
 5925TIP3   OH217780   1.026   4.091   2.239  0.0180  0.3285  0.1340
 5925TIP3    H117781   1.085   4.125   2.171  0.3081  1.3494  0.8790
 5925TIP3    H217782   1.030   3.996   2.227 -0.6547  0.4915 -1.8669
 5926TIP3   OH217783   0.487   2.555   0.097 -0.9423  0.3158  0.1179
 5926TIP3    H117784   0.507   2.621   0.164 -0.7679 -0.1709  0.5550
 5926TIP3    H217785   0.532   2.586   0.019 -1.3823  1.0404  0.1483
 5927TIP3   OH217786   0.066   0.441   2.263 -0.6591  0.7586  0.5344
 5927TIP3    H117787  -0.026   0.452   2.238 -0.3995  2.3506  0.1703
 5927TIP3    H217788   0.115   0.491   2.198  0.2332  2.6735  2.5446
 5928TIP3   OH217789   4.694   5.974   2.156 -0.2434 -0.4670  0.1558
 5928TIP3    H117790   4.687   5.997   2.064 -1.4694  0.0631  0.3591
 5928TIP3    H217791   4.668   5.882   2.159 -1.0989 -0.2378  0.0740
 5929TIP3   OH217792   0.677   1.870   1.358  0.2182 -0.2606  0.4396
 5929TIP3    H117793   0.707   1.798   1.414  0.4541 -1.6471 -1.3875
 5929TIP3    H217794   0.598   1.837   1.316  0.6049  0.3282 -0.8068
 5930TIP3   OH217795   3.346   4.479   1.514 -0.3971 -0.0047  0.1793
 5930TIP3    H117796   3.271   4.529   1.480 -1.9478 -1.7661  0.8535
 5930TIP3    H217797   3.350   4.402   1.458  1.7115  0.5921 -0.5792
 5931TIP3   OH217798   3.235   4.529   4.298 -0.6298 -0.2109  0.1651
 5931TIP3    H117799   3.170   4.462   4.277 -0.5223 -0.6802  1.2674
 5931TIP3    H217800   3.302   4.521   4.230 -0.5668 -1.2863  0.3419
 5932TIP3   OH217801   3.574   2.778   1.974  0.0862  0.5973 -0.3172
 5932TIP3    H117802   3.612   2.866   1.972 -0.6467  0.9233 -2.7047
 5932TIP3    H217803   3.590   2.743   1.886 -0.6329 -1.2197  0.2375
 5933TIP3   OH217804   2.479   5.054   2.142 -0.0779  0.2120 -0.9363
 5933TIP3    H117805   2.480   4.963   2.110  2.1175  0.4271 -1.6738
 5933TIP3    H217806   2.505   5.106   2.066  2.3349  1.0402  0.3316
 5934TIP3   OH217807   0.076   4.430   4.143 -0.0493  0.5223  0.0160
 5934TIP3    H117808   0.114   4.507   4.186 -0.2725  0.4603  0.3245
 5934TIP3    H217809   0.078   4.361   4.209  0.1792  0.2519 -0.2695
 5935TIP3   OH217810   4.971   5.353   2.754  0.2962  0.7636 -0.5429
 5935TIP3    H117811   5.011   5.438   2.775  1.7628 -0.0732  0.1739
 5935TIP3    H217812   5.019   5.321   2.678  0.9462 -0.2084  0.2581
 5936TIP3   OH217813   2.933   5.523   3.186 -0.0782  0.2278  0.1964
 5936TIP3    H117814   2.912   5.524   3.279  0.2005 -1.6266  0.3162
 5936TIP3    H217815   2.956   5.432   3.168 -3.3972 -0.2915 -2.3946
 5937TIP3   OH217816   1.376   3.562   4.568  0.1068 -0.4737  0.2476
 5937TIP3    H117817   1.320   3.619   4.620  0.6561 -0.4908  0.8792
 5937TIP3    H217818   1.361   3.588   4.477 -0.0768  0.2785  0.4907
 5938TIP3   OH217819   2.670   0.616   4.568  0.1427  0.6773 -0.3919
 5938TIP3    H117820   2.599   0.619   4.632 -0.9271  0.2874 -1.5191
 5938TIP3    H217821   2.742   0.575   4.615 -0.2578  1.3550  0.8791
 5939TIP3   OH217822   6.119   3.797   2.398 -0.2897  0.1700 -0.2984
 5939TIP3    H117823   6.135   3.834   2.485 -0.0239  0.3323 -0.4161
 5939TIP3    H217824   6.024   3.805   2.386 -0.1857  1.2666 -0.5174
 5940TIP3   OH217825   6.109   3.632   1.168 -0.0082 -0.5224 -0.0091
 5940TIP3    H117826   6.191   3.637   1.119  0.7990 -0.4985  1.2977
 5940TIP3    H217827   6.050   3.693   1.124  0.2215 -1.5117 -1.7698
 5941TIP3   OH217828   5.300   4.410   3.898 -0.0120  0.2419  0.3722
 5941TIP3    H117829   5.369   4.451   3.950 -0.4832  0.3173  0.9528
 5941TIP3    H217830   5.250   4.484   3.862  2.0982  0.3340 -2.7830
 5942TIP3   OH217831   2.913   0.705   3.687  0.1537 -0.5204  0.2024
 5942TIP3    H117832   2.896   0.626   3.637  0.8179 -0.6399  0.1536
 5942TIP3    H217833   2.894   0.681   3.778 -1.8389 -0.0731 -0.0482
 5943TIP3   OH217834   0.186   3.382   2.871 -0.1638 -0.1025 -0.1685
 5943TIP3    H117835   0.205   3.383   2.777 -0.1153  0.1615 -0.1553
 5943TIP3    H217836   0.181   3.474   2.896 -2.2384 -0.1294 -0.3291
 5944TIP3   OH217837   2.427   4.131   4.258  0.7040 -0.4376 -0.3054
 5944TIP3    H117838   2.352   4.111   4.202  1.0851 -1.8809 -0.3324
 5944TIP3    H217839   2.395   4.122   4.347  0.6997 -0.4691 -0.3101
 5945TIP3   OH217840   0.635   3.281   0.685  0.1788  0.0651 -0.0023
 5945TIP3    H117841   0.627   3.313   0.775 -0.9018  0.3255 -0.1809
 5945TIP3    H217842   0.647   3.186   0.695  2.9750  0.3745  0.5048
 5946TIP3   OH217843   5.908   1.453   2.586 -0.3822 -0.3895 -0.0980
 5946TIP3    H117844   5.953   1.373   2.617  0.4004  0.2797  0.5564
 5946TIP3    H217845   5.832   1.461   2.644 -0.3463 -0.5464 -0.0265
 5947TIP3   OH217846   2.741   5.202   2.053  0.0186 -0.2715 -0.1958
 5947TIP3    H117847   2.808   5.147   2.014  1.6348  0.3078  1.5835
 5947TIP3    H217848   2.666   5.195   1.994  0.8110 -2.8182 -1.0083
 5948TIP3   OH217849   5.464   3.590   5.022 -0.6232 -0.4394 -0.0444
 5948TIP3    H117850   5.524   3.609   4.950 -0.1903  0.2475  0.4802
 5948TIP3    H217851   5.489   3.652   5.091 -0.8474 -1.2578  0.8020
 5949TIP3   OH217852   5.037   5.610   1.165 -0.4119  0.8159  0.4484
 5949TIP3    H117853   5.124   5.573   1.153 -0.4942  0.8153 -0.1342
 5949TIP3    H217854   5.052   5.689   1.218 -0.0632  0.8067  0.3641
 5950TIP3   OH217855   4.920   3.012   2.234 -0.2198 -0.5886  0.1363
 5950TIP3    H117856   4.901   2.984   2.145 -0.2504 -2.1363  0.5950
 5950TIP3    H217857   4.835   3.039   2.270 -0.5533 -1.7750  0.2813
 5951TIP3   OH217858   1.953   5.687   2.110 -0.6761 -0.3563 -0.3694
 5951TIP3    H117859   1.966   5.782   2.114  0.4760 -0.4995 -0.3083
 5951TIP3    H217860   2.040   5.652   2.090 -1.3277 -1.3188 -1.7034
 5952TIP3   OH217861   1.717   4.138   0.249  0.5177 -0.0376  0.3329
 5952TIP3    H117862   1.622   4.154   0.250  0.3432 -1.0499  0.5039
 5952TIP3    H217863   1.733   4.089   0.169  0.9301  0.2968  0.2064
 5953TIP3   OH217864   1.583   4.717   3.555 -0.1404 -0.7601  0.4787
 5953TIP3    H117865   1.543   4.641   3.514 -1.3650  0.1498 -0.0664
 5953TIP3    H217866   1.593   4.781   3.485 -1.8595  0.6553  1.4376
 5954TIP3   OH217867   0.058   5.098   0.946 -0.1893  0.1840 -0.2769
 5954TIP3    H117868   0.071   5.016   0.898 -1.8569  1.0616 -2.3568
 5954TIP3    H217869   0.130   5.154   0.918 -0.9085  0.5382 -1.4842
 5955TIP3   OH217870   5.496   1.622   0.901  0.2165  0.1241  0.4942
 5955TIP3    H117871   5.475   1.615   0.994 -1.0877 -0.1296  0.1991
 5955TIP3    H217872   5.455   1.545   0.862  1.6965 -0.3666 -0.1407
 5956TIP3   OH217873   0.941   5.286   2.638  0.0211 -0.4381  0.7036
 5956TIP3    H117874   0.954   5.313   2.729 -0.7795 -1.4809  1.1500
 5956TIP3    H217875   0.893   5.359   2.598  2.7425  1.2890  0.3118
 5957TIP3   OH217876   6.137   4.687   0.755 -0.0047  0.1327 -0.5353
 5957TIP3    H117877   6.203   4.648   0.812 -0.3011 -0.3541 -0.5113
 5957TIP3    H217878   6.126   4.623   0.685 -1.4285 -0.4646  0.1800
 5958TIP3   OH217879   4.221   3.065   3.489  0.4736 -0.1548 -0.3246
 5958TIP3    H117880   4.273   3.087   3.567 -0.3597  0.2047  0.1492
 5958TIP3    H217881   4.203   3.150   3.449  0.2160 -0.2743 -0.4576
 5959TIP3   OH217882   3.333   3.134   3.528 -0.0488 -0.2613 -0.2100
 5959TIP3    H117883   3.399   3.073   3.562 -0.9976 -0.1946  1.8748
 5959TIP3    H217884   3.368   3.161   3.443  2.4376 -0.5149  0.6451
 5960TIP3   OH217885   2.062   0.402   1.505 -0.4476 -0.0524  0.3179
 5960TIP3    H117886   2.080   0.386   1.413  0.3342 -0.5389  0.5477
 5960TIP3    H217887   1.989   0.345   1.526 -0.2503 -0.3686  0.1426
 5961TIP3   OH217888   0.815   5.820   1.826 -0.4203  0.1079 -0.2991
 5961TIP3    H117889   0.764   5.746   1.793 -2.8269  1.9221 -0.8659
 5961TIP3    H217890   0.808   5.887   1.758  0.1943  1.5095  0.9571
 5962TIP3   OH217891   4.304   3.102   4.633  0.1227  0.5823 -0.0279
 5962TIP3    H117892   4.377   3.043   4.652 -0.0880  0.3957  0.2106
 5962TIP3    H217893   4.332   3.187   4.667  0.2362  0.5172  0.0430
 5963TIP3   OH217894   0.704   0.720   3.552 -0.5246  0.4396 -0.3094
 5963TIP3    H117895   0.739   0.727   3.641 -2.0948 -1.2534  0.5237
 5963TIP3    H217896   0.625   0.774   3.554 -0.9077 -0.1044 -0.4564
 5964TIP3   OH217897   0.836   5.926   1.351 -0.6933  0.1429  0.3472
 5964TIP3    H117898   0.808   5.836   1.371 -0.0309 -0.0092  0.6137
 5964TIP3    H217899   0.868   5.921   1.261  0.5430 -0.1890  0.7834
 5965TIP3   OH217900   0.767   2.579   4.203  0.4187  0.5066  0.0360
 5965TIP3    H117901   0.724   2.638   4.141 -0.4457  0.6141  0.7153
 5965TIP3    H217902   0.845   2.627   4.232  0.2377  0.9047 -0.1366
 5966TIP3   OH217903   6.065   1.570   4.438 -0.2998 -0.7326  0.0564
 5966TIP3    H117904   6.036   1.513   4.510  0.3180 -1.4894 -0.2752
 5966TIP3    H217905   5.984   1.606   4.403 -0.7178 -1.4145  0.2840
 5967TIP3   OH217906   2.146   4.572   4.129 -0.3414 -0.5200  0.2291
 5967TIP3    H117907   2.175   4.524   4.052 -0.6632 -1.9405  0.9560
 5967TIP3    H217908   2.131   4.505   4.195 -0.6142  0.6098  1.3656
 5968TIP3   OH217909   4.619   0.736   1.536 -0.1319 -0.2732 -0.2815
 5968TIP3    H117910   4.533   0.694   1.528  0.2393 -1.8096  2.4073
 5968TIP3    H217911   4.662   0.718   1.452 -1.6046 -1.5187 -0.8266
 5969TIP3   OH217912   5.566   4.677   1.629 -0.1171 -0.0822 -0.4760
 5969TIP3    H117913   5.626   4.737   1.673  1.6972 -0.9625 -1.6542
 5969TIP3    H217914   5.569   4.703   1.537  0.0775 -1.4252 -0.8792
 5970TIP3   OH217915   3.773   3.093   1.083 -0.2343  0.4768  0.3586
 5970TIP3    H117916   3.863   3.084   1.053  0.6264  3.3525  1.6541
 5970TIP3    H217917   3.721   3.040   1.023  2.2984 -1.2556 -0.4193
 5971TIP3   OH217918   0.753   0.551   1.566 -0.6189  0.1799  0.0176
 5971TIP3    H117919   0.745   0.638   1.526 -1.9564  0.1952  0.2757
 5971TIP3    H217920   0.668   0.536   1.607 -0.5709 -1.4511 -0.4172
 5972TIP3   OH217921   4.569   1.181   3.320 -0.2460  0.5904  0.2675
 5972TIP3    H117922   4.481   1.150   3.298 -0.7592  2.8686 -1.1917
 5972TIP3    H217923   4.556   1.238   3.395  0.5506 -1.6437  2.2464
 5973TIP3   OH217924   2.878   1.232   4.541 -0.0138  0.2451  0.1224
 5973TIP3    H117925   2.867   1.311   4.594  1.9236 -0.2205  1.3640
 5973TIP3    H217926   2.790   1.199   4.527 -0.7834  2.0495  0.4777
 5974TIP3   OH217927   2.159   2.885   0.137  0.0359  0.0917 -0.8216
 5974TIP3    H117928   2.193   2.799   0.163 -1.9714 -0.2501  1.0047
 5974TIP3    H217929   2.065   2.871   0.127 -0.1759  1.8432 -1.6603
 5975TIP3   OH217930   4.264   4.266   1.623  0.3547  0.7444  0.1522
 5975TIP3    H117931   4.191   4.222   1.667  0.9580  0.3050  0.7280
 5975TIP3    H217932   4.318   4.195   1.589  1.1530  1.0366  0.7872
 5976TIP3   OH217933   1.395   3.360   3.262 -0.2778 -0.1090  0.0452
 5976TIP3    H117934   1.346   3.287   3.299  1.4245 -1.5034 -0.3473
 5976TIP3    H217935   1.482   3.325   3.243  0.8184  2.1773  0.4108
 5977TIP3   OH217936   3.262   5.284   3.473 -0.1624 -0.6557 -0.6257
 5977TIP3    H117937   3.289   5.373   3.495  0.5845 -1.2087  0.7951
 5977TIP3    H217938   3.166   5.287   3.475 -0.2621  0.6657 -3.0461
 5978TIP3   OH217939   5.871   1.541   1.904  0.4494  0.9924  0.4379
 5978TIP3    H117940   5.931   1.615   1.898  0.0041  1.3739  0.6646
 5978TIP3    H217941   5.895   1.485   1.830 -1.7058  3.2134 -2.1642
 5979TIP3   OH217942   5.004   1.083   5.114 -0.0638  0.1980 -0.4743
 5979TIP3    H117943   4.984   1.164   5.161  2.0238 -0.6394  2.0854
 5979TIP3    H217944   5.089   1.099   5.073  0.7166 -0.8799  0.6584
 5980TIP3   OH217945   0.337   0.419   2.096  0.1743 -0.5251  0.3315
 5980TIP3    H117946   0.362   0.408   2.187  0.0098  0.1885  0.4767
 5980TIP3    H217947   0.274   0.492   2.098  1.2334  0.4566 -0.5105
 5981TIP3   OH217948   6.091   1.503   2.920 -0.0709  0.3581  0.4761
 5981TIP3    H117949   6.119   1.595   2.916  0.6100  0.1575  0.4866
 5981TIP3    H217950   6.152   1.457   2.863 -0.0973 -0.1654  0.8662
 5982TIP3   OH217951   3.013   0.976   1.268 -0.3974  0.0270 -0.3586
 5982TIP3    H117952   3.015   0.906   1.203 -0.6052  0.4039 -0.7800
 5982TIP3    H217953   2.934   0.958   1.319 -1.8989  1.3690 -2.0949
 5983TIP3   OH217954   4.300   1.990   0.732 -0.1293 -0.0268  0.5091
 5983TIP3    H117955   4.240   2.059   0.702 -2.1783 -1.5716  0.7908
 5983TIP3    H217956   4.311   2.008   0.825 -2.0993 -0.9811  0.9934
 5984TIP3   OH217957   0.500   1.112   4.908  0.3594  0.0987 -0.1519
 5984TIP3    H117958   0.433   1.157   4.856  0.2659  1.3580  1.0189
 5984TIP3    H217959   0.555   1.182   4.943  0.9103 -0.7779  0.7777
 5985TIP3   OH217960   4.431   1.581   2.870  0.0758 -0.3106  0.6544
 5985TIP3    H117961   4.424   1.651   2.934 -2.1958  0.3354 -0.1929
 5985TIP3    H217962   4.433   1.500   2.922 -2.2192  0.1635  1.6035
 5986TIP3   OH217963   1.063   4.287   3.373  0.0090 -0.0588  0.0475
 5986TIP3    H117964   1.152   4.255   3.363  0.6041  1.6029 -0.2266
 5986TIP3    H217965   1.028   4.291   3.283  0.1456  0.5907  0.0180
 5987TIP3   OH217966   3.402   4.633   2.217  0.3228 -0.2973 -0.2962
 5987TIP3    H117967   3.307   4.638   2.208  0.2047 -0.3698  0.8054
 5987TIP3    H217968   3.435   4.636   2.127 -0.6540  0.9893 -0.6408
 5988TIP3   OH217969   4.437   4.864   2.866 -0.9936  0.1499 -0.2382
 5988TIP3    H117970   4.399   4.869   2.779 -3.8870 -1.6733  0.7637
 5988TIP3    H217971   4.380   4.919   2.920  0.1905  0.5018  0.6993
 5989TIP3   OH217972   3.777   3.498   2.302 -1.0662 -0.2527 -0.5842
 5989TIP3    H117973   3.699   3.554   2.302  0.4857  2.0190 -1.3990
 5989TIP3    H217974   3.789   3.474   2.211 -1.1094 -1.0713 -0.3816
 5990TIP3   OH217975   2.805   2.735   4.624  0.2688  0.3243 -0.4441
 5990TIP3    H117976   2.866   2.666   4.600  0.3318 -0.1576  1.0580
 5990TIP3    H217977   2.853   2.791   4.684  0.0010  1.3220 -1.1262
 5991TIP3   OH217978   3.562   0.994   4.802 -0.0765  0.6156 -0.1541
 5991TIP3    H117979   3.586   0.964   4.714  1.4767  0.8067  0.1795
 5991TIP3    H217980   3.580   1.088   4.801 -0.3476  0.6750  0.2790
 5992TIP3   OH217981   5.209   1.509   2.995 -0.6865 -0.0379 -0.1782
 5992TIP3    H117982   5.236   1.426   2.957  0.1461 -0.3197  0.9747
 5992TIP3    H217983   5.286   1.565   2.986 -0.1463 -0.3900  1.8358
 5993TIP3   OH217984   2.287   0.046   2.039 -0.0537 -0.0931  0.3528
 5993TIP3    H117985   2.380   0.068   2.043  0.1426 -0.9992  0.9612
 5993TIP3    H217986   2.256   0.091   1.960  0.3276  2.3155  1.4792
 5994TIP3   OH217987   4.219   3.308   2.080 -0.4276 -0.5684  0.3343
 5994TIP3    H117988   4.298   3.277   2.124 -0.5885  0.9893  1.8488
 5994TIP3    H217989   4.249   3.378   2.023 -0.7524  0.6420  1.5783
 5995TIP3   OH217990   5.609   1.982   2.751  0.2311  0.0242  0.2889
 5995TIP3    H117991   5.652   1.973   2.666  0.1465 -0.8369  0.3292
 5995TIP3    H217992   5.645   2.062   2.787  2.3462 -0.9950  0.5968
 5996TIP3   OH217993   3.307   1.827   4.252  0.2267 -0.0814 -0.2763
 5996TIP3    H117994   3.224   1.856   4.290 -0.7973  1.1746 -3.2076
 5996TIP3    H217995   3.371   1.891   4.284 -0.5935  0.9538 -0.6348
 5997TIP3   OH217996   0.129   1.868   1.383 -0.1106 -0.4327 -0.0245
 5997TIP3    H117997   0.053   1.912   1.421  0.0860  1.2436 -1.4108
 5997TIP3    H217998   0.179   1.939   1.343  1.9792 -1.5608  0.4874
 5998TIP3   OH217999   0.121   3.207   1.568  0.7832  0.1874 -0.6142
 5998TIP3    H118000   0.103   3.122   1.608 -0.0337  0.4257 -0.4414
 5998TIP3    H218001   0.074   3.204   1.484 -0.0190  0.7975 -0.1983
 5999TIP3   OH218002   0.290   1.651   2.031  0.1629 -0.3046  0.0658
 5999TIP3    H118003   0.372   1.675   1.988  0.2537 -0.3743  0.2008
 5999TIP3    H218004   0.274   1.721   2.094  1.5692 -1.6371  2.0487
 6000TIP3   OH218005   1.852   5.217   2.152 -0.0527  0.2114  0.0433
 6000TIP3    H118006   1.832   5.301   2.193 -0.2347 -0.0959  0.5937
 6000TIP3    H218007   1.942   5.227   2.120  0.4946  0.1286  1.4452
 6001TIP3   OH218008   4.563   1.927   2.103 -0.5991 -0.3170 -0.4252
 6001TIP3    H118009   4.532   1.937   2.013 -0.6361  0.6462 -0.3095
 6001TIP3    H218010   4.503   1.980   2.155 -0.2061 -0.3794  0.0975
 6002TIP3   OH218011   6.208   0.212   5.113 -0.0482  0.1536 -0.6631
 6002TIP3    H118012   6.270   0.260   5.059  1.1993 -0.9551 -0.2592
 6002TIP3    H218013   6.200   0.126   5.071  0.8137 -0.6711  0.7732
 6003TIP3   OH218014   4.440   4.046   1.226  0.0569  0.2012  0.5093
 6003TIP3    H118015   4.528   4.075   1.201  0.4112 -0.3877  1.0550
 6003TIP3    H218016   4.383   4.084   1.159  0.7316  0.5089  0.0941
 6004TIP3   OH218017   4.276   2.174   2.032 -0.2383  0.0823 -0.1318
 6004TIP3    H118018   4.330   2.249   2.056 -0.7240  0.3063  0.2817
 6004TIP3    H218019   4.315   2.142   1.951  0.0805  0.6750 -0.2226
 6005TIP3   OH218020   5.570   3.737   2.089 -0.4413 -0.1644 -0.7929
 6005TIP3    H118021   5.575   3.748   1.994 -0.3904 -1.0815 -0.9001
 6005TIP3    H218022   5.533   3.820   2.120 -1.4341 -0.2395 -1.7065
 6006TIP3   OH218023   5.168   5.800   1.307 -0.4673  0.0705 -0.2652
 6006TIP3    H118024   5.161   5.895   1.308 -3.1775 -0.0450 -0.5468
 6006TIP3    H218025   5.213   5.778   1.388  0.3541  1.5900 -0.2835
 6007TIP3   OH218026   1.447   2.649   1.586  0.0291  0.0419  0.5327
 6007TIP3    H118027   1.402   2.605   1.514 -0.7277  0.3290  0.8125
 6007TIP3    H218028   1.382   2.711   1.620  1.0691  1.3979  0.1330
 6008TIP3   OH218029   3.338   2.420   1.736 -0.4235  0.2991  0.2185
 6008TIP3    H118030   3.390   2.482   1.787 -0.4010  0.2182  0.2967
 6008TIP3    H218031   3.332   2.342   1.793 -0.0365  0.0494 -0.0772
 6009TIP3   OH218032   1.689   5.516   1.777  0.2282 -0.1061 -0.1846
 6009TIP3    H118033   1.626   5.503   1.707 -0.5512  1.8253  0.1022
 6009TIP3    H218034   1.693   5.611   1.789  2.2096 -0.2512  0.7069
 6010TIP3   OH218035   5.843   3.603   2.126  0.0964 -0.4751 -0.0254
 6010TIP3    H118036   5.794   3.559   2.196  1.9657 -0.3694  1.4301
 6010TIP3    H218037   5.796   3.685   2.111  0.5933  0.3287  2.4019
 6011TIP3   OH218038   2.787   0.220   1.995  0.5819  0.0943 -0.0245
 6011TIP3    H118039   2.860   0.165   1.964  0.6171  0.7503 -1.1919
 6011TIP3    H218040   2.828   0.304   2.017  0.3073  0.1701  0.1976
 6012TIP3   OH218041   1.679   3.528   1.760  0.1324 -0.1217 -0.1454
 6012TIP3    H118042   1.711   3.441   1.783 -0.5219 -0.0525  1.1532
 6012TIP3    H218043   1.595   3.536   1.807  0.7223  1.6177  0.7069
 6013TIP3   OH218044   4.312   0.291   5.168  0.2543  0.2950 -0.0397
 6013TIP3    H118045   4.252   0.343   5.222 -2.0121 -1.6204 -0.5441
 6013TIP3    H218046   4.255   0.239   5.112  2.4728  0.3851 -2.6156
 6014TIP3   OH218047   1.517   2.692   3.644 -0.0729  0.2566 -0.4696
 6014TIP3    H118048   1.491   2.601   3.637  2.8994 -0.7956  0.5138
 6014TIP3    H218049   1.503   2.714   3.736  0.4254  0.3581 -0.4139
 6015TIP3   OH218050   4.936   3.533   1.120  0.1186  0.1670  0.0450
 6015TIP3    H118051   4.859   3.524   1.065  0.0625  0.4281  0.0776
 6015TIP3    H218052   4.986   3.604   1.079  2.1060 -2.2066 -2.0623
 6016TIP3   OH218053   3.721   0.093   3.327 -0.1680  0.0334 -0.0364
 6016TIP3    H118054   3.647   0.033   3.322 -0.4762  0.3617  0.4292
 6016TIP3    H218055   3.739   0.101   3.421  0.7167 -0.3511 -0.1646
 6017TIP3   OH218056   2.883   2.681   1.430 -0.1584  0.0803 -0.1045
 6017TIP3    H118057   2.841   2.596   1.442 -0.4318  0.1316 -0.6796
 6017TIP3    H218058   2.977   2.663   1.439 -0.2525 -0.1556  0.4682
 6018TIP3   OH218059   2.753   1.347   3.752 -0.5045  0.1057  0.2459
 6018TIP3    H118060   2.739   1.277   3.689  3.5438  0.2012 -1.0518
 6018TIP3    H218061   2.775   1.303   3.834 -3.9337 -0.0007  1.2513
 6019TIP3   OH218062   4.570   1.693   3.948 -0.3114  0.8375 -0.0434
 6019TIP3    H118063   4.550   1.761   3.884 -2.3639  1.0329  0.7459
 6019TIP3    H218064   4.650   1.652   3.914  0.0590  2.5302 -1.3980
 6020TIP3   OH218065   0.379   1.422   0.810 -0.0879 -0.0846 -0.3679
 6020TIP3    H118066   0.395   1.472   0.730  0.8200 -0.1837 -0.2613
 6020TIP3    H218067   0.292   1.450   0.839  0.5766  1.7625 -0.0571
 6021TIP3   OH218068   4.304   0.954   2.970  0.3480  0.5837  0.4171
 6021TIP3    H118069   4.379   1.010   2.948  1.7607 -1.2539  0.3083
 6021TIP3    H218070   4.340   0.887   3.028 -1.3481 -0.0208  0.8379
 6022TIP3   OH218071   4.788   0.169   4.682 -0.3120  0.4242  0.3887
 6022TIP3    H118072   4.834   0.230   4.740  0.4813 -0.4641  0.7151
 6022TIP3    H218073   4.854   0.145   4.617 -1.3970  1.9913 -1.3797
 6023TIP3   OH218074   3.444   5.760   2.113 -0.2879  0.1855 -0.1076
 6023TIP3    H118075   3.462   5.744   2.206 -0.6088  1.1111  0.1301
 6023TIP3    H218076   3.348   5.770   2.109 -0.1468  1.7387 -0.2549
 6024TIP3   OH218077   2.846   0.981   2.818 -0.7192  0.5412  0.6002
 6024TIP3    H118078   2.830   1.075   2.831 -1.7002  0.8281 -2.1269
 6024TIP3    H218079   2.929   0.977   2.770 -0.7570  0.0145  0.5761
 6025TIP3   OH218080   5.225   5.558   0.285 -0.1992 -0.3532 -0.0403
 6025TIP3    H118081   5.210   5.535   0.194 -1.4104  1.8507 -0.4795
 6025TIP3    H218082   5.303   5.614   0.284  0.0752 -0.7163  0.3633
 6026TIP3   OH218083   1.415   3.616   1.850 -0.2715  0.0656  0.1401
 6026TIP3    H118084   1.436   3.698   1.805 -0.6380  0.1141  0.0561
 6026TIP3    H218085   1.324   3.627   1.877  0.3314  0.6224  2.1445
 6027TIP3   OH218086   4.287   5.785   3.461  0.4243  0.3310  0.1176
 6027TIP3    H118087   4.333   5.857   3.504 -0.8223  0.9383  0.4785
 6027TIP3    H218088   4.270   5.722   3.531  3.6875 -1.5799 -0.6076
 6028TIP3   OH218089   5.107   3.952   2.997 -0.3038  0.4631 -0.4127
 6028TIP3    H118090   5.017   3.976   2.977 -1.0649 -2.1071 -0.4990
 6028TIP3    H218091   5.113   3.960   3.092 -0.4614  1.0764 -0.4486
 6029TIP3   OH218092   2.269   1.340   4.709 -0.1561 -1.0799 -0.2255
 6029TIP3    H118093   2.264   1.321   4.615  2.6065  0.6800 -0.8413
 6029TIP3    H218094   2.357   1.313   4.734 -0.3200 -0.1397  1.5173
 6030TIP3   OH218095   2.309   3.833   4.332 -0.0779 -0.1397 -0.3049
 6030TIP3    H118096   2.361   3.766   4.376  2.2718  0.2828 -2.2073
 6030TIP3    H218097   2.348   3.916   4.359  0.5881  0.1753 -2.0740
 6031TIP3   OH218098   5.700   2.370   0.196 -0.9036  0.2637 -0.1484
 6031TIP3    H118099   5.693   2.275   0.202  0.1319  0.1733 -0.1902
 6031TIP3    H218100   5.642   2.403   0.265 -1.5378 -0.3855 -0.3652
 6032TIP3   OH218101   2.149   5.890   1.393 -0.0528 -0.0938 -0.2046
 6032TIP3    H118102   2.151   5.977   1.355  1.3938  0.4632  1.0365
 6032TIP3    H218103   2.178   5.831   1.323 -0.0538  0.5460 -0.7442
 6033TIP3   OH218104   2.536   0.243   5.154 -0.5026  0.1385  0.5283
 6033TIP3    H118105   2.514   0.226   5.062 -0.6672  0.4626  0.5062
 6033TIP3    H218106   2.452   0.246   5.199 -0.4764  0.8555  0.5352
 6034TIP3   OH218107   1.830   1.367   4.481 -0.4581  0.5571  1.0644
 6034TIP3    H118108   1.823   1.461   4.464 -2.0610  0.7564  2.5159
 6034TIP3    H218109   1.896   1.359   4.549  0.5452  0.4935  0.1020
 6035TIP3   OH218110   3.205   1.806   3.376 -0.0072  0.1925  0.2403
 6035TIP3    H118111   3.146   1.760   3.435 -0.4405 -0.4498 -0.6585
 6035TIP3    H218112   3.213   1.894   3.413 -0.6079 -0.0685  1.0065
 6036TIP3   OH218113   3.852   2.954   3.626  0.5860  0.0893  0.0091
 6036TIP3    H118114   3.796   2.884   3.592  1.6217 -1.5320  1.4716
 6036TIP3    H218115   3.856   3.018   3.555  0.1122 -1.6366 -1.6636
 6037TIP3   OH218116   0.942   0.368   1.164  0.1595 -0.2224  0.3685
 6037TIP3    H118117   0.957   0.416   1.246 -0.5871 -1.4290  1.2449
 6037TIP3    H218118   0.849   0.381   1.146  0.1807 -0.4976  0.0586
 6038TIP3   OH218119   5.710   4.332   2.976  0.7215  0.6579  0.1710
 6038TIP3    H118120   5.685   4.406   3.031  0.1683  0.5184  0.1137
 6038TIP3    H218121   5.703   4.366   2.886 -1.7609 -0.0876  0.0197
 6039TIP3   OH218122   4.970   4.970   5.095  0.0911  0.0230  0.3180
 6039TIP3    H118123   5.008   5.019   5.022 -1.0554  0.1644 -0.2073
 6039TIP3    H218124   5.031   4.983   5.168  2.2536 -1.6593 -1.0915
 6040TIP3   OH218125   1.436   0.688   4.849  0.7013 -0.4758  0.8089
 6040TIP3    H118126   1.395   0.631   4.914 -3.8444  0.8027 -0.5746
 6040TIP3    H218127   1.482   0.628   4.790 -2.8034 -2.7934  0.1367
 6041TIP3   OH218128   1.369   2.028   2.250  0.0165 -0.4216  0.3590
 6041TIP3    H118129   1.365   2.124   2.252 -0.7874 -0.4440 -0.0073
 6041TIP3    H218130   1.364   2.002   2.342 -1.0624 -0.1488  0.3895
 6042TIP3   OH218131   0.095   2.619   0.753 -0.1690  0.2371 -0.1641
 6042TIP3    H118132   0.076   2.616   0.659  0.4174  1.4038 -0.3446
 6042TIP3    H218133   0.018   2.659   0.792 -1.4064 -2.2847  0.2038
 6043TIP3   OH218134   5.736   4.555   3.626  0.2397  0.1498 -0.7422
 6043TIP3    H118135   5.653   4.600   3.637  0.2797  0.1913 -0.6168
 6043TIP3    H218136   5.742   4.539   3.531 -0.5485 -1.0552 -0.6102
 6044TIP3   OH218137   2.429   1.936   0.454 -0.1118 -0.3279  0.2614
 6044TIP3    H118138   2.513   1.889   0.462 -0.1034 -0.5593 -1.0401
 6044TIP3    H218139   2.408   1.932   0.361 -1.3788  0.0845  0.5148
 6045TIP3   OH218140   1.613   0.160   2.845 -0.5856  0.1987 -0.5545
 6045TIP3    H118141   1.662   0.091   2.801  0.8128  0.1158  1.0072
 6045TIP3    H218142   1.592   0.123   2.931 -1.7908  0.9164 -0.5230
 6046TIP3   OH218143   6.230   1.049   3.530 -0.3038 -0.2213 -0.4332
 6046TIP3    H118144   6.235   1.144   3.521 -1.2217  0.0088  1.0942
 6046TIP3    H218145   6.319   1.022   3.548 -0.1635  0.4581 -0.0534
 6047TIP3   OH218146   3.915   4.639   4.014  0.1466 -0.6035 -0.0708
 6047TIP3    H118147   3.965   4.562   4.039 -0.9182 -1.3872 -0.2797
 6047TIP3    H218148   3.874   4.616   3.930  1.5320  0.9959 -1.2645
 6048TIP3   OH218149   0.777   4.731   2.219 -0.3420 -0.1776 -0.0048
 6048TIP3    H118150   0.809   4.687   2.141  1.1354  2.2088 -0.8714
 6048TIP3    H218151   0.847   4.791   2.243 -1.0943 -0.2619  2.7171
 6049TIP3   OH218152   3.595   0.848   3.536  0.1919 -0.3163 -0.1831
 6049TIP3    H118153   3.533   0.783   3.502 -0.8884  0.7404 -0.2823
 6049TIP3    H218154   3.561   0.932   3.507  1.0466  0.3791  0.7395
 6050TIP3   OH218155   1.840   0.531   4.845 -0.4078  0.3125  0.6482
 6050TIP3    H118156   1.850   0.625   4.833  1.2230 -0.0436 -1.2857
 6050TIP3    H218157   1.880   0.513   4.930 -0.7470  1.3486  1.0444
 6051TIP3   OH218158   0.150   1.396   1.220 -0.0829 -0.0396 -0.2974
 6051TIP3    H118159   0.139   1.489   1.204 -0.7573  0.0248  0.5050
 6051TIP3    H218160   0.131   1.354   1.136  1.1501  0.5858 -0.9210
 6052TIP3   OH218161   1.762   2.020   2.274 -0.2606  0.3251  0.0184
 6052TIP3    H118162   1.743   2.095   2.218  2.6620  0.3491 -1.1400
 6052TIP3    H218163   1.677   1.987   2.301 -1.6716  2.7391 -1.2219
 6053TIP3   OH218164   3.631   1.310   0.665  0.0573 -0.4834  0.2026
 6053TIP3    H118165   3.696   1.305   0.735 -1.5914 -0.5084  1.8055
 6053TIP3    H218166   3.616   1.219   0.639 -0.8219 -0.6809  1.3110
 6054TIP3   OH218167   0.836   1.036   4.234 -0.1432  0.9587 -0.3256
 6054TIP3    H118168   0.751   1.078   4.217  0.0933  1.4030 -0.4380
 6054TIP3    H218169   0.878   1.094   4.298 -1.0756 -0.7271  1.9851
 6055TIP3   OH218170   2.378   1.640   4.467  0.0845 -0.4069  0.1366
 6055TIP3    H118171   2.289   1.606   4.465 -0.0940 -0.0004 -2.9096
 6055TIP3    H218172   2.432   1.570   4.430  1.0028 -0.4335  1.4355
 6056TIP3   OH218173   1.717   4.658   0.769  0.2305 -0.6084  0.2130
 6056TIP3    H118174   1.735   4.750   0.754 -0.6200 -0.2326  1.3424
 6056TIP3    H218175   1.626   4.655   0.797 -0.0039 -1.8893 -0.5847
 6057TIP3   OH218176   5.412   3.978   2.483 -0.2219 -0.3758 -0.2625
 6057TIP3    H118177   5.320   4.005   2.479  0.1650  0.9552 -0.9785
 6057TIP3    H218178   5.449   4.032   2.552 -0.0491 -1.1784  0.2801
 6058TIP3   OH218179   3.805   4.680   2.525  0.0988  0.6594 -0.2336
 6058TIP3    H118180   3.878   4.741   2.514  0.6242  0.3007  1.1008
 6058TIP3    H218181   3.835   4.599   2.484  0.7606  0.2918  0.9454
 6059TIP3   OH218182   4.488   3.549   2.584 -0.1430  0.5629 -0.1473
 6059TIP3    H118183   4.519   3.591   2.665 -1.9667  0.0743  0.8610
 6059TIP3    H218184   4.504   3.613   2.516  2.1433  0.7005  0.4400
 6060TIP3   OH218185   2.106   2.344   4.456  0.3312 -0.7905  0.3890
 6060TIP3    H118186   2.019   2.378   4.437  0.7333  0.3771  0.5226
 6060TIP3    H218187   2.110   2.338   4.551  0.8711  0.5859  0.4866
 6061TIP3   OH218188   2.364   3.964   2.773 -0.1654 -0.7060 -0.3999
 6061TIP3    H118189   2.384   3.887   2.827  1.6000  1.4539  2.3000
 6061TIP3    H218190   2.419   3.953   2.696  1.0696 -1.5402  0.5505
 6062TIP3   OH218191   5.046   0.350   3.039  0.0472  1.1969 -0.0909
 6062TIP3    H118192   4.993   0.369   3.116  0.1665 -0.1138  0.3337
 6062TIP3    H218193   5.025   0.259   3.016  0.7061  1.2635 -1.0459
 6063TIP3   OH218194   0.895   3.742   3.025 -0.1208  0.3292  0.1177
 6063TIP3    H118195   0.812   3.694   3.031 -0.1280  0.1411 -1.0993
 6063TIP3    H218196   0.930   3.741   3.114  0.3189 -2.7506  0.0292
 6064TIP3   OH218197   4.662   4.359   4.096  0.1937  0.3403 -0.0988
 6064TIP3    H118198   4.679   4.420   4.024 -0.9070  0.8350  0.0347
 6064TIP3    H218199   4.687   4.273   4.062  1.6217  0.8425 -0.3385
 6065TIP3   OH218200   1.005   4.688   1.452 -0.1332 -0.2595  0.4397
 6065TIP3    H118201   1.026   4.780   1.437  1.4549 -0.6697 -0.0152
 6065TIP3    H218202   1.043   4.642   1.377 -1.1038 -1.2766  0.5440
 6066TIP3   OH218203   2.780   5.677   5.093  0.6582  0.2880  0.1161
 6066TIP3    H118204   2.812   5.762   5.063 -1.0125  0.6895 -0.6248
 6066TIP3    H218205   2.747   5.635   5.013 -0.0661 -0.3517  0.7417
 6067TIP3   OH218206   2.446   1.879   0.186  0.1365 -0.3982  0.1516
 6067TIP3    H118207   2.537   1.865   0.214 -0.0254 -1.0459  0.3754
 6067TIP3    H218208   2.437   1.826   0.106  0.3839  0.8619 -0.7429
 6068TIP3   OH218209   2.772   3.383   4.174  0.9981  0.3724  0.5982
 6068TIP3    H118210   2.740   3.430   4.097 -0.6339  0.3111  1.1934
 6068TIP3    H218211   2.708   3.403   4.243  2.0671 -0.0807  1.7762
 6069TIP3   OH218212   3.671   4.931   0.634 -0.0720 -0.0837  0.0677
 6069TIP3    H118213   3.670   4.875   0.556 -0.4997 -0.6462  0.4744
 6069TIP3    H218214   3.599   4.993   0.620 -0.8521 -0.8710  0.5032
 6070TIP3   OH218215   1.323   1.005   0.087  0.1216  0.6527 -0.1043
 6070TIP3    H118216   1.232   1.032   0.072  1.1108  4.0502 -0.7779
 6070TIP3    H218217   1.356   0.982   0.000 -0.3056 -1.6728  0.2816
 6071TIP3   OH218218   1.811   5.955   4.084 -0.4656 -0.5950 -0.1023
 6071TIP3    H118219   1.879   6.021   4.100 -1.3116  0.3689 -0.3106
 6071TIP3    H218220   1.838   5.912   4.004  0.3996 -0.9056  0.3426
 6072TIP3   OH218221   5.869   1.316   1.710 -0.1829 -0.3557  1.1022
 6072TIP3    H118222   5.823   1.233   1.719  0.1228 -0.6519  0.0683
 6072TIP3    H218223   5.959   1.298   1.736 -0.3829 -0.0565  2.0157
 6073TIP3   OH218224   5.674   5.945   4.644 -0.5168 -0.3198  0.4815
 6073TIP3    H118225   5.666   5.943   4.549 -0.2040 -2.2047  0.4495
 6073TIP3    H218226   5.630   6.026   4.671 -2.3289 -0.7126 -1.0960
 6074TIP3   OH218227   1.710   1.052   0.467  0.0735  0.8648 -0.1795
 6074TIP3    H118228   1.672   1.104   0.537  0.6611  2.3298 -0.9124
 6074TIP3    H218229   1.666   1.082   0.388 -0.8129 -0.9942 -0.4419
 6075TIP3   OH218230   1.345   0.771   3.399  0.1393 -0.0769  0.3911
 6075TIP3    H118231   1.288   0.796   3.326  0.7176  0.1340 -0.0043
 6075TIP3    H218232   1.398   0.699   3.364 -0.4378 -0.8256  1.0175
 6076TIP3   OH218233   5.334   0.564   4.555  0.2081 -0.1707  1.1501
 6076TIP3    H118234   5.409   0.560   4.495 -0.8763  3.2062 -0.7200
 6076TIP3    H218235   5.266   0.512   4.512  0.5751 -0.8445  1.3768
 6077TIP3   OH218236   5.770   1.351   2.056 -0.3154  0.5737 -0.0024
 6077TIP3    H118237   5.795   1.434   2.016 -1.0805  1.0412  0.4670
 6077TIP3    H218238   5.852   1.304   2.066 -0.0010  0.8043 -1.3030
 6078TIP3   OH218239   4.151   4.615   0.675  0.3367 -0.1989  0.1181
 6078TIP3    H118240   4.157   4.710   0.661  0.1066 -0.1148  0.5633
 6078TIP3    H218241   4.210   4.599   0.749  0.3672 -0.4023  0.0484
 6079TIP3   OH218242   2.154   5.861   4.844  0.6997 -0.3256  0.2308
 6079TIP3    H118243   2.183   5.831   4.758  0.2671  0.5275 -0.2201
 6079TIP3    H218244   2.231   5.904   4.881  0.7946 -0.4207  0.1455
 6080TIP3   OH218245   4.542   0.821   3.756  0.2531 -0.0248 -0.3344
 6080TIP3    H118246   4.521   0.839   3.848  2.3837 -1.2872  0.4785
 6080TIP3    H218247   4.524   0.903   3.711 -2.5696  0.1008  0.8464
 6081TIP3   OH218248   4.578   2.418   0.797  0.5108 -0.4670  0.1508
 6081TIP3    H118249   4.563   2.330   0.765 -1.2751 -0.2838  0.3623
 6081TIP3    H218250   4.491   2.457   0.801  1.0747  0.7463  1.6585
 6082TIP3   OH218251   0.827   4.299   2.617 -0.3878  0.4574 -0.2020
 6082TIP3    H118252   0.912   4.256   2.611 -0.0780  1.0944 -0.5133
 6082TIP3    H218253   0.847   4.392   2.607 -1.0370  0.6816  0.5110
 6083TIP3   OH218254   5.332   4.735   2.421 -0.1410 -0.3430  0.1951
 6083TIP3    H118255   5.290   4.742   2.507 -0.2264  0.0083  0.1279
 6083TIP3    H218256   5.260   4.744   2.359  0.1191  1.1890  0.0603
 6084TIP3   OH218257   2.328   4.123   4.510  0.1535 -0.7265  0.3713
 6084TIP3    H118258   2.385   4.149   4.582 -1.0109  0.2356  0.9782
 6084TIP3    H218259   2.241   4.115   4.550 -0.6287  0.4039 -1.0149
 6085TIP3   OH218260   5.244   1.175   5.027 -0.2389 -1.3562  0.2435
 6085TIP3    H118261   5.260   1.081   5.034  0.3911 -1.2105  0.9027
 6085TIP3    H218262   5.281   1.200   4.943 -0.2775 -1.6692  0.1331
 6086TIP3   OH218263   1.876   2.860   3.826 -0.0841 -0.2116  0.3709
 6086TIP3    H118264   1.825   2.780   3.810  0.0821 -0.3299  0.4210
 6086TIP3    H218265   1.905   2.851   3.917  0.1988 -0.2451  0.2781
 6087TIP3   OH218266   6.174   0.082   3.741 -0.4217  0.2743  0.0962
 6087TIP3    H118267   6.219  -0.001   3.724 -1.6550 -0.0569 -1.8450
 6087TIP3    H218268   6.244   0.146   3.754  0.5655 -0.7153 -0.1983
 6088TIP3   OH218269   4.060   5.498   1.440 -0.6928 -0.0309 -0.5098
 6088TIP3    H118270   4.033   5.512   1.531 -0.9877 -0.2814 -0.5580
 6088TIP3    H218271   4.063   5.585   1.402 -1.7944 -0.0302 -0.6065
 6089TIP3   OH218272   0.593   5.019   3.705 -0.0363 -0.2711  0.1609
 6089TIP3    H118273   0.656   5.056   3.643 -0.7232  4.7429  1.9505
 6089TIP3    H218274   0.642   4.954   3.754  1.9654 -0.7136 -2.2351
 6090TIP3   OH218275   3.465   4.435   0.780 -0.0708  0.3509  0.0757
 6090TIP3    H118276   3.526   4.433   0.854 -0.1076  0.5750  0.1134
 6090TIP3    H218277   3.495   4.365   0.722 -0.2163 -0.0138  0.4375
 6091TIP3   OH218278   1.829   4.660   3.201  0.6367  0.6085 -0.2136
 6091TIP3    H118279   1.810   4.681   3.109  1.5923  1.5439 -0.2028
 6091TIP3    H218280   1.817   4.742   3.248  0.9161  0.3083  0.3921
 6092TIP3   OH218281   1.985   3.126   4.671  0.1590 -0.2488  0.1113
 6092TIP3    H118282   2.053   3.085   4.618 -0.6058  0.4734 -1.4892
 6092TIP3    H218283   2.033   3.174   4.738  1.3263  1.2239 -1.6849
 6093TIP3   OH218284   0.327   2.692   2.146  0.0814 -0.4803  0.2300
 6093TIP3    H118285   0.396   2.738   2.098 -0.0679 -0.3143  0.1747
 6093TIP3    H218286   0.256   2.684   2.083 -0.5258  0.6828  0.7473
 6094TIP3   OH218287   6.106   3.367   3.203  0.0273  0.3686  0.3574
 6094TIP3    H118288   6.064   3.300   3.257 -0.3649 -1.3417 -1.9338
 6094TIP3    H218289   6.198   3.341   3.200  0.0788  0.5541  0.3237
 6095TIP3   OH218290   1.262   2.420   1.144 -0.3526  0.4055  0.0789
 6095TIP3    H118291   1.329   2.389   1.083 -0.5708  2.1456 -1.1200
 6095TIP3    H218292   1.206   2.343   1.160  0.6253 -0.4834 -0.6379
 6096TIP3   OH218293   2.340   3.445   4.521 -0.6880  1.2484  0.0293
 6096TIP3    H118294   2.260   3.476   4.479 -1.5410  1.0459  1.4273
 6096TIP3    H218295   2.310   3.408   4.605  0.7107 -0.0933 -0.0251
 6097TIP3   OH218296   2.693   3.776   4.884 -0.5335  0.0904 -0.1252
 6097TIP3    H118297   2.696   3.707   4.950 -1.7555  0.0372 -0.0953
 6097TIP3    H218298   2.764   3.755   4.823 -0.7789 -1.0962 -0.0141
 6098TIP3   OH218299   0.216   5.890   1.117 -0.9885  0.5948  0.0417
 6098TIP3    H118300   0.178   5.895   1.029  1.4051  0.8009 -1.0890
 6098TIP3    H218301   0.185   5.807   1.153  0.9884 -1.5107 -2.6397
 6099TIP3   OH218302   4.781   5.097   1.842 -0.7920  0.6026  0.3335
 6099TIP3    H118303   4.757   5.041   1.768  0.3499  0.7317 -0.1432
 6099TIP3    H218304   4.697   5.125   1.878 -1.3897  1.6022 -1.7202
 6100TIP3   OH218305   3.018   2.162   0.660  0.6661 -0.5866 -0.0842
 6100TIP3    H118306   2.966   2.091   0.697  1.0551 -0.8035  0.0533
 6100TIP3    H218307   2.969   2.241   0.681  0.0003 -0.8438 -0.6254
 6101TIP3   OH218308   6.143   0.546   3.749  0.9966  0.1741 -0.1645
 6101TIP3    H118309   6.176   0.487   3.817 -0.1924 -0.0688  0.2423
 6101TIP3    H218310   6.191   0.521   3.670  0.9505 -0.9477  0.1367
 6102TIP3   OH218311   3.058   1.036   0.084  0.5784 -0.8044  0.3470
 6102TIP3    H118312   3.063   1.116   0.033  1.7862  0.0180  1.6488
 6102TIP3    H218313   3.088   1.062   0.172 -1.6234 -2.0828  1.5617
 6103TIP3   OH218314   1.714   3.551   1.025  0.6490 -0.0464  0.3396
 6103TIP3    H118315   1.802   3.513   1.020  1.1527  1.2214 -1.0333
 6103TIP3    H218316   1.709   3.609   0.950 -1.1643  0.3722  0.7465
 6104TIP3   OH218317   0.731   1.941   3.804  0.0513  0.3530  0.3235
 6104TIP3    H118318   0.690   1.934   3.890 -1.3808  0.5231 -0.3162
 6104TIP3    H218319   0.792   2.014   3.812 -1.2606  1.4379  0.7442
 6105TIP3   OH218320   0.254   2.387   1.857 -0.0885 -0.3438 -0.3441
 6105TIP3    H118321   0.260   2.482   1.853  2.3976 -0.4278 -0.1443
 6105TIP3    H218322   0.194   2.363   1.786  0.3249  1.2834 -1.2883
 6106TIP3   OH218323   6.316   3.327   2.119  0.0574 -0.8113 -0.1868
 6106TIP3    H118324   6.322   3.313   2.214 -0.3634 -1.2435 -0.2179
 6106TIP3    H218325   6.235   3.282   2.094 -1.3647  1.6283 -0.3094
 6107TIP3   OH218326   5.069   2.919   4.837  0.3830 -0.3481  0.4054
 6107TIP3    H118327   5.131   2.978   4.879  0.6295 -0.4199  0.1445
 6107TIP3    H218328   4.984   2.946   4.870  0.4416  0.5117 -0.1152
 6108TIP3   OH218329   4.932   4.693   5.081  0.4275  0.1489 -0.2324
 6108TIP3    H118330   4.984   4.652   5.150 -1.1615  0.8276  1.4458
 6108TIP3    H218331   4.978   4.774   5.061  1.5188 -0.5889 -0.8426
 6109TIP3   OH218332   6.135   1.614   3.283 -0.0043 -0.2129 -0.7259
 6109TIP3    H118333   6.103   1.671   3.352 -0.3641  0.6350 -1.5644
 6109TIP3    H218334   6.125   1.666   3.203  0.8552 -0.9808 -1.3525
 6110TIP3   OH218335   3.777   2.927   3.038  0.4710  0.6687  0.7320
 6110TIP3    H118336   3.722   2.963   2.968 -0.0091 -1.1033  0.1413
 6110TIP3    H218337   3.722   2.861   3.080  1.9062 -0.7069  0.5378
 6111TIP3   OH218338   0.545   0.558   2.471 -0.2083  0.7415 -0.3657
 6111TIP3    H118339   0.513   0.501   2.401 -1.5305  0.4750  0.4053
 6111TIP3    H218340   0.640   0.557   2.462 -0.2305 -1.0738 -0.7813
 6112TIP3   OH218341   0.370   2.164   3.492 -0.4239 -0.1710 -0.3607
 6112TIP3    H118342   0.365   2.253   3.457 -0.9852  0.4471  1.2430
 6112TIP3    H218343   0.373   2.175   3.587  2.6785 -1.7307 -0.1663
 6113TIP3   OH218344   3.125   2.333   1.177  0.2555  0.0163  0.4596
 6113TIP3    H118345   3.070   2.330   1.099 -0.5409 -1.6282  1.0285
 6113TIP3    H218346   3.139   2.426   1.193  1.1440  0.3861 -2.0887
 6114TIP3   OH218347   5.871   0.336   4.140 -0.1492 -0.4160  0.4681
 6114TIP3    H118348   5.928   0.366   4.070 -1.1347 -1.6246 -0.9254
 6114TIP3    H218349   5.902   0.248   4.160  1.3802  0.6087  3.0094
 6115TIP3   OH218350   3.291   5.195   1.235  0.2659 -0.0268 -0.4795
 6115TIP3    H118351   3.263   5.207   1.325 -1.9950 -1.5341 -0.8911
 6115TIP3    H218352   3.340   5.274   1.214 -0.6989  1.1592  1.4906
 6116TIP3   OH218353   1.893   4.621   4.360  0.0948 -0.1457 -0.4693
 6116TIP3    H118354   1.891   4.590   4.270  2.5662 -0.7288 -0.3905
 6116TIP3    H218355   1.867   4.545   4.412  1.5465 -0.7110 -0.5456
 6117TIP3   OH218356   3.533   3.878   1.634  0.2550 -0.1798  0.0642
 6117TIP3    H118357   3.507   3.919   1.716  0.6017 -2.0778  1.1761
 6117TIP3    H218358   3.450   3.860   1.589  0.1091  2.1058 -0.7016
 6118TIP3   OH218359   4.245   5.039   2.955  0.6798 -0.2779 -0.3406
 6118TIP3    H118360   4.158   5.078   2.947 -0.4385 -2.3542  0.8239
 6118TIP3    H218361   4.288   5.092   3.023 -0.8488 -1.0768  1.3324
 6119TIP3   OH218362   4.370   4.521   2.174  0.0669 -0.7519 -0.7985
 6119TIP3    H118363   4.463   4.531   2.151  1.7434 -0.8429  4.6074
 6119TIP3    H218364   4.362   4.432   2.206 -1.9355 -0.7118 -1.0522
 6120TIP3   OH218365   5.117   5.186   1.632  0.6251  0.1249  0.0846
 6120TIP3    H118366   5.149   5.271   1.602 -1.5784 -0.0635 -3.3837
 6120TIP3    H218367   5.044   5.207   1.691 -1.3973  0.8646 -2.4896
 6121TIP3   OH218368   6.389   2.712   1.255 -0.1441 -0.0348 -0.6056
 6121TIP3    H118369   6.366   2.803   1.277 -0.0833 -0.0901 -0.3069
 6121TIP3    H218370   6.310   2.676   1.217 -0.1904  0.1241 -0.6612
 6122TIP3   OH218371   3.445   2.055   3.254  0.2144  0.1635 -0.2538
 6122TIP3    H118372   3.362   2.044   3.299  1.1391 -1.2423  1.2079
 6122TIP3    H218373   3.440   1.996   3.179  0.2037 -0.5347  0.2920
 6123TIP3   OH218374   1.845   2.550   3.695 -0.2061 -0.3181 -0.0889
 6123TIP3    H118375   1.781   2.524   3.628 -1.1041  0.3699  0.4844
 6123TIP3    H218376   1.916   2.589   3.646 -2.3752  3.5088 -0.5691
 6124TIP3   OH218377   3.722   3.752   0.488 -0.0362  0.2776 -0.1207
 6124TIP3    H118378   3.730   3.803   0.569  0.6698  0.7113 -0.4551
 6124TIP3    H218379   3.640   3.704   0.498 -0.3660  0.9522  0.5023
 6125TIP3   OH218380   2.619   5.920   3.394  0.3190 -0.7453 -0.3696
 6125TIP3    H118381   2.709   5.889   3.403 -0.0941 -1.6082  1.2000
 6125TIP3    H218382   2.577   5.896   3.477 -1.2942 -0.1421 -0.9701
 6126TIP3   OH218383   5.633   3.072   3.730 -0.1871  0.2852 -0.4040
 6126TIP3    H118384   5.633   3.147   3.672 -0.6089  0.4721 -0.1724
 6126TIP3    H218385   5.548   3.030   3.715 -1.1349  1.4250  1.4385
 6127TIP3   OH218386   3.217   1.227   0.562  0.1954  0.6172 -0.3097
 6127TIP3    H118387   3.300   1.231   0.515 -0.0434  0.3841 -0.7680
 6127TIP3    H218388   3.232   1.166   0.634 -0.3422 -1.7385 -2.0491
 6128TIP3   OH218389   0.689   5.759   4.904  0.4813 -0.4555  0.0075
 6128TIP3    H118390   0.707   5.702   4.979 -0.4254  0.6968  1.1319
 6128TIP3    H218391   0.653   5.700   4.838 -0.9700 -1.1464  1.3367
 6129TIP3   OH218392   6.048   2.178   2.087 -0.0826  0.1886 -0.2239
 6129TIP3    H118393   6.128   2.141   2.049 -0.5030  0.5570 -1.5136
 6129TIP3    H218394   6.015   2.109   2.145  1.3695  0.1840  0.6497
 6130TIP3   OH218395   1.376   4.381   4.178 -0.2000  0.0459  0.6781
 6130TIP3    H118396   1.435   4.365   4.252  0.3489  1.4721  0.5833
 6130TIP3    H218397   1.387   4.305   4.121  2.1137  0.5662  0.3157
 6131TIP3   OH218398   1.015   4.132   3.864 -0.0376 -0.0203  0.7019
 6131TIP3    H118399   0.921   4.111   3.867  0.3453 -2.3118 -0.8223
 6131TIP3    H218400   1.031   4.158   3.774  0.9652 -0.6285  0.6911
 6132TIP3   OH218401   0.322   1.320   4.805 -0.5328  0.2639  0.8356
 6132TIP3    H118402   0.360   1.405   4.824  1.1743  0.2524 -1.9033
 6132TIP3    H218403   0.290   1.328   4.715 -1.4518 -1.6311  0.9449
 6133TIP3   OH218404   2.773   4.108   0.458 -0.5201 -0.4009 -0.1461
 6133TIP3    H118405   2.818   4.095   0.541  0.4157  1.6604 -0.2815
 6133TIP3    H218406   2.823   4.055   0.395  0.3711  0.1127  0.1188
 6134TIP3   OH218407   4.028   1.083   0.900  0.0601  0.0111  0.0146
 6134TIP3    H118408   4.080   1.069   0.980  1.1092 -0.2024 -0.6894
 6134TIP3    H218409   3.965   1.011   0.900 -0.8151  0.7212  1.2921
 6135TIP3   OH218410   1.825   3.177   0.189  0.3188 -0.2143  0.0073
 6135TIP3    H118411   1.734   3.168   0.162  0.1615  0.3761  0.3085
 6135TIP3    H218412   1.876   3.155   0.111 -0.1171  1.2121 -0.7256
 6136TIP3   OH218413   2.148   5.150   2.953 -0.2282  0.2701  0.4538
 6136TIP3    H118414   2.166   5.195   3.035 -1.7434  0.5614  0.6663
 6136TIP3    H218415   2.181   5.209   2.885 -0.8777  1.0391  0.7885
 6137TIP3   OH218416   0.377   3.473   4.710  0.6004 -0.6590 -0.0178
 6137TIP3    H118417   0.394   3.551   4.762  1.1474 -1.3471  0.8595
 6137TIP3    H218418   0.430   3.405   4.751  0.7582 -1.3086 -1.2500
 6138TIP3   OH218419   0.798   5.202   3.982  0.3068  0.0161  0.8345
 6138TIP3    H118420   0.864   5.186   4.050  1.5269  0.7684 -0.1281
 6138TIP3    H218421   0.816   5.135   3.916 -0.1897 -0.0510  0.7659
 6139TIP3   OH218422   4.709   0.312   0.279 -0.6976 -0.2380 -0.8706
 6139TIP3    H118423   4.791   0.360   0.290  0.1205 -1.3040 -2.0139
 6139TIP3    H218424   4.653   0.372   0.229 -0.0249 -0.0925 -1.4813
 6140TIP3   OH218425   3.724   1.150   1.204 -0.2464 -0.5290  0.6771
 6140TIP3    H118426   3.709   1.223   1.264 -0.1080  0.1370 -0.0758
 6140TIP3    H218427   3.812   1.165   1.169 -1.0688  0.2489 -1.2142
 6141TIP3   OH218428   4.530   0.179   3.797  0.1711  0.8095  0.3855
 6141TIP3    H118429   4.437   0.194   3.784  0.3361  0.4909 -1.4194
 6141TIP3    H218430   4.547   0.095   3.754  1.0515  0.1466  1.9206
 6142TIP3   OH218431   2.083   0.921   3.483 -0.0140 -0.2079 -0.0464
 6142TIP3    H118432   2.161   0.970   3.457  0.2230 -0.1030  0.8139
 6142TIP3    H218433   2.010   0.973   3.450  0.1576  1.7368  2.3102
 6143TIP3   OH218434   3.018   5.877   4.381 -0.0897  0.3548  0.3605
 6143TIP3    H118435   3.016   5.870   4.476  1.7395  0.5800  0.4649
 6143TIP3    H218436   3.031   5.787   4.351  1.3122  0.4854  0.4756
 6144TIP3   OH218437   4.504   3.202   4.096  0.5497  0.3772  0.0248
 6144TIP3    H118438   4.557   3.279   4.114 -0.4433  0.4594  3.0900
 6144TIP3    H218439   4.414   3.231   4.106  0.1689 -1.2966  2.0491
 6145TIP3   OH218440   2.376   2.528   4.802  0.8614 -0.3044  0.2074
 6145TIP3    H118441   2.286   2.494   4.807  0.7847 -0.1691 -0.2332
 6145TIP3    H218442   2.378   2.600   4.864  0.1139  0.9218 -1.1150
 6146TIP3   OH218443   4.243   3.297   3.320  0.1488  0.1344  0.7605
 6146TIP3    H118444   4.231   3.386   3.285 -0.2472 -0.1514  0.1515
 6146TIP3    H218445   4.287   3.250   3.250 -1.3115 -0.6487  0.3268
 6147TIP3   OH218446   3.588   1.848   4.310 -0.2732  0.4319  0.1059
 6147TIP3    H118447   3.626   1.904   4.243 -1.4204  1.3828  0.2181
 6147TIP3    H218448   3.663   1.814   4.359  0.4812  1.1446 -0.5335
 6148TIP3   OH218449   3.028   3.625   2.084 -0.0715  0.0978  0.3426
 6148TIP3    H118450   3.123   3.620   2.097 -0.1852  0.1813  1.2346
 6148TIP3    H218451   3.014   3.707   2.037  0.4148 -0.5599 -0.9911
 6149TIP3   OH218452   5.682   5.290   1.207 -0.1473  0.0308 -0.5409
 6149TIP3    H118453   5.727   5.293   1.123 -1.8428  2.5507 -1.4858
 6149TIP3    H218454   5.594   5.259   1.186 -0.6408  0.8456  0.2748
 6150TIP3   OH218455   1.637   5.422   1.310 -0.0513 -0.1116 -0.4179
 6150TIP3    H118456   1.713   5.372   1.338 -1.5678 -0.8958  2.7950
 6150TIP3    H218457   1.595   5.367   1.244  0.4712 -1.1569  0.1072
 6151TIP3   OH218458   3.114   3.810   3.839  0.0766 -0.1923  0.1012
 6151TIP3    H118459   3.122   3.736   3.898  1.6359 -0.8414 -0.8501
 6151TIP3    H218460   3.030   3.798   3.795 -0.3831 -0.5345  1.0622
 6152TIP3   OH218461   2.022   0.478   4.623  0.0770 -0.5780 -0.1547
 6152TIP3    H118462   1.953   0.490   4.689  0.1570  0.9736 -0.3348
 6152TIP3    H218463   2.028   0.562   4.578  1.5929 -0.9175 -0.6399
 6153TIP3   OH218464   1.728   3.839   1.552  0.4892 -0.3975  0.4873
 6153TIP3    H118465   1.804   3.895   1.534  0.1773 -0.1752 -0.1896
 6153TIP3    H218466   1.670   3.854   1.477 -0.2446 -0.5238  1.0221
 6154TIP3   OH218467   5.731   3.279   3.574  0.0380 -0.7203 -0.0826
 6154TIP3    H118468   5.671   3.310   3.507 -2.2447 -2.5676  0.9833
 6154TIP3    H218469   5.807   3.247   3.525 -0.5378  0.1342 -1.5957
 6155TIP3   OH218470   0.414   2.149   3.969 -0.6219 -0.0300 -0.0907
 6155TIP3    H118471   0.415   2.171   4.062  0.9908 -0.9445  0.1438
 6155TIP3    H218472   0.371   2.223   3.927  0.8961  1.6151  1.1183
 6156TIP3   OH218473   0.058   4.870   2.848  0.5149 -0.2152  0.0405
 6156TIP3    H118474   0.063   4.783   2.809  1.3998 -0.6626  1.1112
 6156TIP3    H218475  -0.012   4.863   2.914 -0.0594  0.1640 -0.5127
 6157TIP3   OH218476   4.560   5.276   1.048 -0.6407  0.0206  0.3060
 6157TIP3    H118477   4.473   5.239   1.033 -1.5519  2.3880 -0.7251
 6157TIP3    H218478   4.552   5.367   1.020  2.2103  0.2823  0.1024
 6158TIP3   OH218479   4.302   2.963   1.506  0.4006 -0.6589  0.1356
 6158TIP3    H118480   4.245   2.940   1.433  1.0242 -2.0478  0.0498
 6158TIP3    H218481   4.258   2.927   1.583  2.4912 -4.6136 -0.2402
 6159TIP3   OH218482   2.388   1.783   2.061  0.6771  0.3734 -0.0299
 6159TIP3    H118483   2.451   1.854   2.075  0.0063  1.2102 -1.0178
 6159TIP3    H218484   2.430   1.705   2.097  1.7626  1.1334  0.3928
 6160TIP3   OH218485   0.901   2.891   3.638  0.3608  0.0252  0.1396
 6160TIP3    H118486   0.869   2.832   3.705 -0.3690  0.1121 -0.1238
 6160TIP3    H218487   0.974   2.844   3.596 -0.1699 -0.6557 -0.0243
 6161TIP3   OH218488   0.529   2.991   0.562  0.2054 -0.2664 -0.0238
 6161TIP3    H118489   0.518   2.900   0.592 -0.5513 -0.3268 -0.4676
 6161TIP3    H218490   0.498   3.044   0.635  0.1187 -0.3718  0.0153
 6162TIP3   OH218491   1.508   3.676   2.562  0.2354  0.4131  0.3380
 6162TIP3    H118492   1.516   3.609   2.495  0.1779 -0.1425  0.8838
 6162TIP3    H218493   1.428   3.653   2.610  0.9292  0.0865  1.3818
 6163TIP3   OH218494   6.274   5.450   4.469 -0.0446  0.0804  0.1510
 6163TIP3    H118495   6.240   5.519   4.526  0.6242  0.6854 -0.1717
 6163TIP3    H218496   6.312   5.496   4.395 -0.8205 -0.6952 -0.7588
 6164TIP3   OH218497   6.239   2.244   4.015 -0.1771 -0.7300  0.0635
 6164TIP3    H118498   6.160   2.196   4.040  0.2970 -2.1310 -0.9601
 6164TIP3    H218499   6.311   2.189   4.045  0.4344  0.5553  1.0241
 6165TIP3   OH218500   3.436   4.565   4.083 -0.4881  0.1485 -0.0113
 6165TIP3    H118501   3.515   4.541   4.034  0.2595  0.0752  1.1735
 6165TIP3    H218502   3.364   4.528   4.033  0.4285 -2.3854  0.3861
 6166TIP3   OH218503   6.290   5.206   0.221  0.0963  0.2168 -0.0576
 6166TIP3    H118504   6.363   5.152   0.191 -2.0036 -2.0431 -1.4407
 6166TIP3    H218505   6.279   5.180   0.313  0.2692 -0.3600 -0.1903
 6167TIP3   OH218506   5.774   4.190   0.222 -0.5226  0.3045 -0.5065
 6167TIP3    H118507   5.846   4.129   0.233 -1.1614 -0.5321 -0.8734
 6167TIP3    H218508   5.754   4.186   0.128  0.2153  1.9994 -0.7859
 6168TIP3   OH218509   3.473   3.770   4.024 -0.0337  0.2412  0.8157
 6168TIP3    H118510   3.565   3.766   4.002 -0.3913  0.5073 -0.8182
 6168TIP3    H218511   3.437   3.838   3.968 -1.2055  0.2527  1.5328
 6169TIP3   OH218512   1.694   1.636   3.857  0.0174  0.1499  0.5134
 6169TIP3    H118513   1.720   1.728   3.862 -1.2538  0.5425  0.0996
 6169TIP3    H218514   1.746   1.601   3.785 -0.2186  0.7986  0.0202
 6170TIP3   OH218515   0.915   0.859   4.046  0.1019  0.6155 -0.2871
 6170TIP3    H118516   1.003   0.822   4.058 -1.0676 -2.2099  0.1989
 6170TIP3    H218517   0.909   0.927   4.114  2.8922  3.0660 -2.2280
 6171TIP3   OH218518   4.658   4.983   0.035 -0.1812 -0.0546 -0.0504
 6171TIP3    H118519   4.727   5.029   0.081 -0.8421  1.2099 -0.2886
 6171TIP3    H218520   4.580   5.036   0.049 -1.1598 -1.5318  0.3543
 6172TIP3   OH218521   5.925   5.706   2.409 -0.1345 -0.1266  0.1084
 6172TIP3    H118522   6.001   5.736   2.459  0.5594 -1.7801  0.1288
 6172TIP3    H218523   5.910   5.774   2.344  0.9084  0.5765  0.5877
 6173TIP3   OH218524   5.750   1.544   0.809  0.0545  0.4080 -0.1242
 6173TIP3    H118525   5.778   1.604   0.740  0.4555  0.3371 -0.0306
 6173TIP3    H218526   5.664   1.575   0.836 -0.3355  0.1224 -1.0185
 6174TIP3   OH218527   6.165   5.609   4.999 -0.3115  0.2718 -0.4158
 6174TIP3    H118528   6.217   5.529   4.990 -1.8864 -1.2654  2.6646
 6174TIP3    H218529   6.205   5.671   4.937  0.7550 -2.9382 -3.2334
 6175TIP3   OH218530   5.155   2.680   3.897  0.4676 -0.0246  0.4330
 6175TIP3    H118531   5.095   2.721   3.834  0.3148 -0.1822  0.4740
 6175TIP3    H218532   5.100   2.617   3.944  0.7758 -0.5246  0.1314
 6176TIP3   OH218533   4.797   4.657   2.871 -0.3715 -0.0022  0.7678
 6176TIP3    H118534   4.743   4.596   2.820  0.3291  0.4167 -0.5320
 6176TIP3    H218535   4.733   4.714   2.914 -1.0257  0.5245 -0.7889
 6177TIP3   OH218536   5.479   2.841   1.182  0.2727 -0.4115  0.2414
 6177TIP3    H118537   5.441   2.921   1.147 -0.2901 -0.8401 -0.1517
 6177TIP3    H218538   5.473   2.778   1.110  0.8582 -0.7600  0.4897
 6178TIP3   OH218539   3.446   4.658   1.250 -0.4959  0.2268  0.2283
 6178TIP3    H118540   3.387   4.691   1.318 -1.7980 -1.9911  0.2754
 6178TIP3    H218541   3.388   4.618   1.186  0.9039 -0.9508 -0.3427
 6179TIP3   OH218542   2.313   1.102   0.388 -0.5730  0.3050  0.1153
 6179TIP3    H118543   2.363   1.021   0.390 -2.4693 -0.9381 -0.2102
 6179TIP3    H218544   2.319   1.132   0.297 -0.8903 -0.1512 -0.0583
 6180TIP3   OH218545   1.348   2.080   3.227  0.2047 -0.1078  0.4895
 6180TIP3    H118546   1.282   2.081   3.296  1.6207 -0.2084  1.9202
 6180TIP3    H218547   1.425   2.122   3.267  1.0413 -0.0796 -1.0692
 6181TIP3   OH218548   5.576   3.046   3.998  0.6083 -0.3194  0.2864
 6181TIP3    H118549   5.593   3.049   3.904  0.8230 -0.9299  0.3001
 6181TIP3    H218550   5.518   3.120   4.015 -0.1822 -0.7443 -0.4849
 6182TIP3   OH218551   6.333   4.649   1.506 -0.4109 -0.6435  0.0705
 6182TIP3    H118552   6.332   4.745   1.505  0.7560 -0.6133 -1.3802
 6182TIP3    H218553   6.241   4.624   1.508 -0.7381  0.5067  0.1704
 6183TIP3   OH218554   4.618   4.110   1.604 -0.0831  0.1462 -0.1814
 6183TIP3    H118555   4.529   4.082   1.584  0.3023 -0.7039 -0.7932
 6183TIP3    H218556   4.673   4.037   1.575  0.8315  0.7846 -0.0998
 6184TIP3   OH218557   0.093   2.446   3.143  0.1960 -0.4410 -0.4871
 6184TIP3    H118558   0.037   2.516   3.110 -0.5177 -0.9566 -0.4102
 6184TIP3    H218559   0.068   2.436   3.235  1.2658  0.1219 -0.1262
 6185TIP3   OH218560   6.172   0.420   2.194 -0.1075 -0.0959 -0.2455
 6185TIP3    H118561   6.144   0.491   2.135 -0.3477  0.9170  1.0274
 6185TIP3    H218562   6.109   0.350   2.179 -1.6987  1.0913  0.5256
 6186TIP3   OH218563   4.745   3.262   0.311  0.0129 -0.4927  0.0631
 6186TIP3    H118564   4.794   3.302   0.383 -0.1411  1.3102 -0.7880
 6186TIP3    H218565   4.813   3.227   0.253  0.3120  1.1668 -0.6427
 6187TIP3   OH218566   2.902   5.016   1.913 -0.0929 -0.1126 -0.0979
 6187TIP3    H118567   2.947   4.983   1.990 -2.3338 -1.3146  0.7761
 6187TIP3    H218568   2.885   4.939   1.859 -0.6864  0.3626 -0.6158
 6188TIP3   OH218569   5.620   3.975   4.863 -0.4299  0.2101  0.3988
 6188TIP3    H118570   5.611   4.054   4.915 -2.2368 -1.0860  2.1651
 6188TIP3    H218571   5.598   4.003   4.774  0.3139  1.9400  0.7043
 6189TIP3   OH218572   2.435   5.079   3.443 -0.0259 -0.3524 -0.3133
 6189TIP3    H118573   2.479   5.047   3.522 -0.3249 -0.9883 -0.3986
 6189TIP3    H218574   2.464   5.170   3.434  1.5606 -0.8684 -0.5903
 6190TIP3   OH218575   3.275   2.369   4.692  0.2319 -0.0411  0.1853
 6190TIP3    H118576   3.346   2.416   4.648  1.1712 -1.9620 -0.4634
 6190TIP3    H218577   3.293   2.277   4.675 -2.8979 -0.6094 -0.7361
 6191TIP3   OH218578   3.013   4.275   1.620  0.2602  0.0931  0.5878
 6191TIP3    H118579   2.980   4.232   1.541  0.9335 -0.3212  0.5210
 6191TIP3    H218580   2.983   4.365   1.612 -1.8151 -0.4906  1.0782
 6192TIP3   OH218581   5.690   2.162   4.238  0.2482 -0.4209  0.0887
 6192TIP3    H118582   5.738   2.229   4.287 -0.2303  1.9167 -2.4116
 6192TIP3    H218583   5.732   2.160   4.153 -1.1684 -1.7197 -0.6176
 6193TIP3   OH218584   3.956   3.197   4.614  0.4527 -0.1419 -0.3914
 6193TIP3    H118585   3.910   3.136   4.672 -0.9188  1.1996  0.0253
 6193TIP3    H218586   4.043   3.207   4.653  0.2277 -0.7955  0.2959
 6194TIP3   OH218587   5.648   0.985   4.085 -0.0734 -0.5034  0.5050
 6194TIP3    H118588   5.646   0.936   4.167  0.0389 -0.5269  0.4942
 6194TIP3    H218589   5.708   0.935   4.029  0.0348 -0.3575  0.4912
 6195TIP3   OH218590   1.686   2.444   1.956  0.1707  0.8537 -0.1932
 6195TIP3    H118591   1.675   2.441   2.051 -0.5310  1.0043 -0.2693
 6195TIP3    H218592   1.684   2.537   1.935 -0.5403  0.7839 -0.4532
 6196TIP3   OH218593   3.770   5.113   3.272 -0.0092 -0.3871  0.4254
 6196TIP3    H118594   3.726   5.057   3.208  0.6693 -0.3733 -0.0640
 6196TIP3    H218595   3.853   5.068   3.290 -0.6162 -0.9310  2.0801
 6197TIP3   OH218596   6.022   2.393   1.510 -0.3805 -0.4104  0.5630
 6197TIP3    H118597   5.977   2.416   1.591  1.0786  1.6052  0.8764
 6197TIP3    H218598   5.986   2.453   1.444  1.3435  0.8342  0.6948
 6198TIP3   OH218599   4.858   1.700   5.036 -0.4810 -0.6589 -0.3141
 6198TIP3    H118600   4.888   1.613   5.008  1.3091 -0.1847  0.0285
 6198TIP3    H218601   4.899   1.760   4.974 -1.0146  0.0139 -0.0243
 6199TIP3   OH218602   1.057   0.854   0.208 -0.0715 -0.3536 -0.0605
 6199TIP3    H118603   1.048   0.902   0.125  0.7383 -0.2056 -0.0717
 6199TIP3    H218604   0.967   0.837   0.235 -0.3504 -0.3372 -0.9327
 6200TIP3   OH218605   5.036   0.220   4.199  0.4033  0.1179  0.4146
 6200TIP3    H118606   5.000   0.273   4.128 -0.8511 -1.1795  0.0374
 6200TIP3    H218607   5.094   0.158   4.156 -0.8462 -1.0901  0.3835
 6201TIP3   OH218608   3.956   2.154   1.421  0.3329 -0.1471 -0.3642
 6201TIP3    H118609   3.945   2.062   1.444  3.2363 -0.4982 -0.0467
 6201TIP3    H218610   3.988   2.153   1.330 -0.1748  0.5937 -0.5608
 6202TIP3   OH218611   3.041   2.550   2.880  0.2742 -0.1832 -0.4610
 6202TIP3    H118612   3.044   2.639   2.845  0.6809  0.0688  0.1811
 6202TIP3    H218613   3.131   2.531   2.904  0.2565 -0.9283 -0.9549
 6203TIP3   OH218614   1.959   2.113   3.076 -0.0746  0.8174  0.4722
 6203TIP3    H118615   1.875   2.079   3.046 -0.4334  1.6130  0.5543
 6203TIP3    H218616   1.937   2.193   3.124  0.7965  1.5695 -0.3490
 6204TIP3   OH218617   4.940   2.746   3.734  0.4091 -0.0768 -0.2245
 6204TIP3    H118618   4.896   2.661   3.734  0.0856  0.0840  0.4353
 6204TIP3    H218619   4.936   2.774   3.643 -1.4795  0.2256 -0.0947
 6205TIP3   OH218620   2.522   2.595   3.727  0.2100  0.3162  0.2893
 6205TIP3    H118621   2.608   2.563   3.753  1.8089  2.9369 -1.4320
 6205TIP3    H218622   2.488   2.527   3.669  1.3084 -0.5395  0.6191
 6206TIP3   OH218623   5.399   4.035   2.958 -0.3096  0.2815 -0.1505
 6206TIP3    H118624   5.324   3.978   2.942 -0.7582  0.6786  0.4952
 6206TIP3    H218625   5.430   4.008   3.045 -1.2405  1.7815  0.6865
 6207TIP3   OH218626   4.985   5.614   2.476 -0.3219 -0.5187 -0.1205
 6207TIP3    H118627   4.920   5.574   2.419  0.8394 -0.7859 -1.3266
 6207TIP3    H218628   5.059   5.552   2.476  0.9276  0.9062 -0.8377
 6208TIP3   OH218629   1.747   1.295   0.660  0.3668  0.0219  0.2351
 6208TIP3    H118630   1.657   1.324   0.643  0.2964 -0.8456 -1.0331
 6208TIP3    H218631   1.801   1.361   0.616  0.3635  0.6133  1.1062
 6209TIP3   OH218632   6.310   0.943   4.038  0.0804  0.2490 -0.3473
 6209TIP3    H118633   6.260   0.944   4.120  1.9736 -1.3081  0.9270
 6209TIP3    H218634   6.317   1.035   4.013 -2.0966  0.6236  0.1961
 6210TIP3   OH218635   2.153   3.093   4.448 -0.7765  0.2479 -0.3846
 6210TIP3    H118636   2.163   3.151   4.372 -1.6148 -0.1815 -0.8291
 6210TIP3    H218637   2.197   3.012   4.422  0.1441  0.5564  0.1306
 6211TIP3   OH218638   4.439   4.647   4.344  0.0801 -0.1301  0.0553
 6211TIP3    H118639   4.508   4.596   4.302  0.2587  0.8922 -0.9302
 6211TIP3    H218640   4.381   4.581   4.383 -1.0676 -1.2780 -3.2392
 6212TIP3   OH218641   2.444   2.243   3.759  0.2075 -0.1607 -0.0059
 6212TIP3    H118642   2.444   2.272   3.850 -0.2508  0.8478 -0.3091
 6212TIP3    H218643   2.520   2.186   3.752 -0.1229 -0.7974  1.1697
 6213TIP3   OH218644   0.624   0.140   4.426  0.3638 -0.2037 -0.0017
 6213TIP3    H118645   0.559   0.137   4.356  0.3616  0.9390 -0.0603
 6213TIP3    H218646   0.622   0.052   4.465  0.0323 -0.7104 -1.1228
 6214TIP3   OH218647   0.367   2.443   3.494  0.1173  0.3658 -0.2112
 6214TIP3    H118648   0.339   2.487   3.414  1.0064  1.3619  0.0157
 6214TIP3    H218649   0.449   2.485   3.518  1.2288 -1.6891 -0.1994
 6215TIP3   OH218650   4.715   5.811   1.382  0.5127 -0.4609  0.2376
 6215TIP3    H118651   4.717   5.837   1.290  0.3643  0.2968  0.4422
 6215TIP3    H218652   4.762   5.728   1.385  0.2175 -0.6617 -0.5784
 6216TIP3   OH218653   5.090   3.145   3.786 -0.1589  0.4003  0.0847
 6216TIP3    H118654   5.032   3.129   3.711  1.5021  0.0725 -1.2019
 6216TIP3    H218655   5.113   3.057   3.817  1.0778  0.4453 -0.6180
 6217TIP3   OH218656   2.950   2.189   0.365  0.4737 -0.8090  0.0543
 6217TIP3    H118657   2.986   2.121   0.308 -0.4887 -1.6561  0.4270
 6217TIP3    H218658   3.001   2.183   0.445  0.9700 -0.4896 -0.2318
 6218TIP3   OH218659   3.028   2.983   1.298  0.4163 -0.5625 -0.3816
 6218TIP3    H118660   3.010   2.962   1.390  1.0049  0.8771  0.0801
 6218TIP3    H218661   2.942   3.006   1.262  0.2091 -0.9681 -0.1571
 6219TIP3   OH218662   6.064   0.649   4.189 -0.7490 -0.1672 -0.3258
 6219TIP3    H118663   6.098   0.735   4.214  0.6495 -0.7064 -0.2955
 6219TIP3    H218664   6.130   0.613   4.130 -0.9114 -1.5554  0.2995
 6220TIP3   OH218665   4.866   4.367   2.696 -0.3101  0.4529  0.8403
 6220TIP3    H118666   4.939   4.334   2.749  0.1363  0.6146  0.3318
 6220TIP3    H218667   4.897   4.360   2.606 -0.5509  1.4020  0.6717
 6221TIP3   OH218668   1.343   5.055   3.496  0.1059  0.2165 -0.1612
 6221TIP3    H118669   1.407   5.023   3.560  0.9027 -0.0185 -1.0612
 6221TIP3    H218670   1.302   4.975   3.462 -1.7656  0.4056  1.4726
 6222TIP3   OH218671   2.349   2.696   3.946 -0.0863 -0.3373  0.0411
 6222TIP3    H118672   2.304   2.774   3.915 -0.2473 -0.1352  0.7661
 6222TIP3    H218673   2.388   2.658   3.867  1.0896  1.1613 -0.1491
 6223TIP3   OH218674   5.877   3.403   3.732 -0.2045 -0.3303 -0.0671
 6223TIP3    H118675   5.842   3.330   3.681 -0.2969 -0.5708  0.3338
 6223TIP3    H218676   5.810   3.471   3.725 -2.1476 -1.7032  2.8713
 6224TIP3   OH218677   2.923   0.207   2.620 -0.2771 -1.1021  0.0219
 6224TIP3    H118678   2.922   0.234   2.528 -2.3397 -0.9024  0.0621
 6224TIP3    H218679   2.954   0.117   2.618  1.1029 -0.6546 -0.6856
 6225TIP3   OH218680   6.109   5.095   0.868  0.4400  0.1389 -0.0611
 6225TIP3    H118681   6.109   5.043   0.788 -0.2955 -0.8862  0.5732
 6225TIP3    H218682   6.201   5.100   0.893  0.6084 -0.0904 -0.6245
 6226TIP3   OH218683   3.915   4.544   0.040 -0.4624 -0.3648  0.5942
 6226TIP3    H118684   3.968   4.537  -0.040 -0.6256  1.7961  0.2399
 6226TIP3    H218685   3.851   4.474   0.032 -1.3816  0.6228 -1.9207
 6227TIP3   OH218686   2.619   0.450   4.040  0.6641  0.2411  0.3839
 6227TIP3    H118687   2.542   0.488   4.082  1.2690  2.2093 -0.1517
 6227TIP3    H218688   2.690   0.463   4.103  0.9247  0.2061  0.1036
 6228TIP3   OH218689   4.534   5.079   4.484  0.2952  0.4134  0.2854
 6228TIP3    H118690   4.554   5.113   4.571 -1.1574 -1.5704  1.4629
 6228TIP3    H218691   4.476   5.145   4.445  0.9628  1.3209  0.7998
 6229TIP3   OH218692   2.380   3.750   2.941  0.5299  0.5466  0.3443
 6229TIP3    H118693   2.364   3.658   2.961  1.5518  0.4445  0.7632
 6229TIP3    H218694   2.319   3.798   2.998 -0.0693  0.1427  0.0577
 6230TIP3   OH218695   1.868   5.055   4.191 -0.1698  0.8435 -0.3797
 6230TIP3    H118696   1.848   5.100   4.109 -3.0374 -1.2707 -1.0039
 6230TIP3    H218697   1.911   4.974   4.164 -1.1300  0.1290  0.1449
 6231TIP3   OH218698   6.330   4.268   0.664 -0.2396 -0.1290 -0.4137
 6231TIP3    H118699   6.386   4.254   0.588  1.5959 -0.0987  0.8636
 6231TIP3    H218700   6.270   4.194   0.663  0.1350 -0.4400 -1.5714
 6232TIP3   OH218701   1.520   4.443   2.106  0.2954 -0.2431 -0.4309
 6232TIP3    H118702   1.555   4.357   2.132 -0.0473 -0.2430  0.0276
 6232TIP3    H218703   1.552   4.503   2.173 -1.6867 -0.4644  0.7741
 6233TIP3   OH218704   0.853   2.022   2.477  0.3182  0.0044 -0.7228
 6233TIP3    H118705   0.770   2.068   2.490  1.3246  1.2816  1.8346
 6233TIP3    H218706   0.918   2.075   2.523  1.9728 -2.6939  0.3074
 6234TIP3   OH218707   3.250   2.789   4.927  0.3085  0.2279 -0.2593
 6234TIP3    H118708   3.236   2.818   5.017  2.7383  0.5280  0.1019
 6234TIP3    H218709   3.231   2.866   4.874  0.7185  0.6496  0.1849
 6235TIP3   OH218710   4.757   1.945   4.267  0.1386 -0.1252  0.2590
 6235TIP3    H118711   4.695   1.941   4.194  1.3348  0.1539 -0.7964
 6235TIP3    H218712   4.773   1.853   4.289  1.4767 -0.3319 -1.3540
 6236TIP3   OH218713   3.960   0.398   0.835 -0.7767 -0.3055  0.0387
 6236TIP3    H118714   3.996   0.313   0.811  3.6643  1.6948 -1.3321
 6236TIP3    H218715   3.959   0.448   0.753 -1.8641  1.4700  1.0644
 6237TIP3   OH218716   3.207   4.838   3.005  0.0821 -0.0900  0.2659
 6237TIP3    H118717   3.175   4.915   3.053 -0.0803  0.4724 -0.6993
 6237TIP3    H218718   3.267   4.795   3.065  0.0176  0.6866  0.9054
 6238TIP3   OH218719   1.877   0.699   0.305  0.7361  0.3645 -0.1350
 6238TIP3    H118720   1.817   0.694   0.231 -0.8395  0.9610  1.0264
 6238TIP3    H218721   1.938   0.770   0.282  0.8265 -0.0461 -1.2122
 6239TIP3   OH218722   0.517   1.108   3.035 -0.0481  0.3223 -0.2702
 6239TIP3    H118723   0.426   1.130   3.056  0.0389  0.1892  0.2607
 6239TIP3    H218724   0.527   1.132   2.943 -0.4362  0.9391 -0.1561
 6240TIP3   OH218725   1.241   4.603   0.659 -0.7413  0.3119  0.1448
 6240TIP3    H118726   1.250   4.514   0.624 -1.3330  0.4059 -0.2537
 6240TIP3    H218727   1.207   4.655   0.586  1.1460  1.2375 -0.1207
 6241TIP3   OH218728   1.969   2.663   1.806 -0.1197  0.2219  0.0437
 6241TIP3    H118729   1.979   2.682   1.900  0.6011  0.1181 -0.0072
 6241TIP3    H218730   2.057   2.638   1.777 -0.5681 -0.8646 -0.4185
 6242TIP3   OH218731   1.880   2.823   2.116 -0.1058 -0.1774 -0.3870
 6242TIP3    H118732   1.815   2.847   2.181 -0.4817  0.8401 -1.1207
 6242TIP3    H218733   1.874   2.727   2.111 -0.5905 -0.2047  0.5195
 6243TIP3   OH218734   2.269   2.968   3.977  0.0916 -0.1577  0.1520
 6243TIP3    H118735   2.354   3.007   3.957  0.6838 -0.8578  1.2226
 6243TIP3    H218736   2.219   3.040   4.015 -0.2154  0.5548 -1.5310
 6244TIP3   OH218737   2.603   2.643   2.057  0.0128 -0.0603 -0.6553
 6244TIP3    H118738   2.608   2.731   2.095  2.6677  0.4816 -2.0096
 6244TIP3    H218739   2.694   2.612   2.056 -0.1884 -1.0341 -4.0848
 6245TIP3   OH218740   6.038   5.123   1.555  0.1362  1.3559 -0.2821
 6245TIP3    H118741   5.970   5.125   1.488 -1.1273  0.7220  0.9346
 6245TIP3    H218742   6.015   5.195   1.615 -0.7156 -0.1277  1.2607
 6246TIP3   OH218743   2.322   4.613   3.793 -0.0189 -0.1328  0.7521
 6246TIP3    H118744   2.306   4.597   3.700  1.7285  0.2127  0.3565
 6246TIP3    H218745   2.324   4.708   3.802  1.1866 -0.1577  0.8696
 6247TIP3   OH218746   1.187   5.140   4.675  0.4078 -0.6866 -0.4973
 6247TIP3    H118747   1.155   5.222   4.637 -0.7235 -0.8631  0.0221
 6247TIP3    H218748   1.256   5.111   4.616 -0.1852 -0.1053 -1.5023
 6248TIP3   OH218749   5.905   5.889   2.693 -0.2893  0.2912 -0.3300
 6248TIP3    H118750   5.970   5.901   2.624 -0.1627  1.3199 -0.0529
 6248TIP3    H218751   5.951   5.838   2.760  0.6075  1.9014  0.3278
 6249TIP3   OH218752   6.135   0.710   3.108 -0.5348 -0.1203  0.0997
 6249TIP3    H118753   6.198   0.737   3.175 -1.9476 -0.9952  1.8359
 6249TIP3    H218754   6.049   0.722   3.148 -1.4034 -1.6406 -1.1805
 6250TIP3   OH218755   5.358   1.126   3.434 -0.1835 -0.2599  0.2304
 6250TIP3    H118756   5.435   1.092   3.480 -0.4836  0.7388  1.5405
 6250TIP3    H218757   5.297   1.052   3.431  0.5394 -0.8583 -0.2054
 6251TIP3   OH218758   4.949   5.763   4.162 -0.2840 -0.4444  0.4251
 6251TIP3    H118759   5.020   5.771   4.225 -0.2478 -0.2867  0.3635
 6251TIP3    H218760   4.971   5.824   4.092 -0.0898 -0.9452  0.0371
 6252TIP3   OH218761   2.793   1.925   3.287 -0.6377  0.7968  0.0766
 6252TIP3    H118762   2.814   1.836   3.316  1.2087  1.3644  0.5874
 6252TIP3    H218763   2.811   1.923   3.193  0.6591  0.9516  0.3050
 6253TIP3   OH218764   1.646   1.981   1.053 -0.1723  0.1645 -0.0528
 6253TIP3    H118765   1.703   2.058   1.060 -0.1053  0.0744  0.4589
 6253TIP3    H218766   1.599   1.993   0.971 -0.6195  1.0715  0.3154
 6254TIP3   OH218767   0.588   0.559   4.850 -0.1386  0.5625  0.3149
 6254TIP3    H118768   0.643   0.481   4.861  1.2728  1.3862 -0.6240
 6254TIP3    H218769   0.538   0.542   4.771  0.7533  0.9188 -0.3405
 6255TIP3   OH218770   5.996   0.131   2.786 -0.0922 -0.3346  0.2423
 6255TIP3    H118771   6.026   0.040   2.789 -1.4398 -0.8051  0.2588
 6255TIP3    H218772   6.047   0.170   2.716 -0.8293 -1.6455 -1.0932
 6256TIP3   OH218773   3.288   2.491   2.978 -0.1495 -0.3141 -0.4071
 6256TIP3    H118774   3.325   2.554   2.915 -0.7338 -1.0905 -1.5753
 6256TIP3    H218775   3.360   2.433   3.000  0.3067  0.5385  0.4139
 6257TIP3   OH218776   5.464   1.626   2.983 -0.1281  0.2001 -0.5235
 6257TIP3    H118777   5.523   1.554   3.009 -1.3641 -0.4368  0.6562
 6257TIP3    H218778   5.510   1.705   3.010 -0.1806 -0.3319  1.2510
 6258TIP3   OH218779   3.992   1.470   1.317 -0.0841 -0.6606 -0.3588
 6258TIP3    H118780   4.070   1.417   1.334  0.7988  0.6897 -0.0297
 6258TIP3    H218781   3.921   1.423   1.361  0.7647 -1.2796  0.3934
 6259TIP3   OH218782   4.632   4.550   2.130 -0.0300  0.0631 -0.5913
 6259TIP3    H118783   4.678   4.519   2.208 -0.6339 -0.2083 -0.3353
 6259TIP3    H218784   4.681   4.513   2.057 -0.7927 -1.6268 -0.2946
 6260TIP3   OH218785   2.496   5.206   1.895 -0.3084  0.8028  0.4624
 6260TIP3    H118786   2.409   5.201   1.855 -0.3314 -0.7823  0.6408
 6260TIP3    H218787   2.553   5.240   1.826 -0.8944  0.9142  0.0272
 6261TIP3   OH218788   1.351   3.242   4.837 -0.1705 -0.1963  0.6534
 6261TIP3    H118789   1.417   3.181   4.802 -1.2310 -0.1299 -1.6738
 6261TIP3    H218790   1.301   3.269   4.760  0.1462  3.5448  1.5594
 6262TIP3   OH218791   5.798   3.438   2.594  0.1299  0.4282  0.1965
 6262TIP3    H118792   5.883   3.478   2.611  0.1170  0.0271  1.3117
 6262TIP3    H218793   5.739   3.482   2.656 -0.3778  0.3693 -0.2380
 6263TIP3   OH218794   5.404   4.993   4.542  0.2951 -0.1087 -0.0394
 6263TIP3    H118795   5.374   5.072   4.496  1.1479  0.8034  0.9019
 6263TIP3    H218796   5.461   5.027   4.611  2.6245 -1.6704 -1.0664
 6264TIP3   OH218797   5.724   5.381   0.445  0.6091 -0.0175  0.3996
 6264TIP3    H118798   5.724   5.414   0.535 -0.8702  1.4186 -0.0832
 6264TIP3    H218799   5.636   5.349   0.430  0.7442  0.0399 -0.6347
 6265TIP3   OH218800   4.258   0.197   3.744  0.3226  0.1891 -0.2812
 6265TIP3    H118801   4.233   0.237   3.661 -1.1771 -1.0613 -0.4598
 6265TIP3    H218802   4.245   0.103   3.732  1.1518 -0.1312  1.0147
 6266TIP3   OH218803   4.018   4.908   2.734 -0.2526 -0.4987 -0.0612
 6266TIP3    H118804   3.929   4.896   2.767 -0.9166  0.8314 -1.2333
 6266TIP3    H218805   4.027   5.003   2.726  2.0233 -0.4564  1.9354
 6267TIP3   OH218806   0.464   4.917   3.372  1.1767 -0.3081  0.3245
 6267TIP3    H118807   0.470   4.838   3.426  2.9561 -0.7782 -0.4721
 6267TIP3    H218808   0.407   4.976   3.421 -1.4671 -2.6106  0.2594
 6268TIP3   OH218809   3.874   1.085   3.285  0.2972 -0.1466  0.4056
 6268TIP3    H118810   3.899   0.992   3.289  1.7775  0.1540 -0.7562
 6268TIP3    H218811   3.955   1.132   3.306  0.0210  0.8856 -0.7680
 6269TIP3   OH218812   0.520   3.880   3.132 -0.2051 -0.3310 -0.3933
 6269TIP3    H118813   0.556   3.908   3.048 -0.3117 -0.0173 -0.3353
 6269TIP3    H218814   0.547   3.948   3.193  0.8231 -1.1205  0.0546
 6270TIP3   OH218815   4.364   2.355   3.655 -0.5560 -0.0640 -0.3293
 6270TIP3    H118816   4.406   2.416   3.715 -1.5918 -0.2824  0.6492
 6270TIP3    H218817   4.280   2.396   3.633 -1.1570 -1.0073  0.1448
 6271TIP3   OH218818   4.367   2.490   0.239 -0.2325  0.2017 -0.3830
 6271TIP3    H118819   4.460   2.511   0.247  0.4641 -1.6002 -2.5861
 6271TIP3    H218820   4.336   2.543   0.166 -1.0176  0.9399  0.4649
 6272TIP3   OH218821   1.608   4.294   2.725  0.5332  0.0373  0.0613
 6272TIP3    H118822   1.590   4.201   2.737  0.5180 -0.4332 -2.8961
 6272TIP3    H218823   1.690   4.308   2.773 -0.8531 -0.7293  2.9382
 6273TIP3   OH218824   1.843   0.284   1.598  0.5179  0.3041  0.1214
 6273TIP3    H118825   1.780   0.309   1.530  1.4166  2.6465  0.0556
 6273TIP3    H218826   1.789   0.271   1.677 -0.4538 -1.7713 -0.7974
 6274TIP3   OH218827   0.748   4.817   1.933  0.1886  0.3611  0.1852
 6274TIP3    H118828   0.746   4.882   1.863 -1.0090 -0.9563 -1.0680
 6274TIP3    H218829   0.783   4.864   2.009  0.5929  2.0898 -1.0183
 6275TIP3   OH218830   1.834   0.638   2.952 -0.2145 -0.3000 -0.6624
 6275TIP3    H118831   1.913   0.585   2.962 -0.3656 -0.3823  0.2071
 6275TIP3    H218832   1.770   0.580   2.913 -0.0945 -0.4820 -0.5873
 6276TIP3   OH218833   3.646   1.664   0.752 -0.5801  0.3144 -0.4993
 6276TIP3    H118834   3.633   1.595   0.817  0.1508 -0.0578 -0.7327
 6276TIP3    H218835   3.600   1.740   0.787 -3.4060 -0.8890 -1.3037
 6277TIP3   OH218836   4.960   3.586   2.041  0.2672 -0.1558 -0.2023
 6277TIP3    H118837   4.963   3.559   2.133 -0.2903 -1.4329 -0.5351
 6277TIP3    H218838   4.902   3.522   1.999  1.9860 -0.7824 -1.8159
 6278TIP3   OH218839   0.765   2.119   2.205  0.1660 -0.1110 -0.4764
 6278TIP3    H118840   0.671   2.099   2.211 -0.2129  1.7524  0.5858
 6278TIP3    H218841   0.776   2.195   2.261  2.3698 -0.3782 -0.4895
 6279TIP3   OH218842   5.220   5.359   0.638  0.4055 -0.1214  0.5472
 6279TIP3    H118843   5.193   5.303   0.566 -0.1903 -1.4898  1.7772
 6279TIP3    H218844   5.297   5.406   0.605 -0.8308  0.5421 -1.5072
 6280TIP3   OH218845   2.525   3.335   1.344  0.7777  0.7187 -0.1258
 6280TIP3    H118846   2.504   3.426   1.324  0.8667  0.9271  0.6941
 6280TIP3    H218847   2.470   3.312   1.419 -0.6853 -0.5329 -1.5117
 6281TIP3   OH218848   5.574   5.195   2.153  0.2562  0.0703 -0.3824
 6281TIP3    H118849   5.657   5.197   2.105 -0.4236  1.9160 -1.5799
 6281TIP3    H218850   5.508   5.175   2.087 -0.2886 -1.5913  0.5935
 6282TIP3   OH218851   5.766   5.847   3.473  0.5490  0.1256  0.2407
 6282TIP3    H118852   5.781   5.939   3.452  0.3991  0.4126  1.3617
 6282TIP3    H218853   5.854   5.808   3.476  0.6533  0.3782  0.4470
 6283TIP3   OH218854   4.858   5.055   4.410  0.1016 -0.4372  0.0814
 6283TIP3    H118855   4.881   4.986   4.473 -0.2655 -0.4466  0.2059
 6283TIP3    H218856   4.783   5.099   4.448  1.3241  1.1228  0.8151
 6284TIP3   OH218857   3.717   2.722   3.534 -0.4735 -0.5364 -1.1651
 6284TIP3    H118858   3.633   2.676   3.533 -1.8987  1.7349  1.7600
 6284TIP3    H218859   3.774   2.665   3.586 -1.6777 -0.0106  0.8585
 6285TIP3   OH218860   1.689   4.427   0.617 -0.3967  0.3376  0.2035
 6285TIP3    H118861   1.777   4.397   0.643 -0.4521  0.8260  0.9703
 6285TIP3    H218862   1.676   4.508   0.666 -1.3629  0.1582  0.2481
 6286TIP3   OH218863   0.859   5.347   1.900 -0.0774  0.0760 -0.1289
 6286TIP3    H118864   0.782   5.327   1.953 -0.5653 -0.6102 -1.0738
 6286TIP3    H218865   0.916   5.271   1.910  0.4991  0.5885  0.5791
 6287TIP3   OH218866   1.390   5.645   0.318  0.0631  0.2213 -0.7832
 6287TIP3    H118867   1.355   5.684   0.238  0.0666  1.2842 -0.2814
 6287TIP3    H218868   1.312   5.626   0.371 -0.1610 -2.7648 -1.9772
 6288TIP3   OH218869   4.293   2.194   4.246  0.5675 -0.8660 -0.1146
 6288TIP3    H118870   4.362   2.128   4.237  0.0856 -1.1679 -2.0539
 6288TIP3    H218871   4.211   2.145   4.238  0.1742 -0.2032 -0.2353
 6289TIP3   OH218872   1.881   2.162   4.594  0.1988 -0.0439 -0.9691
 6289TIP3    H118873   1.863   2.248   4.557 -0.1105  0.6051  0.6076
 6289TIP3    H218874   1.907   2.179   4.684 -3.3966 -1.7446  0.6048
 6290TIP3   OH218875   6.103   3.918   3.962  0.6800  0.3303 -0.5723
 6290TIP3    H118876   6.148   3.900   4.045  0.3215 -0.0428 -0.4552
 6290TIP3    H218877   6.051   3.997   3.980 -0.0881 -0.2640 -0.1694
 6291TIP3   OH218878   5.350   0.657   3.232  0.0110  0.0823 -0.6624
 6291TIP3    H118879   5.327   0.565   3.247  0.3728  0.1579  0.4680
 6291TIP3    H218880   5.353   0.666   3.137  0.8667 -1.2976 -0.7921
 6292TIP3   OH218881   6.231   3.192   0.669  0.5815 -0.5643  0.5853
 6292TIP3    H118882   6.216   3.136   0.592 -1.2162  0.6162  0.0063
 6292TIP3    H218883   6.162   3.258   0.664  1.3897  0.4841  2.3797
 6293TIP3   OH218884   2.957   1.336   0.052 -0.2351 -0.2759  0.1769
 6293TIP3    H118885   2.872   1.293   0.054 -0.1585 -0.4338  0.0356
 6293TIP3    H218886   2.994   1.313  -0.034 -1.0206  1.6324 -0.7326
 6294TIP3   OH218887   0.233   1.958   3.094 -0.4373  0.4118 -0.0454
 6294TIP3    H118888   0.256   1.987   3.006  0.8895  1.4862  0.6059
 6294TIP3    H218889   0.266   2.028   3.151 -1.8505  0.0642  1.2623
 6295TIP3   OH218890   3.148   5.038   3.207 -0.3002  0.0683 -0.4237
 6295TIP3    H118891   3.076   5.102   3.203 -0.1437  0.5542  2.3741
 6295TIP3    H218892   3.116   4.970   3.266  0.1748 -1.6598 -2.0890
 6296TIP3   OH218893   3.851   0.249   4.463 -0.3300 -0.0807  0.0478
 6296TIP3    H118894   3.923   0.310   4.445  1.2033 -1.5842  0.8670
 6296TIP3    H218895   3.782   0.276   4.402  1.0665  1.1368 -1.0832
 6297TIP3   OH218896   2.073   1.875   3.202  0.2031  0.1635  0.7895
 6297TIP3    H118897   2.069   1.959   3.157 -0.1793  0.1017  0.7010
 6297TIP3    H218898   2.045   1.895   3.291  1.7449  0.4379  1.2412
 6298TIP3   OH218899   5.425   1.173   3.118 -0.1612  0.1130 -0.1752
 6298TIP3    H118900   5.362   1.146   3.184 -0.6605 -1.1761 -1.1338
 6298TIP3    H218901   5.470   1.092   3.094  1.5345  0.9150  0.1176
 6299TIP3   OH218902   1.551   3.115   2.610 -0.0144 -0.4652 -0.2769
 6299TIP3    H118903   1.544   3.160   2.526 -2.8359  0.2096  0.2344
 6299TIP3    H218904   1.533   3.183   2.675 -0.0951 -1.4511  0.7608
 6300TIP3   OH218905   0.642   1.640   4.325  0.2238 -0.2799 -0.0928
 6300TIP3    H118906   0.618   1.573   4.389 -2.3175  0.6110 -0.0013
 6300TIP3    H218907   0.633   1.723   4.373  0.5556  0.2753 -0.9704
 6301TIP3   OH218908   2.320   3.501   3.016  0.3283  0.0375  0.1943
 6301TIP3    H118909   2.405   3.468   3.045 -0.5208 -1.2412  1.3520
 6301TIP3    H218910   2.262   3.487   3.091 -0.4630  2.8623  0.2239
 6302TIP3   OH218911   4.556   3.949   0.824 -0.5915 -0.1451  0.4949
 6302TIP3    H118912   4.524   4.038   0.809  1.2000  0.4188 -0.2839
 6302TIP3    H218913   4.587   3.920   0.739  0.7832 -0.6746  1.1430
 6303TIP3   OH218914   2.795   4.223   4.537  0.0468 -0.0815  0.3550
 6303TIP3    H118915   2.723   4.272   4.499 -0.4399  0.1336  1.5084
 6303TIP3    H218916   2.754   4.145   4.575  0.2580  0.5081  1.8512
 6304TIP3   OH218917   1.576   1.105   0.207 -0.1187  0.0026 -0.2081
 6304TIP3    H118918   1.489   1.071   0.182  0.4822 -1.6107 -0.2249
 6304TIP3    H218919   1.557   1.184   0.257 -1.5910 -0.1102 -0.5348
 6305TIP3   OH218920   4.218   2.388   2.300  0.1317 -0.2753 -0.0507
 6305TIP3    H118921   4.186   2.399   2.211 -0.5859 -0.5033  0.1735
 6305TIP3    H218922   4.256   2.473   2.323 -0.5827  0.0913 -0.2170
 6306TIP3   OH218923   5.822   1.334   3.919 -0.0228  0.0556 -0.8933
 6306TIP3    H118924   5.808   1.423   3.888 -0.8733 -0.6764 -2.7612
 6306TIP3    H218925   5.748   1.284   3.885  0.0940 -1.2721  0.6436
 6307TIP3   OH218926   1.900   3.283   4.257 -0.0233  0.6384  0.4058
 6307TIP3    H118927   1.916   3.377   4.263  1.4231  0.4534 -0.0948
 6307TIP3    H218928   1.822   3.275   4.202  0.2306  1.5234 -0.0992
 6308TIP3   OH218929   4.628   0.789   2.355 -0.1398 -0.3447 -0.6424
 6308TIP3    H118930   4.566   0.861   2.364 -1.8717 -1.7429 -0.8558
 6308TIP3    H218931   4.659   0.795   2.265  2.0274  1.8426  0.1546
 6309TIP3   OH218932   4.985   5.406   2.082  0.1231  0.1064 -0.4543
 6309TIP3    H118933   5.075   5.416   2.051  0.0128 -0.2512 -0.9043
 6309TIP3    H218934   4.935   5.388   2.003 -0.3864  0.5725 -0.2374
 6310TIP3   OH218935   2.840   0.856   4.621 -0.3048 -0.2049 -0.3825
 6310TIP3    H118936   2.901   0.787   4.646 -2.2329 -1.9329 -0.1206
 6310TIP3    H218937   2.766   0.809   4.581 -2.0689  1.6142  0.5657
 6311TIP3   OH218938   3.654   2.380   3.490 -0.6214 -0.4385 -0.7980
 6311TIP3    H118939   3.678   2.378   3.582 -0.6454  1.6997 -0.6867
 6311TIP3    H218940   3.651   2.288   3.463  1.4517 -1.0222  0.7759
 6312TIP3   OH218941   1.291   3.846   4.478  0.4980  0.2125 -0.1916
 6312TIP3    H118942   1.259   3.869   4.565 -1.1594 -0.3076 -0.6193
 6312TIP3    H218943   1.255   3.913   4.421 -1.6828 -1.5011 -0.9824
 6313TIP3   OH218944   3.627   1.891   0.348  0.0468  0.7073  0.1621
 6313TIP3    H118945   3.555   1.929   0.298  1.1330  3.3050  0.3719
 6313TIP3    H218946   3.623   1.934   0.433  0.9602 -0.2035  0.6931
 6314TIP3   OH218947   2.368   2.128   4.535  0.0974 -0.5947  0.6139
 6314TIP3    H118948   2.369   2.222   4.517 -0.9756 -0.6084  0.4319
 6314TIP3    H218949   2.357   2.122   4.630  1.1583 -0.5471  0.7548
 6315TIP3   OH218950   2.331   2.309   0.812 -0.4342 -0.4574 -0.0688
 6315TIP3    H118951   2.389   2.238   0.785  0.8269  0.4694  0.1383
 6315TIP3    H218952   2.325   2.299   0.907 -1.0977 -0.9035 -0.1533
 6316TIP3   OH218953   1.262   5.164   5.170 -0.0659  0.0046 -0.3025
 6316TIP3    H118954   1.260   5.101   5.098 -3.0334  0.3701 -0.6478
 6316TIP3    H218955   1.313   5.120   5.239  1.8709 -0.8097 -2.1229
 6317TIP3   OH218956   3.312   2.463   0.302  0.4010 -0.2254  0.3019
 6317TIP3    H118957   3.234   2.485   0.352  1.6301  1.0028  1.8146
 6317TIP3    H218958   3.335   2.375   0.332  0.6564  0.1726  1.3440
 6318TIP3   OH218959   5.129   1.001   3.701  0.8290 -0.2680  0.0001
 6318TIP3    H118960   5.112   0.952   3.782  0.3459  0.6418  0.4611
 6318TIP3    H218961   5.110   0.938   3.631  2.7859 -1.5803  0.5741
 6319TIP3   OH218962   4.117   2.929   4.466 -0.5156 -0.0048  0.2434
 6319TIP3    H118963   4.111   3.023   4.482 -0.1975  0.1801 -0.6802
 6319TIP3    H218964   4.107   2.890   4.553 -2.5283  0.7849  0.4125
 6320TIP3   OH218965   2.668   3.110   0.914  0.3043  0.5748  0.0892
 6320TIP3    H118966   2.600   3.150   0.859  1.3086 -0.1921 -1.7903
 6320TIP3    H218967   2.746   3.163   0.899  0.9807 -0.5349 -0.4321
 6321TIP3   OH218968   0.163   2.082   4.197  0.4880 -0.1097  0.4054
 6321TIP3    H118969   0.252   2.048   4.205 -0.5729 -2.6348  2.9389
 6321TIP3    H218970   0.157   2.150   4.264  0.7564  0.8678 -0.5190
 6322TIP3   OH218971   5.339   5.938   2.156 -0.1199  0.1463 -0.3528
 6322TIP3    H118972   5.372   5.848   2.161 -0.9209 -0.3435 -2.4945
 6322TIP3    H218973   5.262   5.938   2.212  0.0638 -0.4180 -0.0854
 6323TIP3   OH218974   1.048   3.605   3.299 -0.4172  0.2286 -0.2836
 6323TIP3    H118975   1.012   3.517   3.313 -0.3533  0.0687 -1.0754
 6323TIP3    H218976   0.982   3.664   3.334 -0.6822 -0.1197 -0.1862
 6324TIP3   OH218977   4.822   0.263   0.579  0.8115 -0.1662  0.1642
 6324TIP3    H118978   4.908   0.272   0.537  0.0171  2.1050 -1.1445
 6324TIP3    H218979   4.811   0.345   0.627 -0.1453 -0.9344  1.2832
 6325TIP3   OH218980   4.988   5.941   3.955  0.1176  0.4232 -0.2342
 6325TIP3    H118981   5.007   5.908   3.867  0.4760  0.3447 -0.1311
 6325TIP3    H218982   4.961   6.032   3.942 -0.5873  0.1823 -0.4938
 6326TIP3   OH218983   2.825   3.647   0.427 -0.1783  0.2459  0.1929
 6326TIP3    H118984   2.747   3.701   0.431  0.9608  2.0229 -0.3051
 6326TIP3    H218985   2.881   3.690   0.362  2.4163  0.7524  2.5416
 6327TIP3   OH218986   4.550   1.192   1.009  0.0315 -0.0207 -0.2710
 6327TIP3    H118987   4.571   1.257   1.076  1.8142  0.0291 -0.8228
 6327TIP3    H218988   4.493   1.239   0.948 -0.0536  0.5079  0.2027
 6328TIP3   OH218989   4.426   5.888   0.781  0.0938  0.0353 -0.1978
 6328TIP3    H118990   4.432   5.938   0.699  1.4601 -0.5411 -0.4684
 6328TIP3    H218991   4.470   5.805   0.762 -1.1560 -0.8434  0.5874
 6329TIP3   OH218992   1.864   0.995   2.747  0.8054 -0.2663 -0.4519
 6329TIP3    H118993   1.780   1.038   2.767  0.4805 -0.2377 -1.7700
 6329TIP3    H218994   1.915   1.004   2.827 -0.2262  0.2706  0.1716
 6330TIP3   OH218995   2.110   3.370   1.889 -0.0971  0.0922  0.7300
 6330TIP3    H118996   2.140   3.457   1.863  0.1983 -0.3100 -0.3217
 6330TIP3    H218997   2.080   3.329   1.807  0.3657 -1.0266  1.0951
 6331TIP3   OH218998   5.002   5.109   1.350  0.1557 -0.0505 -0.2184
 6331TIP3    H118999   5.055   5.188   1.360  0.1305  0.2463 -2.0576
 6331TIP3    H219000   4.912   5.138   1.366  0.2762 -0.0332  0.4812
 6332TIP3   OH219001   5.630   2.622   4.461  0.4401 -0.1740 -0.4686
 6332TIP3    H119002   5.663   2.635   4.550 -0.8436  0.8257 -0.1106
 6332TIP3    H219003   5.663   2.697   4.412 -1.0453  0.7222 -0.1582
 6333TIP3   OH219004   0.898   2.453   2.554 -0.4327  0.0720 -0.1255
 6333TIP3    H119005   0.830   2.422   2.495 -0.1597 -1.8964  0.5152
 6333TIP3    H219006   0.980   2.433   2.509 -0.2480  0.3551  0.0822
 6334TIP3   OH219007   1.730   3.880   3.536 -0.6620  0.1034 -0.2913
 6334TIP3    H119008   1.657   3.941   3.526 -0.8029 -0.3955 -3.0245
 6334TIP3    H219009   1.800   3.916   3.482 -0.4116 -1.5938 -1.1649
 6335TIP3   OH219010   3.053   1.001   4.520  0.3656 -0.7349 -0.0999
 6335TIP3    H119011   2.983   0.937   4.529  0.5896 -0.8630  0.8439
 6335TIP3    H219012   3.011   1.086   4.532  0.2684 -0.7790 -0.1354
 6336TIP3   OH219013   2.828   4.269   3.579 -0.1190 -0.0510 -0.2890
 6336TIP3    H119014   2.782   4.233   3.504 -0.6090  0.1352 -0.0846
 6336TIP3    H219015   2.766   4.330   3.618  1.0371  1.8133 -1.2193
 6337TIP3   OH219016   0.892   1.369   1.576 -0.4803  0.4051  0.5476
 6337TIP3    H119017   0.904   1.377   1.482  0.7958  1.5658  0.7862
 6337TIP3    H219018   0.806   1.328   1.585 -0.3522 -0.3206 -1.1188
 6338TIP3   OH219019   0.751   5.586   2.276 -0.2301 -0.1891 -0.5043
 6338TIP3    H119020   0.838   5.578   2.236  0.2640 -1.1178  0.6944
 6338TIP3    H219021   0.757   5.535   2.357 -0.8350  2.5058  1.3748
 6339TIP3   OH219022   3.999   5.195   3.000 -0.2055 -0.3369 -0.0115
 6339TIP3    H119023   4.034   5.259   2.939 -1.2544  0.5779  0.3093
 6339TIP3    H219024   3.939   5.245   3.056 -0.7608 -1.5246  0.4954
 6340TIP3   OH219025   2.434   1.820   1.450  0.6455  0.0732  0.4871
 6340TIP3    H119026   2.397   1.739   1.415  1.0888 -0.1975  0.6338
 6340TIP3    H219027   2.361   1.881   1.452  0.5292 -0.0202 -0.5465
 6341TIP3   OH219028   5.619   4.567   3.063  0.3279 -0.0067 -0.4131
 6341TIP3    H119029   5.630   4.633   2.995 -0.7415 -0.3206 -0.9119
 6341TIP3    H219030   5.525   4.561   3.076  0.4049 -1.3203 -0.2728
 6342TIP3   OH219031   6.063   1.438   0.552  0.4951 -0.1511 -0.6104
 6342TIP3    H119032   6.026   1.375   0.614  3.1145  1.5286  3.0179
 6342TIP3    H219033   6.129   1.389   0.504  1.9906 -0.4745  1.6521
 6343TIP3   OH219034   4.651   3.929   2.420  0.1373  0.1516  0.3403
 6343TIP3    H119035   4.631   3.845   2.379 -3.6998  1.8183 -1.8044
 6343TIP3    H219036   4.589   3.935   2.493 -0.9044  1.6840 -0.5895
 6344TIP3   OH219037   5.813   1.973   2.161  0.0729  0.3954  0.4025
 6344TIP3    H119038   5.777   2.030   2.229  0.5055  0.6638  0.4074
 6344TIP3    H219039   5.802   1.884   2.196 -0.5392  0.4778  0.4227
 6345TIP3   OH219040   6.345   2.287   2.895  0.2148  0.0897 -0.1252
 6345TIP3    H119041   6.262   2.311   2.852 -1.0277 -2.0772  0.9314
 6345TIP3    H219042   6.342   2.332   2.979 -0.4754 -0.8899  0.3958
 6346TIP3   OH219043   0.158   3.477   4.968  0.4845  0.5013 -0.4400
 6346TIP3    H119044   0.208   3.456   4.889  0.5170  1.7220 -0.7628
 6346TIP3    H219045   0.085   3.531   4.937  0.1421  0.4644  0.2834
 6347TIP3   OH219046   2.966   1.088   4.825  0.8562  0.1746  0.5391
 6347TIP3    H119047   3.055   1.085   4.789  1.7610 -2.5919  2.6342
 6347TIP3    H219048   2.917   1.023   4.774 -0.0140  1.6259 -0.5503
 6348TIP3   OH219049   1.855   4.338   2.853  0.7528 -0.0508 -0.7251
 6348TIP3    H119050   1.898   4.421   2.837  1.1304 -0.2354 -0.6859
 6348TIP3    H219051   1.862   4.325   2.948  0.5098 -0.0262 -0.7036
 6349TIP3   OH219052   5.057   3.280   4.036  0.0944  0.2980 -0.5924
 6349TIP3    H119053   5.106   3.223   4.096  1.7256  1.0344 -1.1728
 6349TIP3    H219054   5.073   3.243   3.949 -1.2164 -0.0164 -0.7191
 6350TIP3   OH219055   0.013   3.418   4.116 -0.7457  0.2587 -0.1555
 6350TIP3    H119056   0.025   3.324   4.102 -0.3377  0.5155 -1.7485
 6350TIP3    H219057   0.063   3.436   4.196 -0.4987 -0.8050 -0.0469
 6351TIP3   OH219058   5.151   3.946   2.262  0.2187 -0.0114  0.2656
 6351TIP3    H119059   5.147   3.860   2.302  1.1033 -0.5737 -0.7689
 6351TIP3    H219060   5.067   3.987   2.281 -0.9005 -1.7798 -0.6965
 6352TIP3   OH219061   4.375   2.465   4.805 -0.4705  0.3971 -0.2988
 6352TIP3    H119062   4.296   2.476   4.858  1.7682  0.2179  3.3864
 6352TIP3    H219063   4.439   2.526   4.843  2.2894 -2.0697 -0.5969
 6353TIP3   OH219064   2.626   2.701   0.726  0.5617 -0.1509 -0.0911
 6353TIP3    H119065   2.577   2.675   0.804 -0.9067  1.3669 -0.4310
 6353TIP3    H219066   2.584   2.783   0.699 -0.0525 -1.4235 -3.3958
 6354TIP3   OH219067   5.737   1.723   2.305  0.7129 -0.5048 -0.3800
 6354TIP3    H119068   5.819   1.719   2.355 -0.4841  1.3862  1.9834
 6354TIP3    H219069   5.686   1.649   2.337  0.0345  0.5799  1.2180
 6355TIP3   OH219070   5.999   0.266   1.900 -0.1392 -0.2405  0.0783
 6355TIP3    H119071   6.064   0.226   1.841 -0.6836  1.2750 -1.6652
 6355TIP3    H219072   5.925   0.206   1.900 -0.0230 -0.3927 -0.6140
 6356TIP3   OH219073   1.934   3.502   2.954  0.8703  0.1809  0.7875
 6356TIP3    H119074   1.840   3.512   2.970  0.8246  0.7859  0.1779
 6356TIP3    H219075   1.955   3.416   2.990  0.2261  0.3336  1.5607
 6357TIP3   OH219076   2.936   5.569   1.607  0.1141 -0.6316  0.2145
 6357TIP3    H119077   2.886   5.496   1.571  0.5503 -0.8158 -0.0293
 6357TIP3    H219078   3.003   5.528   1.663 -0.0180 -0.3885  0.5556
 6358TIP3   OH219079   2.089   4.824   2.584  0.0993 -0.1959 -0.2054
 6358TIP3    H119080   2.010   4.810   2.533  1.7987  0.4769 -3.3176
 6358TIP3    H219081   2.152   4.860   2.521  1.7909  2.8924  2.8550
 6359TIP3   OH219082   4.599   3.730   2.177 -0.5125 -0.0848  0.1188
 6359TIP3    H119083   4.506   3.740   2.157 -0.3895  2.0852  0.3264
 6359TIP3    H219084   4.634   3.676   2.106 -1.4412  1.3770 -1.5328
 6360TIP3   OH219085   1.857   1.080   0.791  0.0123  0.0445  0.4541
 6360TIP3    H119086   1.827   1.162   0.751  1.1855 -0.5103 -1.7157
 6360TIP3    H219087   1.937   1.104   0.838  1.1692 -0.0121 -1.3643
 6361TIP3   OH219088   4.126   4.068   0.766  0.5362  0.3352 -0.2956
 6361TIP3    H119089   4.154   4.142   0.712  0.8463 -0.0485 -0.6642
 6361TIP3    H219090   4.030   4.071   0.763  0.3440  2.9377  2.6840
 6362TIP3   OH219091   2.938   2.355   2.690  0.3918 -0.0226  0.0317
 6362TIP3    H119092   2.982   2.405   2.760  1.3815  0.9396 -1.2374
 6362TIP3    H219093   2.914   2.420   2.625 -0.2005 -0.9529 -0.7046
 6363TIP3   OH219094   1.147   1.484   1.410 -0.0570 -0.0222 -0.2488
 6363TIP3    H119095   1.127   1.534   1.489 -1.9247  2.2516 -2.0137
 6363TIP3    H219096   1.211   1.419   1.439  1.0969  2.1406  2.6387
 6364TIP3   OH219097   6.254   1.942   1.505  0.2826  0.1175  0.8720
 6364TIP3    H119098   6.176   1.896   1.534 -0.0398  0.5253  0.6552
 6364TIP3    H219099   6.300   1.965   1.586 -0.1742  0.4914  1.0229
 6365TIP3   OH219100   1.106   2.887   3.892 -0.0762  0.6580  0.1190
 6365TIP3    H119101   1.168   2.929   3.952 -1.1494  2.1635  0.2250
 6365TIP3    H219102   1.072   2.813   3.941  0.1337  1.0185  0.8272
 6366TIP3   OH219103   4.514   1.366   3.502 -0.6151  0.2568  0.5982
 6366TIP3    H119104   4.454   1.403   3.567 -1.2558  1.0809 -0.4365
 6366TIP3    H219105   4.548   1.441   3.454 -1.8829 -0.4101 -1.4931
 6367TIP3   OH219106   3.825   5.005   3.929  0.0778 -0.1496 -0.4473
 6367TIP3    H119107   3.867   5.028   3.847 -0.1307  2.5966  0.1292
 6367TIP3    H219108   3.897   4.972   3.984  1.0503  1.8916 -0.3974
 6368TIP3   OH219109   5.625   4.774   4.996 -0.4359  0.1812 -0.0780
 6368TIP3    H119110   5.576   4.850   4.965  1.6035  1.2725 -0.8713
 6368TIP3    H219111   5.661   4.735   4.916  2.2830  1.1434  0.5618
 6369TIP3   OH219112   4.265   3.926   4.480 -0.9203 -0.2835  0.0487
 6369TIP3    H119113   4.197   3.934   4.548 -0.9557  2.6207 -0.1780
 6369TIP3    H219114   4.347   3.937   4.528 -0.9929  3.4939 -0.3589
 6370TIP3   OH219115   3.281   1.260   5.074  0.1728  0.1992  0.3514
 6370TIP3    H119116   3.255   1.309   5.152 -1.5254 -0.2224  0.0804
 6370TIP3    H219117   3.344   1.195   5.107  0.4024  0.8058  1.1443
 6371TIP3   OH219118   0.391   5.070   0.706  0.2707  0.5664 -0.1239
 6371TIP3    H119119   0.447   5.096   0.634  2.5389  1.7643  1.9129
 6371TIP3    H219120   0.412   4.978   0.721 -1.0744 -0.0343 -1.6337
 6372TIP3   OH219121   0.285   0.478   3.247 -0.5557  0.2480 -0.2510
 6372TIP3    H119122   0.345   0.550   3.228 -0.4443 -0.4419 -2.7494
 6372TIP3    H219123   0.336   0.418   3.300 -0.4064  1.5767  1.2007
 6373TIP3   OH219124   2.152   4.711   0.262  0.5513  0.0617 -0.9448
 6373TIP3    H119125   2.100   4.664   0.327  0.3055  1.1429 -0.3275
 6373TIP3    H219126   2.221   4.649   0.238  0.5610 -0.4269  0.2390
 6374TIP3   OH219127   5.276   5.406   4.149 -0.5852 -0.3062 -0.3514
 6374TIP3    H119128   5.359   5.418   4.197 -0.5633  1.5582 -0.7512
 6374TIP3    H219129   5.246   5.496   4.132 -1.0068 -0.9021 -3.1296
 6375TIP3   OH219130   2.158   0.885   3.194  0.1013  0.6108  0.0128
 6375TIP3    H119131   2.192   0.796   3.207  0.2418  0.5477 -0.7566
 6375TIP3    H219132   2.227   0.931   3.147  1.6458  2.2773  3.5785
 6376TIP3   OH219133   5.089   0.680   0.543 -0.1585 -0.4583  0.4734
 6376TIP3    H119134   5.013   0.633   0.507 -0.8992  1.0380 -0.0176
 6376TIP3    H219135   5.088   0.765   0.498  2.2590 -0.6633 -0.0908
 6377TIP3   OH219136   4.700   5.176   3.263 -0.4722  0.0940 -0.3529
 6377TIP3    H119137   4.646   5.236   3.212  0.5348  1.1222 -0.2656
 6377TIP3    H219138   4.788   5.215   3.260  0.4783 -1.9699 -1.2264
 6378TIP3   OH219139   5.328   0.158   0.832  0.3186  1.1324  0.0636
 6378TIP3    H119140   5.259   0.131   0.892 -0.4238 -0.7169 -1.4943
 6378TIP3    H219141   5.363   0.239   0.869 -1.1333  0.8916  2.1069
 6379TIP3   OH219142   1.375   1.790   4.140 -0.4768 -0.3151  0.2538
 6379TIP3    H119143   1.464   1.785   4.175  0.2645  1.7024 -1.1826
 6379TIP3    H219144   1.335   1.863   4.188 -1.0055 -0.5124  0.1189
 6380TIP3   OH219145   0.215   4.641   2.756  0.3095  0.0588  0.0709
 6380TIP3    H119146   0.245   4.722   2.715  0.4973  0.9884  1.9694
 6380TIP3    H219147   0.288   4.614   2.812 -0.9060  0.3152  1.8564
 6381TIP3   OH219148   5.870   0.692   0.604  0.1102 -0.1457 -0.0434
 6381TIP3    H119149   5.825   0.669   0.523 -1.0091 -0.6638  0.7044
 6381TIP3    H219150   5.846   0.784   0.619 -0.5424 -0.3569  0.2400
 6382TIP3   OH219151   5.164   1.455   4.944  0.0476  0.8573 -0.3930
 6382TIP3    H119152   5.220   1.527   4.917  1.4445  0.2597  0.7985
 6382TIP3    H219153   5.214   1.376   4.922 -1.2949  0.2191 -1.3455
 6383TIP3   OH219154   1.229   0.815   4.698 -0.2003  0.4234 -0.0205
 6383TIP3    H119155   1.201   0.905   4.715 -0.2490  0.2711  0.7229
 6383TIP3    H219156   1.309   0.804   4.749 -0.3137 -0.0221  0.0700
 6384TIP3   OH219157   4.181   2.004   3.846 -0.6000  0.4785 -0.1260
 6384TIP3    H119158   4.267   1.963   3.853 -0.3142  1.0660 -0.1778
 6384TIP3    H219159   4.137   1.954   3.777 -0.2613  0.2533 -0.1846
 6385TIP3   OH219160   2.730   5.689   3.223  0.1558  0.1024 -0.4831
 6385TIP3    H119161   2.800   5.632   3.193  1.9607  2.8674 -1.9029
 6385TIP3    H219162   2.771   5.745   3.289 -0.9517  1.1516 -0.6529
 6386TIP3   OH219163   6.348   1.581   4.376 -0.0347  0.0631  0.2491
 6386TIP3    H119164   6.335   1.607   4.285  0.5081  0.6451  0.3272
 6386TIP3    H219165   6.263   1.592   4.417 -0.1129  0.4821 -0.0243
 6387TIP3   OH219166   4.219   4.437   1.310 -0.1649  0.3743  0.4985
 6387TIP3    H119167   4.311   4.462   1.298 -0.2532  0.8807  0.8637
 6387TIP3    H219168   4.170   4.518   1.298 -0.4900  0.2925  1.2284
 6388TIP3   OH219169   3.268   1.130   4.809  0.6000 -0.4895  0.7552
 6388TIP3    H119170   3.276   1.164   4.899 -0.0525  0.7248  0.3787
 6388TIP3    H219171   3.348   1.079   4.796  1.4167  0.5373  1.5360
 6389TIP3   OH219172   5.173   1.563   0.682 -0.0131 -0.1330 -0.1520
 6389TIP3    H119173   5.243   1.624   0.662  1.0392 -0.5937  1.8618
 6389TIP3    H219174   5.099   1.619   0.705  0.5478  0.3866  0.4201
 6390TIP3   OH219175   4.549   0.439   3.195 -1.0303  0.2137  0.3444
 6390TIP3    H119176   4.633   0.484   3.184 -1.1804  0.7963  1.3870
 6390TIP3    H219177   4.528   0.405   3.108  0.6297 -0.5699  0.2044
 6391TIP3   OH219178   4.518   2.180   0.703 -0.2626  0.4457  0.3905
 6391TIP3    H119179   4.610   2.157   0.715 -0.5003  0.0621  1.6713
 6391TIP3    H219180   4.491   2.133   0.625 -0.0432 -1.5878  1.4840
 6392TIP3   OH219181   4.205   4.929   4.843 -0.5019 -0.2904  0.4904
 6392TIP3    H119182   4.296   4.945   4.867 -0.2047 -1.3968  0.1306
 6392TIP3    H219183   4.190   4.837   4.862 -1.3702 -0.2706 -0.0220
 6393TIP3   OH219184   4.840   3.215   2.905 -0.1685 -0.1297  0.1761
 6393TIP3    H119185   4.844   3.199   2.810  2.8461 -1.1031  0.3681
 6393TIP3    H219186   4.900   3.288   2.919 -0.4944 -0.0757  1.3464
 6394TIP3   OH219187   3.610   0.676   3.232  0.0647 -0.1929  0.4233
 6394TIP3    H119188   3.640   0.585   3.237  0.1661 -0.1013  1.8820
 6394TIP3    H219189   3.556   0.688   3.310  1.0355  1.3286  0.9167
 6395TIP3   OH219190   2.738   1.005   3.372 -0.4018 -0.4111 -0.5174
 6395TIP3    H119191   2.748   0.911   3.391  3.1605 -0.2778 -1.1964
 6395TIP3    H219192   2.805   1.048   3.424 -1.8145  1.8241 -0.3885
 6396TIP3   OH219193   2.712   2.167   1.646 -0.0897  0.6560 -0.2126
 6396TIP3    H119194   2.662   2.103   1.696 -0.0206 -0.1833 -1.1787
 6396TIP3    H219195   2.678   2.252   1.673 -1.3640  0.1382 -0.1541
 6397TIP3   OH219196   0.142   4.597   3.934  0.0012 -0.1220  0.1470
 6397TIP3    H119197   0.122   4.526   3.994 -0.4667 -1.9251 -2.0272
 6397TIP3    H219198   0.068   4.657   3.942 -0.2669 -0.5516  0.9911
 6398TIP3   OH219199   2.605   5.314   2.281  0.8325 -0.1517  0.0090
 6398TIP3    H119200   2.661   5.305   2.203 -0.2924  0.8908 -0.9530
 6398TIP3    H219201   2.636   5.395   2.322  0.5748 -0.0148 -0.0686
 6399TIP3   OH219202   4.706   3.314   3.591 -0.2893 -0.3815  0.1278
 6399TIP3    H119203   4.738   3.355   3.671  0.3243  0.3668 -0.4861
 6399TIP3    H219204   4.612   3.303   3.606 -0.7965  2.5978 -0.2130
 6400TIP3   OH219205   5.934   2.189   3.462 -0.2768 -0.3115 -0.1718
 6400TIP3    H119206   5.922   2.139   3.543 -1.9534 -2.2304 -1.5045
 6400TIP3    H219207   5.955   2.123   3.396 -0.6339  0.9880 -1.6393
 6401TIP3   OH219208   3.360   4.889   5.202 -0.1460 -0.0441 -0.3431
 6401TIP3    H119209   3.308   4.826   5.151 -1.0905 -0.3727  0.9666
 6401TIP3    H219210   3.299   4.961   5.219  0.0426 -0.0921  0.5779
 6402TIP3   OH219211   0.811   5.413   3.777  0.8371  0.0104  0.2092
 6402TIP3    H119212   0.851   5.489   3.819  0.6246  0.1935  0.0829
 6402TIP3    H219213   0.782   5.358   3.850  0.5280  0.2970  0.3080
 6403TIP3   OH219214   0.004   0.650   1.467  0.3244  0.5389  0.0514
 6403TIP3    H119215   0.017   0.734   1.510  1.6954  0.2504  0.2284
 6403TIP3    H219216   0.063   0.590   1.512 -0.1810 -0.3888 -0.4783
 6404TIP3   OH219217   4.592   2.385   5.089 -0.0776 -1.0825  0.0114
 6404TIP3    H119218   4.602   2.313   5.026 -0.1292 -0.1859 -1.0409
 6404TIP3    H219219   4.661   2.447   5.066 -1.8675  0.6139 -1.0619
 6405TIP3   OH219220   2.194   4.875   2.290  0.2902  0.0277  0.1323
 6405TIP3    H119221   2.118   4.853   2.237  2.6975 -1.2087 -3.1792
 6405TIP3    H219222   2.203   4.970   2.281 -1.2857  0.3293  1.3344
 6406TIP3   OH219223   4.396   2.523   1.882 -0.4945  0.3447  0.0505
 6406TIP3    H119224   4.417   2.452   1.942  0.0871  0.0970 -0.4309
 6406TIP3    H219225   4.438   2.600   1.920  0.0371  0.1491 -0.1302
 6407TIP3   OH219226   2.149   5.699   4.325 -0.1424 -0.0763  0.2970
 6407TIP3    H119227   2.208   5.735   4.259  1.4172  0.6606  2.0216
 6407TIP3    H219228   2.192   5.619   4.355 -1.4860 -1.1250 -0.4509
 6408TIP3   OH219229   6.169   1.447   3.758  0.2075 -0.1406  0.2973
 6408TIP3    H119230   6.198   1.438   3.848 -1.0644  0.4647  0.7916
 6408TIP3    H219231   6.078   1.478   3.764 -0.3341 -1.2610 -1.1708
 6409TIP3   OH219232   0.123   4.993   4.889 -0.4151 -0.4642  0.1813
 6409TIP3    H119233   0.054   4.936   4.921 -0.4161 -0.0622  0.9346
 6409TIP3    H219234   0.191   4.987   4.956 -0.3054  0.2087  0.1370
 6410TIP3   OH219235   0.444   0.673   3.168  0.5261  0.4650  0.1438
 6410TIP3    H119236   0.377   0.737   3.190  0.8430 -0.0050  2.7613
 6410TIP3    H219237   0.511   0.724   3.122 -0.3884  1.4723 -0.1115
 6411TIP3   OH219238   4.377   1.179   4.917 -0.1420 -0.4401  0.2199
 6411TIP3    H119239   4.302   1.236   4.896 -0.8887 -1.5445 -0.2134
 6411TIP3    H219240   4.354   1.140   5.001  1.1368  1.1252  1.3452
 6412TIP3   OH219241   0.315   4.945   1.541 -0.7643  0.5431 -0.1243
 6412TIP3    H119242   0.277   5.029   1.567 -2.2968  0.0882 -0.8023
 6412TIP3    H219243   0.329   4.899   1.623 -0.9503  1.0207  0.1833
 6413TIP3   OH219244   0.190   5.583   4.636 -0.0513  0.5802 -0.1614
 6413TIP3    H119245   0.125   5.515   4.655  0.3892  0.0156 -0.6199
 6413TIP3    H219246   0.243   5.546   4.566 -1.0431  2.2208 -1.8743
 6414TIP3   OH219247   3.255   5.258   2.152 -0.3167 -0.4455 -0.3368
 6414TIP3    H119248   3.310   5.309   2.212 -0.9532 -0.4514  0.2600
 6414TIP3    H219249   3.230   5.181   2.203  0.8487 -1.5239 -1.3091
 6415TIP3   OH219250   0.329   0.649   1.047  0.6257 -0.8663 -0.3050
 6415TIP3    H119251   0.280   0.731   1.042  1.8540 -0.1459 -0.8384
 6415TIP3    H219252   0.264   0.581   1.025 -0.5333 -0.1243  0.6578
 6416TIP3   OH219253   3.434   0.466   1.388  0.0775 -0.6175  0.0841
 6416TIP3    H119254   3.422   0.559   1.407 -1.8757 -0.7573 -0.2988
 6416TIP3    H219255   3.529   0.456   1.381  0.3014  1.9228 -2.6798
 6417TIP3   OH219256   0.882   5.909   5.155  0.2376 -0.3255  0.3597
 6417TIP3    H119257   0.811   5.949   5.205 -0.1673 -0.6320  0.0399
 6417TIP3    H219258   0.853   5.818   5.140  1.1628 -0.7610  1.1211
 6418TIP3   OH219259   1.643   1.894   4.174 -0.3522  0.0449 -0.2535
 6418TIP3    H119260   1.697   1.935   4.106  1.0688  1.2197  1.4748
 6418TIP3    H219261   1.651   1.954   4.249 -1.9241 -1.1504  0.9235
 6419TIP3   OH219262   0.734   2.364   2.358  0.1534 -0.0526 -0.2147
 6419TIP3    H119263   0.652   2.401   2.324  0.5040 -0.0594 -1.1017
 6419TIP3    H219264   0.799   2.389   2.293  1.2237  1.5331  1.3820
 6420TIP3   OH219265   3.628   4.294   2.777 -0.4725  0.2740 -0.2909
 6420TIP3    H119266   3.627   4.360   2.708  1.4661  1.1384  0.4313
 6420TIP3    H219267   3.538   4.290   2.808 -1.0589  0.9816 -1.8238
 6421TIP3   OH219268   5.922   5.906   3.025  0.2138 -0.1648  0.2407
 6421TIP3    H119269   5.990   5.840   3.007  0.6117 -0.4169  2.4336
 6421TIP3    H219270   5.953   5.951   3.103 -0.3525  2.2770 -0.8455
 6422TIP3   OH219271   2.893   5.002   0.689  0.4431 -0.2233 -0.2929
 6422TIP3    H119272   2.807   4.960   0.695  0.3815 -0.0737 -0.1110
 6422TIP3    H219273   2.919   5.014   0.781  1.3200 -1.6233 -0.3214
 6423TIP3   OH219274   4.252   0.712   4.188 -0.1682  0.0667 -0.3164
 6423TIP3    H119275   4.315   0.656   4.233 -0.1599  1.0849  0.9918
 6423TIP3    H219276   4.205   0.653   4.129  1.6005 -0.8144 -0.9160
 6424TIP3   OH219277   3.830   1.206   1.924 -0.0882 -0.5441 -0.3885
 6424TIP3    H119278   3.849   1.156   1.844  1.7938 -1.3216  0.4795
 6424TIP3    H219279   3.904   1.187   1.982 -0.8503  0.8857  1.1307
 6425TIP3   OH219280   2.754   5.193   4.405  0.0674 -0.0811 -0.1444
 6425TIP3    H119281   2.796   5.111   4.433  0.0855 -0.1690 -0.4291
 6425TIP3    H219282   2.785   5.258   4.468 -0.1501 -0.3418  0.2446
 6426TIP3   OH219283   3.438   4.998   0.266 -0.5884 -0.3400  0.4751
 6426TIP3    H119284   3.435   4.959   0.179  0.7043  2.2889 -0.8779
 6426TIP3    H219285   3.348   5.028   0.282 -1.1954 -2.1899  0.8092
 6427TIP3   OH219286   2.703   5.895   2.685  0.5129 -0.0632  0.0632
 6427TIP3    H119287   2.719   5.940   2.602 -2.0941  0.5169 -0.2223
 6427TIP3    H219288   2.665   5.811   2.661  0.9893 -0.4679  0.6712
 6428TIP3   OH219289   4.520   4.337   4.366  0.2016 -0.0348 -0.0688
 6428TIP3    H119290   4.564   4.317   4.283 -1.7283 -0.5291 -1.0238
 6428TIP3    H219291   4.464   4.262   4.383  0.7022 -0.0250  1.8220
 6429TIP3   OH219292   5.935   2.829   3.386  0.6442 -0.2706 -0.2051
 6429TIP3    H119293   5.843   2.846   3.365  0.6679 -2.3622 -2.3030
 6429TIP3    H219294   5.948   2.736   3.367  2.7163 -0.5314  1.9992
 6430TIP3   OH219295   1.349   1.848   1.776  0.0501 -0.5792 -0.2180
 6430TIP3    H119296   1.277   1.845   1.713  0.6665 -0.3598 -0.9450
 6430TIP3    H219297   1.328   1.923   1.832 -0.4525 -0.7178 -0.2140
 6431TIP3   OH219298   0.621   5.875   4.206 -0.6398  0.5144  0.7408
 6431TIP3    H119299   0.631   5.956   4.256  1.9609  0.1632  0.9533
 6431TIP3    H219300   0.539   5.838   4.237 -0.7290  1.9263  2.3629
 6432TIP3   OH219301   2.556   1.210   3.476  0.6812 -0.4354 -0.2510
 6432TIP3    H119302   2.537   1.249   3.391 -0.3348 -1.3325 -0.4539
 6432TIP3    H219303   2.632   1.154   3.460  1.4284  0.5222 -0.2095
 6433TIP3   OH219304   0.182   3.329   3.791  0.4529  0.1011  0.4217
 6433TIP3    H119305   0.215   3.395   3.731  0.6640  0.4622  0.9283
 6433TIP3    H219306   0.191   3.369   3.878  0.9722 -0.7533  0.7685
 6434TIP3   OH219307   5.729   5.645   1.859 -0.0764  0.2443 -0.3240
 6434TIP3    H119308   5.760   5.697   1.934  0.8317  0.7929 -1.0490
 6434TIP3    H219309   5.638   5.672   1.848 -0.0494  0.5922  0.2321
 6435TIP3   OH219310   2.554   3.407   2.097  0.4025 -0.3355 -0.4730
 6435TIP3    H119311   2.567   3.421   2.004  1.4007  0.6882 -0.2139
 6435TIP3    H219312   2.476   3.458   2.119  0.4912 -0.1213 -0.6518
 6436TIP3   OH219313   2.620   5.013   2.437  0.3841  1.2147  0.0245
 6436TIP3    H119314   2.704   5.013   2.391  1.2894  0.3349  1.5914
 6436TIP3    H219315   2.614   4.926   2.477 -2.0040  0.6970 -1.2814
 6437TIP3   OH219316   2.643   2.925   4.510  0.5501  0.3605  0.3030
 6437TIP3    H119317   2.686   3.005   4.482 -0.4561  0.8191  0.0048
 6437TIP3    H219318   2.713   2.870   4.544  1.5245  0.6261 -1.1919
 6438TIP3   OH219319   2.140   5.679   0.406  0.1057 -0.9484  0.5092
 6438TIP3    H119320   2.164   5.768   0.379 -3.9072  0.7011  1.5886
 6438TIP3    H219321   2.079   5.649   0.339 -0.6188 -1.7941  1.5094
 6439TIP3   OH219322   5.221   5.974   2.460  0.0365  0.2946 -0.6475
 6439TIP3    H119323   5.263   6.014   2.536  0.1399 -0.9171 -0.0344
 6439TIP3    H219324   5.273   5.895   2.443 -0.7642 -0.1379 -1.1581
 6440TIP3   OH219325   5.443   3.203   3.131 -0.0217 -0.3024  0.0408
 6440TIP3    H119326   5.372   3.139   3.137  0.3394 -0.8564 -1.2604
 6440TIP3    H219327   5.499   3.170   3.061  1.0995  0.5488  0.5008
 6441TIP3   OH219328   4.601   1.104   1.638  0.5916  0.0125 -0.3725
 6441TIP3    H119329   4.527   1.090   1.579  1.1996 -0.1406 -1.1148
 6441TIP3    H219330   4.616   1.198   1.635  1.3250 -0.1156 -1.3601
 6442TIP3   OH219331   2.992   4.298   3.859 -0.1617 -0.1776  0.2656
 6442TIP3    H119332   2.992   4.390   3.885 -0.5697  0.2989 -1.3066
 6442TIP3    H219333   2.901   4.270   3.866 -0.0459 -0.4665  0.6989
 6443TIP3   OH219334   2.414   3.848   1.748 -0.4150 -0.0415  0.0735
 6443TIP3    H119335   2.487   3.838   1.687 -0.3300 -1.8686  0.4128
 6443TIP3    H219336   2.363   3.921   1.713  0.7214  0.2540 -1.0337
 6444TIP3   OH219337   5.179   0.409   1.396  0.3980  0.5379 -0.6422
 6444TIP3    H119338   5.234   0.463   1.453  0.2767  3.3230 -2.9428
 6444TIP3    H219339   5.191   0.447   1.309 -4.3338  0.6767 -1.4558
 6445TIP3   OH219340   5.278   0.139   3.609  0.1649 -0.4975 -0.2954
 6445TIP3    H119341   5.298   0.147   3.516 -2.4328  1.3852 -0.8130
 6445TIP3    H219342   5.232   0.055   3.617  0.2362 -0.5821 -0.7631
 6446TIP3   OH219343   0.787   0.785   0.273 -0.3114 -0.1335 -0.5159
 6446TIP3    H119344   0.823   0.773   0.361  0.1217 -1.4305 -0.8405
 6446TIP3    H219345   0.709   0.729   0.271 -0.4627  0.0869 -0.8725
 6447TIP3   OH219346   0.498   5.364   2.708 -0.1873  0.2562  0.2699
 6447TIP3    H119347   0.424   5.424   2.722 -0.6034 -0.5043  1.4584
 6447TIP3    H219348   0.516   5.328   2.794  0.9999 -0.2607 -0.1738
 6448TIP3   OH219349   1.468   5.192   3.739  0.4669  0.6412 -0.1955
 6448TIP3    H119350   1.543   5.134   3.727  0.9274  1.2449 -0.2608
 6448TIP3    H219351   1.408   5.142   3.794  1.0780  0.2963  0.1730
 6449TIP3   OH219352   1.585   0.821   1.535  0.1966 -0.2967  0.2120
 6449TIP3    H119353   1.573   0.886   1.603  0.3487  0.1481 -0.1800
 6449TIP3    H219354   1.496   0.800   1.506  0.0045 -1.8163  1.7555
 6450TIP3   OH219355   5.129   0.185   5.145  0.0818  0.5103  0.1295
 6450TIP3    H119356   5.073   0.261   5.130 -0.3661  0.0488 -0.6283
 6450TIP3    H219357   5.193   0.187   5.074 -0.2574 -0.0963 -0.2061
 6451TIP3   OH219358   1.313   3.773   0.490 -0.1943 -0.6351  0.4775
 6451TIP3    H119359   1.368   3.850   0.507 -0.4468 -0.5786  1.0588
 6451TIP3    H219360   1.370   3.714   0.441 -0.3696  0.4074 -1.0338
 6452TIP3   OH219361   0.213   1.692   3.315 -0.2150 -0.1246 -0.1676
 6452TIP3    H119362   0.193   1.785   3.329 -1.5017 -0.4792  0.5493
 6452TIP3    H219363   0.216   1.655   3.403  3.3443 -0.2365 -0.1960
 6453TIP3   OH219364   2.262   5.866   0.107  0.1229  0.1874  0.0492
 6453TIP3    H119365   2.294   5.789   0.060 -2.1442  0.7402 -2.6482
 6453TIP3    H219366   2.338   5.925   0.112  0.9121 -0.6699 -1.2886
 6454TIP3   OH219367   4.550   2.376   4.193  0.5022 -0.0940  0.4391
 6454TIP3    H119368   4.617   2.323   4.149  0.6303  0.6568 -0.2988
 6454TIP3    H219369   4.528   2.444   4.130  0.6611  0.9981  1.5295
 6455TIP3   OH219370   2.249   4.841   3.628 -0.2683  0.0662  0.0451
 6455TIP3    H119371   2.157   4.867   3.618 -0.5492 -1.4163 -1.9858
 6455TIP3    H219372   2.263   4.776   3.559  1.4821 -2.0075  2.1817
 6456TIP3   OH219373   0.200   0.068   3.267 -0.1033  0.2142  0.0423
 6456TIP3    H119374   0.157   0.078   3.182 -1.0353  0.3782  0.5250
 6456TIP3    H219375   0.262  -0.005   3.254  0.0476  0.4889 -0.8749
 6457TIP3   OH219376   5.152   1.387   1.148  0.0868  0.1366 -0.1481
 6457TIP3    H119377   5.119   1.301   1.175 -1.2359  0.8720  0.6665
 6457TIP3    H219378   5.095   1.413   1.075  0.3776  0.4069 -0.2830
 6458TIP3   OH219379   1.581   4.716   1.200  0.4295  0.0614 -0.4172
 6458TIP3    H119380   1.536   4.720   1.284 -0.4253  1.2304 -0.8992
 6458TIP3    H219381   1.515   4.685   1.138  0.5402  0.8691 -0.9596
 6459TIP3   OH219382  -0.001   4.609   3.203 -0.4756 -0.8334 -0.0121
 6459TIP3    H119383  -0.062   4.630   3.273 -1.5797  1.9914 -1.6584
 6459TIP3    H219384   0.080   4.655   3.227 -0.7439 -0.1543 -0.3720
 6460TIP3   OH219385   2.630   2.831   3.227 -0.1566  0.1660 -0.2675
 6460TIP3    H119386   2.576   2.800   3.154  2.2780 -1.4487 -1.5233
 6460TIP3    H219387   2.613   2.768   3.297 -0.6907  0.2940 -0.2795
 6461TIP3   OH219388   6.367   5.477   0.222 -0.0148 -0.2583  0.0849
 6461TIP3    H119389   6.361   5.386   0.194  1.0345 -0.0006 -1.0411
 6461TIP3    H219390   6.285   5.517   0.193  0.0165 -0.5720 -0.4346
 6462TIP3   OH219391   0.771   2.755   0.642 -0.4030 -0.0528  0.7794
 6462TIP3    H119392   0.677   2.767   0.652 -0.3938  0.0717  0.7138
 6462TIP3    H219393   0.811   2.826   0.692 -0.3357 -0.4074  1.2327
 6463TIP3   OH219394   0.136   1.541   3.836 -0.4404 -0.0931 -0.3030
 6463TIP3    H119395   0.117   1.552   3.929 -0.3996  3.0603 -0.5527
 6463TIP3    H219396   0.213   1.595   3.821 -1.3616  0.7426 -2.4196
 6464TIP3   OH219397   5.186   4.733   2.641 -0.3668 -0.0908  0.0045
 6464TIP3    H119398   5.136   4.810   2.670 -0.7461 -0.0899 -0.6395
 6464TIP3    H219399   5.176   4.670   2.712 -0.2341  0.3717  0.4410
 6465TIP3   OH219400   2.779   3.581   1.623  0.0778 -0.6679  0.3957
 6465TIP3    H119401   2.713   3.526   1.664 -3.0330  1.1756 -1.7453
 6465TIP3    H219402   2.834   3.520   1.573 -1.6506 -2.0826  0.1339
 6466TIP3   OH219403   4.725   4.159   1.885  0.3125  0.2947 -0.0387
 6466TIP3    H119404   4.789   4.185   1.819  2.1746 -0.7044  1.2645
 6466TIP3    H219405   4.730   4.228   1.951 -0.5456  0.6145 -0.3068
 6467TIP3   OH219406   2.538   4.980   0.152  0.5071  0.5231 -0.6713
 6467TIP3    H119407   2.628   5.003   0.173  0.3140  0.2708  0.5623
 6467TIP3    H219408   2.485   5.046   0.197  0.0255 -0.7851  0.7731
 6468TIP3   OH219409   5.513   1.459   4.589  0.3947  0.8414  0.0724
 6468TIP3    H119410   5.529   1.547   4.555 -0.0542  0.1384 -2.1147
 6468TIP3    H219411   5.455   1.419   4.524 -0.4624 -0.6531  1.6862
 6469TIP3   OH219412   1.814   4.294   3.371  0.0646 -0.3432  0.0458
 6469TIP3    H119413   1.743   4.239   3.401  0.6551 -1.9784 -1.4067
 6469TIP3    H219414   1.884   4.281   3.436 -0.4447  0.2157  0.7291
 6470TIP3   OH219415   3.665   0.587   3.841 -0.2449  0.1302 -0.0860
 6470TIP3    H119416   3.623   0.507   3.808 -1.5072  0.7125  0.0492
 6470TIP3    H219417   3.599   0.656   3.828  0.7679  1.1302 -0.0744
 6471TIP3   OH219418   5.168   3.029   2.701 -0.4607 -0.1299 -0.1775
 6471TIP3    H119419   5.144   3.072   2.619 -2.5783  0.7726  0.8327
 6471TIP3    H219420   5.188   3.101   2.760  0.7435 -0.7629  0.2204
 6472TIP3   OH219421   1.237   0.592   0.211 -0.4240  0.2554  0.1948
 6472TIP3    H119422   1.237   0.671   0.157  1.7134  0.2004  0.0157
 6472TIP3    H219423   1.285   0.617   0.290  0.9631 -1.0237 -0.1951
 6473TIP3   OH219424   2.156   2.073   0.546  0.0666 -0.2750 -0.2756
 6473TIP3    H119425   2.245   2.046   0.568 -0.1426 -0.9618 -0.2462
 6473TIP3    H219426   2.167   2.157   0.503  0.8480 -0.9609 -1.4721
 6474TIP3   OH219427   2.823   4.577   2.287  0.1681  0.1895 -0.2393
 6474TIP3    H119428   2.856   4.648   2.342  0.6519  1.6422 -2.2812
 6474TIP3    H219429   2.901   4.529   2.261  0.2103  0.8269 -1.3501
 6475TIP3   OH219430   5.611   2.708   0.376  0.2879 -0.7411  0.7612
 6475TIP3    H119431   5.523   2.708   0.337  0.6184  0.2166 -0.0500
 6475TIP3    H219432   5.669   2.721   0.301  1.0128  0.2005  1.4612
 6476TIP3   OH219433   5.234   4.681   3.799 -0.4216 -0.3014 -0.4482
 6476TIP3    H119434   5.162   4.728   3.757 -1.5301 -0.6819  0.9633
 6476TIP3    H219435   5.234   4.713   3.889  2.2296  0.8784 -0.7582
 6477TIP3   OH219436   3.912   1.394   2.692 -0.2324 -0.4261  0.0070
 6477TIP3    H119437   3.842   1.457   2.679  0.5909  0.9902  1.8884
 6477TIP3    H219438   3.921   1.389   2.788  0.9572 -2.0130 -0.1555
 6478TIP3   OH219439   5.432   3.625   1.043 -0.3369  0.4547  0.2195
 6478TIP3    H119440   5.488   3.608   0.967  0.9897  1.2850  0.9750
 6478TIP3    H219441   5.348   3.652   1.005  0.3518  1.0138 -0.9571
 6479TIP3   OH219442   3.742   2.370   1.020  0.4237 -0.6163 -0.0854
 6479TIP3    H119443   3.668   2.316   0.993 -0.5708  0.8706 -0.4817
 6479TIP3    H219444   3.702   2.440   1.072  1.3599  0.9486 -1.3887
 6480TIP3   OH219445   0.500   3.848   1.757  0.2179 -0.2612 -0.3419
 6480TIP3    H119446   0.447   3.837   1.837 -0.5927  0.5292 -0.7553
 6480TIP3    H219447   0.453   3.797   1.691 -0.2270  0.6987 -0.7885
 6481TIP3   OH219448   1.857   0.030   4.324 -0.3596  0.4823  0.2727
 6481TIP3    H119449   1.764   0.040   4.346 -0.4324  1.3824 -0.3821
 6481TIP3    H219450   1.859  -0.041   4.260 -0.6566  0.7576 -0.0475
 6482TIP3   OH219451   4.903   4.094   5.143  0.0967 -0.0165 -0.1721
 6482TIP3    H119452   4.841   4.035   5.100  0.9727 -2.2946  1.4872
 6482TIP3    H219453   4.970   4.036   5.180  0.9912  2.0104  1.6211
 6483TIP3   OH219454   4.631   0.693   0.467 -0.2927  0.2031 -0.2394
 6483TIP3    H119455   4.620   0.649   0.382 -0.3407  0.9312 -0.6134
 6483TIP3    H219456   4.660   0.781   0.445 -0.6571  0.5103  0.4954
 6484TIP3   OH219457   5.502   1.789   5.003  0.1066  0.4922  0.1153
 6484TIP3    H119458   5.551   1.823   4.929  1.1908  0.3747  0.7610
 6484TIP3    H219459   5.560   1.801   5.078 -1.1073  0.9238  1.0101
 6485TIP3   OH219460   6.200   0.715   0.909 -0.2607 -0.4049  0.5542
 6485TIP3    H119461   6.166   0.725   0.997  0.6041 -0.7425  0.9415
 6485TIP3    H219462   6.270   0.649   0.917 -0.5730 -0.8923 -0.4865
 6486TIP3   OH219463   3.512   3.876   4.281  0.2097 -0.6294 -0.0379
 6486TIP3    H119464   3.505   3.821   4.203 -1.4989  0.4995 -0.7564
 6486TIP3    H219465   3.540   3.816   4.350  1.6222 -1.6915 -1.4670
 6487TIP3   OH219466   2.580   4.203   0.277 -0.2066 -0.2850 -0.6326
 6487TIP3    H119467   2.607   4.116   0.307  2.8160  0.4480 -0.9132
 6487TIP3    H219468   2.610   4.262   0.347 -2.9082  0.5472 -0.0602
 6488TIP3   OH219469   4.675   5.619   3.903 -0.1217 -0.0444 -0.1035
 6488TIP3    H119470   4.617   5.674   3.851  0.0160 -1.4780 -1.8724
 6488TIP3    H219471   4.761   5.631   3.864  0.1473 -0.4757  0.3427
 6489TIP3   OH219472   4.563   0.032   4.695  0.2321 -0.4104  0.1950
 6489TIP3    H119473   4.654   0.058   4.687  0.5714 -1.7183 -0.6563
 6489TIP3    H219474   4.549  -0.028   4.621 -1.1635 -0.6267  0.6039
 6490TIP3   OH219475   1.061   4.916   2.406 -0.5173 -0.2318 -0.6070
 6490TIP3    H119476   1.076   4.903   2.313  0.7431 -0.1306 -0.4387
 6490TIP3    H219477   0.986   4.975   2.411 -1.8966 -1.8133 -1.4987
 6491TIP3   OH219478   4.684   2.912   2.722 -0.0874  0.6178  0.3425
 6491TIP3    H119479   4.635   2.902   2.804  0.8854 -0.4200  0.8181
 6491TIP3    H219480   4.775   2.893   2.746 -0.1415 -2.4598 -1.4683
 6492TIP3   OH219481   1.585   0.456   4.005  0.1680 -0.0300 -0.0796
 6492TIP3    H119482   1.667   0.424   4.042 -0.6383 -1.7267  0.3745
 6492TIP3    H219483   1.590   0.433   3.912 -1.2068 -3.5953  0.5570
 6493TIP3   OH219484   4.334   5.766   3.867 -0.2757  0.5619  0.1820
 6493TIP3    H119485   4.263   5.765   3.930 -0.1940 -1.2906  0.2822
 6493TIP3    H219486   4.313   5.696   3.805  0.3037  1.4863 -1.1176
 6494TIP3   OH219487   0.837   0.726   3.788  0.3716 -0.0732  0.1184
 6494TIP3    H119488   0.864   0.760   3.873  0.7023 -0.8020  0.3141
 6494TIP3    H219489   0.903   0.660   3.767 -1.4093 -2.1322  0.7479
 6495TIP3   OH219490   0.106   2.144   2.519 -0.0012  0.1059  0.3979
 6495TIP3    H119491   0.103   2.050   2.535  0.3092 -0.0624 -0.4894
 6495TIP3    H219492   0.168   2.177   2.584 -1.0052 -0.1173  1.4992
 6496TIP3   OH219493   3.902   2.610   2.355  0.3551  0.2862  0.8863
 6496TIP3    H119494   3.996   2.594   2.342  0.3190  0.4860  0.3326
 6496TIP3    H219495   3.886   2.694   2.312 -0.0741  0.2640  0.9973
 6497TIP3   OH219496   5.137   4.727   1.054 -0.1837  0.2043  0.2190
 6497TIP3    H119497   5.106   4.681   0.976  1.0483  0.2942 -0.3524
 6497TIP3    H219498   5.181   4.660   1.106  1.2902  0.6168 -0.4390
 6498TIP3   OH219499   5.058   2.773   2.406  0.3247  0.4891  0.1209
 6498TIP3    H119500   4.968   2.754   2.434  0.7243  0.6542  1.6081
 6498TIP3    H219501   5.048   2.816   2.321 -0.8846 -1.3308 -0.7305
 6499TIP3   OH219502   3.495   3.399   3.742  0.5133  0.1955  0.0741
 6499TIP3    H119503   3.555   3.349   3.686  0.4713  0.4394 -0.1931
 6499TIP3    H219504   3.521   3.490   3.730 -0.8021  0.4439 -1.1508
 6500TIP3   OH219505   4.215   5.681   1.883 -0.0854  0.3744 -0.0769
 6500TIP3    H119506   4.191   5.769   1.913 -1.2053  0.1873 -0.3741
 6500TIP3    H219507   4.254   5.695   1.797 -1.5717  0.4885 -0.7698
 6501TIP3   OH219508   4.234   0.707   3.125  0.4842 -0.7214 -0.2888
 6501TIP3    H119509   4.221   0.612   3.130  1.5198 -0.9532 -1.4469
 6501TIP3    H219510   4.197   0.731   3.040  2.4190 -0.5073 -1.1098
 6502TIP3   OH219511   0.721   2.057   0.421 -0.6798 -0.1837 -0.2194
 6502TIP3    H119512   0.656   2.015   0.364 -0.8714 -1.6816  1.0422
 6502TIP3    H219513   0.803   2.053   0.371 -1.0645 -0.4385 -0.8431
 6503TIP3   OH219514   0.955   2.200   5.069  0.1551  0.4746  0.2018
 6503TIP3    H119515   1.047   2.212   5.091  1.1731 -2.1520 -2.1140
 6503TIP3    H219516   0.931   2.279   5.021  1.7557  0.4218 -0.7468
 6504TIP3   OH219517   3.133   5.674   4.049 -0.6448  0.3364 -0.1999
 6504TIP3    H119518   3.088   5.601   4.006  2.4038 -2.1272  0.4566
 6504TIP3    H219519   3.112   5.664   4.142  0.3106 -0.1649 -0.0264
 6505TIP3   OH219520   4.858   4.840   3.320  0.2291 -0.4161 -0.2903
 6505TIP3    H119521   4.860   4.890   3.402 -0.5253 -1.2226  0.2301
 6505TIP3    H219522   4.852   4.907   3.251  0.7155  0.2629  0.3110
 6506TIP3   OH219523   2.375   0.856   2.154  0.8929 -0.9601 -0.7207
 6506TIP3    H119524   2.360   0.947   2.181  1.4797 -0.5781 -1.6064
 6506TIP3    H219525   2.417   0.815   2.229  0.5703 -0.5155 -0.2896
 6507TIP3   OH219526   1.728   5.619   3.506  0.7682 -0.1518 -0.2107
 6507TIP3    H119527   1.746   5.671   3.428 -0.1874  0.4403 -0.0567
 6507TIP3    H219528   1.633   5.626   3.519  0.7476 -1.1586  0.3648
 6508TIP3   OH219529   4.251   3.426   2.661 -0.4003 -0.0463  0.0866
 6508TIP3    H119530   4.299   3.390   2.736 -0.3047 -1.8417 -0.7964
 6508TIP3    H219531   4.314   3.483   2.617  0.2117 -0.6183  0.2127
 6509TIP3   OH219532   0.810   5.841   0.101 -0.7860 -0.0344  0.5425
 6509TIP3    H119533   0.785   5.768   0.156  0.1044  0.2779  1.3735
 6509TIP3    H219534   0.732   5.897   0.099 -0.3633  0.7222  2.7698
 6510TIP3   OH219535   6.164   1.780   1.267  0.2603  0.5863 -0.3328
 6510TIP3    H119536   6.202   1.816   1.348  0.1656 -0.7698  0.3302
 6510TIP3    H219537   6.148   1.857   1.213  0.6617  1.4955  0.7921
 6511TIP3   OH219538   4.606   1.476   2.248  0.7828  0.4045  0.0081
 6511TIP3    H119539   4.648   1.396   2.279  2.2582  1.3909  0.6637
 6511TIP3    H219540   4.515   1.467   2.276  0.6889 -1.4160 -0.7158
 6512TIP3   OH219541   2.703   1.275   0.501 -0.0099  0.2820  0.6135
 6512TIP3    H119542   2.706   1.242   0.411 -0.5041  0.4050  0.5515
 6512TIP3    H219543   2.788   1.249   0.538 -0.5886 -1.5675  0.7564
 6513TIP3   OH219544   5.593   4.791   0.845 -0.2708 -0.2748  0.1114
 6513TIP3    H119545   5.509   4.760   0.811  0.5862 -1.3676 -1.0875
 6513TIP3    H219546   5.651   4.715   0.840  1.4399  1.0412 -1.2952
 6514TIP3   OH219547   0.140   3.944   1.782  0.0748  0.0480 -0.5842
 6514TIP3    H119548   0.129   3.882   1.709  0.8745 -1.7551  0.7370
 6514TIP3    H219549   0.169   3.889   1.855  0.7973  2.0200  0.6808
 6515TIP3   OH219550   3.606   4.429   1.991  0.0856  0.3070 -0.1763
 6515TIP3    H119551   3.639   4.425   1.901  1.3771 -0.6613  0.3205
 6515TIP3    H219552   3.514   4.405   1.983  0.2253  0.0441 -1.2187
 6516TIP3   OH219553   6.159   1.009   0.842 -0.2197  0.1903 -0.5537
 6516TIP3    H119554   6.236   1.000   0.787  1.4383  0.2587  1.6279
 6516TIP3    H219555   6.138   0.920   0.869  0.3732  0.3581  0.4906
 6517TIP3   OH219556   0.531   1.886   4.384  0.0996 -0.1421 -0.2450
 6517TIP3    H119557   0.518   1.857   4.294  0.0964 -0.5349 -0.1175
 6517TIP3    H219558   0.442   1.903   4.417  0.0603 -0.5468 -0.1349
 6518TIP3   OH219559   4.954   5.323   3.275  0.1947  0.5330 -0.1457
 6518TIP3    H119560   5.025   5.314   3.338  1.7697  1.6462 -1.6505
 6518TIP3    H219561   4.998   5.325   3.190 -1.6872  0.7930 -1.1636
 6519TIP3   OH219562   0.645   5.616   1.805 -0.7561  0.1876 -0.5497
 6519TIP3    H119563   0.597   5.542   1.767 -0.3172 -0.5875  0.3781
 6519TIP3    H219564   0.603   5.631   1.889  1.0005 -0.9418  0.5962
 6520TIP3   OH219565   2.661   4.802   3.664  0.1878 -0.2958 -0.2453
 6520TIP3    H119566   2.577   4.763   3.640  0.3834  0.2270 -1.8922
 6520TIP3    H219567   2.727   4.746   3.622  0.5389  0.7701 -1.1628
 6521TIP3   OH219568   5.099   5.519   1.568  0.3853 -0.3836 -0.9239
 6521TIP3    H119569   5.004   5.529   1.579  0.5526  0.2953  0.0620
 6521TIP3    H219570   5.108   5.454   1.499 -0.8090 -1.9371  0.2871
 6522TIP3   OH219571   2.237   4.276   3.313 -0.2869  0.2774 -0.0648
 6522TIP3    H119572   2.199   4.363   3.304 -0.1586  0.3693  0.2536
 6522TIP3    H219573   2.256   4.248   3.224  3.3311  2.1629 -0.0509
 6523TIP3   OH219574   3.885   5.876   2.199  1.2627  0.2210 -0.4352
 6523TIP3    H119575   3.798   5.868   2.239  1.9200  0.2396  1.0787
 6523TIP3    H219576   3.934   5.801   2.234  2.1924  0.8616 -0.3224
 6524TIP3   OH219577   0.460   5.120   1.744 -0.1809 -0.8044 -0.3685
 6524TIP3    H119578   0.550   5.088   1.738  0.4657  0.5888  1.1054
 6524TIP3    H219579   0.435   5.103   1.835 -0.3812  1.2735  0.0182
 6525TIP3   OH219580   3.991   1.747   1.884 -0.4110  0.0938 -0.0328
 6525TIP3    H119581   3.925   1.678   1.895  0.8051 -1.1760 -0.4546
 6525TIP3    H219582   3.997   1.759   1.789 -0.3094  0.4811  0.0229
 6526TIP3   OH219583   4.808   2.954   4.969 -0.1249 -0.2725  0.1677
 6526TIP3    H119584   4.835   3.005   5.045  1.7749 -0.5024 -0.3227
 6526TIP3    H219585   4.726   2.996   4.941  1.2283  2.4174 -0.0793
 6527TIP3   OH219586   4.602   3.523   1.387 -0.0295  0.1183 -0.0093
 6527TIP3    H119587   4.651   3.605   1.386  0.7459 -0.3457 -0.1865
 6527TIP3    H219588   4.547   3.527   1.308 -0.1742  0.5664  0.1091
 6528TIP3   OH219589   0.052   0.482   0.972 -0.8119  0.0643  0.0636
 6528TIP3    H119590   0.080   0.396   0.943 -1.8211 -0.6481  1.1012
 6528TIP3    H219591   0.046   0.475   1.067 -1.9382  0.9443  0.0877
 6529TIP3   OH219592   2.214   1.753   0.782  0.1080 -0.7414  0.1667
 6529TIP3    H119593   2.228   1.669   0.738  1.3401 -0.2818 -0.3687
 6529TIP3    H219594   2.216   1.817   0.711  1.8062 -0.0188  0.8023
 6530TIP3   OH219595   3.381   0.561   0.878  0.1112 -0.1877 -0.5759
 6530TIP3    H119596   3.306   0.532   0.826 -2.1171  1.9927  1.1542
 6530TIP3    H219597   3.368   0.519   0.963  1.6765 -0.8222 -0.6065
 6531TIP3   OH219598   2.167   3.397   0.856  0.0691  0.4972  0.7728
 6531TIP3    H119599   2.192   3.429   0.770 -1.4031 -1.1725 -0.3299
 6531TIP3    H219600   2.224   3.321   0.872 -1.1122 -0.5142  0.2825
 6532TIP3   OH219601   5.990   0.207   1.014 -0.1382 -0.0754 -0.6132
 6532TIP3    H119602   6.017   0.271   0.948 -1.1947 -0.3126 -1.3053
 6532TIP3    H219603   5.908   0.170   0.980  0.1666 -1.4179  0.0152
 6533TIP3   OH219604   3.973   4.330   4.228  1.0763 -0.1374  0.1691
 6533TIP3    H119605   3.885   4.367   4.215  1.2715  0.2309 -0.1334
 6533TIP3    H219606   3.968   4.243   4.189  0.9379  0.0067 -0.1390
 6534TIP3   OH219607   4.742   2.844   4.388  0.4073 -0.1347  0.1832
 6534TIP3    H119608   4.785   2.880   4.465  0.6447 -0.0237  0.0014
 6534TIP3    H219609   4.809   2.849   4.319 -0.6463  2.3760 -0.7798
 6535TIP3   OH219610   0.317   4.658   1.133 -0.2884  0.1681  0.0353
 6535TIP3    H119611   0.292   4.745   1.163  0.3613  1.0462 -1.7669
 6535TIP3    H219612   0.408   4.668   1.103 -0.5795 -0.7972 -1.3045
 6536TIP3   OH219613   2.261   0.296   2.483 -0.0409  0.6155 -0.1276
 6536TIP3    H119614   2.345   0.283   2.526 -0.0049 -0.4413 -0.5070
 6536TIP3    H219615   2.200   0.315   2.555  0.1705 -0.3697  0.3210
 6537TIP3   OH219616   4.312   1.560   3.997 -0.5124  0.6425 -0.2850
 6537TIP3    H119617   4.315   1.507   3.917 -1.0445 -1.4671  0.9926
 6537TIP3    H219618   4.403   1.586   4.011  0.1870 -1.7425  0.1055
 6538TIP3   OH219619   5.831   1.670   2.928 -0.2681  0.0614 -0.7058
 6538TIP3    H119620   5.831   1.603   2.996 -1.1245  0.6057 -0.1638
 6538TIP3    H219621   5.922   1.702   2.926 -0.2635  0.1415  0.2816
 6539TIP3   OH219622   0.109   2.616   2.011  0.3696  0.3181  0.3192
 6539TIP3    H119623   0.032   2.665   2.039  0.3011  0.0448  0.6075
 6539TIP3    H219624   0.089   2.591   1.921 -0.5198 -1.0203  0.8648
 6540TIP3   OH219625   4.534   3.021   2.173 -0.2118 -0.3179 -0.6708
 6540TIP3    H119626   4.613   3.075   2.175  0.5467 -1.3865 -0.6907
 6540TIP3    H219627   4.544   2.960   2.246 -0.8177 -0.7378 -0.9271
 6541TIP3   OH219628   5.020   3.675   3.140  0.4697 -0.2042  0.0232
 6541TIP3    H119629   4.953   3.738   3.163  0.7242  1.4066 -3.1492
 6541TIP3    H219630   5.098   3.704   3.187  0.2192  1.0726 -0.3142
 6542TIP3   OH219631   1.560   4.936   4.782 -0.0921 -0.0391 -0.0380
 6542TIP3    H119632   1.542   5.016   4.731 -0.2911  0.3101  0.5765
 6542TIP3    H219633   1.556   4.964   4.873  0.5157 -0.6132  0.1686
 6543TIP3   OH219634   3.985   5.503   2.210  0.7040 -0.1005  0.3612
 6543TIP3    H119635   3.918   5.543   2.154  1.6178  0.0900 -0.6337
 6543TIP3    H219636   3.956   5.412   2.221  1.6232 -0.8437 -2.3974
 6544TIP3   OH219637   3.534   3.710   4.507  0.1368  0.0596 -0.5701
 6544TIP3    H119638   3.628   3.698   4.523 -0.1762 -1.0773  0.5609
 6544TIP3    H219639   3.505   3.625   4.473 -0.5843  0.2273 -0.3815
 6545TIP3   OH219640   4.630   0.785   0.044  0.4785  0.0155 -0.0467
 6545TIP3    H119641   4.614   0.877   0.068  1.1444  0.5342 -1.5006
 6545TIP3    H219642   4.707   0.788  -0.013  1.1268 -1.5754  0.6706
 6546TIP3   OH219643   1.389   3.318   0.701  0.0603  0.1732  0.1208
 6546TIP3    H119644   1.343   3.332   0.784  0.2903 -2.2400  0.7211
 6546TIP3    H219645   1.467   3.269   0.725  0.0685 -0.6861 -1.5447
 6547TIP3   OH219646   2.397   3.249   3.348 -0.1733  0.2937 -0.5441
 6547TIP3    H119647   2.457   3.185   3.310  0.9046 -0.5589  2.3569
 6547TIP3    H219648   2.454   3.317   3.385 -0.8617 -0.5784  2.3606
 6548TIP3   OH219649   0.953   3.136   3.814 -0.3827  0.6978  0.2619
 6548TIP3    H119650   0.861   3.139   3.787 -0.4306  0.4963  0.3986
 6548TIP3    H219651   0.979   3.045   3.798 -0.8673  0.1310  2.3510
 6549TIP3   OH219652   0.332   2.999   1.278  0.0384 -0.1403 -0.2789
 6549TIP3    H119653   0.240   3.023   1.286  0.3579  0.9754  0.2954
 6549TIP3    H219654   0.364   3.052   1.205  0.5860  0.6954  0.5390
 6550TIP3   OH219655   1.793   1.539   3.616  0.1466  0.1872 -0.0281
 6550TIP3    H119656   1.888   1.552   3.611  0.5874 -0.7453  3.6079
 6550TIP3    H219657   1.771   1.492   3.535  3.1676 -1.5533  0.0331
 6551TIP3   OH219658   3.648   1.458   2.983 -0.1885  0.0702 -0.4294
 6551TIP3    H119659   3.636   1.515   3.059 -1.0510 -0.7348  0.0604
 6551TIP3    H219660   3.672   1.373   3.019  0.7605  0.0210 -1.1369
 6552TIP3   OH219661   6.297   5.338   3.581 -0.2905 -0.2085  0.0359
 6552TIP3    H119662   6.279   5.391   3.503 -0.2087 -1.3908 -0.7999
 6552TIP3    H219663   6.375   5.287   3.558 -0.0596 -0.3253  1.0235
 6553TIP3   OH219664   6.093   4.173   1.922  0.3985  0.3887 -0.4131
 6553TIP3    H119665   6.177   4.218   1.912  0.7686 -0.0471  0.5469
 6553TIP3    H219666   6.115   4.080   1.914 -0.1159  0.3023 -0.8792
 6554TIP3   OH219667   4.902   4.230   3.025 -0.3660  0.1323 -0.6525
 6554TIP3    H119668   4.917   4.322   3.046  0.4083 -0.2817  0.7094
 6554TIP3    H219669   4.975   4.205   2.967  0.8980 -0.2638  1.0355
 6555TIP3   OH219670   2.610   1.703   2.402  0.6022 -0.4468  0.3595
 6555TIP3    H119671   2.664   1.774   2.438  0.5550  0.9004 -2.0538
 6555TIP3    H219672   2.655   1.677   2.322  0.0734 -2.5172  0.6756
 6556TIP3   OH219673   3.584   2.553   2.462  0.1450  0.0817 -0.0384
 6556TIP3    H119674   3.653   2.615   2.484 -1.4569  2.2162 -0.7421
 6556TIP3    H219675   3.565   2.570   2.370 -1.3781 -0.3811  0.1640
 6557TIP3   OH219676   2.819   2.986   0.643  0.3119  0.0321 -0.3241
 6557TIP3    H119677   2.902   3.030   0.626  0.9001 -0.1487  1.8114
 6557TIP3    H219678   2.801   3.003   0.735 -1.1526 -1.3744 -0.3104
 6558TIP3   OH219679   0.768   4.975   0.416  0.5618 -0.2240  0.3848
 6558TIP3    H119680   0.810   4.911   0.474 -1.1960 -0.9456  0.9261
 6558TIP3    H219681   0.766   4.931   0.331  2.3203  0.4683 -0.0399
 6559TIP3   OH219682   1.966   3.282   3.325  0.1450  0.1405 -0.4958
 6559TIP3    H119683   1.971   3.353   3.389 -1.6591 -1.1348  1.1528
 6559TIP3    H219684   1.895   3.226   3.356  0.3617 -1.4846 -2.6887
 6560TIP3   OH219685   3.410   2.673   0.473 -0.1918 -0.7364  0.6940
 6560TIP3    H119686   3.489   2.716   0.441  0.0341 -0.5686  1.4554
 6560TIP3    H219687   3.398   2.599   0.414 -0.5681  0.3408 -0.6051
 6561TIP3   OH219688   5.376   2.142   1.008  0.6435  0.0187  0.0535
 6561TIP3    H119689   5.356   2.225   0.964  0.3915  0.0844  0.2911
 6561TIP3    H219690   5.318   2.140   1.084 -1.9298 -1.9315 -1.7551
 6562TIP3   OH219691   5.590   5.086   1.529  0.1587  0.1188  0.2168
 6562TIP3    H119692   5.548   5.031   1.463 -0.1040  0.0916  0.4026
 6562TIP3    H219693   5.666   5.123   1.485 -1.2051  1.8549 -0.8138
 6563TIP3   OH219694   1.513   2.832   3.202  0.6849 -0.2124 -0.0569
 6563TIP3    H119695   1.513   2.804   3.110  0.6432 -1.7436  0.3820
 6563TIP3    H219696   1.433   2.883   3.211 -0.2491 -1.5459 -0.4681
 6564TIP3   OH219697   0.308   4.263   2.917  0.0591  0.1446  0.0483
 6564TIP3    H119698   0.262   4.254   2.833  0.2415 -1.0121  0.0531
 6564TIP3    H219699   0.239   4.287   2.979  0.1030  2.1308 -0.6075
 6565TIP3   OH219700   3.232   1.945   5.177 -1.0007  0.1532  0.0669
 6565TIP3    H119701   3.221   2.040   5.187  1.0159  0.5591 -1.1078
 6565TIP3    H219702   3.214   1.929   5.085  1.6076 -0.0857 -0.4585
 6566TIP3   OH219703   1.629   0.048   0.390  0.1949 -0.0219 -0.0954
 6566TIP3    H119704   1.662   0.119   0.335 -1.6367  2.1059  1.3305
 6566TIP3    H219705   1.685   0.049   0.467 -1.0264  1.3152  0.8226
 6567TIP3   OH219706   4.326   4.265   0.338  0.5264 -0.5214 -0.0308
 6567TIP3    H119707   4.274   4.325   0.285  0.8110 -0.7038 -0.5169
 6567TIP3    H219708   4.345   4.192   0.280 -1.2145 -1.8916  1.0143
 6568TIP3   OH219709   4.059   5.929   4.981  0.1450 -0.3595 -0.2943
 6568TIP3    H119710   4.028   5.860   5.040 -0.5051 -0.0755 -0.2982
 6568TIP3    H219711   3.996   5.929   4.909  0.6893 -0.4108 -0.7743
 6569TIP3   OH219712   2.257   4.219   3.017  0.4536  0.0890 -0.6622
 6569TIP3    H119713   2.230   4.155   2.950 -0.2404 -0.3152 -0.0187
 6569TIP3    H219714   2.273   4.300   2.969 -0.8896  0.0405 -1.2212
 6570TIP3   OH219715   1.798   5.745   0.387  0.9349  0.2087  0.1244
 6570TIP3    H119716   1.835   5.784   0.308 -0.4711 -0.8992 -1.1410
 6570TIP3    H219717   1.713   5.788   0.397  0.7063 -0.3175  0.4830
 6571TIP3   OH219718   2.390   1.720   2.829 -0.5584  0.1773 -0.7497
 6571TIP3    H119719   2.384   1.800   2.880  0.7025  0.2701 -0.7030
 6571TIP3    H219720   2.408   1.750   2.740  1.6698 -0.0434 -0.4285
 6572TIP3   OH219721   4.413   4.907   3.946 -0.1494 -0.1448 -0.1102
 6572TIP3    H119722   4.507   4.908   3.927 -0.6025  0.4640 -2.7497
 6572TIP3    H219723   4.392   4.997   3.970 -0.1278 -0.1880  0.0714
 6573TIP3   OH219724   4.139   5.962   0.681  0.4195 -0.3332 -0.3134
 6573TIP3    H119725   4.228   5.952   0.714 -0.0255 -0.5914  0.8571
 6573TIP3    H219726   4.137   6.051   0.644  0.6749  0.3499  1.2536
 6574TIP3   OH219727   5.288   2.725   4.764  1.0290  0.4037  0.1162
 6574TIP3    H119728   5.212   2.783   4.757  0.5996  0.0947  1.8260
 6574TIP3    H219729   5.297   2.687   4.676 -0.5555  0.7417 -0.2289
 6575TIP3   OH219730   2.835   5.145   3.823 -0.0968  0.2003  0.2395
 6575TIP3    H119731   2.784   5.072   3.859 -1.0666  0.7551  0.0348
 6575TIP3    H219732   2.770   5.214   3.809  0.3432  0.2196 -2.0162
 6576TIP3   OH219733   5.391   1.555   1.149 -0.4656 -0.3600 -0.3422
 6576TIP3    H119734   5.319   1.491   1.152 -0.0000 -1.0972 -2.9925
 6576TIP3    H219735   5.470   1.502   1.161 -0.0850 -0.3255 -2.4373
 6577TIP3   OH219736   0.288   3.352   1.183  0.0251 -0.2457 -0.2449
 6577TIP3    H119737   0.291   3.263   1.148  0.2496 -0.2767 -0.1450
 6577TIP3    H219738   0.359   3.355   1.247 -0.1574 -0.0806 -0.0489
 6578TIP3   OH219739   5.318   1.973   3.446 -0.6593 -0.4542 -0.0684
 6578TIP3    H119740   5.224   1.985   3.433 -0.5350  0.0349 -0.6117
 6578TIP3    H219741   5.343   2.042   3.507 -0.5906 -0.3340 -0.2303
 6579TIP3   OH219742   3.278   3.079   5.033  0.6133 -0.3607 -0.1477
 6579TIP3    H119743   3.217   3.030   5.088  0.0807 -0.9362 -1.2153
 6579TIP3    H219744   3.350   3.103   5.092  0.1865 -1.1616  0.7265
 6580TIP3   OH219745   1.586   3.840   0.196 -0.1255  0.0059  0.8776
 6580TIP3    H119746   1.650   3.779   0.233  1.1071  1.6632  1.6157
 6580TIP3    H219747   1.548   3.883   0.273  0.5396  1.6175  0.3500
 6581TIP3   OH219748   3.809   1.766   4.133  0.3519 -0.3566 -0.1501
 6581TIP3    H119749   3.786   1.841   4.078 -0.4386 -0.6383 -0.2046
 6581TIP3    H219750   3.847   1.703   4.072 -1.3046 -1.0153 -0.5461
 6582TIP3   OH219751   5.781   0.473   2.419  0.2642 -0.2598 -0.1277
 6582TIP3    H119752   5.798   0.385   2.385  0.4388  0.4942 -2.1867
 6582TIP3    H219753   5.820   0.473   2.506 -1.4497 -2.7918  0.7494
 6583TIP3   OH219754   1.282   1.503   4.694  0.1791  0.6240  0.0046
 6583TIP3    H119755   1.220   1.576   4.690  0.7738  1.0793 -1.0953
 6583TIP3    H219756   1.331   1.508   4.613  0.1745 -1.0704 -0.1398
 6584TIP3   OH219757   0.609   0.329   2.141  0.2894  0.2764 -0.4641
 6584TIP3    H119758   0.584   0.419   2.161 -1.0073 -0.3825  1.0600
 6584TIP3    H219759   0.633   0.291   2.225  1.0788 -0.7354 -1.1209
 6585TIP3   OH219760   4.734   2.658   4.603 -0.6869  0.5689  0.0704
 6585TIP3    H119761   4.718   2.733   4.545  0.0734 -1.0674 -2.4136
 6585TIP3    H219762   4.825   2.634   4.586 -1.2161 -1.5454 -0.0127
 6586TIP3   OH219763   4.708   5.397   2.721 -0.3686  0.0705  0.1737
 6586TIP3    H119764   4.800   5.374   2.724 -0.0390  0.9217 -1.8113
 6586TIP3    H219765   4.701   5.459   2.648 -2.6440 -0.6198 -0.2752
 6587TIP3   OH219766   3.846   3.860   3.103  0.1716 -0.2529 -0.3536
 6587TIP3    H119767   3.929   3.822   3.076 -1.2001 -2.6182 -1.5429
 6587TIP3    H219768   3.781   3.817   3.047 -1.7949  2.0638 -0.0070
 6588TIP3   OH219769   5.210   2.864   0.591  0.5372 -0.8726  0.4326
 6588TIP3    H119770   5.206   2.928   0.519 -0.4204 -1.7580 -0.3422
 6588TIP3    H219771   5.297   2.825   0.583 -0.5297 -3.1196 -2.2777
 6589TIP3   OH219772   4.961   0.814   3.214 -0.7700 -0.3520  0.5433
 6589TIP3    H119773   4.964   0.745   3.147 -1.4946  0.9517 -0.8925
 6589TIP3    H219774   4.867   0.824   3.233 -0.5994 -0.3782  1.4203
 6590TIP3   OH219775   2.235   5.832   1.843  0.3161 -0.2734  0.3827
 6590TIP3    H119776   2.193   5.897   1.899 -0.1023  1.1924 -1.5210
 6590TIP3    H219777   2.169   5.811   1.777  0.8961 -1.7036  0.2095
 6591TIP3   OH219778   5.704   1.012   0.093  0.0245  0.0653 -0.1983
 6591TIP3    H119779   5.654   0.932   0.109  1.6906 -0.9685  0.0372
 6591TIP3    H219780   5.794   0.990   0.117  0.2374  2.5825  1.6872
 6592TIP3   OH219781   3.653   5.811   2.373  0.0544  0.3204 -0.5143
 6592TIP3    H119782   3.567   5.774   2.390 -0.1240  0.6642 -0.6587
 6592TIP3    H219783   3.682   5.844   2.458 -1.0962  2.5878 -0.9262
 6593TIP3   OH219784   0.673   5.309   4.421 -0.2101  0.5185  0.7650
 6593TIP3    H119785   0.700   5.398   4.444 -0.1396  0.4817  0.8248
 6593TIP3    H219786   0.677   5.260   4.503 -0.4833  0.5176  0.7805
 6594TIP3   OH219787   4.844   5.807   1.713 -0.1528  0.3874 -0.4165
 6594TIP3    H119788   4.828   5.865   1.639 -0.9802  0.9089  0.1509
 6594TIP3    H219789   4.917   5.846   1.760  0.0602  0.3170 -0.6856
 6595TIP3   OH219790   2.854   2.590   2.097 -0.0060  0.2531  0.0687
 6595TIP3    H119791   2.853   2.502   2.133 -3.0609 -0.0334 -0.4311
 6595TIP3    H219792   2.886   2.580   2.008  1.7845  0.0354  0.7077
 6596TIP3   OH219793   3.147   4.346   0.143  0.2837 -0.0887  0.1383
 6596TIP3    H119794   3.154   4.250   0.142  2.0368 -0.0272 -2.4605
 6596TIP3    H219795   3.068   4.363   0.195 -0.3656 -2.9474  0.2832
 6597TIP3   OH219796   1.197   0.281   2.022  1.1162 -0.3641  0.5615
 6597TIP3    H119797   1.178   0.305   2.113  3.4533 -1.3193  1.3912
 6597TIP3    H219798   1.247   0.355   1.988 -0.9175  0.6079 -0.4597
 6598TIP3   OH219799   5.758   1.912   5.151 -0.0120  0.6054  0.0940
 6598TIP3    H119800   5.755   2.008   5.147 -0.7060  0.6046  0.4682
 6598TIP3    H219801   5.815   1.887   5.079 -0.6859  1.2559 -0.6832
 6599TIP3   OH219802   1.858   5.071   4.569  0.0526 -0.8034 -0.0749
 6599TIP3    H119803   1.842   5.146   4.626  0.1736 -0.8118 -0.0289
 6599TIP3    H219804   1.786   5.072   4.506 -0.9727 -1.7169  1.0328
 6600TIP3   OH219805   3.702   3.657   1.602 -0.7097 -0.0298  0.6684
 6600TIP3    H119806   3.658   3.738   1.625 -0.9669 -0.1493  0.6032
 6600TIP3    H219807   3.796   3.677   1.609 -0.6779  0.9573 -1.6267
 6601TIP3   OH219808   0.472   2.572   1.057 -0.5440 -0.4135 -0.2273
 6601TIP3    H119809   0.502   2.514   0.987 -0.0853  0.2165 -0.5618
 6601TIP3    H219810   0.530   2.647   1.052 -0.3219 -0.4806  1.0123
 6602TIP3   OH219811   4.046   2.762   4.740 -0.0517 -0.4978  0.4092
 6602TIP3    H119812   4.139   2.771   4.723 -0.1162 -0.7866 -0.1157
 6602TIP3    H219813   4.024   2.837   4.795 -0.4290  2.2384 -3.0774
 6603TIP3   OH219814   2.276   5.792   3.414 -0.4248  0.2683  0.1572
 6603TIP3    H119815   2.334   5.810   3.488 -1.3894 -0.9067  1.2286
 6603TIP3    H219816   2.311   5.847   3.343  0.7855  1.0840  1.3318
 6604TIP3   OH219817   1.848   4.648   4.698  0.1375 -0.0513 -0.3036
 6604TIP3    H119818   1.859   4.596   4.618  0.0303  0.6242 -0.7673
 6604TIP3    H219819   1.931   4.695   4.707 -0.1104  0.4152 -0.4167
 6605TIP3   OH219820   4.872   0.521   2.789 -0.0065 -0.3132  0.0857
 6605TIP3    H119821   4.939   0.452   2.793  0.0757 -0.2352  0.0702
 6605TIP3    H219822   4.897   0.572   2.712 -0.3742 -0.5822 -0.2161
 6606TIP3   OH219823   1.046   4.261   0.171  0.0010 -0.2913  0.3813
 6606TIP3    H119824   0.973   4.203   0.192 -0.4491 -0.1154 -0.6447
 6606TIP3    H219825   1.118   4.202   0.147 -0.1078 -0.4429  0.4295
 6607TIP3   OH219826   3.824   3.406   1.317 -0.1897  0.4474 -0.7564
 6607TIP3    H119827   3.898   3.347   1.306 -0.4800 -0.1876  0.4604
 6607TIP3    H219828   3.775   3.399   1.235  1.2534  1.1360 -1.7002
 6608TIP3   OH219829   4.925   1.768   3.423 -0.2671  0.3239 -0.4419
 6608TIP3    H119830   5.005   1.717   3.434 -0.9005 -0.5840  0.0437
 6608TIP3    H219831   4.955   1.859   3.418  0.7269  0.0724  0.6209
 6609TIP3   OH219832   4.703   0.406   5.161  0.0500  0.7340 -0.1963
 6609TIP3    H119833   4.730   0.384   5.072  0.4368  1.8557 -0.3817
 6609TIP3    H219834   4.721   0.327   5.212  0.4587  0.3007 -0.9851
 6610TIP3   OH219835   2.662   1.098   3.093 -0.3036  0.0366 -0.6265
 6610TIP3    H119836   2.568   1.086   3.079 -0.7451  3.3259 -1.3806
 6610TIP3    H219837   2.679   1.058   3.178 -2.8606  1.0484  0.4733
 6611TIP3   OH219838   1.110   3.891   3.968  0.3367 -0.1593 -0.1689
 6611TIP3    H119839   1.188   3.918   4.017  1.2822  0.4987 -1.9318
 6611TIP3    H219840   1.062   3.972   3.952  0.2251 -0.3112 -0.6251
 6612TIP3   OH219841   4.552   3.835   1.750 -0.1786 -0.2645  0.8112
 6612TIP3    H119842   4.616   3.821   1.681  0.8771  1.0874  1.4769
 6612TIP3    H219843   4.472   3.792   1.718  0.7968 -1.2445 -0.4014
 6613TIP3   OH219844   6.243   2.321   2.565  0.5119 -0.3986 -0.2771
 6613TIP3    H119845   6.307   2.372   2.615 -0.1907  0.0945  0.1446
 6613TIP3    H219846   6.281   2.234   2.557  0.8217 -0.3692  0.7700
 6614TIP3   OH219847   5.828   3.820   3.982  0.2205  0.0746  0.4381
 6614TIP3    H119848   5.922   3.818   3.966  0.4134  0.4912  1.4326
 6614TIP3    H219849   5.814   3.757   4.052 -0.1254  0.5676  0.8198
 6615TIP3   OH219850   2.906   0.075   2.256 -0.0075  0.0068  0.1387
 6615TIP3    H119851   2.930   0.021   2.332  2.4701 -0.9972 -1.2334
 6615TIP3    H219852   2.924   0.165   2.284  1.5530 -0.4015  0.5687
 6616TIP3   OH219853   4.513   5.164   0.393  0.0458 -0.0501 -0.4719
 6616TIP3    H119854   4.472   5.137   0.311 -0.8350 -0.3918  0.0695
 6616TIP3    H219855   4.571   5.092   0.416  0.5650  0.2027 -0.9698
 6617TIP3   OH219856   4.439   3.629   1.172  0.4877  0.3684  0.1352
 6617TIP3    H119857   4.413   3.714   1.135 -0.5763 -0.4554 -1.1108
 6617TIP3    H219858   4.361   3.575   1.164  1.7363 -1.3554 -1.0611
 6618TIP3   OH219859   0.867   1.898   4.593  0.3163 -0.9225  0.0155
 6618TIP3    H119860   0.942   1.897   4.653  1.2068  0.0003 -1.0400
 6618TIP3    H219861   0.814   1.972   4.622 -0.9510 -2.3657  1.6008
 6619TIP3   OH219862   1.753   1.573   2.135  0.4109 -0.4160 -0.2976
 6619TIP3    H119863   1.731   1.480   2.140 -0.8884 -0.1002  0.2950
 6619TIP3    H219864   1.745   1.605   2.225 -0.1869  0.4867 -0.6605
 6620TIP3   OH219865   0.603   2.549   2.922 -0.2183 -0.1918  0.5643
 6620TIP3    H119866   0.572   2.639   2.909 -1.1024 -0.6746 -0.8142
 6620TIP3    H219867   0.692   2.560   2.958  1.0653  1.3187 -2.6278
 6621TIP3   OH219868   3.379   5.817   2.845 -0.0871 -0.2620 -0.2026
 6621TIP3    H119869   3.411   5.902   2.877 -1.7476 -0.1179  1.2505
 6621TIP3    H219870   3.455   5.776   2.806  1.5881  0.5414  2.0110
 6622TIP3   OH219871   2.257   5.068   0.537  0.5189 -0.2342  0.2021
 6622TIP3    H119872   2.195   5.081   0.608 -0.3223 -1.0443 -0.3663
 6622TIP3    H219873   2.204   5.040   0.463  1.3441  0.8970 -0.8476
 6623TIP3   OH219874   0.307   3.065   3.898 -0.1813  0.3264  0.2196
 6623TIP3    H119875   0.258   3.146   3.886  0.7543  1.1188  1.5241
 6623TIP3    H219876   0.240   2.997   3.904 -1.0050  1.0732 -0.2814
 6624TIP3   OH219877   5.192   2.529   2.354  0.3145 -0.3587  0.3379
 6624TIP3    H119878   5.156   2.605   2.401  0.9956  1.3998 -1.8308
 6624TIP3    H219879   5.122   2.501   2.296  0.8191  0.1070 -0.5201
 6625TIP3   OH219880   1.934   3.984   3.320 -0.5110  0.0416 -0.1127
 6625TIP3    H119881   1.972   4.023   3.241 -1.2025 -0.1381 -0.5456
 6625TIP3    H219882   1.964   3.893   3.319 -0.3098  0.1051 -0.0243
 6626TIP3   OH219883   4.625   5.446   0.374 -0.2859 -0.5705 -0.6011
 6626TIP3    H119884   4.592   5.532   0.402  1.6302  0.2010 -0.5486
 6626TIP3    H219885   4.560   5.384   0.406  0.3847  0.4828  3.2359
 6627TIP3   OH219886   2.089   0.695   4.416  0.2824 -0.4486 -0.8684
 6627TIP3    H119887   2.126   0.774   4.456 -1.4898  1.0010 -1.8971
 6627TIP3    H219888   2.143   0.679   4.339 -1.4057  2.0324 -2.7332
 6628TIP3   OH219889   0.995   2.646   3.285  0.1479 -0.4094 -0.1252
 6628TIP3    H119890   1.045   2.717   3.324 -0.4845  0.6067 -1.0851
 6628TIP3    H219891   0.977   2.586   3.357  1.2484  0.0745  0.5684
 6629TIP3   OH219892   4.860   3.246   1.180 -0.8293 -0.0872  0.2694
 6629TIP3    H119893   4.814   3.180   1.128  0.2793 -0.1619 -0.6382
 6629TIP3    H219894   4.932   3.275   1.125 -0.9134  1.4409  0.9031
 6630TIP3   OH219895   2.980   2.060   4.711 -0.4685  0.3351 -0.3485
 6630TIP3    H119896   2.962   1.983   4.658  0.6321  1.7097 -2.8848
 6630TIP3    H219897   3.032   2.027   4.785 -0.1255 -1.3416 -1.2926
 6631TIP3   OH219898   5.311   2.031   1.784  0.2309 -0.3291 -0.0541
 6631TIP3    H119899   5.261   1.955   1.813  2.4342 -1.8719  0.0104
 6631TIP3    H219900   5.292   2.038   1.690 -0.1960 -0.8059 -0.0089
 6632TIP3   OH219901   2.928   4.035   1.021 -0.5764  0.1038 -0.1007
 6632TIP3    H119902   2.839   4.069   1.026 -0.2695  1.6810 -3.2086
 6632TIP3    H219903   2.983   4.113   1.019  0.8519 -0.8337  1.0131
 6633TIP3   OH219904   5.380   2.529   1.815  0.3417 -0.3103  0.0113
 6633TIP3    H119905   5.468   2.519   1.778 -0.2659  0.2146 -1.6772
 6633TIP3    H219906   5.394   2.566   1.902  1.8024 -0.7091 -0.0295
 6634TIP3   OH219907   3.726   5.930   0.506  0.4693 -0.0651 -0.2459
 6634TIP3    H119908   3.700   6.006   0.558  0.6494  0.6394 -1.1618
 6634TIP3    H219909   3.663   5.928   0.433  1.9258  0.6879 -1.5776
 6635TIP3   OH219910   0.635   2.125   3.320 -0.0530  0.0648  0.0705
 6635TIP3    H119911   0.594   2.109   3.405 -1.0603 -0.6656 -0.5291
 6635TIP3    H219912   0.578   2.080   3.258  2.1443 -1.8443 -0.7175
 6636TIP3   OH219913   3.834   5.692   3.434  0.4078  0.0828 -0.1519
 6636TIP3    H119914   3.811   5.731   3.519 -1.5658  0.3823 -0.7617
 6636TIP3    H219915   3.776   5.616   3.426  1.5191 -0.7402 -0.6688
 6637TIP3   OH219916   0.110   1.583   4.105  0.2548 -0.0174 -0.1983
 6637TIP3    H119917   0.197   1.560   4.140  0.8213  0.3465 -1.3195
 6637TIP3    H219918   0.112   1.678   4.098 -0.5231  0.0546  0.4686
 6638TIP3   OH219919   2.279   0.139   3.671 -0.3348 -0.4698  0.0661
 6638TIP3    H119920   2.345   0.098   3.728  0.3753 -0.0446 -0.4288
 6638TIP3    H219921   2.324   0.150   3.588 -0.0268  2.5140  0.5269
 6639TIP3   OH219922   4.600   1.962   2.512 -0.5417  0.0017  0.4113
 6639TIP3    H119923   4.616   1.884   2.459 -0.6574  0.5974 -0.5344
 6639TIP3    H219924   4.593   1.930   2.601 -0.2922 -1.0309  0.0720
 6640TIP3   OH219925   5.610   2.179   3.036  0.2067 -0.4214  0.5281
 6640TIP3    H119926   5.591   2.258   3.086 -0.0865 -0.0151 -0.2107
 6640TIP3    H219927   5.680   2.135   3.085  1.0937  0.8186  0.4198
   6.35846   5.99481   5.19167   0.00000   0.00000  -2.11949   0.00000  -2.11949  -2.99742
